<event>
12    1  0.2019083E-007  0.2624230E+04  0.7818608E-02  0.8360017E-01
         -2   -1    0    0    0  501 -0.00000000000E+00  0.00000000000E+00  0.70610253625E+03  0.70610253625E+03  0.00000000000E+00 0.  1.
          2   -1    0    0  501    0  0.00000000000E+00 -0.00000000000E+00 -0.24382378955E+04  0.24382378955E+04  0.00000000000E+00 0. -1.
         23    2    1    2    0    0  0.99108995691E+03  0.52863590014E+03 -0.43487847930E+03  0.12079650704E+04  0.91351529248E+02 0.  0.
        254    2    1    2    0    0 -0.99108995691E+03 -0.52863590014E+03 -0.12972568800E+04  0.19363753614E+04  0.89719502340E+03 0.  0.
        -24    2    4    4    0    0  0.68358100256E+02  0.13492640762E+03 -0.25100705386E+03  0.30431852555E+03  0.82019866893E+02 0.  0.
         24    2    4    4    0    0 -0.10594480572E+04 -0.66356230776E+03 -0.10462498261E+04  0.16320568359E+04  0.78903071522E+02 0.  0.
         13    1    3    3    0    0  0.72748386070E+03  0.34160790836E+03 -0.31568546351E+03  0.86347324366E+03  0.00000000000E+00 0. -1.
        -13    1    3    3    0    0  0.26360609620E+03  0.18702799178E+03 -0.11919301579E+03  0.34449182672E+03  0.00000000000E+00 0.  1.
          4    1    6    6  502    0 -0.80209807228E+03 -0.49748049840E+03 -0.74495753282E+03  0.12024183505E+04  0.00000000000E+00 0. -1.
          1    1    5    5  503    0  0.33215923676E+02  0.72644455308E+02 -0.58647373288E+02  0.99096058783E+02  0.00000000000E+00 0. -1.
         -2    1    5    5    0  503  0.35142176579E+02  0.62281952308E+02 -0.19235968057E+03  0.20522246677E+03  0.00000000000E+00 0.  1.
         -3    1    6    6    0  502 -0.25734998488E+03 -0.16608180936E+03 -0.30129229331E+03  0.42963848539E+03  0.00000000000E+00 0.  1.
<mgrwt>
<rscale>  0 0.26242301E+04</rscale>
<asrwt>0</asrwt>
<pdfrwt beam="1">  1        2 0.37511351E+00 0.26242301E+04</pdfrwt>
<pdfrwt beam="2">  1       -2 0.10863116E+00 0.26242301E+04</pdfrwt>
<totfact> 0.22590613E+00</totfact>
</mgrwt>
</event>
<event>
12    1  0.2019083E-007  0.1337603E+04  0.7818608E-02  0.9000266E-01
          1   -1    0    0  501    0  0.00000000000E+00  0.00000000000E+00  0.14442694595E+04  0.14442694595E+04  0.00000000000E+00 0. -1.
         -1   -1    0    0    0  501 -0.00000000000E+00 -0.00000000000E+00 -0.30970342154E+03  0.30970342154E+03  0.00000000000E+00 0.  1.
         23    2    1    2    0    0 -0.22206982134E+03  0.19422423302E+03  0.57621009560E+03  0.65348085924E+03  0.89337007376E+02 0.  0.
        254    2    1    2    0    0  0.22206982134E+03 -0.19422423302E+03  0.55835594232E+03  0.11004920218E+04  0.90126759255E+03 0.  0.
        -24    2    4    4    0    0  0.30916007891E+03 -0.38632027757E+03  0.67941561825E+03  0.84442456037E+03  0.81387619308E+02 0.  0.
         24    2    4    4    0    0 -0.87090257573E+02  0.19209604455E+03 -0.12105967593E+03  0.25606746139E+03  0.80184140249E+02 0.  0.
         11    1    3    3    0    0 -0.12038780194E+03  0.16025911684E+03  0.35554050444E+03  0.40814857305E+03  0.00000000000E+00 0. -1.
        -11    1    3    3    0    0 -0.10168201940E+03  0.33965116179E+02  0.22066959116E+03  0.24533228619E+03  0.00000000000E+00 0.  1.
          4    1    6    6  502    0 -0.82410553055E+02  0.15847346861E+03 -0.13005205660E+03  0.22094994214E+03  0.00000000000E+00 0. -1.
          3    1    5    5  503    0  0.21959287116E+03 -0.23847468499E+03  0.38806628162E+03  0.50565466810E+03  0.00000000000E+00 0. -1.
         -4    1    5    5    0  503  0.89567207754E+02 -0.14784559258E+03  0.29134933664E+03  0.33876989227E+03  0.00000000000E+00 0.  1.
         -3    1    6    6    0  502 -0.46797045185E+01  0.33622575947E+02  0.89923806703E+01  0.35117519244E+02  0.00000000000E+00 0.  1.
<mgrwt>
<rscale>  0 0.13376026E+04</rscale>
<asrwt>0</asrwt>
<pdfrwt beam="1">  1        1 0.22219530E+00 0.13376026E+04</pdfrwt>
<pdfrwt beam="2">  1       -1 0.47646681E-01 0.13376026E+04</pdfrwt>
<totfact> 0.30821389E+01</totfact>
</mgrwt>
</event>
<event>
12    1  0.2019083E-007  0.1274655E+04  0.7818608E-02  0.9049909E-01
         -2   -1    0    0    0  501 -0.00000000000E+00  0.00000000000E+00  0.35238745469E+03  0.35238745469E+03  0.00000000000E+00 0.  1.
          2   -1    0    0  501    0  0.00000000000E+00 -0.00000000000E+00 -0.11526706025E+04  0.11526706025E+04  0.00000000000E+00 0. -1.
         23    2    1    2    0    0  0.49352285873E+02 -0.15886300530E+03 -0.50835381168E+03  0.54434103732E+03  0.10104684304E+03 0.  0.
        254    2    1    2    0    0 -0.49352285873E+02  0.15886300530E+03 -0.29192933616E+03  0.96071701990E+03  0.90004519466E+03 0.  0.
        -24    2    4    4    0    0 -0.38542053413E+03  0.28968435240E+03 -0.32742066398E+03  0.58972424150E+03  0.90024317006E+02 0.  0.
         24    2    4    4    0    0  0.33606824825E+03 -0.13082134710E+03  0.35491327829E+02  0.37099277840E+03  0.79497892605E+02 0.  0.
         11    1    3    3    0    0  0.46439741926E+02 -0.95257157253E+02 -0.17209591031E+03  0.20210783751E+03  0.00000000000E+00 0.  1.
        -11    1    3    3    0    0  0.29125439466E+01 -0.63605848046E+02 -0.33625790137E+03  0.34223319981E+03  0.00000000000E+00 0. -1.
          4    1    6    6  502    0  0.30851864512E+03 -0.12317606994E+03  0.54527806624E+02  0.33664429341E+03  0.00000000000E+00 0. -1.
          3    1    5    5  503    0 -0.34097411126E+03  0.26314264872E+03 -0.25443920243E+03  0.50024664502E+03  0.00000000000E+00 0. -1.
         -4    1    5    5    0  503 -0.44446422872E+02  0.26541703683E+02 -0.72981461557E+02  0.89477596478E+02  0.00000000000E+00 0.  1.
         -3    1    6    6    0  502  0.27549603139E+02 -0.76452771610E+01 -0.19036478795E+02  0.34348484987E+02  0.00000000000E+00 0.  1.
<mgrwt>
<rscale>  0 0.12746555E+04</rscale>
<asrwt>0</asrwt>
<pdfrwt beam="1">  1        2 0.17733394E+00 0.12746555E+04</pdfrwt>
<pdfrwt beam="2">  1       -2 0.54213455E-01 0.12746555E+04</pdfrwt>
<totfact> 0.63613582E+01</totfact>
</mgrwt>
</event>
<event>
12    1  0.2019083E-007  0.2016177E+04  0.7818608E-02  0.8599095E-01
          2   -1    0    0  501    0  0.00000000000E+00  0.00000000000E+00  0.17289591723E+04  0.17289591723E+04  0.00000000000E+00 0. -1.
         -2   -1    0    0    0  501 -0.00000000000E+00 -0.00000000000E+00 -0.58777699664E+03  0.58777699664E+03  0.00000000000E+00 0.  1.
         23    2    1    2    0    0 -0.70930215082E+03  0.35739467221E+03  0.59945240803E+03  0.99942220453E+03  0.93064818892E+02 0.  0.
        254    2    1    2    0    0  0.70930215082E+03 -0.35739467221E+03  0.54172976759E+03  0.13173139644E+04  0.90055785310E+03 0.  0.
        -24    2    4    4    0    0 -0.17183891821E+03 -0.18274230328E+03  0.26688220020E+03  0.37462184469E+03  0.78689608709E+02 0.  0.
         24    2    4    4    0    0  0.88114106903E+03 -0.17465236893E+03  0.27484756739E+03  0.94269211969E+03  0.78830284272E+02 0.  0.
         11    1    3    3    0    0 -0.40099382267E+03  0.15337674917E+03  0.30175577126E+03  0.52476377399E+03  0.00000000000E+00 0. -1.
        -11    1    3    3    0    0 -0.30830832815E+03  0.20401792304E+03  0.29769663678E+03  0.47465843053E+03  0.00000000000E+00 0.  1.
          2    1    6    6  502    0  0.23082370769E+02 -0.69327157872E+01  0.21836691502E+02  0.32522292113E+02  0.00000000000E+00 0. -1.
          3    1    5    5  503    0 -0.11757370367E+03 -0.14677648385E+03  0.14890403894E+03  0.23987356007E+03  0.00000000000E+00 0. -1.
         -4    1    5    5    0  503 -0.54265214535E+02 -0.35965819434E+02  0.11797816125E+03  0.13474828462E+03  0.00000000000E+00 0.  1.
         -1    1    6    6    0  502  0.85805869826E+03 -0.16771965314E+03  0.25301087589E+03  0.91016982758E+03  0.00000000000E+00 0.  1.
<mgrwt>
<rscale>  0 0.20161770E+04</rscale>
<asrwt>0</asrwt>
<pdfrwt beam="1">  1        2 0.26599372E+00 0.20161770E+04</pdfrwt>
<pdfrwt beam="2">  1       -2 0.90427231E-01 0.20161770E+04</pdfrwt>
<totfact> 0.91650135E+00</totfact>
</mgrwt>
</event>
<event>
12    1  0.2019083E-007  0.1592413E+04  0.7818608E-02  0.8825223E-01
         -2   -1    0    0    0  501 -0.00000000000E+00  0.00000000000E+00  0.11325267972E+04  0.11325267972E+04  0.00000000000E+00 0. -1.
          2   -1    0    0  501    0  0.00000000000E+00 -0.00000000000E+00 -0.55976107491E+03  0.55976107491E+03  0.00000000000E+00 0.  1.
         23    2    1    2    0    0 -0.24753166358E+03 -0.16142316606E+03 -0.27992024887E+03  0.41742506702E+03  0.92514743844E+02 0.  0.
        254    2    1    2    0    0  0.24753166358E+03  0.16142316606E+03  0.85268597115E+03  0.12748628051E+04  0.90048456032E+03 0.  0.
        -24    2    4    4    0    0  0.18996181703E+03 -0.33011595755E+03  0.59765110062E+03  0.71271009429E+03  0.75543385438E+02 0.  0.
         24    2    4    4    0    0  0.57569846553E+02  0.49153912361E+03  0.25503487053E+03  0.56215271079E+03  0.77768166897E+02 0.  0.
         13    1    3    3    0    0 -0.71569270848E+02 -0.77087350769E+02 -0.51851515152E+02  0.11727403720E+03  0.00000000000E+00 0. -1.
        -13    1    3    3    0    0 -0.17596239273E+03 -0.84335815294E+02 -0.22806873372E+03  0.30015102981E+03  0.00000000000E+00 0.  1.
          2    1    6    6  502    0  0.14176018698E+02  0.27973216101E+03  0.10563252052E+03  0.29934807633E+03  0.00000000000E+00 0. -1.
          1    1    5    5  503    0  0.13919827873E+03 -0.16899458426E+03  0.35368911576E+03  0.41597033659E+03  0.00000000000E+00 0. -1.
         -2    1    5    5    0  503  0.50763538299E+02 -0.16112137329E+03  0.24396198485E+03  0.29673975771E+03  0.00000000000E+00 0.  1.
         -1    1    6    6    0  502  0.43393827854E+02  0.21180696260E+03  0.14940235002E+03  0.26280463446E+03  0.00000000000E+00 0.  1.
<mgrwt>
<rscale>  0 0.15924125E+04</rscale>
<asrwt>0</asrwt>
<pdfrwt beam="1">  1        2 0.86117089E-01 0.15924125E+04</pdfrwt>
<pdfrwt beam="2">  1       -2 0.17423489E+00 0.15924125E+04</pdfrwt>
<totfact> 0.10279978E+01</totfact>
</mgrwt>
</event>
<event>
12    1  0.2019083E-007  0.2647475E+04  0.7818608E-02  0.8352252E-01
          1   -1    0    0  501    0  0.00000000000E+00  0.00000000000E+00  0.10086938069E+04  0.10086938069E+04  0.00000000000E+00 0. -1.
         -1   -1    0    0    0  501 -0.00000000000E+00 -0.00000000000E+00 -0.17371779926E+04  0.17371779926E+04  0.00000000000E+00 0.  1.
         23    2    1    2    0    0  0.10782826197E+04  0.90467727400E+02  0.13068668758E+03  0.10937705671E+04  0.91527184707E+02 0.  0.
        254    2    1    2    0    0 -0.10782826197E+04 -0.90467727400E+02 -0.85917087326E+03  0.16521012324E+04  0.90575166298E+03 0.  0.
        -24    2    4    4    0    0 -0.85703499877E+03  0.33198791538E+03 -0.49058367271E+03  0.10449676822E+04  0.80994764851E+02 0.  0.
         24    2    4    4    0    0 -0.22124762090E+03 -0.42245564278E+03 -0.36858720055E+03  0.60713355014E+03  0.73043435115E+02 0.  0.
         11    1    3    3    0    0  0.19057143951E+03 -0.10169985701E+02  0.46425348611E+02  0.19640828690E+03  0.00000000000E+00 0. -1.
        -11    1    3    3    0    0  0.88771118016E+03  0.10063771310E+03  0.84261338966E+02  0.89736228020E+03  0.00000000000E+00 0.  1.
          4    1    6    6  502    0 -0.16089193686E+03 -0.23782877381E+03 -0.19991224536E+03  0.34987661660E+03  0.00000000000E+00 0. -1.
          1    1    5    5  503    0 -0.18529654692E+03  0.36889411864E+02 -0.97813123491E+02  0.21275113662E+03  0.00000000000E+00 0. -1.
         -2    1    5    5    0  503 -0.67173845186E+03  0.29509850352E+03 -0.39277054921E+03  0.83221654562E+03  0.00000000000E+00 0.  1.
         -3    1    6    6    0  502 -0.60355684047E+02 -0.18462686897E+03 -0.16867495519E+03  0.25725693353E+03  0.00000000000E+00 0.  1.
<mgrwt>
<rscale>  0 0.26474748E+04</rscale>
<asrwt>0</asrwt>
<pdfrwt beam="1">  1        1 0.15518366E+00 0.26474748E+04</pdfrwt>
<pdfrwt beam="2">  1       -1 0.26725815E+00 0.26474748E+04</pdfrwt>
<totfact> 0.70329259E-01</totfact>
</mgrwt>
</event>
<event>
12    1  0.2019083E-007  0.1229614E+04  0.7818608E-02  0.9087323E-01
         -2   -1    0    0    0  501 -0.00000000000E+00  0.00000000000E+00  0.58189849710E+03  0.58189849710E+03  0.00000000000E+00 0.  1.
          2   -1    0    0  501    0  0.00000000000E+00 -0.00000000000E+00 -0.64957624464E+03  0.64957624464E+03  0.00000000000E+00 0. -1.
         23    2    1    2    0    0 -0.20891688634E+03  0.11555241101E+03  0.11646675390E+03  0.28052266562E+03  0.90165603615E+02 0.  0.
        254    2    1    2    0    0  0.20891688634E+03 -0.11555241101E+03 -0.18414450144E+03  0.95095207612E+03  0.90188803550E+03 0.  0.
        -24    2    4    4    0    0 -0.28192065790E+03 -0.44009886521E+02  0.16443884464E+03  0.33950452978E+03  0.82504937146E+02 0.  0.
         24    2    4    4    0    0  0.49083754424E+03 -0.71542524489E+02 -0.34858334608E+03  0.61144754633E+03  0.79485376675E+02 0.  0.
         11    1    3    3    0    0 -0.15292207145E+03  0.12604077845E+03  0.87830396582E+02  0.21676165789E+03  0.00000000000E+00 0. -1.
        -11    1    3    3    0    0 -0.55994814888E+02 -0.10488367441E+02  0.28636357316E+02  0.63761007726E+02  0.00000000000E+00 0.  1.
          2    1    6    6  502    0  0.31894392553E+02 -0.24248756699E+02 -0.18349363009E+02  0.44067602619E+02  0.00000000000E+00 0. -1.
          1    1    5    5  503    0 -0.18938344921E+02  0.18319560909E+02  0.97222882055E+01  0.28085407389E+02  0.00000000000E+00 0. -1.
         -2    1    5    5    0  503 -0.26298231298E+03 -0.62329447430E+02  0.15471655644E+03  0.31141912240E+03  0.00000000000E+00 0.  1.
         -1    1    6    6    0  502  0.45894315169E+03 -0.47293767790E+02 -0.33023398307E+03  0.56737994371E+03  0.00000000000E+00 0.  1.
<mgrwt>
<rscale>  0 0.12296137E+04</rscale>
<asrwt>0</asrwt>
<pdfrwt beam="1">  1        2 0.99934806E-01 0.12296137E+04</pdfrwt>
<pdfrwt beam="2">  1       -2 0.89522846E-01 0.12296137E+04</pdfrwt>
<totfact> 0.47432454E+01</totfact>
</mgrwt>
</event>
<event>
12    1  0.2019083E-007  0.2180959E+04  0.7818608E-02  0.8526396E-01
         -1   -1    0    0    0  501 -0.00000000000E+00  0.00000000000E+00  0.10693869928E+04  0.10693869928E+04  0.00000000000E+00 0.  1.
          1   -1    0    0  501    0  0.00000000000E+00 -0.00000000000E+00 -0.11119877157E+04  0.11119877157E+04  0.00000000000E+00 0. -1.
         23    2    1    2    0    0  0.84162242299E+03  0.29739464709E+03  0.11376976995E+03  0.90438577786E+03  0.90543887953E+02 0.  0.
        254    2    1    2    0    0 -0.84162242299E+03 -0.29739464709E+03 -0.15637049285E+03  0.12769889306E+04  0.89970946354E+03 0.  0.
        -24    2    4    4    0    0 -0.96066422140E+03 -0.27385789291E+03 -0.32608956812E+03  0.10538758256E+04  0.80286721574E+02 0.  0.
         24    2    4    4    0    0  0.11904179841E+03 -0.23536754178E+02  0.16971907527E+03  0.22311310493E+03  0.79056717083E+02 0.  0.
         11    1    3    3    0    0  0.57407292803E+03  0.24373279846E+03  0.63240075337E+02  0.62686897424E+03  0.00000000000E+00 0. -1.
        -11    1    3    3    0    0  0.26754949496E+03  0.53661848629E+02  0.50529694611E+02  0.27751680362E+03  0.00000000000E+00 0.  1.
          4    1    6    6  502    0  0.99725703713E+02 -0.49963231375E+02  0.12269531025E+03  0.16581821259E+03  0.00000000000E+00 0. -1.
          3    1    5    5  503    0 -0.15661174206E+03 -0.18035989778E+02 -0.36720332513E+02  0.16186697470E+03  0.00000000000E+00 0. -1.
         -4    1    5    5    0  503 -0.80405247933E+03 -0.25582190313E+03 -0.28936923561E+03  0.89200885094E+03  0.00000000000E+00 0.  1.
         -3    1    6    6    0  502  0.19316094695E+02  0.26426477197E+02  0.47023765018E+02  0.57294892336E+02  0.00000000000E+00 0.  1.
<mgrwt>
<rscale>  0 0.21809587E+04</rscale>
<asrwt>0</asrwt>
<pdfrwt beam="1">  1        1 0.17107503E+00 0.21809587E+04</pdfrwt>
<pdfrwt beam="2">  1       -1 0.16452108E+00 0.21809587E+04</pdfrwt>
<totfact> 0.30644682E+00</totfact>
</mgrwt>
</event>
<event>
12    1  0.2019083E-007  0.2665700E+04  0.7818608E-02  0.8346221E-01
         -1   -1    0    0    0  501 -0.00000000000E+00  0.00000000000E+00  0.71315366725E+03  0.71315366725E+03  0.00000000000E+00 0.  1.
          1   -1    0    0  501    0  0.00000000000E+00 -0.00000000000E+00 -0.24910320637E+04  0.24910320637E+04  0.00000000000E+00 0. -1.
         23    2    1    2    0    0 -0.21791627745E+03  0.11335768621E+04 -0.10992250477E+04  0.15965152370E+04  0.89895441045E+02 0.  0.
        254    2    1    2    0    0  0.21791627745E+03 -0.11335768621E+04 -0.67865334875E+03  0.16076704939E+04  0.88969098167E+03 0.  0.
        -24    2    4    4    0    0  0.25227019974E+02 -0.11987585106E+04 -0.42972593704E+03  0.12762020823E+04  0.79806044528E+02 0.  0.
         24    2    4    4    0    0  0.19268925748E+03  0.65181648442E+02 -0.24892741171E+03  0.33146841159E+03  0.80800088733E+02 0.  0.
         11    1    3    3    0    0 -0.11136499125E+03  0.36677357050E+03 -0.38257586337E+03  0.54156191200E+03  0.00000000000E+00 0. -1.
        -11    1    3    3    0    0 -0.10655128620E+03  0.76680329161E+03 -0.71664918428E+03  0.10549533250E+04  0.00000000000E+00 0.  1.
          4    1    6    6  502    0  0.45294039761E+02  0.51600634990E+02 -0.57963896999E+02  0.89855377827E+02  0.00000000000E+00 0. -1.
          3    1    5    5  503    0  0.11488160440E+02 -0.11476849190E+04 -0.39948761814E+03  0.12152789837E+04  0.00000000000E+00 0. -1.
         -4    1    5    5    0  503  0.13738859534E+02 -0.51073591549E+02 -0.30238318899E+02  0.60923098615E+02  0.00000000000E+00 0.  1.
         -3    1    6    6    0  502  0.14739521772E+03  0.13581013452E+02 -0.19096351471E+03  0.24161303376E+03  0.00000000000E+00 0.  1.
<mgrwt>
<rscale>  0 0.26656996E+04</rscale>
<asrwt>0</asrwt>
<pdfrwt beam="1">  1        1 0.38323569E+00 0.26656996E+04</pdfrwt>
<pdfrwt beam="2">  1       -1 0.10971595E+00 0.26656996E+04</pdfrwt>
<totfact> 0.92374800E-01</totfact>
</mgrwt>
</event>
<event>
12    1  0.2019083E-007  0.1854828E+04  0.7818608E-02  0.8677674E-01
         -1   -1    0    0    0  501 -0.00000000000E+00  0.00000000000E+00  0.53667543278E+03  0.53667543278E+03  0.00000000000E+00 0.  1.
          1   -1    0    0  501    0  0.00000000000E+00 -0.00000000000E+00 -0.16026388492E+04  0.16026388492E+04  0.00000000000E+00 0. -1.
         23    2    1    2    0    0  0.48476074898E+03 -0.50470002469E+03 -0.29956427303E+03  0.76716311183E+03  0.95317300657E+02 0.  0.
        254    2    1    2    0    0 -0.48476074898E+03  0.50470002469E+03 -0.76639914341E+03  0.13721511702E+04  0.89761689383E+03 0.  0.
        -24    2    4    4    0    0  0.22310094807E+03 -0.17870479777E+02 -0.26716796346E+03  0.35743045704E+03  0.79274358044E+02 0.  0.
         24    2    4    4    0    0 -0.70786169705E+03  0.52257050447E+03 -0.49923117996E+03  0.10147207131E+04  0.79235347672E+02 0.  0.
         13    1    3    3    0    0  0.66332288265E+02 -0.10481021295E+03 -0.82716080453E+02  0.14908756880E+03  0.00000000000E+00 0. -1.
        -13    1    3    3    0    0  0.41842846071E+03 -0.39988981174E+03 -0.21684819258E+03  0.61807554303E+03  0.00000000000E+00 0.  1.
          4    1    6    6  502    0 -0.30516532789E+03  0.18148633766E+03 -0.18206964077E+03  0.39901443858E+03  0.00000000000E+00 0. -1.
          3    1    5    5  503    0  0.18275988486E+03  0.17700898580E+02 -0.20383419937E+03  0.27434080658E+03  0.00000000000E+00 0. -1.
         -2    1    5    5    0  503  0.40341063214E+02 -0.35571378357E+02 -0.63333764089E+02  0.83089650457E+02  0.00000000000E+00 0.  1.
         -3    1    6    6    0  502 -0.40269636916E+03  0.34108416681E+03 -0.31716153918E+03  0.61570627455E+03  0.00000000000E+00 0.  1.
<mgrwt>
<rscale>  0 0.18548282E+04</rscale>
<asrwt>0</asrwt>
<pdfrwt beam="1">  1        1 0.24655982E+00 0.18548282E+04</pdfrwt>
<pdfrwt beam="2">  1       -1 0.82565452E-01 0.18548282E+04</pdfrwt>
<totfact> 0.76081903E+00</totfact>
</mgrwt>
</event>
<event>
12    1  0.2019083E-007  0.3073894E+04  0.7818608E-02  0.8222939E-01
         -2   -1    0    0    0  501 -0.00000000000E+00  0.00000000000E+00  0.17077014255E+04  0.17077014255E+04  0.00000000000E+00 0. -1.
          2   -1    0    0  501    0  0.00000000000E+00 -0.00000000000E+00 -0.13832667077E+04  0.13832667077E+04  0.00000000000E+00 0.  1.
         23    2    1    2    0    0  0.44653649750E+03  0.12998437456E+04 -0.13643661274E+03  0.13842031784E+04  0.91732672264E+02 0.  0.
        254    2    1    2    0    0 -0.44653649750E+03 -0.12998437456E+04  0.46087133055E+03  0.17067649548E+04  0.90091931997E+03 0.  0.
        -24    2    4    4    0    0 -0.37178286561E+03 -0.12072881055E+04  0.68565272006E+03  0.14394844840E+04  0.78923116363E+02 0.  0.
         24    2    4    4    0    0 -0.74753631889E+02 -0.92555640100E+02 -0.22478138951E+03  0.26728047082E+03  0.82204166669E+02 0.  0.
         11    1    3    3    0    0  0.12760060690E+03  0.43749411652E+03 -0.82950914236E+02  0.46321039609E+03  0.00000000000E+00 0.  1.
        -11    1    3    3    0    0  0.31893589060E+03  0.86234962908E+03 -0.53485698504E+02  0.92099278229E+03  0.00000000000E+00 0. -1.
          2    1    6    6  502    0 -0.62219378390E+02 -0.38463061506E+02 -0.64044464046E+02  0.97223204651E+02  0.00000000000E+00 0. -1.
          1    1    5    5  503    0 -0.83120919814E+02 -0.25728079066E+03  0.11089625752E+03  0.29223359233E+03  0.00000000000E+00 0. -1.
         -2    1    5    5    0  503 -0.28866194579E+03 -0.95000731484E+03  0.57475646254E+03  0.11472508917E+04  0.00000000000E+00 0.  1.
         -1    1    6    6    0  502 -0.12534253498E+02 -0.54092578594E+02 -0.16073692547E+03  0.17005726617E+03  0.00000000000E+00 0.  1.
<mgrwt>
<rscale>  0 0.30738943E+04</rscale>
<asrwt>0</asrwt>
<pdfrwt beam="1">  1        2 0.21281026E+00 0.30738943E+04</pdfrwt>
<pdfrwt beam="2">  1       -2 0.26272330E+00 0.30738943E+04</pdfrwt>
<totfact> 0.67585708E-01</totfact>
</mgrwt>
</event>
<event>
12    1  0.2019083E-007  0.1940732E+04  0.7818608E-02  0.8634843E-01
         -1   -1    0    0    0  501 -0.00000000000E+00  0.00000000000E+00  0.19089275943E+04  0.19089275943E+04  0.00000000000E+00 0.  1.
          1   -1    0    0  501    0  0.00000000000E+00 -0.00000000000E+00 -0.49326655900E+03  0.49326655900E+03  0.00000000000E+00 0. -1.
         23    2    1    2    0    0 -0.69346371361E+03  0.11740596552E+03  0.17378454618E+03  0.73045440806E+03  0.93201346202E+02 0.  0.
        254    2    1    2    0    0  0.69346371361E+03 -0.11740596552E+03  0.12418764891E+04  0.16717397452E+04  0.87050587517E+03 0.  0.
        -24    2    4    4    0    0  0.34592796625E+03 -0.39868840304E+03  0.26837655526E+03  0.59752065224E+03  0.79914666322E+02 0.  0.
         24    2    4    4    0    0  0.34753574736E+03  0.28128243752E+03  0.97349993383E+03  0.10742190930E+04  0.79646928090E+02 0.  0.
         11    1    3    3    0    0 -0.35195035418E+03  0.64617380124E+02  0.40682886211E+02  0.36013824408E+03  0.00000000000E+00 0. -1.
        -11    1    3    3    0    0 -0.34151335943E+03  0.52788585391E+02  0.13310165997E+03  0.37031616398E+03  0.00000000000E+00 0.  1.
          2    1    6    6  502    0  0.10698717638E+03  0.42347078606E+02  0.24131676103E+03  0.26734492725E+03  0.00000000000E+00 0. -1.
          1    1    5    5  503    0  0.76244073458E+02 -0.44559968553E+02  0.53415974073E+02  0.10320860343E+03  0.00000000000E+00 0. -1.
         -2    1    5    5    0  503  0.26968389279E+03 -0.35412843449E+03  0.21496058119E+03  0.49431204882E+03  0.00000000000E+00 0.  1.
         -1    1    6    6    0  502  0.24054857097E+03  0.23893535892E+03  0.73218317281E+03  0.80687416571E+03  0.00000000000E+00 0.  1.
<mgrwt>
<rscale>  0 0.19407320E+04</rscale>
<asrwt>0</asrwt>
<pdfrwt beam="1">  1        1 0.75887164E-01 0.19407320E+04</pdfrwt>
<pdfrwt beam="2">  1       -1 0.29368116E+00 0.19407320E+04</pdfrwt>
<totfact> 0.15291363E+00</totfact>
</mgrwt>
</event>
<event>
12    1  0.2019083E-007  0.1667044E+04  0.7818608E-02  0.8780387E-01
         -2   -1    0    0    0  501 -0.00000000000E+00  0.00000000000E+00  0.31745530915E+03  0.31745530915E+03  0.00000000000E+00 0.  1.
          2   -1    0    0  501    0  0.00000000000E+00 -0.00000000000E+00 -0.21885240003E+04  0.21885240003E+04  0.00000000000E+00 0. -1.
         23    2    1    2    0    0 -0.25155973778E+03 -0.41431496676E+03 -0.11606069813E+04  0.12614142418E+04  0.96011099195E+02 0.  0.
        254    2    1    2    0    0  0.25155973778E+03  0.41431496676E+03 -0.71046170991E+03  0.12445650676E+04  0.89958166556E+03 0.  0.
        -24    2    4    4    0    0  0.15620159879E+03  0.31057283964E+03 -0.91607802117E+03  0.98304498398E+03  0.79524030813E+02 0.  0.
         24    2    4    4    0    0  0.95358138991E+02  0.10374212712E+03  0.20561631126E+03  0.26152008366E+03  0.79114367157E+02 0.  0.
         11    1    3    3    0    0 -0.15865367850E+03 -0.25936471708E+03 -0.84107473254E+03  0.89434207767E+03  0.00000000000E+00 0. -1.
        -11    1    3    3    0    0 -0.92906059283E+02 -0.15495024968E+03 -0.31953224874E+03  0.36707216418E+03  0.00000000000E+00 0.  1.
          4    1    6    6  502    0  0.94365454328E+02  0.10463244742E+03  0.21224631845E+03  0.25475731142E+03  0.00000000000E+00 0. -1.
          3    1    5    5  503    0  0.13101159721E+03  0.29820203294E+03 -0.80315630291E+03  0.86668825881E+03  0.00000000000E+00 0. -1.
         -4    1    5    5    0  503  0.25190001577E+02  0.12370806691E+02 -0.11292171826E+03  0.11635672517E+03  0.00000000000E+00 0.  1.
         -3    1    6    6    0  502  0.99268466375E+00 -0.89032029346E+00 -0.66300071936E+01  0.67627722462E+01  0.00000000000E+00 0.  1.
<mgrwt>
<rscale>  0 0.16670436E+04</rscale>
<asrwt>0</asrwt>
<pdfrwt beam="1">  1        2 0.33669601E+00 0.16670436E+04</pdfrwt>
<pdfrwt beam="2">  1       -2 0.48839277E-01 0.16670436E+04</pdfrwt>
<totfact> 0.19860716E+01</totfact>
</mgrwt>
</event>
<event>
12    1  0.3052049E-007  0.2877051E+04  0.7818608E-02  0.8279738E-01
          1   -1    0    0  501    0  0.00000000000E+00  0.00000000000E+00  0.23127941184E+04  0.23127941184E+04  0.00000000000E+00 0. -1.
         -1   -1    0    0    0  501 -0.00000000000E+00 -0.00000000000E+00 -0.89474269696E+03  0.89474269696E+03  0.00000000000E+00 0.  1.
         23    2    1    2    0    0 -0.69809593763E+02 -0.12939369944E+04  0.62038258797E+03  0.14394908431E+04  0.90072233530E+02 0.  0.
        254    2    1    2    0    0  0.69809593763E+02  0.12939369944E+04  0.79766883348E+03  0.17680459722E+04  0.90031364938E+03 0.  0.
        -24    2    4    4    0    0 -0.19341754848E+03  0.11509305454E+04  0.85982784186E+03  0.14517425962E+04  0.78747569741E+02 0.  0.
         24    2    4    4    0    0  0.26322714225E+03  0.14300644899E+03 -0.62159008384E+02  0.31630337600E+03  0.80278954141E+02 0.  0.
         13    1    3    3    0    0 -0.37402511551E+02 -0.10025423336E+04  0.44194157469E+03  0.10962675011E+04  0.00000000000E+00 0.  1.
        -13    1    3    3    0    0 -0.32407082212E+02 -0.29139466080E+03  0.17844101328E+03  0.34322334207E+03  0.00000000000E+00 0. -1.
          4    1    6    6  502    0  0.25059835039E+03  0.14691748152E+03 -0.72637764368E+02  0.29943367280E+03  0.00000000000E+00 0. -1.
          1    1    5    5  503    0 -0.14996439249E+03  0.95891560687E+03  0.74770890823E+03  0.12251845051E+04  0.00000000000E+00 0. -1.
         -2    1    5    5    0  503 -0.43453155994E+02  0.19201493851E+03  0.11211893363E+03  0.22655809112E+03  0.00000000000E+00 0.  1.
         -3    1    6    6    0  502  0.12628791859E+02 -0.39110325253E+01  0.10478755984E+02  0.16869703204E+02  0.00000000000E+00 0.  1.
<mgrwt>
<rscale>  0 0.28770510E+04</rscale>
<asrwt>0</asrwt>
<pdfrwt beam="1">  1        1 0.35581448E+00 0.28770510E+04</pdfrwt>
<pdfrwt beam="2">  1       -1 0.13765272E+00 0.28770510E+04</pdfrwt>
<totfact> 0.68699259E-01</totfact>
</mgrwt>
</event>
<event>
12    1  0.2019083E-007  0.2937655E+04  0.7818608E-02  0.8261761E-01
          2   -1    0    0  501    0  0.00000000000E+00  0.00000000000E+00  0.17946568892E+04  0.17946568892E+04  0.00000000000E+00 0. -1.
         -2   -1    0    0    0  501 -0.00000000000E+00 -0.00000000000E+00 -0.12021542149E+04  0.12021542149E+04  0.00000000000E+00 0.  1.
         23    2    1    2    0    0 -0.12294092416E+04  0.30489101130E+03  0.67660657334E+03  0.14401976413E+04  0.10939460173E+03 0.  0.
        254    2    1    2    0    0  0.12294092416E+04 -0.30489101130E+03 -0.84103899090E+02  0.15566134628E+04  0.90086979902E+03 0.  0.
        -24    2    4    4    0    0  0.11800886687E+04 -0.53758381851E+03 -0.11020691199E+03  0.13042275828E+04  0.85196221356E+02 0.  0.
         24    2    4    4    0    0  0.49320572811E+02  0.23269280721E+03  0.26103012900E+02  0.25238588007E+03  0.80242156912E+02 0.  0.
         13    1    3    3    0    0 -0.42210019539E+03  0.10416045927E+03  0.29187945296E+03  0.52365216632E+03  0.00000000000E+00 0. -1.
        -13    1    3    3    0    0 -0.80730904617E+03  0.20073055203E+03  0.38472712038E+03  0.91654547497E+03  0.00000000000E+00 0.  1.
          2    1    6    6  502    0  0.13919187904E+02  0.23829566973E+01  0.12689405785E+02  0.18985344181E+02  0.00000000000E+00 0. -1.
          3    1    5    5  503    0  0.48826876988E+03 -0.26874525887E+03 -0.48341862562E+02  0.55943484114E+03  0.00000000000E+00 0. -1.
         -4    1    5    5    0  503  0.69181989887E+03 -0.26883855964E+03 -0.61865049428E+02  0.74479274162E+03  0.00000000000E+00 0.  1.
         -1    1    6    6    0  502  0.35401384907E+02  0.23030985051E+03  0.13413607115E+02  0.23340053589E+03  0.00000000000E+00 0.  1.
<mgrwt>
<rscale>  0 0.29376551E+04</rscale>
<asrwt>0</asrwt>
<pdfrwt beam="1">  1        2 0.27610106E+00 0.29376551E+04</pdfrwt>
<pdfrwt beam="2">  1       -2 0.18494680E+00 0.29376551E+04</pdfrwt>
<totfact> 0.12536823E+00</totfact>
</mgrwt>
</event>
<event>
12    1  0.2019083E-007  0.3006010E+04  0.7818608E-02  0.8242017E-01
         -1   -1    0    0    0  501 -0.00000000000E+00  0.00000000000E+00  0.13754956511E+04  0.13754956511E+04  0.00000000000E+00 0.  1.
          1   -1    0    0  501    0  0.00000000000E+00 -0.00000000000E+00 -0.16423347145E+04  0.16423347145E+04  0.00000000000E+00 0. -1.
         23    2    1    2    0    0 -0.11132914686E+04  0.52144768807E+03 -0.72077538904E+03  0.14280413466E+04  0.91974673061E+02 0.  0.
        254    2    1    2    0    0  0.11132914686E+04 -0.52144768807E+03  0.45393632567E+03  0.15897890190E+04  0.90002519496E+03 0.  0.
        -24    2    4    4    0    0 -0.46512248796E+02  0.14478122336E+03  0.10450747358E+03  0.20511497755E+03  0.89584318131E+02 0.  0.
         24    2    4    4    0    0  0.11598037174E+04 -0.66622891143E+03  0.34942885209E+03  0.13846740414E+04  0.78841949110E+02 0.  0.
         13    1    3    3    0    0 -0.77927251590E+03  0.39612127535E+03 -0.47576984423E+03  0.99525607936E+03  0.00000000000E+00 0. -1.
        -13    1    3    3    0    0 -0.33401895274E+03  0.12532641272E+03 -0.24500554481E+03  0.43278526719E+03  0.00000000000E+00 0.  1.
          2    1    6    6  502    0  0.15160963729E+03 -0.80267121272E+02  0.71841842136E+02  0.18598264209E+03  0.00000000000E+00 0. -1.
          3    1    5    5  503    0  0.32944472453E+01  0.88057123821E+02  0.94093479631E+02  0.12891273540E+03  0.00000000000E+00 0. -1.
         -4    1    5    5    0  503 -0.49806696042E+02  0.56724099540E+02  0.10413993949E+02  0.76202242153E+02  0.00000000000E+00 0.  1.
         -1    1    6    6    0  502  0.10081940801E+04 -0.58596179016E+03  0.27758700995E+03  0.11986913993E+04  0.00000000000E+00 0.  1.
<mgrwt>
<rscale>  0 0.30060102E+04</rscale>
<asrwt>0</asrwt>
<pdfrwt beam="1">  1        1 0.25266688E+00 0.30060102E+04</pdfrwt>
<pdfrwt beam="2">  1       -1 0.21161472E+00 0.30060102E+04</pdfrwt>
<totfact> 0.55653786E-01</totfact>
</mgrwt>
</event>
<event>
12    1  0.2019083E-007  0.3222070E+04  0.7818608E-02  0.8183013E-01
          1   -1    0    0  501    0  0.00000000000E+00  0.00000000000E+00  0.21217210625E+04  0.21217210625E+04  0.00000000000E+00 0. -1.
         -1   -1    0    0    0  501 -0.00000000000E+00 -0.00000000000E+00 -0.12232681745E+04  0.12232681745E+04  0.00000000000E+00 0.  1.
         23    2    1    2    0    0 -0.11552024566E+04 -0.58619956188E+03  0.11628590816E+04  0.17431122274E+04  0.89868523690E+02 0.  0.
        254    2    1    2    0    0  0.11552024566E+04  0.58619956188E+03 -0.26440619355E+03  0.16018770097E+04  0.90442063049E+03 0.  0.
        -24    2    4    4    0    0  0.33066747689E+03  0.13803117186E+03  0.32612863511E+03  0.49028399586E+03  0.74999501817E+02 0.  0.
         24    2    4    4    0    0  0.82453497969E+03  0.44816839003E+03 -0.59053482866E+03  0.11115930138E+04  0.78707089499E+02 0.  0.
         11    1    3    3    0    0 -0.62882375074E+03 -0.26906779441E+03  0.61899606428E+03  0.92248193212E+03  0.00000000000E+00 0. -1.
        -11    1    3    3    0    0 -0.52637870584E+03 -0.31713176748E+03  0.54386301729E+03  0.82063029525E+03  0.00000000000E+00 0.  1.
          2    1    6    6  502    0  0.14419487286E+03  0.59349016676E+02 -0.12735526863E+03  0.20133015568E+03  0.00000000000E+00 0. -1.
          1    1    5    5  503    0  0.18411537498E+03  0.11666924764E+03  0.19191557886E+03  0.29041655266E+03  0.00000000000E+00 0. -1.
         -2    1    5    5    0  503  0.14655210191E+03  0.21361924215E+02  0.13421305625E+03  0.19986744319E+03  0.00000000000E+00 0.  1.
         -1    1    6    6    0  502  0.68034010684E+03  0.38881937335E+03 -0.46317956003E+03  0.91026285813E+03  0.00000000000E+00 0.  1.
<mgrwt>
<rscale>  0 0.32220700E+04</rscale>
<asrwt>0</asrwt>
<pdfrwt beam="1">  1        1 0.32641863E+00 0.32220700E+04</pdfrwt>
<pdfrwt beam="2">  1       -1 0.18819510E+00 0.32220700E+04</pdfrwt>
<totfact> 0.37425148E-01</totfact>
</mgrwt>
</event>
<event>
12    1  0.2019083E-007  0.4270970E+04  0.7818608E-02  0.7952008E-01
         -2   -1    0    0    0  501 -0.00000000000E+00  0.00000000000E+00  0.12489081105E+04  0.12489081105E+04  0.00000000000E+00 0.  1.
          2   -1    0    0  501    0  0.00000000000E+00 -0.00000000000E+00 -0.36514262166E+04  0.36514262166E+04  0.00000000000E+00 0. -1.
         23    2    1    2    0    0  0.97735627516E+03 -0.16586510990E+04 -0.19213630182E+04  0.27214800625E+04  0.92027852641E+02 0.  0.
        254    2    1    2    0    0 -0.97735627516E+03  0.16586510990E+04 -0.48115508794E+03  0.21788542647E+04  0.89974825982E+03 0.  0.
        -24    2    4    4    0    0 -0.65503146015E+03  0.72338485477E+03 -0.64577395679E+03  0.11728641968E+04  0.78959224069E+02 0.  0.
         24    2    4    4    0    0 -0.32232481501E+03  0.93526624427E+03  0.16461886885E+03  0.10059900678E+04  0.79375125405E+02 0.  0.
         13    1    3    3    0    0  0.69439356166E+03 -0.12504563796E+04 -0.14022025299E+04  0.20029966327E+04  0.00000000000E+00 0. -1.
        -13    1    3    3    0    0  0.28296271350E+03 -0.40819471945E+03 -0.51916048833E+03  0.71848342978E+03  0.00000000000E+00 0.  1.
          2    1    6    6  502    0 -0.94766630959E+02  0.39170195655E+03  0.75513902757E+02  0.41001644676E+03  0.00000000000E+00 0. -1.
          3    1    5    5  503    0 -0.35003046523E+03  0.36024591655E+03 -0.28984073941E+03  0.57991904712E+03  0.00000000000E+00 0. -1.
         -4    1    5    5    0  503 -0.30500099491E+03  0.36313893822E+03 -0.35593321738E+03  0.59294514973E+03  0.00000000000E+00 0.  1.
         -1    1    6    6    0  502 -0.22755818405E+03  0.54356428772E+03  0.89104966092E+02  0.59597362106E+03  0.00000000000E+00 0.  1.
<mgrwt>
<rscale>  0 0.42709698E+04</rscale>
<asrwt>0</asrwt>
<pdfrwt beam="1">  1        2 0.56175788E+00 0.42709698E+04</pdfrwt>
<pdfrwt beam="2">  1       -2 0.19213971E+00 0.42709698E+04</pdfrwt>
<totfact> 0.73169749E-02</totfact>
</mgrwt>
</event>
<event>
12    1  0.2019083E-007  0.1372268E+04  0.7818608E-02  0.8974140E-01
         -1   -1    0    0    0  501 -0.00000000000E+00  0.00000000000E+00  0.69584474255E+03  0.69584474255E+03  0.00000000000E+00 0.  1.
          1   -1    0    0  501    0  0.00000000000E+00 -0.00000000000E+00 -0.67655903753E+03  0.67655903753E+03  0.00000000000E+00 0. -1.
         23    2    1    2    0    0  0.36102403641E+03  0.10497918173E+03 -0.32979565509E+02  0.38808796996E+03  0.90363915478E+02 0.  0.
        254    2    1    2    0    0 -0.36102403641E+03 -0.10497918173E+03  0.52265270534E+02  0.98431581012E+03  0.90817783066E+03 0.  0.
        -24    2    4    4    0    0  0.26104608393E+02 -0.38221219468E+03 -0.20045943613E+03  0.43963136115E+03  0.79524435456E+02 0.  0.
         24    2    4    4    0    0 -0.38712864480E+03  0.27723301294E+03  0.25272470667E+03  0.54468444897E+03  0.78004105646E+02 0.  0.
         11    1    3    3    0    0  0.12419020427E+03 -0.16716629140E+01  0.10857292404E+02  0.12467510615E+03  0.00000000000E+00 0.  1.
        -11    1    3    3    0    0  0.23683383214E+03  0.10665084465E+03 -0.43836857914E+02  0.26341286381E+03  0.00000000000E+00 0. -1.
          4    1    6    6  502    0 -0.18355709940E+03  0.85677369958E+02  0.95130909214E+02  0.22379390150E+03  0.00000000000E+00 0. -1.
          1    1    5    5  503    0  0.41717648200E+02 -0.35223014103E+03 -0.19679721847E+03  0.40562985543E+03  0.00000000000E+00 0. -1.
         -2    1    5    5    0  503 -0.15613039807E+02 -0.29982053647E+02 -0.36622176628E+01  0.34001505719E+02  0.00000000000E+00 0.  1.
         -3    1    6    6    0  502 -0.20357154541E+03  0.19155564299E+03  0.15759379745E+03  0.32089054747E+03  0.00000000000E+00 0.  1.
<mgrwt>
<rscale>  0 0.13722683E+04</rscale>
<asrwt>0</asrwt>
<pdfrwt beam="1">  1        1 0.10408601E+00 0.13722683E+04</pdfrwt>
<pdfrwt beam="2">  1       -1 0.10705304E+00 0.13722683E+04</pdfrwt>
<totfact> 0.22817476E+01</totfact>
</mgrwt>
</event>
<event>
12    1  0.2019083E-007  0.5429692E+04  0.7818608E-02  0.7765438E-01
         -2   -1    0    0    0  501 -0.00000000000E+00  0.00000000000E+00  0.28006386556E+04  0.28006386556E+04  0.00000000000E+00 0.  1.
          2   -1    0    0  501    0  0.00000000000E+00 -0.00000000000E+00 -0.26316819114E+04  0.26316819114E+04  0.00000000000E+00 0. -1.
         23    2    1    2    0    0  0.96299657787E+02  0.76372390713E+03  0.26078626825E+04  0.27206304240E+04  0.91292402821E+02 0.  0.
        254    2    1    2    0    0 -0.96299657787E+02 -0.76372390713E+03 -0.24389059383E+04  0.27116901431E+04  0.90136198379E+03 0.  0.
        -24    2    4    4    0    0 -0.28880911804E+03  0.82073373228E+02 -0.73463886818E+03  0.79764221783E+03  0.79950583260E+02 0.  0.
         24    2    4    4    0    0  0.19250946026E+03 -0.84579728036E+03 -0.17042670701E+04  0.19140479252E+04  0.81365116226E+02 0.  0.
         13    1    3    3    0    0  0.99394176399E+02  0.44884803273E+03  0.15978686756E+04  0.16626870010E+04  0.00000000000E+00 0.  1.
        -13    1    3    3    0    0 -0.30945186121E+01  0.31487587440E+03  0.10099940069E+04  0.10579434230E+04  0.00000000000E+00 0. -1.
          2    1    6    6  502    0  0.78627081646E+02 -0.43993069788E+03 -0.80031179994E+03  0.91663526772E+03  0.00000000000E+00 0. -1.
          1    1    5    5  503    0  0.42706482583E+01 -0.16192514790E+01 -0.43804974726E+01  0.63284413568E+01  0.00000000000E+00 0. -1.
         -2    1    5    5    0  503 -0.29307976630E+03  0.83692624707E+02 -0.73025837071E+03  0.79131377648E+03  0.00000000000E+00 0.  1.
         -1    1    6    6    0  502  0.11388237861E+03 -0.40586658248E+03 -0.90395527016E+03  0.99741265752E+03  0.00000000000E+00 0.  1.
<mgrwt>
<rscale>  0 0.54296925E+04</rscale>
<asrwt>0</asrwt>
<pdfrwt beam="1">  1        2 0.40487414E+00 0.54296925E+04</pdfrwt>
<pdfrwt beam="2">  1       -2 0.43086748E+00 0.54296925E+04</pdfrwt>
<totfact> 0.95551936E-03</totfact>
</mgrwt>
</event>
<event>
12    1  0.2019083E-007  0.2081959E+04  0.7818608E-02  0.8569232E-01
          2   -1    0    0  501    0  0.00000000000E+00  0.00000000000E+00  0.58337352105E+03  0.58337352105E+03  0.00000000000E+00 0. -1.
         -2   -1    0    0    0  501 -0.00000000000E+00 -0.00000000000E+00 -0.18575385599E+04  0.18575385599E+04  0.00000000000E+00 0.  1.
         23    2    1    2    0    0 -0.76471914459E+03  0.54427643085E+02 -0.10463967995E+03  0.77932492103E+03  0.92952307628E+02 0.  0.
        254    2    1    2    0    0  0.76471914459E+03 -0.54427643085E+02 -0.11695253589E+04  0.16615871599E+04  0.89739878895E+03 0.  0.
        -24    2    4    4    0    0  0.44485964750E+03  0.37928017413E+03 -0.83365720564E+03  0.10214873712E+04  0.81844709426E+02 0.  0.
         24    2    4    4    0    0  0.31985949709E+03 -0.43370781721E+03 -0.33586815322E+03  0.64009978872E+03  0.80670654988E+02 0.  0.
         11    1    3    3    0    0 -0.10493813027E+03 -0.15643923434E+02  0.77554896264E+01  0.10638087772E+03  0.00000000000E+00 0.  1.
        -11    1    3    3    0    0 -0.65978101431E+03  0.70071566519E+02 -0.11239516957E+03  0.67294404331E+03  0.00000000000E+00 0. -1.
          2    1    6    6  502    0  0.25171279086E+03 -0.30000485747E+03 -0.21078987201E+03  0.44474106369E+03  0.00000000000E+00 0. -1.
          3    1    5    5  503    0  0.13955780877E+03  0.16984197524E+03 -0.29659055559E+03  0.36917290828E+03  0.00000000000E+00 0. -1.
         -4    1    5    5    0  503  0.30530183873E+03  0.20943819889E+03 -0.53706665005E+03  0.65231446288E+03  0.00000000000E+00 0.  1.
         -1    1    6    6    0  502  0.68146706228E+02 -0.13370295974E+03 -0.12507828121E+03  0.19535872503E+03  0.00000000000E+00 0.  1.
<mgrwt>
<rscale>  0 0.20819595E+04</rscale>
<asrwt>0</asrwt>
<pdfrwt beam="1">  1        2 0.89749772E-01 0.20819595E+04</pdfrwt>
<pdfrwt beam="2">  1       -2 0.28577516E+00 0.20819595E+04</pdfrwt>
<totfact> 0.18396062E+00</totfact>
</mgrwt>
</event>
<event>
12    1  0.2019083E-007  0.2564779E+04  0.7818608E-02  0.8380264E-01
         -1   -1    0    0    0  501 -0.00000000000E+00  0.00000000000E+00  0.70607508824E+03  0.70607508824E+03  0.00000000000E+00 0.  1.
          1   -1    0    0  501    0  0.00000000000E+00 -0.00000000000E+00 -0.23291043210E+04  0.23291043210E+04  0.00000000000E+00 0. -1.
         23    2    1    2    0    0  0.16871853233E+03  0.11098598031E+04 -0.75685277009E+03  0.13570007054E+04  0.91488102961E+02 0.  0.
        254    2    1    2    0    0 -0.16871853233E+03 -0.11098598031E+04 -0.86617646271E+03  0.16781787039E+04  0.89764546005E+03 0.  0.
        -24    2    4    4    0    0  0.55897112924E+02 -0.11754162437E+04 -0.63170451116E+03  0.13379537816E+04  0.79636040796E+02 0.  0.
         24    2    4    4    0    0 -0.22461564525E+03  0.65556440605E+02 -0.23447195155E+03  0.34022492231E+03  0.77627744405E+02 0.  0.
         11    1    3    3    0    0  0.65242211469E+01  0.31530632503E+03 -0.20833989076E+03  0.37797639364E+03  0.00000000000E+00 0. -1.
        -11    1    3    3    0    0  0.16219431118E+03  0.79455347811E+03 -0.54851287933E+03  0.97902431172E+03  0.00000000000E+00 0.  1.
          4    1    6    6  502    0 -0.28445842244E+02  0.85653630596E+01 -0.76260723137E+02  0.81842710602E+02  0.00000000000E+00 0. -1.
          3    1    5    5  503    0  0.42663887539E+01 -0.52836881885E+03 -0.32178961672E+03  0.61866013952E+03  0.00000000000E+00 0. -1.
         -4    1    5    5    0  503  0.51630724170E+02 -0.64704742490E+03 -0.30991489444E+03  0.71929364208E+03  0.00000000000E+00 0.  1.
         -1    1    6    6    0  502 -0.19616980301E+03  0.56991077545E+02 -0.15821122841E+03  0.25838221171E+03  0.00000000000E+00 0.  1.
<mgrwt>
<rscale>  0 0.25647788E+04</rscale>
<asrwt>0</asrwt>
<pdfrwt beam="1">  1        1 0.35832374E+00 0.25647788E+04</pdfrwt>
<pdfrwt beam="2">  1       -1 0.10862694E+00 0.25647788E+04</pdfrwt>
<totfact> 0.12341435E+00</totfact>
</mgrwt>
</event>
<event>
12    1  0.2019083E-007  0.1354714E+04  0.7818608E-02  0.8987267E-01
         -2   -1    0    0    0  501 -0.00000000000E+00  0.00000000000E+00  0.22518021707E+03  0.22518021707E+03  0.00000000000E+00 0.  1.
          2   -1    0    0  501    0  0.00000000000E+00 -0.00000000000E+00 -0.20375353663E+04  0.20375353663E+04  0.00000000000E+00 0. -1.
         23    2    1    2    0    0  0.14285090653E+03 -0.59966186800E+02  0.52010719469E+02  0.18675783406E+03  0.90393852585E+02 0.  0.
        254    2    1    2    0    0 -0.14285090653E+03  0.59966186800E+02 -0.18643658687E+04  0.20759577493E+04  0.89985452127E+03 0.  0.
        -24    2    4    4    0    0 -0.48834973876E+03 -0.10712920730E+03 -0.85977450616E+03  0.99771235297E+03  0.79092372781E+02 0.  0.
         24    2    4    4    0    0  0.34549883223E+03  0.16709539410E+03 -0.10045913625E+04  0.10782453963E+04  0.78224134452E+02 0.  0.
         13    1    3    3    0    0  0.97378831922E+02 -0.14261978955E+02  0.68866486403E+02  0.12011924866E+03  0.00000000000E+00 0.  1.
        -13    1    3    3    0    0  0.45472074613E+02 -0.45704207845E+02 -0.16855766934E+02  0.66638585394E+02  0.00000000000E+00 0. -1.
          2    1    6    6  502    0  0.28156500488E+03  0.10154267683E+03 -0.73913682889E+03  0.79744154582E+03  0.00000000000E+00 0. -1.
          1    1    5    5  503    0 -0.37839950783E+03 -0.70882586452E+02 -0.71776881187E+03  0.81449530132E+03  0.00000000000E+00 0. -1.
         -2    1    5    5    0  503 -0.10995023093E+03 -0.36246620843E+02 -0.14200569429E+03  0.18321705165E+03  0.00000000000E+00 0.  1.
         -1    1    6    6    0  502  0.63933827351E+02  0.65552717261E+02 -0.26545453363E+03  0.28080385048E+03  0.00000000000E+00 0.  1.
<mgrwt>
<rscale>  0 0.13547142E+04</rscale>
<asrwt>0</asrwt>
<pdfrwt beam="1">  1        2 0.31346698E+00 0.13547142E+04</pdfrwt>
<pdfrwt beam="2">  1       -2 0.34643110E-01 0.13547142E+04</pdfrwt>
<totfact> 0.48616300E+01</totfact>
</mgrwt>
</event>
<event>
12    1  0.2019083E-007  0.3024836E+04  0.7818608E-02  0.8236674E-01
          1   -1    0    0  501    0  0.00000000000E+00  0.00000000000E+00  0.22644995826E+04  0.22644995826E+04  0.00000000000E+00 0. -1.
         -1   -1    0    0    0  501 -0.00000000000E+00 -0.00000000000E+00 -0.10101165850E+04  0.10101165850E+04  0.00000000000E+00 0.  1.
         23    2    1    2    0    0 -0.10681572724E+04 -0.69861757420E+03  0.11291380006E+04  0.17067516531E+04  0.94984774878E+02 0.  0.
        254    2    1    2    0    0  0.10681572724E+04  0.69861757420E+03  0.12524499707E+03  0.15678645145E+04  0.90193478314E+03 0.  0.
        -24    2    4    4    0    0  0.42973728936E+03 -0.13401461950E+03  0.22818656230E+03  0.51054428997E+03  0.77151206757E+02 0.  0.
         24    2    4    4    0    0  0.63841998300E+03  0.83263219370E+03 -0.10294156523E+03  0.10573202245E+04  0.80452760382E+02 0.  0.
         13    1    3    3    0    0 -0.12989415374E+03 -0.70691983218E+02  0.95396164259E+02  0.17598373738E+03  0.00000000000E+00 0. -1.
        -13    1    3    3    0    0 -0.93826311862E+03 -0.62792559099E+03  0.10337418364E+04  0.15307679157E+04  0.00000000000E+00 0.  1.
          2    1    6    6  502    0  0.61749053934E+03  0.80941184814E+03 -0.11340529323E+03  0.10243548539E+04  0.00000000000E+00 0. -1.
          3    1    5    5  503    0  0.16354043549E+03 -0.16016583813E+02  0.64631846664E+02  0.17657655734E+03  0.00000000000E+00 0. -1.
         -4    1    5    5    0  503  0.26619685386E+03 -0.11799803568E+03  0.16355471564E+03  0.33396773263E+03  0.00000000000E+00 0.  1.
         -1    1    6    6    0  502  0.20929443661E+02  0.23220345564E+02  0.10463727992E+02  0.32965370672E+02  0.00000000000E+00 0.  1.
<mgrwt>
<rscale>  0 0.30248363E+04</rscale>
<asrwt>0</asrwt>
<pdfrwt beam="1">  1        1 0.34838455E+00 0.30248363E+04</pdfrwt>
<pdfrwt beam="2">  1       -1 0.15540255E+00 0.30248363E+04</pdfrwt>
<totfact> 0.52956263E-01</totfact>
</mgrwt>
</event>
<event>
12    1  0.2019083E-007  0.1933695E+04  0.7818608E-02  0.8638264E-01
          2   -1    0    0  501    0  0.00000000000E+00  0.00000000000E+00  0.18515484164E+04  0.18515484164E+04  0.00000000000E+00 0. -1.
         -2   -1    0    0    0  501 -0.00000000000E+00 -0.00000000000E+00 -0.50487160384E+03  0.50487160384E+03  0.00000000000E+00 0.  1.
         23    2    1    2    0    0  0.52179357127E+03 -0.43169178651E+03  0.93151567553E+03  0.11552075868E+04  0.90314923217E+02 0.  0.
        254    2    1    2    0    0 -0.52179357127E+03  0.43169178651E+03  0.41516113703E+03  0.12012124334E+04  0.90106948174E+03 0.  0.
        -24    2    4    4    0    0 -0.77521531607E+02  0.58634807598E+03  0.41005751026E+03  0.72453637317E+03  0.83619018509E+02 0.  0.
         24    2    4    4    0    0 -0.44427203966E+03 -0.15465628947E+03  0.51036267660E+01  0.47667606024E+03  0.76797176409E+02 0.  0.
         11    1    3    3    0    0  0.18363950337E+03 -0.20939617419E+03  0.37500447977E+03  0.46711731375E+03  0.00000000000E+00 0. -1.
        -11    1    3    3    0    0  0.33815406790E+03 -0.22229561232E+03  0.55651119576E+03  0.68809027308E+03  0.00000000000E+00 0.  1.
          2    1    6    6  502    0 -0.35886278517E+02 -0.29272372251E+02  0.16939987877E+02  0.49311864214E+02  0.00000000000E+00 0. -1.
          1    1    5    5  503    0 -0.25394850278E+02  0.24036914941E+03  0.21753457177E+03  0.32518228169E+03  0.00000000000E+00 0. -1.
         -2    1    5    5    0  503 -0.52126681329E+02  0.34597892658E+03  0.19252293849E+03  0.39935409148E+03  0.00000000000E+00 0.  1.
         -1    1    6    6    0  502 -0.40838576114E+03 -0.12538391722E+03 -0.11836361111E+02  0.42736419603E+03  0.00000000000E+00 0.  1.
<mgrwt>
<rscale>  0 0.19336951E+04</rscale>
<asrwt>0</asrwt>
<pdfrwt beam="1">  1        2 0.28485360E+00 0.19336951E+04</pdfrwt>
<pdfrwt beam="2">  1       -2 0.77672555E-01 0.19336951E+04</pdfrwt>
<totfact> 0.11143806E+01</totfact>
</mgrwt>
</event>
<event>
12    1  0.2019083E-007  0.1908656E+04  0.7818608E-02  0.8650560E-01
         -2   -1    0    0    0  501 -0.00000000000E+00  0.00000000000E+00  0.52463037887E+03  0.52463037887E+03  0.00000000000E+00 0.  1.
          2   -1    0    0  501    0  0.00000000000E+00 -0.00000000000E+00 -0.17359687196E+04  0.17359687196E+04  0.00000000000E+00 0. -1.
         23    2    1    2    0    0 -0.51949454766E+03  0.50355175477E+03 -0.29675979256E+03  0.78750188686E+03  0.93026300277E+02 0.  0.
        254    2    1    2    0    0  0.51949454766E+03 -0.50355175477E+03 -0.91457854812E+03  0.14730972116E+04  0.90006806367E+03 0.  0.
        -24    2    4    4    0    0  0.36476983565E+03 -0.35594290086E+02  0.58953866950E+02  0.37970073294E+03  0.79831708473E+02 0.  0.
         24    2    4    4    0    0  0.15472471201E+03 -0.46795746469E+03 -0.97353241507E+03  0.10933964786E+04  0.69473527400E+02 0.  0.
         13    1    3    3    0    0 -0.44745897539E+03  0.38345162861E+03 -0.24529620794E+03  0.63829845352E+03  0.00000000000E+00 0. -1.
        -13    1    3    3    0    0 -0.72035572264E+02  0.12010012617E+03 -0.51463584614E+02  0.14920343333E+03  0.00000000000E+00 0.  1.
          2    1    6    6  502    0  0.12073147229E+02 -0.29288797710E+02 -0.10887497368E+03  0.11339027493E+03  0.00000000000E+00 0. -1.
          1    1    5    5  503    0  0.10884776539E+03 -0.37533034086E+02 -0.71923499025E+01  0.11536158188E+03  0.00000000000E+00 0. -1.
         -2    1    5    5    0  503  0.25592207026E+03  0.19387440004E+01  0.66146216853E+02  0.26433915105E+03  0.00000000000E+00 0.  1.
         -1    1    6    6    0  502  0.14265156478E+03 -0.43866866698E+03 -0.86465744140E+03  0.98000620370E+03  0.00000000000E+00 0.  1.
<mgrwt>
<rscale>  0 0.19086560E+04</rscale>
<asrwt>0</asrwt>
<pdfrwt beam="1">  1        2 0.26707211E+00 0.19086560E+04</pdfrwt>
<pdfrwt beam="2">  1       -2 0.80712365E-01 0.19086560E+04</pdfrwt>
<totfact> 0.11875578E+01</totfact>
</mgrwt>
</event>
<event>
12    1  0.2019083E-007  0.2382460E+04  0.7818608E-02  0.8446099E-01
         -1   -1    0    0    0  501 -0.00000000000E+00  0.00000000000E+00  0.80604717066E+03  0.80604717066E+03  0.00000000000E+00 0.  1.
          1   -1    0    0  501    0  0.00000000000E+00 -0.00000000000E+00 -0.17604791740E+04  0.17604791740E+04  0.00000000000E+00 0. -1.
         23    2    1    2    0    0 -0.87498827554E+03  0.51569184522E+03 -0.49152671873E+03  0.11321272442E+04  0.92579804953E+02 0.  0.
        254    2    1    2    0    0  0.87498827554E+03 -0.51569184522E+03 -0.46290528463E+03  0.14343991005E+04  0.90093113795E+03 0.  0.
        -24    2    4    4    0    0 -0.24134044391E+02  0.62755086898E+02  0.16250945379E+03  0.19320812654E+03  0.79996278424E+02 0.  0.
         24    2    4    4    0    0  0.89912231993E+03 -0.57844693211E+03 -0.62541473842E+03  0.12411909739E+04  0.79935219093E+02 0.  0.
         13    1    3    3    0    0 -0.55658186231E+03  0.36140814084E+03 -0.35735372822E+03  0.75372468501E+03  0.00000000000E+00 0. -1.
        -13    1    3    3    0    0 -0.31840641324E+03  0.15428370438E+03 -0.13417299051E+03  0.37840255920E+03  0.00000000000E+00 0.  1.
          2    1    6    6  502    0  0.16264493234E+03 -0.69855348220E+02 -0.10865091829E+03  0.20769729352E+03  0.00000000000E+00 0. -1.
          3    1    5    5  503    0 -0.34695321408E+02 -0.32852170414E+01  0.78038490516E+02  0.85466741956E+02  0.00000000000E+00 0. -1.
         -4    1    5    5    0  503  0.10561277018E+02  0.66040303939E+02  0.84470963274E+02  0.10774138459E+03  0.00000000000E+00 0.  1.
         -1    1    6    6    0  502  0.73647738760E+03 -0.50859158389E+03 -0.51676382013E+03  0.10334936804E+04  0.00000000000E+00 0.  1.
<mgrwt>
<rscale>  0 0.23824603E+04</rscale>
<asrwt>0</asrwt>
<pdfrwt beam="1">  1        1 0.27084295E+00 0.23824603E+04</pdfrwt>
<pdfrwt beam="2">  1       -1 0.12400726E+00 0.23824603E+04</pdfrwt>
<totfact> 0.22203636E+00</totfact>
</mgrwt>
</event>
<event>
12    1  0.2019083E-007  0.2098760E+04  0.7818608E-02  0.8561790E-01
         -2   -1    0    0    0  501 -0.00000000000E+00  0.00000000000E+00  0.14674724513E+04  0.14674724513E+04  0.00000000000E+00 0.  1.
          2   -1    0    0  501    0  0.00000000000E+00 -0.00000000000E+00 -0.75040489992E+03  0.75040489992E+03  0.00000000000E+00 0. -1.
         23    2    1    2    0    0 -0.34532286677E+03  0.44917179291E+03  0.96713033228E+03  0.11246195133E+04  0.91786645000E+02 0.  0.
        254    2    1    2    0    0  0.34532286677E+03 -0.44917179291E+03 -0.25006278095E+03  0.10932578379E+04  0.90093180864E+03 0.  0.
        -24    2    4    4    0    0  0.34437009571E+03  0.14783497466E+03 -0.30350048776E+03  0.48867928578E+03  0.79050336666E+02 0.  0.
         24    2    4    4    0    0  0.95277105823E+00 -0.59700676758E+03  0.53437706813E+02  0.60457855210E+03  0.79004106514E+02 0.  0.
         11    1    3    3    0    0 -0.84131645581E+02  0.63232355930E+02  0.13868479349E+03  0.17409749157E+03  0.00000000000E+00 0. -1.
        -11    1    3    3    0    0 -0.26119122119E+03  0.38593943698E+03  0.82844553879E+03  0.95052202172E+03  0.00000000000E+00 0.  1.
          4    1    6    6  502    0 -0.29944417900E+02 -0.10401396248E+03  0.80382626001E+01  0.10853656628E+03  0.00000000000E+00 0. -1.
          3    1    5    5  503    0  0.13723700266E+03  0.43016821426E+02 -0.72015779678E+02  0.16084375757E+03  0.00000000000E+00 0. -1.
         -4    1    5    5    0  503  0.20713309305E+03  0.10481815324E+03 -0.23148470808E+03  0.32783552821E+03  0.00000000000E+00 0.  1.
         -3    1    6    6    0  502  0.30897188958E+02 -0.49299280510E+03  0.45399444213E+02  0.49604198582E+03  0.00000000000E+00 0.  1.
<mgrwt>
<rscale>  0 0.20987601E+04</rscale>
<asrwt>0</asrwt>
<pdfrwt beam="1">  1        2 0.11544691E+00 0.20987601E+04</pdfrwt>
<pdfrwt beam="2">  1       -2 0.22576499E+00 0.20987601E+04</pdfrwt>
<totfact> 0.31378057E+00</totfact>
</mgrwt>
</event>
<event>
12    1  0.2019083E-007  0.3160623E+04  0.7818608E-02  0.8199295E-01
          1   -1    0    0  501    0  0.00000000000E+00  0.00000000000E+00  0.27264751109E+04  0.27264751109E+04  0.00000000000E+00 0. -1.
         -1   -1    0    0    0  501 -0.00000000000E+00 -0.00000000000E+00 -0.91597532235E+03  0.91597532235E+03  0.00000000000E+00 0.  1.
         23    2    1    2    0    0  0.88563419400E+03 -0.11220161696E+04  0.11353483441E+04  0.18276806146E+04  0.90179578611E+02 0.  0.
        254    2    1    2    0    0 -0.88563419400E+03  0.11220161696E+04  0.67515144447E+03  0.18147698186E+04  0.89123050388E+03 0.  0.
        -24    2    4    4    0    0 -0.65278302260E+03  0.29904027719E+03  0.62320027409E+03  0.95440157220E+03  0.83384755251E+02 0.  0.
         24    2    4    4    0    0 -0.23285117139E+03  0.82297589240E+03  0.51951170386E+02  0.86036824638E+03  0.77624788466E+02 0.  0.
         13    1    3    3    0    0  0.63899474948E+03 -0.87005772706E+03  0.84286407950E+03  0.13695746036E+04  0.00000000000E+00 0. -1.
        -13    1    3    3    0    0  0.24663944451E+03 -0.25195844252E+03  0.29248426455E+03  0.45810601105E+03  0.00000000000E+00 0.  1.
          2    1    6    6  502    0 -0.38054535674E+02  0.20015135549E+03  0.40318877370E+02  0.20768804651E+03  0.00000000000E+00 0. -1.
          3    1    5    5  503    0  0.15257757075E+01  0.48255761323E+01  0.72698114356E+01  0.88580096426E+01  0.00000000000E+00 0. -1.
         -4    1    5    5    0  503 -0.65430879831E+03  0.29421470106E+03  0.61593046265E+03  0.94554356255E+03  0.00000000000E+00 0.  1.
         -1    1    6    6    0  502 -0.19479663572E+03  0.62282453691E+03  0.11632293015E+02  0.65268019987E+03  0.00000000000E+00 0.  1.
<mgrwt>
<rscale>  0 0.31606227E+04</rscale>
<asrwt>0</asrwt>
<pdfrwt beam="1">  1        1 0.41945771E+00 0.31606227E+04</pdfrwt>
<pdfrwt beam="2">  1       -1 0.14091928E+00 0.31606227E+04</pdfrwt>
<totfact> 0.32493641E-01</totfact>
</mgrwt>
</event>
<event>
12    1  0.2019083E-007  0.1376510E+04  0.7818608E-02  0.8970999E-01
         -2   -1    0    0    0  501 -0.00000000000E+00  0.00000000000E+00  0.22090048176E+03  0.22090048176E+03  0.00000000000E+00 0.  1.
          2   -1    0    0  501    0  0.00000000000E+00 -0.00000000000E+00 -0.21443823228E+04  0.21443823228E+04  0.00000000000E+00 0. -1.
         23    2    1    2    0    0 -0.15590887554E+03  0.35305109101E+03 -0.54851247729E+03  0.67661653539E+03  0.89394339261E+02 0.  0.
        254    2    1    2    0    0  0.15590887554E+03 -0.35305109101E+03 -0.13749693638E+04  0.16886662692E+04  0.90116611510E+03 0.  0.
        -24    2    4    4    0    0  0.32377432141E+03 -0.72147587217E+02 -0.79854062861E+02  0.35049614222E+03  0.80223368257E+02 0.  0.
         24    2    4    4    0    0 -0.16786544587E+03 -0.28090350379E+03 -0.12951153009E+04  0.13381701269E+04  0.79309896385E+02 0.  0.
         13    1    3    3    0    0 -0.12703325774E+03  0.20929795042E+03 -0.39179513316E+03  0.46200271318E+03  0.00000000000E+00 0. -1.
        -13    1    3    3    0    0 -0.28875617802E+02  0.14375314059E+03 -0.15671734413E+03  0.21461382221E+03  0.00000000000E+00 0.  1.
          2    1    6    6  502    0 -0.17631884349E+03 -0.26220413398E+03 -0.12269422423E+04  0.12669753780E+04  0.00000000000E+00 0. -1.
          1    1    5    5  503    0  0.21472201952E+03 -0.22907042812E+02 -0.81561493377E+02  0.23083014422E+03  0.00000000000E+00 0. -1.
         -2    1    5    5    0  503  0.10905230189E+03 -0.49240544405E+02  0.17074305156E+01  0.11966599801E+03  0.00000000000E+00 0.  1.
         -1    1    6    6    0  502  0.84533976178E+01 -0.18699369807E+02 -0.68173058571E+02  0.71194748945E+02  0.00000000000E+00 0.  1.
<mgrwt>
<rscale>  0 0.13765102E+04</rscale>
<asrwt>0</asrwt>
<pdfrwt beam="1">  1        2 0.32990498E+00 0.13765102E+04</pdfrwt>
<pdfrwt beam="2">  1       -2 0.33984689E-01 0.13765102E+04</pdfrwt>
<totfact> 0.43902718E+01</totfact>
</mgrwt>
</event>
<event>
12    1  0.2019083E-007  0.1947524E+04  0.7818608E-02  0.8631556E-01
          1   -1    0    0  501    0  0.00000000000E+00  0.00000000000E+00  0.14035267408E+04  0.14035267408E+04  0.00000000000E+00 0. -1.
         -1   -1    0    0    0  501 -0.00000000000E+00 -0.00000000000E+00 -0.67559253729E+03  0.67559253729E+03  0.00000000000E+00 0.  1.
         23    2    1    2    0    0  0.19043918098E+03  0.14966637971E+03 -0.48482660814E+03  0.54909492327E+03  0.88211608831E+02 0.  0.
        254    2    1    2    0    0 -0.19043918098E+03 -0.14966637971E+03  0.12127608117E+04  0.15300243548E+04  0.90084329003E+03 0.  0.
        -24    2    4    4    0    0  0.16851256869E+03 -0.30195740927E+03  0.10344606240E+04  0.10935777832E+04  0.78922889479E+02 0.  0.
         24    2    4    4    0    0 -0.35895174967E+03  0.15229102956E+03  0.17830018766E+03  0.43644657162E+03  0.81582698426E+02 0.  0.
         11    1    3    3    0    0  0.16704622810E+02  0.50516822838E+02 -0.64630820441E+02  0.83714614995E+02  0.00000000000E+00 0. -1.
        -11    1    3    3    0    0  0.17373455817E+03  0.99149556874E+02 -0.42019578770E+03  0.46538030827E+03  0.00000000000E+00 0.  1.
          4    1    6    6  502    0 -0.30436915619E+03  0.14673663361E+03  0.12592366796E+03  0.36059533141E+03  0.00000000000E+00 0. -1.
          1    1    5    5  503    0  0.13306629765E+03 -0.25819888569E+03  0.76486941338E+03  0.81816778454E+03  0.00000000000E+00 0. -1.
         -2    1    5    5    0  503  0.35446271041E+02 -0.43758523585E+02  0.26959121062E+03  0.27540999866E+03  0.00000000000E+00 0.  1.
         -3    1    6    6    0  502 -0.54582593485E+02  0.55543959547E+01  0.52376519701E+02  0.75851240214E+02  0.00000000000E+00 0.  1.
<mgrwt>
<rscale>  0 0.19475238E+04</rscale>
<asrwt>0</asrwt>
<pdfrwt beam="1">  1        1 0.21592719E+00 0.19475238E+04</pdfrwt>
<pdfrwt beam="2">  1       -1 0.10393731E+00 0.19475238E+04</pdfrwt>
<totfact> 0.62056380E+00</totfact>
</mgrwt>
</event>
<event>
12    1  0.2019083E-007  0.3223532E+04  0.7818608E-02  0.8182630E-01
          1   -1    0    0  501    0  0.00000000000E+00  0.00000000000E+00  0.29957314981E+04  0.29957314981E+04  0.00000000000E+00 0. -1.
         -1   -1    0    0    0  501 -0.00000000000E+00 -0.00000000000E+00 -0.86716366099E+03  0.86716366099E+03  0.00000000000E+00 0.  1.
         23    2    1    2    0    0  0.96484242503E+03  0.10923398558E+04  0.64061271713E+03  0.15946305252E+04  0.91293990934E+02 0.  0.
        254    2    1    2    0    0 -0.96484242503E+03 -0.10923398558E+04  0.14879551200E+04  0.22682646339E+04  0.89826874848E+03 0.  0.
        -24    2    4    4    0    0 -0.61706026705E+02  0.11486275223E+03  0.65803796686E+01  0.15308076204E+03  0.79933301756E+02 0.  0.
         24    2    4    4    0    0 -0.90313639832E+03 -0.12072026081E+04  0.14813747403E+04  0.21151838718E+04  0.80859134239E+02 0.  0.
         11    1    3    3    0    0  0.50731855598E+03  0.56423390015E+03  0.28418711820E+03  0.81024337669E+03  0.00000000000E+00 0.  1.
        -11    1    3    3    0    0  0.45752386905E+03  0.52810595567E+03  0.35642559893E+03  0.78438714851E+03  0.00000000000E+00 0. -1.
          2    1    6    6  502    0 -0.56725297661E+03 -0.78195259050E+03  0.99908576252E+03  0.13897475145E+04  0.00000000000E+00 0. -1.
          3    1    5    5  503    0 -0.97822157791E+01 -0.51924809606E+01 -0.16882008713E+02  0.20190488411E+02  0.00000000000E+00 0. -1.
         -4    1    5    5    0  503 -0.51923810926E+02  0.12005523319E+03  0.23462388382E+02  0.13289027363E+03  0.00000000000E+00 0.  1.
         -1    1    6    6    0  502 -0.33588342171E+03 -0.42525001756E+03  0.48228897776E+03  0.72543635729E+03  0.00000000000E+00 0.  1.
<mgrwt>
<rscale>  0 0.32235319E+04</rscale>
<asrwt>0</asrwt>
<pdfrwt beam="1">  1        1 0.46088177E+00 0.32235319E+04</pdfrwt>
<pdfrwt beam="2">  1       -1 0.13340980E+00 0.32235319E+04</pdfrwt>
<totfact> 0.23849877E-01</totfact>
</mgrwt>
</event>
<event>
12    1  0.2019083E-007  0.1694095E+04  0.7818608E-02  0.8764739E-01
          1   -1    0    0  501    0  0.00000000000E+00  0.00000000000E+00  0.72978989669E+03  0.72978989669E+03  0.00000000000E+00 0. -1.
         -1   -1    0    0    0  501 -0.00000000000E+00 -0.00000000000E+00 -0.98314539969E+03  0.98314539969E+03  0.00000000000E+00 0.  1.
         23    2    1    2    0    0  0.53004633339E+03 -0.28706916772E+03 -0.82012042745E+02  0.61613264306E+03  0.97650581675E+02 0.  0.
        254    2    1    2    0    0 -0.53004633339E+03  0.28706916772E+03 -0.17134346025E+03  0.10968026533E+04  0.90014424198E+03 0.  0.
        -24    2    4    4    0    0  0.20639755581E+03  0.10577057845E+03  0.12977487878E+03  0.27756398980E+03  0.80080478022E+02 0.  0.
         24    2    4    4    0    0 -0.73644388920E+03  0.18129858927E+03 -0.30111833903E+03  0.81923866352E+03  0.72532429314E+02 0.  0.
         13    1    3    3    0    0  0.19796674997E+03 -0.13186806026E+03 -0.75350081796E+02  0.24951483770E+03  0.00000000000E+00 0.  1.
        -13    1    3    3    0    0  0.33207958342E+03 -0.15520110746E+03 -0.66619609494E+01  0.36661780536E+03  0.00000000000E+00 0. -1.
          4    1    6    6  502    0 -0.29972912380E+03  0.97042674590E+02 -0.15477541496E+03  0.35101318696E+03  0.00000000000E+00 0. -1.
          1    1    5    5  503    0  0.10396204792E+03  0.41968667939E+02  0.10655132052E+03  0.15466951995E+03  0.00000000000E+00 0. -1.
         -2    1    5    5    0  503  0.10243550789E+03  0.63801910507E+02  0.23223558260E+02  0.12289446985E+03  0.00000000000E+00 0.  1.
         -3    1    6    6    0  502 -0.43671476540E+03  0.84255914680E+02 -0.14634292407E+03  0.46822547656E+03  0.00000000000E+00 0.  1.
<mgrwt>
<rscale>  0 0.16940951E+04</rscale>
<asrwt>0</asrwt>
<pdfrwt beam="1">  1        1 0.11227537E+00 0.16940951E+04</pdfrwt>
<pdfrwt beam="2">  1       -1 0.15125314E+00 0.16940951E+04</pdfrwt>
<totfact> 0.83007813E+00</totfact>
</mgrwt>
</event>
<event>
12    1  0.2019083E-007  0.1971417E+04  0.7818608E-02  0.8620102E-01
          1   -1    0    0  501    0  0.00000000000E+00  0.00000000000E+00  0.96760127126E+03  0.96760127126E+03  0.00000000000E+00 0. -1.
         -1   -1    0    0    0  501 -0.00000000000E+00 -0.00000000000E+00 -0.10041542770E+04  0.10041542770E+04  0.00000000000E+00 0.  1.
         23    2    1    2    0    0 -0.89660575859E+02  0.73202154213E+03  0.23018712926E+03  0.77770936786E+03  0.89169441931E+02 0.  0.
        254    2    1    2    0    0  0.89660575859E+02 -0.73202154213E+03 -0.26674013499E+03  0.11940461804E+04  0.90038959583E+03 0.  0.
        -24    2    4    4    0    0  0.38014383398E+03 -0.68596206412E+03 -0.19707657153E+00  0.78830799305E+03  0.79850893272E+02 0.  0.
         24    2    4    4    0    0 -0.29048325812E+03 -0.46059478012E+02 -0.26654305842E+03  0.40573818734E+03  0.84120603360E+02 0.  0.
         13    1    3    3    0    0 -0.90818722309E+02  0.44846647881E+03  0.11616229702E+03  0.47208463456E+03  0.00000000000E+00 0. -1.
        -13    1    3    3    0    0  0.11581464497E+01  0.28355506332E+03  0.11402483224E+03  0.30562473330E+03  0.00000000000E+00 0.  1.
          4    1    6    6  502    0 -0.79533618847E+02 -0.51017551904E+02 -0.72896596796E+02  0.11934111175E+03  0.00000000000E+00 0. -1.
          3    1    5    5  503    0  0.17834875450E+03 -0.32354311702E+03  0.39757693544E+02  0.37157650759E+03  0.00000000000E+00 0. -1.
         -4    1    5    5    0  503  0.20179507948E+03 -0.36241894710E+03 -0.39954770115E+02  0.41673148546E+03  0.00000000000E+00 0.  1.
         -3    1    6    6    0  502 -0.21094963927E+03  0.49580738918E+01 -0.19364646162E+03  0.28639707559E+03  0.00000000000E+00 0.  1.
<mgrwt>
<rscale>  0 0.19714167E+04</rscale>
<asrwt>0</asrwt>
<pdfrwt beam="1">  1        1 0.14886173E+00 0.19714167E+04</pdfrwt>
<pdfrwt beam="2">  1       -1 0.15448527E+00 0.19714167E+04</pdfrwt>
<totfact> 0.48062794E+00</totfact>
</mgrwt>
</event>
<event>
12    1  0.2019083E-007  0.1433554E+04  0.7818608E-02  0.8929883E-01
         -2   -1    0    0    0  501 -0.00000000000E+00  0.00000000000E+00  0.14786759697E+04  0.14786759697E+04  0.00000000000E+00 0.  1.
          2   -1    0    0  501    0  0.00000000000E+00 -0.00000000000E+00 -0.34745207313E+03  0.34745207313E+03  0.00000000000E+00 0. -1.
         23    2    1    2    0    0  0.24231610947E+03 -0.22969844596E+03  0.44726830113E+01  0.34594393302E+03  0.90436314104E+02 0.  0.
        254    2    1    2    0    0 -0.24231610947E+03  0.22969844596E+03  0.11267512136E+04  0.14801841098E+04  0.89994345861E+03 0.  0.
        -24    2    4    4    0    0 -0.74397227429E+02 -0.31747400849E+03  0.64740915770E+03  0.72928141297E+03  0.79925392193E+02 0.  0.
         24    2    4    4    0    0 -0.16791888204E+03  0.54717245445E+03  0.47934205586E+03  0.75090269684E+03  0.80570514185E+02 0.  0.
         11    1    3    3    0    0  0.79092865843E+02 -0.29302567788E+02 -0.18879391366E+02  0.86433519682E+02  0.00000000000E+00 0.  1.
        -11    1    3    3    0    0  0.16322324363E+03 -0.20039587818E+03  0.23352074377E+02  0.25951041333E+03  0.00000000000E+00 0. -1.
          4    1    6    6  502    0  0.48317680021E+01  0.35399044315E+01  0.12270773234E+02  0.13654624900E+02  0.00000000000E+00 0. -1.
          3    1    5    5  503    0 -0.59051785437E+02 -0.90034694774E+02  0.19952277950E+03  0.22672163365E+03  0.00000000000E+00 0. -1.
         -4    1    5    5    0  503 -0.15345441992E+02 -0.22743931371E+03  0.44788637820E+03  0.50255977932E+03  0.00000000000E+00 0.  1.
         -3    1    6    6    0  502 -0.17275065004E+03  0.54363255002E+03  0.46707128262E+03  0.73724807194E+03  0.00000000000E+00 0.  1.
<mgrwt>
<rscale>  0 0.14335537E+04</rscale>
<asrwt>0</asrwt>
<pdfrwt beam="1">  1        2 0.53454166E-01 0.14335537E+04</pdfrwt>
<pdfrwt beam="2">  1       -2 0.22748861E+00 0.14335537E+04</pdfrwt>
<totfact> 0.80184395E+00</totfact>
</mgrwt>
</event>
<event>
12    1  0.2443373E-007  0.2144689E+04  0.7818608E-02  0.8541809E-01
          1   -1    0    0  501    0  0.00000000000E+00  0.00000000000E+00  0.16555814932E+04  0.16555814932E+04  0.00000000000E+00 0. -1.
         -1   -1    0    0    0  501 -0.00000000000E+00 -0.00000000000E+00 -0.69457303530E+03  0.69457303530E+03  0.00000000000E+00 0.  1.
         23    2    1    2    0    0  0.46253429289E+03 -0.25877595747E+03 -0.37411431598E+03  0.65487113682E+03  0.89396398974E+02 0.  0.
        254    2    1    2    0    0 -0.46253429289E+03  0.25877595747E+03  0.13351227738E+04  0.16952833916E+04  0.90029438991E+03 0.  0.
        -24    2    4    4    0    0 -0.53983336088E+03 -0.32716486921E+02  0.32024086101E+03  0.63350405199E+03  0.79263792375E+02 0.  0.
         24    2    4    4    0    0  0.77299067993E+02  0.29149244439E+03  0.10148819128E+04  0.10617793397E+04  0.80293698968E+02 0.  0.
         11    1    3    3    0    0  0.24368127450E+03 -0.86198226344E+02 -0.16907474969E+03  0.30886399718E+03  0.00000000000E+00 0. -1.
        -11    1    3    3    0    0  0.21885301839E+03 -0.17257773113E+03 -0.20503956629E+03  0.34600713964E+03  0.00000000000E+00 0.  1.
          2    1    6    6  502    0  0.30942763287E+01  0.49140037648E+02  0.28302383934E+03  0.28727480133E+03  0.00000000000E+00 0. -1.
          1    1    5    5  503    0 -0.12354416924E+03  0.63366105101E+01  0.39420613294E+02  0.12983566204E+03  0.00000000000E+00 0. -1.
         -2    1    5    5    0  503 -0.41628919164E+03 -0.39053097432E+02  0.28082024772E+03  0.50366838994E+03  0.00000000000E+00 0.  1.
         -1    1    6    6    0  502  0.74204791665E+02  0.24235240674E+03  0.73185807349E+03  0.77450453833E+03  0.00000000000E+00 0.  1.
<mgrwt>
<rscale>  0 0.21446886E+04</rscale>
<asrwt>0</asrwt>
<pdfrwt beam="1">  1        1 0.25470484E+00 0.21446886E+04</pdfrwt>
<pdfrwt beam="2">  1       -1 0.10685739E+00 0.21446886E+04</pdfrwt>
<totfact> 0.38259119E+00</totfact>
</mgrwt>
</event>
<event>
12    1  0.2019083E-007  0.1164082E+04  0.7818608E-02  0.9144889E-01
          2   -1    0    0  501    0  0.00000000000E+00  0.00000000000E+00  0.11123928508E+04  0.11123928508E+04  0.00000000000E+00 0.  1.
         -2   -1    0    0    0  501 -0.00000000000E+00 -0.00000000000E+00 -0.30454347608E+03  0.30454347608E+03  0.00000000000E+00 0. -1.
         23    2    1    2    0    0  0.13054557977E+02 -0.16047084734E+03 -0.22677171301E+02  0.18684317124E+03  0.92058688945E+02 0.  0.
        254    2    1    2    0    0 -0.13054557977E+02  0.16047084734E+03  0.83052654604E+03  0.12300931557E+04  0.89299132896E+03 0.  0.
        -24    2    4    4    0    0  0.34493308652E+03  0.34419824195E+03  0.50808255328E+03  0.70824870732E+03  0.77569881611E+02 0.  0.
         24    2    4    4    0    0 -0.35798764449E+03 -0.18372739461E+03  0.32244399276E+03  0.52184444834E+03  0.80253290655E+02 0.  0.
         13    1    3    3    0    0 -0.24225842309E+02 -0.95423092679E+01  0.10158220588E+02  0.27948820141E+02  0.00000000000E+00 0.  1.
        -13    1    3    3    0    0  0.37280400286E+02 -0.15092853807E+03 -0.32835391890E+02  0.15889435110E+03  0.00000000000E+00 0. -1.
          2    1    6    6  502    0 -0.18700035642E+03 -0.52430695986E+02  0.13980503771E+03  0.23929805630E+03  0.00000000000E+00 0. -1.
          1    1    5    5  503    0  0.33809841580E+03  0.31828062760E+03  0.46254929748E+03  0.65541204541E+03  0.00000000000E+00 0. -1.
         -2    1    5    5    0  503  0.68346707138E+01  0.25917614353E+02  0.45533255799E+02  0.52836661904E+02  0.00000000000E+00 0.  1.
         -1    1    6    6    0  502 -0.17098728807E+03 -0.13129669862E+03  0.18263895505E+03  0.28254639204E+03  0.00000000000E+00 0.  1.
<mgrwt>
<rscale>  0 0.11640824E+04</rscale>
<asrwt>0</asrwt>
<pdfrwt beam="1">  1        2 0.17113736E+00 0.11640824E+04</pdfrwt>
<pdfrwt beam="2">  1       -2 0.46852843E-01 0.11640824E+04</pdfrwt>
<totfact> 0.91385983E+01</totfact>
</mgrwt>
</event>
<event>
12    1  0.2019083E-007  0.2059172E+04  0.7818608E-02  0.8579445E-01
         -2   -1    0    0    0  501 -0.00000000000E+00  0.00000000000E+00  0.85588348810E+03  0.85588348810E+03  0.00000000000E+00 0.  1.
          2   -1    0    0  501    0  0.00000000000E+00 -0.00000000000E+00 -0.12385412043E+04  0.12385412043E+04  0.00000000000E+00 0. -1.
         23    2    1    2    0    0  0.78690648025E+02 -0.76631932502E+03 -0.46744749397E+03  0.90596764733E+03  0.93982404744E+02 0.  0.
        254    2    1    2    0    0 -0.78690648025E+02  0.76631932502E+03  0.84789777810E+02  0.11884570450E+04  0.90100128495E+03 0.  0.
        -24    2    4    4    0    0  0.25572244946E+03 -0.53477682935E+02  0.12174649318E+03  0.29875868106E+03  0.78617473739E+02 0.  0.
         24    2    4    4    0    0 -0.33441309749E+03  0.81979700796E+03 -0.36956715374E+02  0.88969836397E+03  0.79360733444E+02 0.  0.
         11    1    3    3    0    0  0.15417776802E+02 -0.25275988640E+03 -0.20480874025E+03  0.32568679448E+03  0.00000000000E+00 0. -1.
        -11    1    3    3    0    0  0.63272871224E+02 -0.51355943862E+03 -0.26263875371E+03  0.58028085285E+03  0.00000000000E+00 0.  1.
          2    1    6    6  502    0 -0.28695931346E+03  0.65766043899E+03 -0.38664263776E+01  0.71754989363E+03  0.00000000000E+00 0. -1.
          1    1    5    5  503    0  0.18522598232E+03 -0.32337432117E+02  0.46899205375E+02  0.19378831107E+03  0.00000000000E+00 0. -1.
         -2    1    5    5    0  503  0.70496467141E+02 -0.21140250819E+02  0.74847287809E+02  0.10497036999E+03  0.00000000000E+00 0.  1.
         -1    1    6    6    0  502 -0.47453784030E+02  0.16213656896E+03 -0.33090288996E+02  0.17214847034E+03  0.00000000000E+00 0.  1.
<mgrwt>
<rscale>  0 0.20591716E+04</rscale>
<asrwt>0</asrwt>
<pdfrwt beam="1">  1        2 0.19054480E+00 0.20591716E+04</pdfrwt>
<pdfrwt beam="2">  1       -2 0.13167438E+00 0.20591716E+04</pdfrwt>
<totfact> 0.69848928E+00</totfact>
</mgrwt>
</event>
<event>
12    1  0.2019083E-007  0.1537643E+04  0.7818608E-02  0.8859799E-01
          1   -1    0    0  501    0  0.00000000000E+00  0.00000000000E+00  0.30579158490E+04  0.30579158490E+04  0.00000000000E+00 0. -1.
         -1   -1    0    0    0  501 -0.00000000000E+00 -0.00000000000E+00 -0.19329723580E+03  0.19329723580E+03  0.00000000000E+00 0.  1.
         23    2    1    2    0    0  0.12382970767E+03  0.29464764042E+03  0.17613316879E+04  0.17922631697E+04  0.88130164623E+02 0.  0.
        254    2    1    2    0    0 -0.12382970767E+03 -0.29464764042E+03  0.11032869252E+04  0.14589499151E+04  0.89952308858E+03 0.  0.
        -24    2    4    4    0    0  0.28174380564E+03 -0.34794048827E+02  0.86871550444E+03  0.91723982634E+03  0.77923510711E+02 0.  0.
         24    2    4    4    0    0 -0.40557351332E+03 -0.25985359160E+03  0.23457142079E+03  0.54171008876E+03  0.80076869596E+02 0.  0.
         13    1    3    3    0    0  0.24757867547E+02  0.86192283012E+02  0.72601445150E+03  0.73153198525E+03  0.00000000000E+00 0. -1.
        -13    1    3    3    0    0  0.99071840126E+02  0.20845535741E+03  0.10353172364E+04  0.10607311844E+04  0.00000000000E+00 0.  1.
          4    1    6    6  502    0 -0.11281269258E+03 -0.80006181333E+02  0.28975160787E+02  0.14130552927E+03  0.00000000000E+00 0. -1.
          1    1    5    5  503    0  0.50471292281E+02 -0.35646726121E+02  0.22088330210E+03  0.22936319141E+03  0.00000000000E+00 0. -1.
         -2    1    5    5    0  503  0.23127251336E+03  0.85267729448E+00  0.64783220234E+03  0.68787663493E+03  0.00000000000E+00 0.  1.
         -3    1    6    6    0  502 -0.29276082074E+03 -0.17984741026E+03  0.20559626000E+03  0.40040455950E+03  0.00000000000E+00 0.  1.
<mgrwt>
<rscale>  0 0.15376432E+04</rscale>
<asrwt>0</asrwt>
<pdfrwt beam="1">  1        1 0.47044856E+00 0.15376432E+04</pdfrwt>
<pdfrwt beam="2">  1       -1 0.29738039E-01 0.15376432E+04</pdfrwt>
<totfact> 0.54509240E+00</totfact>
</mgrwt>
</event>
<event>
12    1  0.2019083E-007  0.3232233E+04  0.7818608E-02  0.8180356E-01
         -2   -1    0    0    0  501 -0.00000000000E+00  0.00000000000E+00  0.10825977295E+04  0.10825977295E+04  0.00000000000E+00 0.  1.
          2   -1    0    0  501    0  0.00000000000E+00 -0.00000000000E+00 -0.24125604776E+04  0.24125604776E+04  0.00000000000E+00 0. -1.
         23    2    1    2    0    0 -0.11228720006E+03  0.12025050310E+04  0.32897727671E+03  0.12549504694E+04  0.89709904985E+02 0.  0.
        254    2    1    2    0    0  0.11228720006E+03 -0.12025050310E+04 -0.16589400248E+04  0.22402077377E+04  0.89878915074E+03 0.  0.
        -24    2    4    4    0    0  0.84817009176E+02 -0.75443178925E+02  0.84129481529E+02  0.16280177490E+03  0.80876757819E+02 0.  0.
         24    2    4    4    0    0  0.27470190884E+02 -0.11270618521E+04 -0.17430695063E+04  0.20774059628E+04  0.79380103298E+02 0.  0.
         11    1    3    3    0    0 -0.75907536262E+02  0.44139332714E+03  0.94785934681E+02  0.45779296273E+03  0.00000000000E+00 0. -1.
        -11    1    3    3    0    0 -0.36379663798E+02  0.76111170386E+03  0.23419134203E+03  0.79715750662E+03  0.00000000000E+00 0.  1.
          4    1    6    6  502    0  0.23930553948E+02 -0.10063866146E+04 -0.15077528653E+04  0.18129272992E+04  0.00000000000E+00 0. -1.
          1    1    5    5  503    0  0.54968801924E+02  0.27006767188E+01  0.41412315104E+02  0.68875559395E+02  0.00000000000E+00 0. -1.
         -2    1    5    5    0  503  0.29848207252E+02 -0.78143855644E+02  0.42717166425E+02  0.93926215502E+02  0.00000000000E+00 0.  1.
         -3    1    6    6    0  502  0.35396369360E+01 -0.12067523752E+03 -0.23531664103E+03  0.26447866365E+03  0.00000000000E+00 0.  1.
<mgrwt>
<rscale>  0 0.32322330E+04</rscale>
<asrwt>0</asrwt>
<pdfrwt beam="1">  1        2 0.37116315E+00 0.32322330E+04</pdfrwt>
<pdfrwt beam="2">  1       -2 0.16655349E+00 0.32322330E+04</pdfrwt>
<totfact> 0.74074636E-01</totfact>
</mgrwt>
</event>
<event>
12    1  0.2019083E-007  0.1227645E+04  0.7818608E-02  0.9088997E-01
         -2   -1    0    0    0  501 -0.00000000000E+00  0.00000000000E+00  0.71808599133E+02  0.71808599133E+02  0.00000000000E+00 0.  1.
          2   -1    0    0  501    0  0.00000000000E+00 -0.00000000000E+00 -0.52469769624E+04  0.52469769624E+04  0.00000000000E+00 0. -1.
         23    2    1    2    0    0 -0.24293682993E+03 -0.59260944946E+01 -0.17500574765E+04  0.17694113996E+04  0.95195103940E+02 0.  0.
        254    2    1    2    0    0  0.24293682993E+03  0.59260944946E+01 -0.34251108867E+04  0.35493741620E+04  0.89867621159E+03 0.  0.
        -24    2    4    4    0    0  0.78001246697E+02  0.37638172921E+03 -0.79160627405E+03  0.88374599580E+03  0.81357798647E+02 0.  0.
         24    2    4    4    0    0  0.16493558323E+03 -0.37045563472E+03 -0.26335046127E+04  0.26656281662E+04  0.76064783836E+02 0.  0.
         13    1    3    3    0    0 -0.81924340004E+02  0.41437057381E+02 -0.70735080662E+03  0.71328380805E+03  0.00000000000E+00 0. -1.
        -13    1    3    3    0    0 -0.16101248992E+03 -0.47363151876E+02 -0.10427066699E+04  0.10561275915E+04  0.00000000000E+00 0.  1.
          4    1    6    6  502    0  0.12844507094E+03 -0.22600272810E+03 -0.18379583013E+04  0.18562505453E+04  0.00000000000E+00 0. -1.
          1    1    5    5  503    0  0.39983381087E+02  0.32604723198E+03 -0.63552408835E+03  0.71539942348E+03  0.00000000000E+00 0. -1.
         -2    1    5    5    0  503  0.38017865609E+02  0.50334497229E+02 -0.15608218571E+03  0.16834657232E+03  0.00000000000E+00 0.  1.
         -3    1    6    6    0  502  0.36490512289E+02 -0.14445290662E+03 -0.79554631134E+03  0.80937762090E+03  0.00000000000E+00 0.  1.
<mgrwt>
<rscale>  0 0.12276450E+04</rscale>
<asrwt>0</asrwt>
<pdfrwt beam="1">  1        2 0.80722707E+00 0.12276450E+04</pdfrwt>
<pdfrwt beam="2">  1       -2 0.11047479E-01 0.12276450E+04</pdfrwt>
<totfact> 0.99135374E-01</totfact>
</mgrwt>
</event>
<event>
12    1  0.2019083E-007  0.1321233E+04  0.7818608E-02  0.9012894E-01
          1   -1    0    0  501    0  0.00000000000E+00  0.00000000000E+00  0.11956479805E+04  0.11956479805E+04  0.00000000000E+00 0. -1.
         -1   -1    0    0    0  501 -0.00000000000E+00 -0.00000000000E+00 -0.36500236486E+03  0.36500236486E+03  0.00000000000E+00 0.  1.
         23    2    1    2    0    0 -0.13556906265E+03  0.22767287488E+03  0.50909748525E+03  0.58096071081E+03  0.90117641521E+02 0.  0.
        254    2    1    2    0    0  0.13556906265E+03 -0.22767287488E+03  0.32154813042E+03  0.97968963457E+03  0.88667055393E+03 0.  0.
        -24    2    4    4    0    0 -0.23963845110E+03  0.12030133917E+03  0.36484994889E+03  0.45964487256E+03  0.79113363078E+02 0.  0.
         24    2    4    4    0    0  0.37520751375E+03 -0.34797421405E+03 -0.43301818473E+02  0.52004476201E+03  0.81882690414E+02 0.  0.
         11    1    3    3    0    0 -0.72864548494E+02  0.19184832146E+03  0.34072450677E+03  0.39775395710E+03  0.00000000000E+00 0. -1.
        -11    1    3    3    0    0 -0.62704514153E+02  0.35824553418E+02  0.16837297847E+03  0.18320675370E+03  0.00000000000E+00 0.  1.
          2    1    6    6  502    0  0.12288782849E+03 -0.15703779131E+03  0.76333098996E+01  0.19955088001E+03  0.00000000000E+00 0. -1.
          3    1    5    5  503    0 -0.12729510656E+03  0.91696886721E+02  0.25818232132E+03  0.30211003663E+03  0.00000000000E+00 0. -1.
         -4    1    5    5    0  503 -0.11234334454E+03  0.28604452453E+02  0.10666762757E+03  0.15753483593E+03  0.00000000000E+00 0.  1.
         -1    1    6    6    0  502  0.25231968525E+03 -0.19093642274E+03 -0.50935128373E+02  0.32049388200E+03  0.00000000000E+00 0.  1.
<mgrwt>
<rscale>  0 0.13212333E+04</rscale>
<asrwt>0</asrwt>
<pdfrwt beam="1">  1        1 0.18394584E+00 0.13212333E+04</pdfrwt>
<pdfrwt beam="2">  1       -1 0.56154211E-01 0.13212333E+04</pdfrwt>
<totfact> 0.33877868E+01</totfact>
</mgrwt>
</event>
<event>
12    1  0.2019083E-007  0.1825604E+04  0.7818608E-02  0.8692801E-01
         -2   -1    0    0    0  501 -0.00000000000E+00  0.00000000000E+00  0.99606782297E+03  0.99606782297E+03  0.00000000000E+00 0.  1.
          2   -1    0    0  501    0  0.00000000000E+00 -0.00000000000E+00 -0.83649651189E+03  0.83649651189E+03  0.00000000000E+00 0. -1.
         23    2    1    2    0    0 -0.19716185102E+03 -0.60757891719E+03 -0.19338129955E+03  0.67340654659E+03  0.89750286179E+02 0.  0.
        254    2    1    2    0    0  0.19716185102E+03  0.60757891719E+03  0.35295261064E+03  0.11591577883E+04  0.90058108832E+03 0.  0.
        -24    2    4    4    0    0  0.22711469665E+03  0.44242158656E+03 -0.22560565520E+03  0.55123208962E+03  0.75106319811E+02 0.  0.
         24    2    4    4    0    0 -0.29952845635E+02  0.16515733063E+03  0.57855826584E+03  0.60792569865E+03  0.81669279986E+02 0.  0.
         13    1    3    3    0    0 -0.50894745107E+02 -0.27599999835E+03 -0.58307537546E+02  0.28664619848E+03  0.00000000000E+00 0.  1.
        -13    1    3    3    0    0 -0.14626710591E+03 -0.33157891884E+03 -0.13507376201E+03  0.38676034811E+03  0.00000000000E+00 0. -1.
          2    1    6    6  502    0  0.42743256615E+01  0.13642586619E+03  0.49105634191E+03  0.50967304986E+03  0.00000000000E+00 0. -1.
          1    1    5    5  503    0  0.19339127316E+03  0.38578805397E+03 -0.16602685600E+03  0.46238244347E+03  0.00000000000E+00 0. -1.
         -2    1    5    5    0  503  0.33723423494E+02  0.56633532593E+02 -0.59578799198E+02  0.88849646145E+02  0.00000000000E+00 0.  1.
         -1    1    6    6    0  502 -0.34227171297E+02  0.28731464435E+02  0.87501923930E+02  0.98252648794E+02  0.00000000000E+00 0.  1.
<mgrwt>
<rscale>  0 0.18256037E+04</rscale>
<asrwt>0</asrwt>
<pdfrwt beam="1">  1        2 0.12869177E+00 0.18256037E+04</pdfrwt>
<pdfrwt beam="2">  1       -2 0.15324120E+00 0.18256037E+04</pdfrwt>
<totfact> 0.86472918E+00</totfact>
</mgrwt>
</event>
<event>
12    1  0.2019083E-007  0.1668815E+04  0.7818608E-02  0.8779353E-01
         -1   -1    0    0    0  501 -0.00000000000E+00  0.00000000000E+00  0.69276315262E+03  0.69276315262E+03  0.00000000000E+00 0.  1.
          1   -1    0    0  501    0  0.00000000000E+00 -0.00000000000E+00 -0.10050127487E+04  0.10050127487E+04  0.00000000000E+00 0. -1.
         23    2    1    2    0    0  0.90314290314E+02 -0.39918866817E+03 -0.53909516310E+03  0.68276091450E+03  0.89613657769E+02 0.  0.
        254    2    1    2    0    0 -0.90314290314E+02  0.39918866817E+03  0.22684556705E+03  0.10150149868E+04  0.90071540916E+03 0.  0.
        -24    2    4    4    0    0 -0.44535760835E+03  0.19320464615E+03  0.31890110545E+03  0.58620932828E+03  0.79196129313E+02 0.  0.
         24    2    4    4    0    0  0.35504331803E+03  0.20598402203E+03 -0.92055538407E+02  0.42880565852E+03  0.83155851358E+02 0.  0.
         11    1    3    3    0    0  0.50693770663E+02 -0.25481658278E+03 -0.26920780798E+03  0.37413125120E+03  0.00000000000E+00 0.  1.
        -11    1    3    3    0    0  0.39620519651E+02 -0.14437208539E+03 -0.26988735512E+03  0.30862966330E+03  0.00000000000E+00 0. -1.
          2    1    6    6  502    0  0.33906782322E+03  0.19957598193E+03 -0.68078088792E+02  0.39928960352E+03  0.00000000000E+00 0. -1.
          1    1    5    5  503    0 -0.34613544503E+03  0.15226596099E+03  0.28542455274E+03  0.47377404371E+03  0.00000000000E+00 0. -1.
         -2    1    5    5    0  503 -0.99222163319E+02  0.40938685153E+02  0.33476552711E+02  0.11243528457E+03  0.00000000000E+00 0.  1.
         -1    1    6    6    0  502  0.15975494811E+02  0.64080400925E+01 -0.23977449615E+02  0.29516054993E+02  0.00000000000E+00 0.  1.
<mgrwt>
<rscale>  0 0.16688149E+04</rscale>
<asrwt>0</asrwt>
<pdfrwt beam="1">  1        1 0.15461735E+00 0.16688149E+04</pdfrwt>
<pdfrwt beam="2">  1       -1 0.10657895E+00 0.16688149E+04</pdfrwt>
<totfact> 0.11764878E+01</totfact>
</mgrwt>
</event>
<event>
12    1  0.2019083E-007  0.1886142E+04  0.7818608E-02  0.8661785E-01
         -2   -1    0    0    0  501 -0.00000000000E+00  0.00000000000E+00  0.11052699504E+04  0.11052699504E+04  0.00000000000E+00 0.  1.
          2   -1    0    0  501    0  0.00000000000E+00 -0.00000000000E+00 -0.80467457427E+03  0.80467457427E+03  0.00000000000E+00 0. -1.
         23    2    1    2    0    0 -0.32216079430E+03 -0.46720109653E+03  0.57342043089E+03  0.81191929366E+03  0.91309949436E+02 0.  0.
        254    2    1    2    0    0  0.32216079430E+03  0.46720109653E+03 -0.27282505474E+03  0.10980252310E+04  0.89953402130E+03 0.  0.
        -24    2    4    4    0    0  0.28288074641E+03  0.94009267209E+02  0.28561524080E+03  0.42086735826E+03  0.81816920372E+02 0.  0.
         24    2    4    4    0    0  0.39280047891E+02  0.37319182932E+03 -0.55844029554E+03  0.67715787276E+03  0.76630002732E+02 0.  0.
         11    1    3    3    0    0 -0.29195194442E+03 -0.45481135841E+03  0.55387731742E+03  0.77386652101E+03  0.00000000000E+00 0.  1.
        -11    1    3    3    0    0 -0.30208849880E+02 -0.12389738118E+02  0.19543113465E+02  0.38052772640E+02  0.00000000000E+00 0. -1.
          2    1    6    6  502    0  0.41463226507E+02  0.10045782116E+03 -0.13237174156E+03  0.17126952720E+03  0.00000000000E+00 0. -1.
          1    1    5    5  503    0  0.49110021224E+02  0.72993607290E+01  0.12787499372E+02  0.51269825355E+02  0.00000000000E+00 0. -1.
         -2    1    5    5    0  503  0.23377072519E+03  0.86709906480E+02  0.27282774143E+03  0.36959753291E+03  0.00000000000E+00 0.  1.
         -1    1    6    6    0  502 -0.21831786162E+01  0.27273400816E+03 -0.42606855399E+03  0.50588834556E+03  0.00000000000E+00 0.  1.
<mgrwt>
<rscale>  0 0.18861417E+04</rscale>
<asrwt>0</asrwt>
<pdfrwt beam="1">  1        2 0.12379609E+00 0.18861417E+04</pdfrwt>
<pdfrwt beam="2">  1       -2 0.17004153E+00 0.18861417E+04</pdfrwt>
<totfact> 0.68222005E+00</totfact>
</mgrwt>
</event>
<event>
12    1  0.2019083E-007  0.1932166E+04  0.7818608E-02  0.8639009E-01
          2   -1    0    0  501    0  0.00000000000E+00  0.00000000000E+00  0.53248381228E+03  0.53248381228E+03  0.00000000000E+00 0. -1.
         -2   -1    0    0    0  501 -0.00000000000E+00 -0.00000000000E+00 -0.17527595454E+04  0.17527595454E+04  0.00000000000E+00 0.  1.
         23    2    1    2    0    0 -0.49557595173E+03 -0.56545711413E+03 -0.54865042238E+03  0.93484813260E+03  0.87100362750E+02 0.  0.
        254    2    1    2    0    0  0.49557595173E+03  0.56545711413E+03 -0.67162531073E+03  0.13503952251E+04  0.89841495650E+03 0.  0.
        -24    2    4    4    0    0 -0.10428700471E+03  0.36916089962E+03  0.42772598404E+02  0.39359793668E+03  0.77034352224E+02 0.  0.
         24    2    4    4    0    0  0.59986295644E+03  0.19629621451E+03 -0.71439790914E+03  0.95679728841E+03  0.82029922484E+02 0.  0.
         13    1    3    3    0    0 -0.23583368006E+03 -0.33452939102E+03 -0.30267826996E+03  0.50905949870E+03  0.00000000000E+00 0.  1.
        -13    1    3    3    0    0 -0.25974227168E+03 -0.23092772311E+03 -0.24597215241E+03  0.42578863390E+03  0.00000000000E+00 0. -1.
          4    1    6    6  502    0  0.55374567564E+03  0.16403461741E+03 -0.62343863296E+03  0.84983372377E+03  0.00000000000E+00 0. -1.
          1    1    5    5  503    0 -0.10485332603E+03  0.33418245263E+03  0.58750036267E+02  0.35513898460E+03  0.00000000000E+00 0. -1.
         -2    1    5    5    0  503  0.56632132491E+00  0.34978446993E+02 -0.15977437863E+02  0.38458952073E+02  0.00000000000E+00 0.  1.
         -3    1    6    6    0  502  0.46117280799E+02  0.32261597096E+02 -0.90959276182E+02  0.10696356463E+03  0.00000000000E+00 0.  1.
<mgrwt>
<rscale>  0 0.19321657E+04</rscale>
<asrwt>0</asrwt>
<pdfrwt beam="1">  1        2 0.81920585E-01 0.19321657E+04</pdfrwt>
<pdfrwt beam="2">  1       -2 0.26965532E+00 0.19321657E+04</pdfrwt>
<totfact> 0.26031872E+00</totfact>
</mgrwt>
</event>
<event>
12    1  0.2019083E-007  0.2980424E+04  0.7818608E-02  0.8249343E-01
          1   -1    0    0  501    0  0.00000000000E+00  0.00000000000E+00  0.28720992948E+04  0.28720992948E+04  0.00000000000E+00 0. -1.
         -1   -1    0    0    0  501 -0.00000000000E+00 -0.00000000000E+00 -0.77320862021E+03  0.77320862021E+03  0.00000000000E+00 0.  1.
         23    2    1    2    0    0 -0.21054817742E+03  0.13336686286E+04  0.11206715234E+04  0.17570507294E+04  0.91214343812E+02 0.  0.
        254    2    1    2    0    0  0.21054817742E+03 -0.13336686286E+04  0.97821915129E+03  0.18882571857E+04  0.88634076150E+03 0.  0.
        -24    2    4    4    0    0  0.37105820423E+03 -0.23710684226E+03  0.70039510955E+02  0.45303230909E+03  0.80180386742E+02 0.  0.
         24    2    4    4    0    0 -0.16051002680E+03 -0.10965617863E+04  0.90817964033E+03  0.14352248766E+04  0.82879233619E+02 0.  0.
         13    1    3    3    0    0 -0.75215511703E+01  0.92251966491E+02  0.50107372442E+02  0.10525088041E+03  0.00000000000E+00 0.  1.
        -13    1    3    3    0    0 -0.20302662625E+03  0.12414166621E+04  0.10705641509E+04  0.16517998490E+04  0.00000000000E+00 0. -1.
          4    1    6    6  502    0 -0.52683194838E+02 -0.20748605784E+03  0.20721075162E+03  0.29792998977E+03  0.00000000000E+00 0. -1.
          3    1    5    5  503    0  0.13271351873E+03 -0.40936343176E+02  0.20380252025E+02  0.14037099743E+03  0.00000000000E+00 0. -1.
         -4    1    5    5    0  503  0.23834468549E+03 -0.19617049908E+03  0.49659258931E+02  0.31266131166E+03  0.00000000000E+00 0.  1.
         -3    1    6    6    0  502 -0.10782683197E+03 -0.88907572847E+03  0.70096888871E+03  0.11372948868E+04  0.00000000000E+00 0.  1.
<mgrwt>
<rscale>  0 0.29804241E+04</rscale>
<asrwt>0</asrwt>
<pdfrwt beam="1">  1        1 0.44186143E+00 0.29804241E+04</pdfrwt>
<pdfrwt beam="2">  1       -1 0.11895517E+00 0.29804241E+04</pdfrwt>
<totfact> 0.39870453E-01</totfact>
</mgrwt>
</event>
<event>
12    1  0.2523594E-007  0.2341250E+04  0.7818608E-02  0.8461832E-01
          1   -1    0    0  501    0  0.00000000000E+00  0.00000000000E+00  0.11267904277E+04  0.11267904277E+04  0.00000000000E+00 0. -1.
         -1   -1    0    0    0  501 -0.00000000000E+00 -0.00000000000E+00 -0.12161653031E+04  0.12161653031E+04  0.00000000000E+00 0.  1.
         23    2    1    2    0    0 -0.84753812788E+03  0.38365996915E+03  0.31554344679E+03  0.98661113346E+03  0.91203134436E+02 0.  0.
        254    2    1    2    0    0  0.84753812788E+03 -0.38365996915E+03 -0.40491832217E+03  0.13563445973E+04  0.90010886495E+03 0.  0.
        -24    2    4    4    0    0 -0.81273455375E+02  0.17148666117E+03 -0.29557387568E+02  0.20828409578E+03  0.80595135632E+02 0.  0.
         24    2    4    4    0    0  0.92881158325E+03 -0.55514663032E+03 -0.37536093460E+03  0.11480605015E+04  0.79172883562E+02 0.  0.
         13    1    3    3    0    0 -0.33952312916E+03  0.20046822309E+03  0.14857992104E+03  0.42135431247E+03  0.00000000000E+00 0. -1.
        -13    1    3    3    0    0 -0.50801499872E+03  0.18319174606E+03  0.16696352575E+03  0.56525682099E+03  0.00000000000E+00 0.  1.
          2    1    6    6  502    0  0.17386676547E+02 -0.25349632318E+02 -0.10077610751E+02  0.32349012635E+02  0.00000000000E+00 0. -1.
          3    1    5    5  503    0 -0.30573703180E+01  0.62478720405E+01 -0.24425142697E+02  0.25396279532E+02  0.00000000000E+00 0. -1.
         -4    1    5    5    0  503 -0.78216085057E+02  0.16523878913E+03 -0.51322448710E+01  0.18288781625E+03  0.00000000000E+00 0.  1.
         -1    1    6    6    0  502  0.91142490670E+03 -0.52979699800E+03 -0.36528332385E+03  0.11157114888E+04  0.00000000000E+00 0.  1.
<mgrwt>
<rscale>  0 0.23412505E+04</rscale>
<asrwt>0</asrwt>
<pdfrwt beam="1">  1        1 0.17335237E+00 0.23412505E+04</pdfrwt>
<pdfrwt beam="2">  1       -1 0.18710235E+00 0.23412505E+04</pdfrwt>
<totfact> 0.20192914E+00</totfact>
</mgrwt>
</event>
<event>
12    1  0.2019083E-007  0.1567721E+04  0.7818608E-02  0.8840627E-01
          2   -1    0    0  501    0  0.00000000000E+00  0.00000000000E+00  0.21791182212E+04  0.21791182212E+04  0.00000000000E+00 0. -1.
         -2   -1    0    0    0  501 -0.00000000000E+00 -0.00000000000E+00 -0.28196600915E+03  0.28196600915E+03  0.00000000000E+00 0.  1.
         23    2    1    2    0    0  0.19313232976E+03  0.15804502416E+03  0.13704283027E+04  0.13959412690E+04  0.91104155638E+02 0.  0.
        254    2    1    2    0    0 -0.19313232976E+03 -0.15804502416E+03  0.52672390934E+03  0.10651429613E+04  0.89152292454E+03 0.  0.
        -24    2    4    4    0    0  0.60765116906E+02 -0.87838461742E+01  0.70491602790E+03  0.71211409511E+03  0.80189292779E+02 0.  0.
         24    2    4    4    0    0 -0.25389744667E+03 -0.14926117798E+03 -0.17819211856E+03  0.35302886624E+03  0.78320729085E+02 0.  0.
         13    1    3    3    0    0  0.77673909027E+02  0.22271286986E+02  0.58441721235E+03  0.58997688468E+03  0.00000000000E+00 0.  1.
        -13    1    3    3    0    0  0.11545842073E+03  0.13577373717E+03  0.78601109032E+03  0.80596438428E+03  0.00000000000E+00 0. -1.
          2    1    6    6  502    0 -0.13127586565E+03 -0.12034191431E+03 -0.92656888123E+02  0.20075066167E+03  0.00000000000E+00 0. -1.
          3    1    5    5  503    0  0.52008188070E+02 -0.18990998181E+02  0.68923729373E+03  0.69145755958E+03  0.00000000000E+00 0. -1.
         -2    1    5    5    0  503  0.87569288358E+01  0.10207152007E+02  0.15678734173E+02  0.20656535527E+02  0.00000000000E+00 0.  1.
         -1    1    6    6    0  502 -0.12262158101E+03 -0.28919263669E+02 -0.85535230436E+02  0.15227820457E+03  0.00000000000E+00 0.  1.
<mgrwt>
<rscale>  0 0.15677210E+04</rscale>
<asrwt>0</asrwt>
<pdfrwt beam="1">  1        2 0.33524895E+00 0.15677210E+04</pdfrwt>
<pdfrwt beam="2">  1       -2 0.43379387E-01 0.15677210E+04</pdfrwt>
<totfact> 0.25718716E+01</totfact>
</mgrwt>
</event>
<event>
12    1  0.2019083E-007  0.1057674E+04  0.7818608E-02  0.9247457E-01
         -1   -1    0    0    0  501 -0.00000000000E+00  0.00000000000E+00  0.53896158909E+03  0.53896158909E+03  0.00000000000E+00 0.  1.
          1   -1    0    0  501    0  0.00000000000E+00 -0.00000000000E+00 -0.51890219552E+03  0.51890219552E+03  0.00000000000E+00 0. -1.
         23    2    1    2    0    0  0.22405692118E+01 -0.75547894073E+02 -0.89925105056E+02  0.14861088303E+03  0.91028377925E+02 0.  0.
        254    2    1    2    0    0 -0.22405692118E+01  0.75547894073E+02  0.10998449863E+03  0.90925290158E+03  0.89940632900E+03 0.  0.
        -24    2    4    4    0    0  0.25829185865E+03  0.37410077186E+03 -0.69655538841E+02  0.46697513086E+03  0.80918520737E+02 0.  0.
         24    2    4    4    0    0 -0.26053242786E+03 -0.29855287779E+03  0.17964003747E+03  0.44227777072E+03  0.79549460090E+02 0.  0.
         11    1    3    3    0    0 -0.77449577458E+01 -0.93581503136E+01 -0.80027739723E+02  0.80944415947E+02  0.00000000000E+00 0. -1.
        -11    1    3    3    0    0  0.99855269575E+01 -0.66189743759E+02 -0.98973653327E+01  0.67666467087E+02  0.00000000000E+00 0.  1.
          2    1    6    6  502    0 -0.24754732843E+03 -0.24402554192E+03  0.14694511477E+03  0.37738708467E+03  0.00000000000E+00 0. -1.
          1    1    5    5  503    0  0.21805614723E+03  0.28563806435E+03 -0.83171920060E+02  0.36885655130E+03  0.00000000000E+00 0. -1.
         -2    1    5    5    0  503  0.40235711426E+02  0.88462707517E+02  0.13516381219E+02  0.98118579568E+02  0.00000000000E+00 0.  1.
         -1    1    6    6    0  502 -0.12985099429E+02 -0.54527335871E+02  0.32694922704E+02  0.64890686042E+02  0.00000000000E+00 0.  1.
<mgrwt>
<rscale>  0 0.10576736E+04</rscale>
<asrwt>0</asrwt>
<pdfrwt beam="1">  1        1 0.79831107E-01 0.10576736E+04</pdfrwt>
<pdfrwt beam="2">  1       -1 0.82917167E-01 0.10576736E+04</pdfrwt>
<totfact> 0.60796204E+01</totfact>
</mgrwt>
</event>
<event>
12    1  0.2019083E-007  0.1158810E+04  0.7818608E-02  0.9149694E-01
         -2   -1    0    0    0  501 -0.00000000000E+00  0.00000000000E+00  0.69114193146E+03  0.69114193146E+03  0.00000000000E+00 0. -1.
          2   -1    0    0  501    0  0.00000000000E+00 -0.00000000000E+00 -0.48573243792E+03  0.48573243792E+03  0.00000000000E+00 0.  1.
         23    2    1    2    0    0 -0.21518711902E+03 -0.11517179412E+02  0.33651582315E+02  0.23700935524E+03  0.92751624608E+02 0.  0.
        254    2    1    2    0    0  0.21518711902E+03  0.11517179412E+02  0.17175791122E+03  0.93986501413E+03  0.89855846950E+03 0.  0.
        -24    2    4    4    0    0 -0.47342896576E+02 -0.31539025882E+03 -0.19059201531E+03  0.37989340518E+03  0.79254765061E+02 0.  0.
         24    2    4    4    0    0  0.26253001560E+03  0.32690743823E+03  0.36234992654E+03  0.55997160895E+03  0.80500008167E+02 0.  0.
         11    1    3    3    0    0 -0.11109447860E+03 -0.16556865214E+02 -0.28219809070E+02  0.11581222123E+03  0.00000000000E+00 0.  1.
        -11    1    3    3    0    0 -0.10409264042E+03  0.50396858020E+01  0.61871391385E+02  0.12119713402E+03  0.00000000000E+00 0. -1.
          2    1    6    6  502    0  0.12396224099E+02 -0.30821058864E+01  0.90487771248E+01  0.15653948897E+02  0.00000000000E+00 0. -1.
          1    1    5    5  503    0  0.14802687622E+02 -0.52165784870E+02 -0.55417452892E+02  0.77533752372E+02  0.00000000000E+00 0. -1.
         -2    1    5    5    0  503 -0.62145584198E+02 -0.26322447395E+03 -0.13517456242E+03  0.30235965281E+03  0.00000000000E+00 0.  1.
         -1    1    6    6    0  502  0.25013379150E+03  0.32998954411E+03  0.35330114941E+03  0.54431766006E+03  0.00000000000E+00 0.  1.
<mgrwt>
<rscale>  0 0.11588098E+04</rscale>
<asrwt>0</asrwt>
<pdfrwt beam="1">  1        2 0.74728067E-01 0.11588098E+04</pdfrwt>
<pdfrwt beam="2">  1       -2 0.10632953E+00 0.11588098E+04</pdfrwt>
<totfact> 0.44937879E+01</totfact>
</mgrwt>
</event>
<event>
12    1  0.2019083E-007  0.2305748E+04  0.7818608E-02  0.8475658E-01
          2   -1    0    0  501    0  0.00000000000E+00  0.00000000000E+00  0.35921724446E+04  0.35921724446E+04  0.00000000000E+00 0. -1.
         -2   -1    0    0    0  501 -0.00000000000E+00 -0.00000000000E+00 -0.37000405735E+03  0.37000405735E+03  0.00000000000E+00 0.  1.
         23    2    1    2    0    0 -0.43207508886E+03 -0.87330930859E+03  0.14039309071E+04  0.17113033901E+04  0.90439318020E+02 0.  0.
        254    2    1    2    0    0  0.43207508886E+03  0.87330930859E+03  0.18182374801E+04  0.22508731118E+04  0.90060213216E+03 0.  0.
        -24    2    4    4    0    0 -0.16336494052E+03  0.66344930056E+03  0.88027689803E+03  0.11175589081E+04  0.84837595832E+02 0.  0.
         24    2    4    4    0    0  0.59544002939E+03  0.20986000803E+03  0.93796058206E+03  0.11333142037E+04  0.77723736348E+02 0.  0.
         11    1    3    3    0    0 -0.29111065799E+03 -0.53727320875E+03  0.81290811877E+03  0.10169697761E+04  0.00000000000E+00 0.  1.
        -11    1    3    3    0    0 -0.14096443087E+03 -0.33603609984E+03  0.59102278835E+03  0.69433361399E+03  0.00000000000E+00 0. -1.
          2    1    6    6  502    0  0.48872624750E+03  0.20047542372E+03  0.75869523049E+03  0.92447941744E+03  0.00000000000E+00 0. -1.
          3    1    5    5  503    0 -0.15054080656E+03  0.45834679991E+03  0.59612988413E+03  0.76688666841E+03  0.00000000000E+00 0. -1.
         -4    1    5    5    0  503 -0.12824133967E+02  0.20510250065E+03  0.28414701390E+03  0.35067223969E+03  0.00000000000E+00 0.  1.
         -3    1    6    6    0  502  0.10671378189E+03  0.93845843111E+01  0.17926535157E+03  0.20883478623E+03  0.00000000000E+00 0.  1.
<mgrwt>
<rscale>  0 0.23057479E+04</rscale>
<asrwt>0</asrwt>
<pdfrwt beam="1">  1        2 0.55264189E+00 0.23057479E+04</pdfrwt>
<pdfrwt beam="2">  1       -2 0.56923704E-01 0.23057479E+04</pdfrwt>
<totfact> 0.18396116E+00</totfact>
</mgrwt>
</event>
<event>
12    1  0.2019083E-007  0.3468838E+04  0.7818608E-02  0.8121215E-01
          1   -1    0    0  501    0  0.00000000000E+00  0.00000000000E+00  0.25189251339E+04  0.25189251339E+04  0.00000000000E+00 0.  1.
         -1   -1    0    0    0  501 -0.00000000000E+00 -0.00000000000E+00 -0.11942433697E+04  0.11942433697E+04  0.00000000000E+00 0. -1.
         23    2    1    2    0    0 -0.91714750256E+03  0.20329039131E+03 -0.78884548451E+03  0.12309587869E+04  0.10244906995E+03 0.  0.
        254    2    1    2    0    0  0.91714750256E+03 -0.20329039131E+03  0.21135272488E+04  0.24822097167E+04  0.90104446159E+03 0.  0.
        -24    2    4    4    0    0  0.11825317278E+03 -0.41604968363E+03  0.10056598093E+04  0.10976769250E+04  0.80385493215E+02 0.  0.
         24    2    4    4    0    0  0.79889432979E+03  0.21275929231E+03  0.11078674395E+04  0.13845327917E+04  0.77859625268E+02 0.  0.
         13    1    3    3    0    0 -0.15329455090E+03  0.29333770655E+02 -0.84554107504E+02  0.17750799005E+03  0.00000000000E+00 0. -1.
        -13    1    3    3    0    0 -0.76385295166E+03  0.17395662066E+03 -0.70429137700E+03  0.10534507968E+04  0.00000000000E+00 0.  1.
          4    1    6    6  502    0  0.38876992386E+03  0.11483018532E+03  0.60541015094E+03  0.72859417786E+03  0.00000000000E+00 0. -1.
          1    1    5    5  503    0  0.12075840250E+03 -0.37239565608E+03  0.94516710822E+03  0.10230356684E+04  0.00000000000E+00 0. -1.
         -2    1    5    5    0  503 -0.25052297163E+01 -0.43654027542E+02  0.60492701072E+02  0.74641256551E+02  0.00000000000E+00 0.  1.
         -3    1    6    6    0  502  0.41012440593E+03  0.97929106995E+02  0.50245728854E+03  0.65593861385E+03  0.00000000000E+00 0.  1.
<mgrwt>
<rscale>  0 0.34688382E+04</rscale>
<asrwt>0</asrwt>
<pdfrwt beam="1">  1        1 0.38752694E+00 0.34688382E+04</pdfrwt>
<pdfrwt beam="2">  1       -1 0.18372975E+00 0.34688382E+04</pdfrwt>
<totfact> 0.21035559E-01</totfact>
</mgrwt>
</event>
<event>
12    1  0.2019083E-007  0.1579564E+04  0.7818608E-02  0.8833202E-01
          3   -1    0    0  501    0  0.00000000000E+00  0.00000000000E+00  0.45045971385E+03  0.45045971385E+03  0.00000000000E+00 0. -1.
         -3   -1    0    0    0  501 -0.00000000000E+00 -0.00000000000E+00 -0.13847085928E+04  0.13847085928E+04  0.00000000000E+00 0.  1.
         23    2    1    2    0    0  0.27370774595E+03 -0.43639264993E+03 -0.17764333048E+03  0.55246962680E+03  0.91165018310E+02 0.  0.
        254    2    1    2    0    0 -0.27370774595E+03  0.43639264993E+03 -0.75660554851E+03  0.12826986799E+04  0.89861530828E+03 0.  0.
        -24    2    4    4    0    0 -0.21124486070E+02 -0.25168596866E+03 -0.35619403017E+03  0.44380210619E+03  0.79335059090E+02 0.  0.
         24    2    4    4    0    0 -0.25258325988E+03  0.68807861858E+03 -0.40041151833E+03  0.83889657370E+03  0.78533997941E+02 0.  0.
         11    1    3    3    0    0  0.14349865601E+03 -0.19072413973E+03 -0.12520705558E+03  0.26952619264E+03  0.00000000000E+00 0.  1.
        -11    1    3    3    0    0  0.13020908994E+03 -0.24566851019E+03 -0.52436274901E+02  0.28294343415E+03  0.00000000000E+00 0. -1.
          2    1    6    6  502    0 -0.10795162269E+03  0.33789255817E+03 -0.15245169380E+03  0.38609124912E+03  0.00000000000E+00 0. -1.
          3    1    5    5  503    0 -0.35332858618E+02 -0.56448940881E+02 -0.11795878930E+03  0.13545910748E+03  0.00000000000E+00 0. -1.
         -4    1    5    5    0  503  0.14208372548E+02 -0.19523702778E+03 -0.23823524087E+03  0.30834299872E+03  0.00000000000E+00 0.  1.
         -1    1    6    6    0  502 -0.14463163719E+03  0.35018606041E+03 -0.24795982453E+03  0.45280532458E+03  0.00000000000E+00 0.  1.
<mgrwt>
<rscale>  0 0.15795638E+04</rscale>
<asrwt>0</asrwt>
<pdfrwt beam="1">  1        3 0.69301495E-01 0.15795638E+04</pdfrwt>
<pdfrwt beam="2">  1       -3 0.21303209E+00 0.15795638E+04</pdfrwt>
<totfact> 0.60937620E-01</totfact>
</mgrwt>
</event>
<event>
12    1  0.2019083E-007  0.1964867E+04  0.7818608E-02  0.8623225E-01
         -2   -1    0    0    0  501 -0.00000000000E+00  0.00000000000E+00  0.40398946271E+03  0.40398946271E+03  0.00000000000E+00 0.  1.
          2   -1    0    0  501    0  0.00000000000E+00 -0.00000000000E+00 -0.23891117310E+04  0.23891117310E+04  0.00000000000E+00 0. -1.
         23    2    1    2    0    0 -0.21953513558E+03 -0.58561073558E+03 -0.14100506953E+03  0.64740526605E+03  0.90086289178E+02 0.  0.
        254    2    1    2    0    0  0.21953513558E+03  0.58561073558E+03 -0.18441171988E+04  0.21456959277E+04  0.90116988509E+03 0.  0.
        -24    2    4    4    0    0  0.43085400396E+03  0.92643759084E+02 -0.39053592231E+03  0.59405339416E+03  0.78505348059E+02 0.  0.
         24    2    4    4    0    0 -0.21131886838E+03  0.49296697650E+03 -0.14535812765E+04  0.15516425335E+04  0.83808832750E+02 0.  0.
         13    1    3    3    0    0 -0.10118752749E+03 -0.38814580526E+03 -0.76787812915E+02  0.40840231399E+03  0.00000000000E+00 0.  1.
        -13    1    3    3    0    0 -0.11834760809E+03 -0.19746493032E+03 -0.64217256612E+02  0.23900295206E+03  0.00000000000E+00 0. -1.
          2    1    6    6  502    0 -0.55168744500E+02  0.94454721463E+02 -0.21563090696E+03  0.24178910814E+03  0.00000000000E+00 0. -1.
          3    1    5    5  503    0  0.17587469250E+03  0.76956006254E+02 -0.15871628218E+03  0.24908832287E+03  0.00000000000E+00 0. -1.
         -4    1    5    5    0  503  0.25497931146E+03  0.15687752830E+02 -0.23181964014E+03  0.34496507129E+03  0.00000000000E+00 0.  1.
         -1    1    6    6    0  502 -0.15615012388E+03  0.39851225504E+03 -0.12379503695E+04  0.13098534254E+04  0.00000000000E+00 0.  1.
<mgrwt>
<rscale>  0 0.19648674E+04</rscale>
<asrwt>0</asrwt>
<pdfrwt beam="1">  1        2 0.36755564E+00 0.19648674E+04</pdfrwt>
<pdfrwt beam="2">  1       -2 0.62152226E-01 0.19648674E+04</pdfrwt>
<totfact> 0.90331660E+00</totfact>
</mgrwt>
</event>
<event>
12    1  0.2019083E-007  0.1894524E+04  0.7818608E-02  0.8657587E-01
          2   -1    0    0  501    0  0.00000000000E+00  0.00000000000E+00  0.30357315421E+04  0.30357315421E+04  0.00000000000E+00 0.  1.
         -2   -1    0    0    0  501 -0.00000000000E+00 -0.00000000000E+00 -0.29558109603E+03  0.29558109603E+03  0.00000000000E+00 0. -1.
         23    2    1    2    0    0  0.45902815568E+03 -0.94102967590E+02  0.83898181392E+02  0.48828206272E+03  0.10871178279E+03 0.  0.
        254    2    1    2    0    0 -0.45902815568E+03  0.94102967590E+02  0.26562522647E+04  0.28430305754E+04  0.89865707746E+03 0.  0.
        -24    2    4    4    0    0 -0.64058300397E+03 -0.12820220574E+03  0.22102094240E+04  0.23061081534E+04  0.79540723282E+02 0.  0.
         24    2    4    4    0    0  0.18155484829E+03  0.22230517333E+03  0.44604284070E+03  0.53692242204E+03  0.83364971757E+02 0.  0.
         11    1    3    3    0    0  0.27337183530E+03 -0.79196159893E+02  0.99190213105E+02  0.30140154355E+03  0.00000000000E+00 0.  1.
        -11    1    3    3    0    0  0.18565632038E+03 -0.14906807696E+02 -0.15292031713E+02  0.18688051917E+03  0.00000000000E+00 0. -1.
          4    1    6    6  502    0  0.21857697099E+02  0.55729258224E+02  0.47602963197E+02  0.76482359076E+02  0.00000000000E+00 0. -1.
          1    1    5    5  503    0 -0.11507592170E+03 -0.37835472540E+02  0.32119120263E+03  0.34327507831E+03  0.00000000000E+00 0. -1.
         -2    1    5    5    0  503 -0.52550708228E+03 -0.90366733201E+02  0.18890182214E+04  0.19628330751E+04  0.00000000000E+00 0.  1.
         -1    1    6    6    0  502  0.15969715119E+03  0.16657591511E+03  0.39843987751E+03  0.46044006296E+03  0.00000000000E+00 0.  1.
<mgrwt>
<rscale>  0 0.18945235E+04</rscale>
<asrwt>0</asrwt>
<pdfrwt beam="1">  1        2 0.46703560E+00 0.18945235E+04</pdfrwt>
<pdfrwt beam="2">  1       -2 0.45474017E-01 0.18945235E+04</pdfrwt>
<totfact> 0.71274017E+00</totfact>
</mgrwt>
</event>
<event>
12    1  0.2019083E-007  0.2724111E+04  0.7818608E-02  0.8327224E-01
          2   -1    0    0  501    0  0.00000000000E+00  0.00000000000E+00  0.19453225349E+04  0.19453225349E+04  0.00000000000E+00 0. -1.
         -2   -1    0    0    0  501 -0.00000000000E+00 -0.00000000000E+00 -0.95366938259E+03  0.95366938259E+03  0.00000000000E+00 0.  1.
         23    2    1    2    0    0  0.12052464566E+04  0.11495439691E+03  0.39217618640E+03  0.12759104396E+04  0.91168822343E+02 0.  0.
        254    2    1    2    0    0 -0.12052464566E+04 -0.11495439691E+03  0.59947696591E+03  0.16230814779E+04  0.89954839608E+03 0.  0.
        -24    2    4    4    0    0 -0.36838609046E+03  0.92638698837E+02 -0.20681676924E+03  0.43985239411E+03  0.80041941483E+02 0.  0.
         24    2    4    4    0    0 -0.83686036611E+03 -0.20759309574E+03  0.80629373515E+03  0.11832290838E+04  0.80568676859E+02 0.  0.
         11    1    3    3    0    0  0.10889115180E+04  0.76512196658E+02  0.35509228630E+03  0.11478993606E+04  0.00000000000E+00 0.  1.
        -11    1    3    3    0    0  0.11633493861E+03  0.38442200248E+02  0.37083900102E+02  0.12801107900E+03  0.00000000000E+00 0. -1.
          4    1    6    6  502    0 -0.67896029330E+03 -0.14170607319E+03  0.62023732895E+03  0.93046334441E+03  0.00000000000E+00 0. -1.
          3    1    5    5  503    0 -0.33343693927E+03  0.79987385449E+02 -0.21073709594E+03  0.40247769864E+03  0.00000000000E+00 0. -1.
         -4    1    5    5    0  503 -0.34949151192E+02  0.12651313388E+02  0.39203267032E+01  0.37374695463E+02  0.00000000000E+00 0.  1.
         -3    1    6    6    0  502 -0.15790007281E+03 -0.65887022557E+02  0.18605640620E+03  0.25276573941E+03  0.00000000000E+00 0.  1.
<mgrwt>
<rscale>  0 0.27241105E+04</rscale>
<asrwt>0</asrwt>
<pdfrwt beam="1">  1        2 0.29928039E+00 0.27241105E+04</pdfrwt>
<pdfrwt beam="2">  1       -2 0.14671837E+00 0.27241105E+04</pdfrwt>
<totfact> 0.19933018E+00</totfact>
</mgrwt>
</event>
<event>
12    1  0.2019083E-007  0.2121780E+04  0.7818608E-02  0.8551710E-01
          2   -1    0    0  501    0  0.00000000000E+00  0.00000000000E+00  0.87218044031E+03  0.87218044031E+03  0.00000000000E+00 0.  1.
         -2   -1    0    0    0  501 -0.00000000000E+00 -0.00000000000E+00 -0.12904292963E+04  0.12904292963E+04  0.00000000000E+00 0. -1.
         23    2    1    2    0    0 -0.33010397186E+03 -0.55057993055E+03  0.42235469573E+03  0.77378998134E+03  0.90887590203E+02 0.  0.
        254    2    1    2    0    0  0.33010397186E+03  0.55057993055E+03 -0.84060355173E+03  0.13888197553E+04  0.90005504791E+03 0.  0.
        -24    2    4    4    0    0  0.78444984908E+01 -0.23691636800E+03 -0.19972137047E+03  0.32049505875E+03  0.81471192942E+02 0.  0.
         24    2    4    4    0    0  0.32225947337E+03  0.78749629855E+03 -0.64088218126E+03  0.10683246965E+04  0.81154781329E+02 0.  0.
         13    1    3    3    0    0 -0.31486701419E+03 -0.51188885818E+03  0.41785069801E+03  0.73196355482E+03  0.00000000000E+00 0.  1.
        -13    1    3    3    0    0 -0.15236957667E+02 -0.38691072370E+02  0.45039977233E+01  0.41826426522E+02  0.00000000000E+00 0. -1.
          4    1    6    6  502    0  0.82449450726E+01  0.71265104731E+01 -0.12673420968E+00  0.10898730767E+02  0.00000000000E+00 0. -1.
          1    1    5    5  503    0  0.29222150166E+01 -0.11934607038E+02 -0.46878528579E+02  0.48462053480E+02  0.00000000000E+00 0. -1.
         -2    1    5    5    0  503  0.49222834742E+01 -0.22498176096E+03 -0.15284284189E+03  0.27203300527E+03  0.00000000000E+00 0.  1.
         -3    1    6    6    0  502  0.31401452830E+03  0.78036978807E+03 -0.64075544705E+03  0.10574259658E+04  0.00000000000E+00 0.  1.
<mgrwt>
<rscale>  0 0.21217796E+04</rscale>
<asrwt>0</asrwt>
<pdfrwt beam="1">  1        2 0.13418161E+00 0.21217796E+04</pdfrwt>
<pdfrwt beam="2">  1       -2 0.19852758E+00 0.21217796E+04</pdfrwt>
<totfact> 0.38310353E+00</totfact>
</mgrwt>
</event>
<event>
12    1  0.2019083E-007  0.2258843E+04  0.7818608E-02  0.8494328E-01
          1   -1    0    0  501    0  0.00000000000E+00  0.00000000000E+00  0.14739584320E+04  0.14739584320E+04  0.00000000000E+00 0. -1.
         -1   -1    0    0    0  501 -0.00000000000E+00 -0.00000000000E+00 -0.86541992601E+03  0.86541992601E+03  0.00000000000E+00 0.  1.
         23    2    1    2    0    0  0.45181104276E+03 -0.15840308437E+03 -0.58967641721E+03  0.76515205800E+03  0.92274803434E+02 0.  0.
        254    2    1    2    0    0 -0.45181104276E+03  0.15840308437E+03  0.11982149232E+04  0.15742263000E+04  0.90180080173E+03 0.  0.
        -24    2    4    4    0    0 -0.28064672921E+03  0.10155562408E+03  0.13110241180E+04  0.13469644687E+04  0.80330011208E+02 0.  0.
         24    2    4    4    0    0 -0.17116431355E+03  0.56847460283E+02 -0.11280919476E+03  0.22726183130E+03  0.79957298427E+02 0.  0.
         11    1    3    3    0    0  0.16389224846E+03 -0.74596188516E+02 -0.15811145548E+03  0.23963408105E+03  0.00000000000E+00 0. -1.
        -11    1    3    3    0    0  0.28791879430E+03 -0.83806895850E+02 -0.43156496173E+03  0.52551797695E+03  0.00000000000E+00 0.  1.
          2    1    6    6  502    0 -0.64836123049E+02 -0.12994726610E+02 -0.17786012135E+02  0.68475747527E+02  0.00000000000E+00 0. -1.
          3    1    5    5  503    0 -0.33139754387E+02 -0.50452455658E+01  0.79112777737E+02  0.85921647010E+02  0.00000000000E+00 0. -1.
         -4    1    5    5    0  503 -0.24750697483E+03  0.10660086965E+03  0.12319113403E+04  0.12610428217E+04  0.00000000000E+00 0.  1.
         -1    1    6    6    0  502 -0.10632819050E+03  0.69842186893E+02 -0.95023182622E+02  0.15878608377E+03  0.00000000000E+00 0.  1.
<mgrwt>
<rscale>  0 0.22588431E+04</rscale>
<asrwt>0</asrwt>
<pdfrwt beam="1">  1        1 0.22676283E+00 0.22588431E+04</pdfrwt>
<pdfrwt beam="2">  1       -1 0.13314153E+00 0.22588431E+04</pdfrwt>
<totfact> 0.29527604E+00</totfact>
</mgrwt>
</event>
<event>
12    1  0.2019083E-007  0.2529683E+04  0.7818608E-02  0.8392486E-01
          1   -1    0    0  501    0  0.00000000000E+00  0.00000000000E+00  0.97490031499E+03  0.97490031499E+03  0.00000000000E+00 0. -1.
         -1   -1    0    0    0  501 -0.00000000000E+00 -0.00000000000E+00 -0.16410134375E+04  0.16410134375E+04  0.00000000000E+00 0.  1.
         23    2    1    2    0    0 -0.95466566888E+03  0.32583753036E+03  0.17084057981E+03  0.10267040281E+04  0.85895413554E+02 0.  0.
        254    2    1    2    0    0  0.95466566888E+03 -0.32583753036E+03 -0.83695370234E+03  0.15892097244E+04  0.89863196736E+03 0.  0.
        -24    2    4    4    0    0  0.55594218334E+03  0.13399750828E+03 -0.33622250950E+02  0.57823903782E+03  0.78758400612E+02 0.  0.
         24    2    4    4    0    0  0.39872348554E+03 -0.45983503864E+03 -0.80333145139E+03  0.10109706866E+04  0.79319780925E+02 0.  0.
         13    1    3    3    0    0 -0.71813699787E+03  0.28352768839E+03  0.12711243792E+03  0.78247445305E+03  0.00000000000E+00 0. -1.
        -13    1    3    3    0    0 -0.23652867100E+03  0.42309841976E+02  0.43728141892E+02  0.24422957505E+03  0.00000000000E+00 0.  1.
          4    1    6    6  502    0  0.35337584888E+03 -0.36235446951E+03 -0.65470169033E+03  0.82753220812E+03  0.00000000000E+00 0. -1.
          1    1    5    5  503    0  0.32193051555E+03  0.11595290174E+03 -0.96539052876E+01  0.34231203623E+03  0.00000000000E+00 0. -1.
         -2    1    5    5    0  503  0.23401166779E+03  0.18044606544E+02 -0.23968345663E+02  0.23592700159E+03  0.00000000000E+00 0.  1.
         -3    1    6    6    0  502  0.45347636664E+02 -0.97480569136E+02 -0.14862976105E+03  0.18343847846E+03  0.00000000000E+00 0.  1.
<mgrwt>
<rscale>  0 0.25296834E+04</rscale>
<asrwt>0</asrwt>
<pdfrwt beam="1">  1        1 0.14998466E+00 0.25296834E+04</pdfrwt>
<pdfrwt beam="2">  1       -1 0.25246360E+00 0.25296834E+04</pdfrwt>
<totfact> 0.94266135E-01</totfact>
</mgrwt>
</event>
<event>
12    1  0.2019083E-007  0.1570054E+04  0.7818608E-02  0.8839159E-01
          2   -1    0    0  501    0  0.00000000000E+00  0.00000000000E+00  0.88632743638E+03  0.88632743638E+03  0.00000000000E+00 0.  1.
         -2   -1    0    0    0  501 -0.00000000000E+00 -0.00000000000E+00 -0.69530435863E+03  0.69530435863E+03  0.00000000000E+00 0. -1.
         23    2    1    2    0    0 -0.18175073115E+02  0.18059507059E+03 -0.44286358637E+03  0.48718031005E+03  0.90948257649E+02 0.  0.
        254    2    1    2    0    0  0.18175073115E+02 -0.18059507059E+03  0.63388666412E+03  0.10944514850E+04  0.87353696955E+03 0.  0.
        -24    2    4    4    0    0  0.11338504766E+03  0.30588922140E+03  0.76128402805E+02  0.34402517684E+03  0.78316050583E+02 0.  0.
         24    2    4    4    0    0 -0.95209974549E+02 -0.48648429199E+03  0.55775826131E+03  0.75042630812E+03  0.79457285681E+02 0.  0.
         13    1    3    3    0    0 -0.29486658993E+02  0.63264415412E+02 -0.26321883466E+03  0.27231600070E+03  0.00000000000E+00 0. -1.
        -13    1    3    3    0    0  0.11311585877E+02  0.11733065517E+03 -0.17964475171E+03  0.21486430936E+03  0.00000000000E+00 0.  1.
          2    1    6    6  502    0 -0.40683880588E+02 -0.29533740130E+03  0.38601409034E+03  0.48773582674E+03  0.00000000000E+00 0. -1.
          3    1    5    5  503    0  0.39983368573E+02  0.21043951074E+03  0.36706371516E+02  0.21732651737E+03  0.00000000000E+00 0. -1.
         -4    1    5    5    0  503  0.73401679091E+02  0.95449710661E+02  0.39422031289E+02  0.12669865946E+03  0.00000000000E+00 0.  1.
         -1    1    6    6    0  502 -0.54526093961E+02 -0.19114689069E+03  0.17174417097E+03  0.26269048138E+03  0.00000000000E+00 0.  1.
<mgrwt>
<rscale>  0 0.15700539E+04</rscale>
<asrwt>0</asrwt>
<pdfrwt beam="1">  1        2 0.13635807E+00 0.15700539E+04</pdfrwt>
<pdfrwt beam="2">  1       -2 0.10696990E+00 0.15700539E+04</pdfrwt>
<totfact> 0.20241169E+01</totfact>
</mgrwt>
</event>
<event>
12    1  0.2019083E-007  0.2200562E+04  0.7818608E-02  0.8518194E-01
         -2   -1    0    0    0  501 -0.00000000000E+00  0.00000000000E+00  0.13722628538E+04  0.13722628538E+04  0.00000000000E+00 0.  1.
          2   -1    0    0  501    0  0.00000000000E+00 -0.00000000000E+00 -0.88220615265E+03  0.88220615265E+03  0.00000000000E+00 0. -1.
         23    2    1    2    0    0  0.27121917027E+03  0.86535023864E+03  0.32312610445E+03  0.96708443542E+03  0.91929059689E+02 0.  0.
        254    2    1    2    0    0 -0.27121917027E+03 -0.86535023864E+03  0.16693059672E+03  0.12873845711E+04  0.89838874428E+03 0.  0.
        -24    2    4    4    0    0 -0.23580308568E+03  0.11508378547E+03  0.12431229948E+03  0.30190566897E+03  0.82741236754E+02 0.  0.
         24    2    4    4    0    0 -0.35416084595E+02 -0.98043402411E+03  0.42618297241E+02  0.98547890209E+03  0.82747643596E+02 0.  0.
         13    1    3    3    0    0  0.10021264108E+03  0.44002778012E+03  0.19065498146E+03  0.48991462793E+03  0.00000000000E+00 0.  1.
        -13    1    3    3    0    0  0.17100652919E+03  0.42532245852E+03  0.13247112299E+03  0.47716980749E+03  0.00000000000E+00 0. -1.
          4    1    6    6  502    0  0.95877933361E+01 -0.57087146963E+03  0.52257312969E+02  0.57333845796E+03  0.00000000000E+00 0. -1.
          1    1    5    5  503    0 -0.17317665103E+03  0.40731313242E+02  0.81573163798E+02  0.19571247633E+03  0.00000000000E+00 0. -1.
         -2    1    5    5    0  503 -0.62626434650E+02  0.74352472230E+02  0.42739135686E+02  0.10619319264E+03  0.00000000000E+00 0.  1.
         -3    1    6    6    0  502 -0.45003877931E+02 -0.40956255448E+03 -0.96390157282E+01  0.41214044413E+03  0.00000000000E+00 0.  1.
<mgrwt>
<rscale>  0 0.22005624E+04</rscale>
<asrwt>0</asrwt>
<pdfrwt beam="1">  1        2 0.13572402E+00 0.22005624E+04</pdfrwt>
<pdfrwt beam="2">  1       -2 0.21111736E+00 0.22005624E+04</pdfrwt>
<totfact> 0.31027523E+00</totfact>
</mgrwt>
</event>
<event>
12    1  0.2019083E-007  0.2340713E+04  0.7818608E-02  0.8462039E-01
         -1   -1    0    0    0  501 -0.00000000000E+00  0.00000000000E+00  0.17416212782E+04  0.17416212782E+04  0.00000000000E+00 0.  1.
          1   -1    0    0  501    0  0.00000000000E+00 -0.00000000000E+00 -0.78647110924E+03  0.78647110924E+03  0.00000000000E+00 0. -1.
         23    2    1    2    0    0 -0.13801964890E+03  0.84853840752E+03 -0.13386619958E+03  0.87488010177E+03  0.91805122766E+02 0.  0.
        254    2    1    2    0    0  0.13801964890E+03 -0.84853840752E+03  0.10890163685E+04  0.16532122857E+04  0.89893679313E+03 0.  0.
        -24    2    4    4    0    0 -0.28848122809E+03 -0.73657975867E+03  0.64921693394E+03  0.10262748074E+04  0.77370492503E+02 0.  0.
         24    2    4    4    0    0  0.42650087700E+03 -0.11195864884E+03  0.43979943461E+03  0.62693747830E+03  0.72036948031E+02 0.  0.
         11    1    3    3    0    0 -0.27745847716E+02  0.26460301790E+03 -0.14893890168E+01  0.26605790239E+03  0.00000000000E+00 0. -1.
        -11    1    3    3    0    0 -0.11027380119E+03  0.58393538962E+03 -0.13237681056E+03  0.60882219937E+03  0.00000000000E+00 0.  1.
          2    1    6    6  502    0  0.13603968361E+03 -0.22552327966E+02  0.18248029646E+03  0.22872354844E+03  0.00000000000E+00 0. -1.
          3    1    5    5  503    0 -0.43671177432E+01 -0.31498243608E+02  0.10801423126E+02  0.33583951664E+02  0.00000000000E+00 0. -1.
         -4    1    5    5    0  503 -0.28411411035E+03 -0.70508151506E+03  0.63841551081E+03  0.99269085572E+03  0.00000000000E+00 0.  1.
         -1    1    6    6    0  502  0.29046119339E+03 -0.89406320877E+02  0.25731913815E+03  0.39821392986E+03  0.00000000000E+00 0.  1.
<mgrwt>
<rscale>  0 0.23407134E+04</rscale>
<asrwt>0</asrwt>
<pdfrwt beam="1">  1        1 0.12099555E+00 0.23407134E+04</pdfrwt>
<pdfrwt beam="2">  1       -1 0.26794174E+00 0.23407134E+04</pdfrwt>
<totfact> 0.10905178E+00</totfact>
</mgrwt>
</event>
<event>
12    1  0.2019083E-007  0.1586413E+04  0.7818608E-02  0.8828939E-01
          1   -1    0    0  501    0  0.00000000000E+00  0.00000000000E+00  0.10329157730E+04  0.10329157730E+04  0.00000000000E+00 0. -1.
         -1   -1    0    0    0  501 -0.00000000000E+00 -0.00000000000E+00 -0.60912690322E+03  0.60912690322E+03  0.00000000000E+00 0.  1.
         23    2    1    2    0    0  0.46646508441E+03  0.24432708257E+03  0.27162097724E+03  0.59944213732E+03  0.90925917475E+02 0.  0.
        254    2    1    2    0    0 -0.46646508441E+03 -0.24432708257E+03  0.15216789251E+03  0.10426005389E+04  0.88689087146E+03 0.  0.
        -24    2    4    4    0    0  0.12782857772E+03 -0.35300718846E+03 -0.74718645966E+02  0.39242966404E+03  0.86394124656E+02 0.  0.
         24    2    4    4    0    0 -0.59429366213E+03  0.10868010589E+03  0.22688653848E+03  0.65017087483E+03  0.79046460180E+02 0.  0.
         11    1    3    3    0    0  0.27807401627E+03  0.96619601748E+02  0.16386605718E+03  0.33691629623E+03  0.00000000000E+00 0. -1.
        -11    1    3    3    0    0  0.18839106814E+03  0.14770748082E+03  0.10775492005E+03  0.26252584109E+03  0.00000000000E+00 0.  1.
          2    1    6    6  502    0 -0.75808424644E+02  0.22382914567E+02  0.58162227833E+02  0.98136419631E+02  0.00000000000E+00 0. -1.
          1    1    5    5  503    0  0.63211335923E+02 -0.21377885484E+03 -0.28537019141E+01  0.22294666488E+03  0.00000000000E+00 0. -1.
         -2    1    5    5    0  503  0.64617241798E+02 -0.13922833362E+03 -0.71864944052E+02  0.16948299915E+03  0.00000000000E+00 0.  1.
         -1    1    6    6    0  502 -0.51848523749E+03  0.86297191324E+02  0.16872431065E+03  0.55203445520E+03  0.00000000000E+00 0.  1.
<mgrwt>
<rscale>  0 0.15864133E+04</rscale>
<asrwt>0</asrwt>
<pdfrwt beam="1">  1        1 0.15891012E+00 0.15864133E+04</pdfrwt>
<pdfrwt beam="2">  1       -1 0.93711832E-01 0.15864133E+04</pdfrwt>
<totfact> 0.15132250E+01</totfact>
</mgrwt>
</event>
<event>
12    1  0.2019083E-007  0.1516487E+04  0.7818608E-02  0.8873563E-01
          2   -1    0    0  501    0  0.00000000000E+00  0.00000000000E+00  0.16131960026E+04  0.16131960026E+04  0.00000000000E+00 0. -1.
         -2   -1    0    0    0  501 -0.00000000000E+00 -0.00000000000E+00 -0.35639374580E+03  0.35639374580E+03  0.00000000000E+00 0.  1.
         23    2    1    2    0    0 -0.70670253560E+02 -0.43481927295E+03  0.67889411307E+03  0.81447378388E+03  0.91696472146E+02 0.  0.
        254    2    1    2    0    0  0.70670253560E+02  0.43481927295E+03  0.57790814370E+03  0.11551159645E+04  0.89791591142E+03 0.  0.
        -24    2    4    4    0    0 -0.30093627185E+03  0.30680422194E+03  0.61273795832E+03  0.75264529810E+03  0.79596915021E+02 0.  0.
         24    2    4    4    0    0  0.37160652541E+03  0.12801505100E+03 -0.34829814617E+02  0.40247066638E+03  0.79311148631E+02 0.  0.
         13    1    3    3    0    0  0.88420584702E+00 -0.18484912412E+03  0.22307645733E+03  0.28971207487E+03  0.00000000000E+00 0.  1.
        -13    1    3    3    0    0 -0.71554459407E+02 -0.24997014883E+03  0.45581765574E+03  0.52476170902E+03  0.00000000000E+00 0. -1.
          2    1    6    6  502    0  0.30908261757E+03  0.13443238720E+03 -0.18642575476E+02  0.33756729230E+03  0.00000000000E+00 0. -1.
          3    1    5    5  503    0 -0.10306765178E+03  0.80389197868E+02  0.24439292077E+03  0.27715205881E+03  0.00000000000E+00 0. -1.
         -4    1    5    5    0  503 -0.19786862006E+03  0.22641502408E+03  0.36834503755E+03  0.47549323930E+03  0.00000000000E+00 0.  1.
         -1    1    6    6    0  502  0.62523907839E+02 -0.64173361934E+01 -0.16187239142E+02  0.64903374075E+02  0.00000000000E+00 0.  1.
<mgrwt>
<rscale>  0 0.15164867E+04</rscale>
<asrwt>0</asrwt>
<pdfrwt beam="1">  1        2 0.24818400E+00 0.15164867E+04</pdfrwt>
<pdfrwt beam="2">  1       -2 0.54829808E-01 0.15164867E+04</pdfrwt>
<totfact> 0.33100955E+01</totfact>
</mgrwt>
</event>
<event>
12    1  0.2019083E-007  0.1978235E+04  0.7818608E-02  0.8616865E-01
          1   -1    0    0  501    0  0.00000000000E+00  0.00000000000E+00  0.13220198051E+04  0.13220198051E+04  0.00000000000E+00 0. -1.
         -1   -1    0    0    0  501 -0.00000000000E+00 -0.00000000000E+00 -0.74004459712E+03  0.74004459712E+03  0.00000000000E+00 0.  1.
         23    2    1    2    0    0 -0.11052395196E+03 -0.75715822480E+03  0.67430904743E+02  0.77343400556E+03  0.90272436045E+02 0.  0.
        254    2    1    2    0    0  0.11052395196E+03  0.75715822480E+03  0.51454430321E+03  0.12886303966E+04  0.90017128249E+03 0.  0.
        -24    2    4    4    0    0 -0.62422415083E+02  0.75127047156E+03  0.19383735715E+02  0.75821957720E+03  0.78849975828E+02 0.  0.
         24    2    4    4    0    0  0.17294636705E+03  0.58877532337E+01  0.49516056749E+03  0.53041081943E+03  0.78781585790E+02 0.  0.
         11    1    3    3    0    0 -0.11720838173E+03 -0.53967555671E+03  0.34077591675E+02  0.55330714212E+03  0.00000000000E+00 0.  1.
        -11    1    3    3    0    0  0.66844297668E+01 -0.21748266808E+03  0.33353313069E+02  0.22012686345E+03  0.00000000000E+00 0. -1.
          2    1    6    6  502    0  0.11772685551E+03  0.37183514921E+02  0.37038799333E+03  0.39042219698E+03  0.00000000000E+00 0. -1.
          1    1    5    5  503    0 -0.65668086081E+02  0.56624979345E+03 -0.13833841078E+02  0.57021268073E+03  0.00000000000E+00 0. -1.
         -2    1    5    5    0  503  0.32456709981E+01  0.18502067812E+03  0.33217576793E+02  0.18800689647E+03  0.00000000000E+00 0.  1.
         -1    1    6    6    0  502  0.55219511531E+02 -0.31295761687E+02  0.12477257417E+03  0.13998862246E+03  0.00000000000E+00 0.  1.
<mgrwt>
<rscale>  0 0.19782352E+04</rscale>
<asrwt>0</asrwt>
<pdfrwt beam="1">  1        1 0.20338766E+00 0.19782352E+04</pdfrwt>
<pdfrwt beam="2">  1       -1 0.11385301E+00 0.19782352E+04</pdfrwt>
<totfact> 0.57010115E+00</totfact>
</mgrwt>
</event>
<event>
12    1  0.2019083E-007  0.2344764E+04  0.7818608E-02  0.8460477E-01
         -2   -1    0    0    0  501 -0.00000000000E+00  0.00000000000E+00  0.12538972014E+04  0.12538972014E+04  0.00000000000E+00 0.  1.
          2   -1    0    0  501    0  0.00000000000E+00 -0.00000000000E+00 -0.10961664830E+04  0.10961664830E+04  0.00000000000E+00 0. -1.
         23    2    1    2    0    0  0.96728112985E+03 -0.20126127331E+02 -0.16673090148E+03  0.98588081531E+03  0.90132920368E+02 0.  0.
        254    2    1    2    0    0 -0.96728112985E+03  0.20126127331E+02  0.32446161990E+03  0.13641828690E+04  0.90536275174E+03 0.  0.
        -24    2    4    4    0    0 -0.42219001083E+03  0.36524220178E+03  0.42501916221E+03  0.70625073957E+03  0.80638375999E+02 0.  0.
         24    2    4    4    0    0 -0.54509111902E+03 -0.34511607445E+03 -0.10055754231E+03  0.65793212947E+03  0.80829665332E+02 0.  0.
         13    1    3    3    0    0  0.61422401846E+03  0.12354282022E+02 -0.69663110046E+02  0.61828530796E+03  0.00000000000E+00 0.  1.
        -13    1    3    3    0    0  0.35305711139E+03 -0.32480409353E+02 -0.97067791430E+02  0.36759550735E+03  0.00000000000E+00 0. -1.
          4    1    6    6  502    0 -0.40904428425E+03 -0.22978061739E+03 -0.99361282801E+02  0.47957170801E+03  0.00000000000E+00 0. -1.
          1    1    5    5  503    0 -0.18516235625E+03  0.21349422821E+03  0.21365793465E+03  0.35428039275E+03  0.00000000000E+00 0. -1.
         -2    1    5    5    0  503 -0.23702765458E+03  0.15174797358E+03  0.21136122757E+03  0.35197034682E+03  0.00000000000E+00 0.  1.
         -3    1    6    6    0  502 -0.13604683477E+03 -0.11533545707E+03 -0.11962595083E+01  0.17836042147E+03  0.00000000000E+00 0.  1.
<mgrwt>
<rscale>  0 0.23447645E+04</rscale>
<asrwt>0</asrwt>
<pdfrwt beam="1">  1        2 0.16864100E+00 0.23447645E+04</pdfrwt>
<pdfrwt beam="2">  1       -2 0.19290726E+00 0.23447645E+04</pdfrwt>
<totfact> 0.29322192E+00</totfact>
</mgrwt>
</event>
<event>
12    1  0.2019083E-007  0.2075865E+04  0.7818608E-02  0.8571950E-01
         -1   -1    0    0    0  501 -0.00000000000E+00  0.00000000000E+00  0.14423742593E+04  0.14423742593E+04  0.00000000000E+00 0.  1.
          1   -1    0    0  501    0  0.00000000000E+00 -0.00000000000E+00 -0.74689599114E+03  0.74689599114E+03  0.00000000000E+00 0. -1.
         23    2    1    2    0    0 -0.40611286926E+03  0.74189554760E+03  0.24670555616E+03  0.88612772058E+03  0.94984417781E+02 0.  0.
        254    2    1    2    0    0  0.40611286926E+03 -0.74189554760E+03  0.44877271200E+03  0.13031425299E+04  0.88399481898E+03 0.  0.
        -24    2    4    4    0    0  0.46644243653E+03 -0.60149021247E+02  0.38162238894E+03  0.61091493920E+03  0.79968517793E+02 0.  0.
         24    2    4    4    0    0 -0.60329567275E+02 -0.68174652635E+03  0.67150323056E+02  0.69222759067E+03  0.79068884618E+02 0.  0.
         11    1    3    3    0    0 -0.33277737394E+03  0.65396251463E+03  0.18804316701E+03  0.75747474137E+03  0.00000000000E+00 0. -1.
        -11    1    3    3    0    0 -0.73335495316E+02  0.87933032965E+02  0.58662389149E+02  0.12865297921E+03  0.00000000000E+00 0.  1.
          2    1    6    6  502    0 -0.39718866815E+01 -0.43402983967E+03  0.59102607494E+02  0.43805341663E+03  0.00000000000E+00 0. -1.
          1    1    5    5  503    0  0.45430507041E+03 -0.44730386427E+02  0.37287137975E+03  0.58942935989E+03  0.00000000000E+00 0. -1.
         -2    1    5    5    0  503  0.12137366122E+02 -0.15418634820E+02  0.87510091939E+01  0.21485579304E+02  0.00000000000E+00 0.  1.
         -1    1    6    6    0  502 -0.56357680593E+02 -0.24771668668E+03  0.80477155627E+01  0.25417417404E+03  0.00000000000E+00 0.  1.
<mgrwt>
<rscale>  0 0.20758647E+04</rscale>
<asrwt>0</asrwt>
<pdfrwt beam="1">  1        1 0.11490708E+00 0.20758647E+04</pdfrwt>
<pdfrwt beam="2">  1       -1 0.22190373E+00 0.20758647E+04</pdfrwt>
<totfact> 0.24276275E+00</totfact>
</mgrwt>
</event>
<event>
12    1  0.2019083E-007  0.1749642E+04  0.7818608E-02  0.8733547E-01
          2   -1    0    0  501    0  0.00000000000E+00  0.00000000000E+00  0.11149034585E+04  0.11149034585E+04  0.00000000000E+00 0. -1.
         -2   -1    0    0    0  501 -0.00000000000E+00 -0.00000000000E+00 -0.68643776190E+03  0.68643776190E+03  0.00000000000E+00 0.  1.
         23    2    1    2    0    0 -0.53763334572E+03 -0.35840406856E+03  0.17559533593E+03  0.67567352606E+03  0.90542260975E+02 0.  0.
        254    2    1    2    0    0  0.53763334572E+03  0.35840406856E+03  0.25287036070E+03  0.11256676944E+04  0.88638662448E+03 0.  0.
        -24    2    4    4    0    0  0.18967280357E+03 -0.25362588940E+03  0.25915169312E+03  0.41716844257E+03  0.81043477481E+02 0.  0.
         24    2    4    4    0    0  0.34796054215E+03  0.61202995796E+03 -0.62813324187E+01  0.70849925181E+03  0.79211907771E+02 0.  0.
         11    1    3    3    0    0 -0.40437095460E+03 -0.25393154291E+03  0.89854329390E+02  0.48587127711E+03  0.00000000000E+00 0.  1.
        -11    1    3    3    0    0 -0.13326239112E+03 -0.10447252565E+03  0.85741006544E+02  0.18980224895E+03  0.00000000000E+00 0. -1.
          4    1    6    6  502    0  0.28019213371E+03  0.45915593630E+03  0.24565871460E+02  0.53845639348E+03  0.00000000000E+00 0. -1.
          3    1    5    5  503    0  0.10782209102E+03 -0.15904752961E+03  0.10606023096E+03  0.21947777240E+03  0.00000000000E+00 0. -1.
         -4    1    5    5    0  503  0.81850712550E+02 -0.94578359791E+02  0.15309146216E+03  0.19769067017E+03  0.00000000000E+00 0.  1.
         -3    1    6    6    0  502  0.67768408439E+02  0.15287402166E+03 -0.30847203879E+02  0.17004285833E+03  0.00000000000E+00 0.  1.
<mgrwt>
<rscale>  0 0.17496421E+04</rscale>
<asrwt>0</asrwt>
<pdfrwt beam="1">  1        2 0.17152361E+00 0.17496421E+04</pdfrwt>
<pdfrwt beam="2">  1       -2 0.10560581E+00 0.17496421E+04</pdfrwt>
<totfact> 0.14660137E+01</totfact>
</mgrwt>
</event>
<event>
12    1  0.2019083E-007  0.3190046E+04  0.7818608E-02  0.8191451E-01
          2   -1    0    0  501    0  0.00000000000E+00  0.00000000000E+00  0.18233432650E+04  0.18233432650E+04  0.00000000000E+00 0. -1.
         -2   -1    0    0    0  501 -0.00000000000E+00 -0.00000000000E+00 -0.13952927236E+04  0.13952927236E+04  0.00000000000E+00 0.  1.
         23    2    1    2    0    0 -0.12638940263E+04 -0.60583765636E+03  0.64448234781E+03  0.15466009892E+04  0.11022589345E+03 0.  0.
        254    2    1    2    0    0  0.12638940263E+04  0.60583765636E+03 -0.21643180642E+03  0.16720349994E+04  0.88565847643E+03 0.  0.
        -24    2    4    4    0    0  0.59075113030E+03  0.25422458989E+03 -0.53899146464E+03  0.84289239007E+03  0.79616218384E+02 0.  0.
         24    2    4    4    0    0  0.67314289597E+03  0.35161306647E+03  0.32255965822E+03  0.82914260933E+03  0.81728982488E+02 0.  0.
         13    1    3    3    0    0 -0.35304075380E+03 -0.11699749159E+03  0.15746141244E+03  0.40388152136E+03  0.00000000000E+00 0.  1.
        -13    1    3    3    0    0 -0.91085327246E+03 -0.48884016477E+03  0.48702093537E+03  0.11427194678E+04  0.00000000000E+00 0. -1.
          2    1    6    6  502    0  0.63730858006E+03  0.32864025201E+03  0.28251775511E+03  0.77070287621E+03  0.00000000000E+00 0. -1.
          1    1    5    5  503    0  0.39135043683E+03  0.13350078730E+03 -0.31731156840E+03  0.52121421321E+03  0.00000000000E+00 0. -1.
         -2    1    5    5    0  503  0.19940069347E+03  0.12072380259E+03 -0.22167989624E+03  0.32167817686E+03  0.00000000000E+00 0.  1.
         -1    1    6    6    0  502  0.35834315916E+02  0.22972814461E+02  0.40041903109E+02  0.58439733111E+02  0.00000000000E+00 0.  1.
<mgrwt>
<rscale>  0 0.31900455E+04</rscale>
<asrwt>0</asrwt>
<pdfrwt beam="1">  1        2 0.28051435E+00 0.31900455E+04</pdfrwt>
<pdfrwt beam="2">  1       -2 0.21466042E+00 0.31900455E+04</pdfrwt>
<totfact> 0.75447009E-01</totfact>
</mgrwt>
</event>
<event>
12    1  0.2019083E-007  0.1046822E+04  0.7818608E-02  0.9258631E-01
          2   -1    0    0  501    0  0.00000000000E+00  0.00000000000E+00  0.27233769684E+03  0.27233769684E+03  0.00000000000E+00 0. -1.
         -2   -1    0    0    0  501 -0.00000000000E+00 -0.00000000000E+00 -0.10059537442E+04  0.10059537442E+04  0.00000000000E+00 0.  1.
         23    2    1    2    0    0  0.24558401857E+02  0.86559124574E+02 -0.32665744821E+02  0.13322240245E+03  0.92658299576E+02 0.  0.
        254    2    1    2    0    0 -0.24558401857E+02 -0.86559124574E+02 -0.70095030253E+03  0.11450690386E+04  0.90097512692E+03 0.  0.
        -24    2    4    4    0    0  0.35433211103E+02 -0.36434800362E+03  0.99712267776E+01  0.37533349169E+03  0.82285019486E+02 0.  0.
         24    2    4    4    0    0 -0.59991612960E+02  0.27778887904E+03 -0.71092152931E+03  0.76973554688E+03  0.79484189363E+02 0.  0.
         11    1    3    3    0    0  0.47883483189E+02  0.22270351074E+02  0.83670775422E+01  0.53467789237E+02  0.00000000000E+00 0. -1.
        -11    1    3    3    0    0 -0.23325081332E+02  0.64288773501E+02 -0.41032822363E+02  0.79754613211E+02  0.00000000000E+00 0.  1.
          2    1    6    6  502    0  0.56512817133E+01  0.11527542815E+03 -0.34938590222E+03  0.36795498365E+03  0.00000000000E+00 0. -1.
          1    1    5    5  503    0 -0.23010850356E+02 -0.77725431945E+02  0.16580157489E+02  0.82738404792E+02  0.00000000000E+00 0. -1.
         -2    1    5    5    0  503  0.58444061459E+02 -0.28662257167E+03 -0.66089307113E+01  0.29259508690E+03  0.00000000000E+00 0.  1.
         -1    1    6    6    0  502 -0.65642894673E+02  0.16251345089E+03 -0.36153562709E+03  0.40178056324E+03  0.00000000000E+00 0.  1.
<mgrwt>
<rscale>  0 0.10468221E+04</rscale>
<asrwt>0</asrwt>
<pdfrwt beam="1">  1        2 0.41898107E-01 0.10468221E+04</pdfrwt>
<pdfrwt beam="2">  1       -2 0.15476212E+00 0.10468221E+04</pdfrwt>
<totfact> 0.33541789E+01</totfact>
</mgrwt>
</event>
<event>
12    1  0.2019083E-007  0.1800708E+04  0.7818608E-02  0.8705923E-01
         -2   -1    0    0    0  501 -0.00000000000E+00  0.00000000000E+00  0.24590572103E+03  0.24590572103E+03  0.00000000000E+00 0.  1.
          2   -1    0    0  501    0  0.00000000000E+00 -0.00000000000E+00 -0.32965374032E+04  0.32965374032E+04  0.00000000000E+00 0. -1.
         23    2    1    2    0    0  0.65309146821E+03 -0.31573738743E+02 -0.14358354640E+04  0.15804134590E+04  0.92508674922E+02 0.  0.
        254    2    1    2    0    0 -0.65309146821E+03  0.31573738743E+02 -0.16147962182E+04  0.19620296653E+04  0.90247892726E+03 0.  0.
        -24    2    4    4    0    0 -0.46962816767E+03  0.27409311550E+03 -0.33371157240E+03  0.64309235026E+03  0.80788028715E+02 0.  0.
         24    2    4    4    0    0 -0.18346330055E+03 -0.24251937675E+03 -0.12810846458E+04  0.13189373150E+04  0.77093063139E+02 0.  0.
         11    1    3    3    0    0  0.15099532598E+03  0.22889933660E+02 -0.39569783690E+03  0.42414657332E+03  0.00000000000E+00 0. -1.
        -11    1    3    3    0    0  0.50209614223E+03 -0.54463672403E+02 -0.10401376271E+04  0.11562668857E+04  0.00000000000E+00 0.  1.
          4    1    6    6  502    0 -0.14102652492E+03 -0.22722254863E+03 -0.11330357911E+04  0.11641686610E+04  0.00000000000E+00 0. -1.
          1    1    5    5  503    0 -0.19788442700E+03  0.12930083867E+03 -0.10063354993E+03  0.25691256237E+03  0.00000000000E+00 0. -1.
         -2    1    5    5    0  503 -0.27174374066E+03  0.14479227683E+03 -0.23307802248E+03  0.38617978790E+03  0.00000000000E+00 0.  1.
         -1    1    6    6    0  502 -0.42436775632E+02 -0.15296828127E+02 -0.14804885473E+03  0.15476865401E+03  0.00000000000E+00 0.  1.
<mgrwt>
<rscale>  0 0.18007081E+04</rscale>
<asrwt>0</asrwt>
<pdfrwt beam="1">  1        2 0.50715959E+00 0.18007081E+04</pdfrwt>
<pdfrwt beam="2">  1       -2 0.37831650E-01 0.18007081E+04</pdfrwt>
<totfact> 0.70136666E+00</totfact>
</mgrwt>
</event>
<event>
12    1  0.2019083E-007  0.1862266E+04  0.7818608E-02  0.8673870E-01
         -2   -1    0    0    0  501 -0.00000000000E+00  0.00000000000E+00  0.24996977342E+03  0.24996977342E+03  0.00000000000E+00 0.  1.
          2   -1    0    0  501    0  0.00000000000E+00 -0.00000000000E+00 -0.34684554400E+04  0.34684554400E+04  0.00000000000E+00 0. -1.
         23    2    1    2    0    0  0.65311946679E+03  0.27541382470E+03 -0.13180661501E+04  0.14993902892E+04  0.91951349011E+02 0.  0.
        254    2    1    2    0    0 -0.65311946679E+03 -0.27541382470E+03 -0.19004195164E+04  0.22190349241E+04  0.90005768899E+03 0.  0.
        -24    2    4    4    0    0  0.50659195525E+02  0.16008804608E+03 -0.89705345849E+03  0.91592702096E+03  0.77607111467E+02 0.  0.
         24    2    4    4    0    0 -0.70377866231E+03 -0.43550187078E+03 -0.10033660579E+04  0.13031079032E+04  0.79877882939E+02 0.  0.
         13    1    3    3    0    0  0.25842201151E+03  0.14537256298E+03 -0.61362763861E+03  0.68150861841E+03  0.00000000000E+00 0. -1.
        -13    1    3    3    0    0  0.39469745527E+03  0.13004126172E+03 -0.70443851153E+03  0.81788167083E+03  0.00000000000E+00 0.  1.
          2    1    6    6  502    0 -0.49291086414E+03 -0.32009574341E+03 -0.65721771585E+03  0.88167881395E+03  0.00000000000E+00 0. -1.
          3    1    5    5  503    0  0.44886038769E+02  0.13157029681E+03 -0.84442020555E+03  0.85578676258E+03  0.00000000000E+00 0. -1.
         -4    1    5    5    0  503  0.57731567561E+01  0.28517749269E+02 -0.52633252942E+02  0.60140258376E+02  0.00000000000E+00 0.  1.
         -1    1    6    6    0  502 -0.21086779818E+03 -0.11540612737E+03 -0.34614834205E+03  0.42142908923E+03  0.00000000000E+00 0.  1.
<mgrwt>
<rscale>  0 0.18622664E+04</rscale>
<asrwt>0</asrwt>
<pdfrwt beam="1">  1        2 0.53360855E+00 0.18622664E+04</pdfrwt>
<pdfrwt beam="2">  1       -2 0.38456887E-01 0.18622664E+04</pdfrwt>
<totfact> 0.51673466E+00</totfact>
</mgrwt>
</event>
<event>
12    1  0.2019083E-007  0.2249084E+04  0.7818608E-02  0.8498271E-01
         -2   -1    0    0    0  501 -0.00000000000E+00  0.00000000000E+00  0.50181311175E+03  0.50181311175E+03  0.00000000000E+00 0.  1.
          2   -1    0    0  501    0  0.00000000000E+00 -0.00000000000E+00 -0.25200521288E+04  0.25200521288E+04  0.00000000000E+00 0. -1.
         23    2    1    2    0    0 -0.18236593885E+03  0.73482140124E+03 -0.97044323601E+02  0.76935923464E+03  0.96313051123E+02 0.  0.
        254    2    1    2    0    0  0.18236593885E+03 -0.73482140124E+03 -0.19211946934E+04  0.22525060059E+04  0.89976354069E+03 0.  0.
        -24    2    4    4    0    0 -0.30589612298E+03 -0.46036374522E+02 -0.64835605028E+03  0.72309468904E+03  0.82514092993E+02 0.  0.
         24    2    4    4    0    0  0.48826206183E+03 -0.68878502671E+03 -0.12728386431E+04  0.15294113169E+04  0.78460885768E+02 0.  0.
         11    1    3    3    0    0 -0.68973689893E+02  0.30075668560E+03  0.77088667399E+01  0.30866062343E+03  0.00000000000E+00 0.  1.
        -11    1    3    3    0    0 -0.11339224896E+03  0.43406471564E+03 -0.10475319034E+03  0.46069861121E+03  0.00000000000E+00 0. -1.
          4    1    6    6  502    0  0.38920559635E+03 -0.49313167391E+03 -0.96396694254E+03  0.11506051062E+04  0.00000000000E+00 0. -1.
          3    1    5    5  503    0 -0.17622986454E+03  0.14563208995E+02 -0.37092932954E+03  0.41092288781E+03  0.00000000000E+00 0. -1.
         -4    1    5    5    0  503 -0.12966625843E+03 -0.60599583517E+02 -0.27742672075E+03  0.31217180123E+03  0.00000000000E+00 0.  1.
         -3    1    6    6    0  502  0.99056465484E+02 -0.19565335280E+03 -0.30887170060E+03  0.37880621068E+03  0.00000000000E+00 0.  1.
<mgrwt>
<rscale>  0 0.22490844E+04</rscale>
<asrwt>0</asrwt>
<pdfrwt beam="1">  1        2 0.38770033E+00 0.22490844E+04</pdfrwt>
<pdfrwt beam="2">  1       -2 0.77202017E-01 0.22490844E+04</pdfrwt>
<totfact> 0.46194270E+00</totfact>
</mgrwt>
</event>
<event>
12    1  0.2019083E-007  0.2574841E+04  0.7818608E-02  0.8376798E-01
          1   -1    0    0  501    0  0.00000000000E+00  0.00000000000E+00  0.14196855870E+04  0.14196855870E+04  0.00000000000E+00 0. -1.
         -1   -1    0    0    0  501 -0.00000000000E+00 -0.00000000000E+00 -0.11674783074E+04  0.11674783074E+04  0.00000000000E+00 0.  1.
         23    2    1    2    0    0  0.70067134687E+03 -0.53985264091E+03  0.81466238481E+03  0.12062175685E+04  0.94365306573E+02 0.  0.
        254    2    1    2    0    0 -0.70067134687E+03  0.53985264091E+03 -0.56245510522E+03  0.13809463260E+04  0.89904160057E+03 0.  0.
        -24    2    4    4    0    0  0.11849200700E+03  0.39667135508E+03 -0.24324589736E+03  0.48653513526E+03  0.78481536662E+02 0.  0.
         24    2    4    4    0    0 -0.81916335388E+03  0.14318128583E+03 -0.31920920787E+03  0.89441119070E+03  0.80915874303E+02 0.  0.
         13    1    3    3    0    0  0.22586034968E+03 -0.23061564943E+03  0.28637286566E+03  0.43151580911E+03  0.00000000000E+00 0. -1.
        -13    1    3    3    0    0  0.47481099719E+03 -0.30923699148E+03  0.52828951915E+03  0.77470175939E+03  0.00000000000E+00 0.  1.
          2    1    6    6  502    0 -0.51959983204E+02 -0.85379531487E+01 -0.10906931010E+02  0.53774507367E+02  0.00000000000E+00 0. -1.
          1    1    5    5  503    0  0.29777028678E+02  0.28491797894E+02 -0.12527345044E+02  0.43074219180E+02  0.00000000000E+00 0. -1.
         -2    1    5    5    0  503  0.88714978325E+02  0.36817955719E+03 -0.23071855232E+03  0.44346091608E+03  0.00000000000E+00 0.  1.
         -3    1    6    6    0  502 -0.76720337067E+03  0.15171923898E+03 -0.30830227686E+03  0.84063668333E+03  0.00000000000E+00 0.  1.
<mgrwt>
<rscale>  0 0.25748415E+04</rscale>
<asrwt>0</asrwt>
<pdfrwt beam="1">  1        1 0.21841317E+00 0.25748415E+04</pdfrwt>
<pdfrwt beam="2">  1       -1 0.17961205E+00 0.25748415E+04</pdfrwt>
<totfact> 0.13759598E+00</totfact>
</mgrwt>
</event>
<event>
12    1  0.2019083E-007  0.1307237E+04  0.7818608E-02  0.9023846E-01
          2   -1    0    0  501    0  0.00000000000E+00  0.00000000000E+00  0.82597507021E+03  0.82597507021E+03  0.00000000000E+00 0. -1.
         -2   -1    0    0    0  501 -0.00000000000E+00 -0.00000000000E+00 -0.51722739331E+03  0.51722739331E+03  0.00000000000E+00 0.  1.
         23    2    1    2    0    0 -0.25134721729E+03  0.73110073802E+02  0.29680758922E+03  0.40677140700E+03  0.94062351665E+02 0.  0.
        254    2    1    2    0    0  0.25134721729E+03 -0.73110073802E+02  0.11940087678E+02  0.93643105652E+03  0.89902171909E+03 0.  0.
        -24    2    4    4    0    0  0.37017528927E+03  0.31646714201E+03 -0.10516084518E+03  0.50519250347E+03  0.83543195055E+02 0.  0.
         24    2    4    4    0    0 -0.11882807198E+03 -0.38957721581E+03  0.11710093286E+03  0.43123855305E+03  0.79771820778E+02 0.  0.
         11    1    3    3    0    0 -0.13676996170E+02  0.11875934254E+02  0.70972327233E+02  0.73247315797E+02  0.00000000000E+00 0. -1.
        -11    1    3    3    0    0 -0.23767022112E+03  0.61234139548E+02  0.22583526199E+03  0.33352409120E+03  0.00000000000E+00 0.  1.
          4    1    6    6  502    0 -0.33789166788E+02 -0.30189578965E+02  0.18890890408E+02  0.49091590021E+02  0.00000000000E+00 0. -1.
          1    1    5    5  503    0  0.75382312949E+02  0.24893385993E+02 -0.20826283371E+02  0.82072576728E+02  0.00000000000E+00 0. -1.
         -2    1    5    5    0  503  0.29479297632E+03  0.29157375602E+03 -0.84334561812E+02  0.42311992674E+03  0.00000000000E+00 0.  1.
         -3    1    6    6    0  502 -0.85038905189E+02 -0.35938763685E+03  0.98210042452E+02  0.38214696303E+03  0.00000000000E+00 0.  1.
<mgrwt>
<rscale>  0 0.13072367E+04</rscale>
<asrwt>0</asrwt>
<pdfrwt beam="1">  1        2 0.12707309E+00 0.13072367E+04</pdfrwt>
<pdfrwt beam="2">  1       -2 0.79573445E-01 0.13072367E+04</pdfrwt>
<totfact> 0.45248490E+01</totfact>
</mgrwt>
</event>
<event>
12    1  0.2019083E-007  0.1832016E+04  0.7818608E-02  0.8689456E-01
         -2   -1    0    0    0  501 -0.00000000000E+00  0.00000000000E+00  0.80211587193E+03  0.80211587193E+03  0.00000000000E+00 0.  1.
          2   -1    0    0  501    0  0.00000000000E+00 -0.00000000000E+00 -0.10460719926E+04  0.10460719926E+04  0.00000000000E+00 0. -1.
         23    2    1    2    0    0 -0.52201581783E+03 -0.81941407342E+01 -0.55375423258E+03  0.76708381992E+03  0.95948833601E+02 0.  0.
        254    2    1    2    0    0  0.52201581783E+03  0.81941407342E+01  0.30979811189E+03  0.10811040446E+04  0.89456326058E+03 0.  0.
        -24    2    4    4    0    0 -0.38469085936E+02 -0.71486908138E+02  0.47328194253E+03  0.48649992971E+03  0.78077755332E+02 0.  0.
         24    2    4    4    0    0  0.56048490377E+03  0.79681048872E+02 -0.16348383064E+03  0.59460411492E+03  0.79590789043E+02 0.  0.
         11    1    3    3    0    0 -0.26147866590E+03 -0.49499105189E+02 -0.30054037709E+03  0.40142966059E+03  0.00000000000E+00 0. -1.
        -11    1    3    3    0    0 -0.26053715193E+03  0.41304964455E+02 -0.25321385549E+03  0.36565415934E+03  0.00000000000E+00 0.  1.
          2    1    6    6  502    0  0.38527711791E+02 -0.13081638461E+02 -0.20307052144E+02  0.45474060820E+02  0.00000000000E+00 0. -1.
          3    1    5    5  503    0 -0.11068562582E+02  0.10499940385E+02  0.18261032943E+03  0.18324653951E+03  0.00000000000E+00 0. -1.
         -4    1    5    5    0  503 -0.27400523354E+02 -0.81986848522E+02  0.29067161309E+03  0.30325339020E+03  0.00000000000E+00 0.  1.
         -1    1    6    6    0  502  0.52195719198E+03  0.92762687333E+02 -0.14317677850E+03  0.54913005410E+03  0.00000000000E+00 0.  1.
<mgrwt>
<rscale>  0 0.18320163E+04</rscale>
<asrwt>0</asrwt>
<pdfrwt beam="1">  1        2 0.16093415E+00 0.18320163E+04</pdfrwt>
<pdfrwt beam="2">  1       -2 0.12340244E+00 0.18320163E+04</pdfrwt>
<totfact> 0.10978894E+01</totfact>
</mgrwt>
</event>
<event>
12    1  0.2019083E-007  0.1972920E+04  0.7818608E-02  0.8619387E-01
         -2   -1    0    0    0  501 -0.00000000000E+00  0.00000000000E+00  0.41597437419E+03  0.41597437419E+03  0.00000000000E+00 0.  1.
          2   -1    0    0  501    0  0.00000000000E+00 -0.00000000000E+00 -0.23393358715E+04  0.23393358715E+04  0.00000000000E+00 0. -1.
         23    2    1    2    0    0  0.26736076172E+03  0.27463356447E+03 -0.17086518840E+04  0.17534561655E+04  0.90619489993E+02 0.  0.
        254    2    1    2    0    0 -0.26736076172E+03 -0.27463356447E+03 -0.21470961326E+03  0.10018540802E+04  0.90039214139E+03 0.  0.
        -24    2    4    4    0    0  0.92311044649E+02 -0.32135329300E+02  0.29877067119E+03  0.32442106204E+03  0.80194159270E+02 0.  0.
         24    2    4    4    0    0 -0.35967180637E+03 -0.24249823517E+03 -0.51348028446E+03  0.67743301812E+03  0.84168219387E+02 0.  0.
         13    1    3    3    0    0  0.65938806398E+02  0.10180852964E+03 -0.39265590462E+03  0.41096418619E+03  0.00000000000E+00 0.  1.
        -13    1    3    3    0    0  0.20142195532E+03  0.17282503483E+03 -0.13159959794E+04  0.13424919793E+04  0.00000000000E+00 0. -1.
          2    1    6    6  502    0 -0.30091574473E+02 -0.23063344429E+02 -0.14851415619E+02  0.40718365100E+02  0.00000000000E+00 0. -1.
          3    1    5    5  503    0  0.40284318131E+01 -0.36545600694E+02  0.68045370478E+02  0.77343271437E+02  0.00000000000E+00 0. -1.
         -4    1    5    5    0  503  0.88282612836E+02  0.44102713947E+01  0.23072530071E+03  0.24707779061E+03  0.00000000000E+00 0.  1.
         -1    1    6    6    0  502 -0.32958023189E+03 -0.21943489074E+03 -0.49862886884E+03  0.63671465302E+03  0.00000000000E+00 0.  1.
<mgrwt>
<rscale>  0 0.19729204E+04</rscale>
<asrwt>0</asrwt>
<pdfrwt beam="1">  1        2 0.35989782E+00 0.19729204E+04</pdfrwt>
<pdfrwt beam="2">  1       -2 0.63996059E-01 0.19729204E+04</pdfrwt>
<totfact> 0.90529070E+00</totfact>
</mgrwt>
</event>
<event>
12    1  0.2019083E-007  0.1382826E+04  0.7818608E-02  0.8966345E-01
         -1   -1    0    0    0  501 -0.00000000000E+00  0.00000000000E+00  0.23856801834E+03  0.23856801834E+03  0.00000000000E+00 0.  1.
          1   -1    0    0  501    0  0.00000000000E+00 -0.00000000000E+00 -0.20038390349E+04  0.20038390349E+04  0.00000000000E+00 0. -1.
         23    2    1    2    0    0  0.48263750527E+02 -0.32674606171E+03 -0.16870470919E+03  0.38007696454E+03  0.83095376592E+02 0.  0.
        254    2    1    2    0    0 -0.48263750527E+02  0.32674606171E+03 -0.15965663074E+04  0.18623300887E+04  0.90008722190E+03 0.  0.
        -24    2    4    4    0    0  0.14053066898E+03  0.43516827031E+03 -0.15591757813E+04  0.16269845418E+04  0.83242355748E+02 0.  0.
         24    2    4    4    0    0 -0.18879441950E+03 -0.10842220860E+03 -0.37390526062E+02  0.23534554692E+03  0.81183538114E+02 0.  0.
         13    1    3    3    0    0  0.34639720906E+02 -0.30554895989E+03 -0.12991908443E+03  0.33382487273E+03  0.00000000000E+00 0.  1.
        -13    1    3    3    0    0  0.13624029621E+02 -0.21197101823E+02 -0.38785624758E+02  0.46252091808E+02  0.00000000000E+00 0. -1.
          4    1    6    6  502    0 -0.78795875827E+02 -0.84515770267E+02  0.34454195801E+01  0.11560093593E+03  0.00000000000E+00 0. -1.
          1    1    5    5  503    0  0.91137638253E+02  0.33061733682E+03 -0.10399382784E+04  0.10950276323E+04  0.00000000000E+00 0. -1.
         -2    1    5    5    0  503  0.49393030723E+02  0.10455093349E+03 -0.51923750290E+03  0.53195690953E+03  0.00000000000E+00 0.  1.
         -3    1    6    6    0  502 -0.10999854368E+03 -0.23906438337E+02 -0.40835945642E+02  0.11974461099E+03  0.00000000000E+00 0.  1.
<mgrwt>
<rscale>  0 0.13828260E+04</rscale>
<asrwt>0</asrwt>
<pdfrwt beam="1">  1        1 0.30828292E+00 0.13828260E+04</pdfrwt>
<pdfrwt beam="2">  1       -1 0.36702773E-01 0.13828260E+04</pdfrwt>
<totfact> 0.20622149E+01</totfact>
</mgrwt>
</event>
<event>
12    1  0.2019083E-007  0.1762520E+04  0.7818608E-02  0.8726489E-01
          2   -1    0    0  501    0  0.00000000000E+00  0.00000000000E+00  0.10124422745E+04  0.10124422745E+04  0.00000000000E+00 0. -1.
         -2   -1    0    0    0  501 -0.00000000000E+00 -0.00000000000E+00 -0.76707485223E+03  0.76707485223E+03  0.00000000000E+00 0.  1.
         23    2    1    2    0    0 -0.29128888175E+03  0.35598793727E+03 -0.36943128978E+03  0.59658461483E+03  0.88640288077E+02 0.  0.
        254    2    1    2    0    0  0.29128888175E+03 -0.35598793727E+03  0.61479871206E+03  0.11829325119E+04  0.89987512871E+03 0.  0.
        -24    2    4    4    0    0 -0.10952442158E+03 -0.56034294829E+02  0.65727764015E+03  0.67346753592E+03  0.80057383028E+02 0.  0.
         24    2    4    4    0    0  0.40081330333E+03 -0.29995364244E+03 -0.42478928086E+02  0.50946497599E+03  0.84419255433E+02 0.  0.
         11    1    3    3    0    0 -0.10139242672E+03  0.17270569237E+03 -0.19956271279E+03  0.28272417072E+03  0.00000000000E+00 0.  1.
        -11    1    3    3    0    0 -0.18989645503E+03  0.18328224490E+03 -0.16986857699E+03  0.31386044411E+03  0.00000000000E+00 0. -1.
          2    1    6    6  502    0  0.98339945895E+02 -0.12217818325E+03 -0.14141630433E+02  0.15747456662E+03  0.00000000000E+00 0. -1.
          3    1    5    5  503    0 -0.59305164110E+02 -0.30446590331E+01  0.44591486826E+03  0.44985157794E+03  0.00000000000E+00 0. -1.
         -4    1    5    5    0  503 -0.50219257473E+02 -0.52989635796E+02  0.21136277189E+03  0.22361595798E+03  0.00000000000E+00 0.  1.
         -1    1    6    6    0  502  0.30247335744E+03 -0.17777545919E+03 -0.28337297653E+02  0.35199040937E+03  0.00000000000E+00 0.  1.
<mgrwt>
<rscale>  0 0.17625198E+04</rscale>
<asrwt>0</asrwt>
<pdfrwt beam="1">  1        2 0.15576035E+00 0.17625198E+04</pdfrwt>
<pdfrwt beam="2">  1       -2 0.11801151E+00 0.17625198E+04</pdfrwt>
<totfact> 0.12960867E+01</totfact>
</mgrwt>
</event>
<event>
12    1  0.2019083E-007  0.3753583E+04  0.7818608E-02  0.8056190E-01
          2   -1    0    0  501    0  0.00000000000E+00  0.00000000000E+00  0.35796027570E+04  0.35796027570E+04  0.00000000000E+00 0.  1.
         -2   -1    0    0    0  501 -0.00000000000E+00 -0.00000000000E+00 -0.98400506047E+03  0.98400506047E+03  0.00000000000E+00 0. -1.
         23    2    1    2    0    0  0.76043631465E+03 -0.14546848884E+04  0.42713834943E+03  0.16986704314E+04  0.93072830174E+02 0.  0.
        254    2    1    2    0    0 -0.76043631465E+03  0.14546848884E+04  0.21684593471E+04  0.28649373861E+04  0.90071014930E+03 0.  0.
        -24    2    4    4    0    0 -0.91828393339E+03  0.11190636226E+04  0.14383930493E+04  0.20420843784E+04  0.74734666164E+02 0.  0.
         24    2    4    4    0    0  0.15784761875E+03  0.33562126578E+03  0.73006629771E+03  0.82285300765E+03  0.80825542799E+02 0.  0.
         13    1    3    3    0    0  0.23549493378E+03 -0.52745987571E+03  0.12283367258E+03  0.59055896864E+03  0.00000000000E+00 0.  1.
        -13    1    3    3    0    0  0.52494138087E+03 -0.92722501268E+03  0.30430467684E+03  0.11081114627E+04  0.00000000000E+00 0. -1.
          2    1    6    6  502    0  0.91379879830E+02  0.11903190643E+03  0.34236313291E+03  0.37380662375E+03  0.00000000000E+00 0. -1.
          1    1    5    5  503    0 -0.83067807807E+03  0.97671805830E+03  0.12831378982E+04  0.18139589578E+04  0.00000000000E+00 0. -1.
         -2    1    5    5    0  503 -0.87605855323E+02  0.14234556432E+03  0.15525515114E+03  0.22812542060E+03  0.00000000000E+00 0.  1.
         -1    1    6    6    0  502  0.66467738916E+02  0.21658935935E+03  0.38770316480E+03  0.44904638390E+03  0.00000000000E+00 0.  1.
<mgrwt>
<rscale>  0 0.37535835E+04</rscale>
<asrwt>0</asrwt>
<pdfrwt beam="1">  1        2 0.55070811E+00 0.37535835E+04</pdfrwt>
<pdfrwt beam="2">  1       -2 0.15138540E+00 0.37535835E+04</pdfrwt>
<totfact> 0.16770761E-01</totfact>
</mgrwt>
</event>
<event>
12    1  0.2019083E-007  0.2701829E+04  0.7818608E-02  0.8334412E-01
         -2   -1    0    0    0  501 -0.00000000000E+00  0.00000000000E+00  0.67428416179E+03  0.67428416179E+03  0.00000000000E+00 0.  1.
          2   -1    0    0  501    0  0.00000000000E+00 -0.00000000000E+00 -0.27065301013E+04  0.27065301013E+04  0.00000000000E+00 0. -1.
         23    2    1    2    0    0 -0.77557835859E+03  0.73041263920E+03 -0.15869695884E+04  0.19135817394E+04  0.91094374648E+02 0.  0.
        254    2    1    2    0    0  0.77557835859E+03 -0.73041263920E+03 -0.44527635112E+03  0.14672325237E+04  0.90524904632E+03 0.  0.
        -24    2    4    4    0    0 -0.18496756227E+03 -0.42965672311E+02 -0.12422232497E+03  0.24055460685E+03  0.79851642231E+02 0.  0.
         24    2    4    4    0    0  0.96054592086E+03 -0.68744696689E+03 -0.32105402614E+03  0.12266779168E+04  0.80194922283E+02 0.  0.
         11    1    3    3    0    0 -0.27463268496E+03  0.20127514789E+03 -0.49216199726E+03  0.59846322222E+03  0.00000000000E+00 0. -1.
        -11    1    3    3    0    0 -0.50094567363E+03  0.52913749131E+03 -0.10948075912E+04  0.13151185172E+04  0.00000000000E+00 0.  1.
          2    1    6    6  502    0  0.91706216110E+03 -0.63346686832E+03 -0.30412309992E+03  0.11553242577E+04  0.00000000000E+00 0. -1.
          1    1    5    5  503    0 -0.92743361193E+02 -0.16183813874E+02 -0.10780637560E+03  0.14312743098E+03  0.00000000000E+00 0. -1.
         -2    1    5    5    0  503 -0.92224201076E+02 -0.26781858436E+02 -0.16415949369E+02  0.97427175876E+02  0.00000000000E+00 0.  1.
         -1    1    6    6    0  502  0.43483759761E+02 -0.53980098572E+02 -0.16930926224E+02  0.71353659105E+02  0.00000000000E+00 0.  1.
<mgrwt>
<rscale>  0 0.27018293E+04</rscale>
<asrwt>0</asrwt>
<pdfrwt beam="1">  1        2 0.41638925E+00 0.27018293E+04</pdfrwt>
<pdfrwt beam="2">  1       -2 0.10373602E+00 0.27018293E+04</pdfrwt>
<totfact> 0.17464652E+00</totfact>
</mgrwt>
</event>
<event>
12    1  0.2019083E-007  0.2396585E+04  0.7818608E-02  0.8440783E-01
         -1   -1    0    0    0  501 -0.00000000000E+00  0.00000000000E+00  0.47619174746E+03  0.47619174746E+03  0.00000000000E+00 0.  1.
          1   -1    0    0  501    0  0.00000000000E+00 -0.00000000000E+00 -0.30153911729E+04  0.30153911729E+04  0.00000000000E+00 0. -1.
         23    2    1    2    0    0  0.96770632457E+02  0.10053910723E+04 -0.88906044397E+03  0.13485763875E+04  0.89744283127E+02 0.  0.
        254    2    1    2    0    0 -0.96770632457E+02 -0.10053910723E+04 -0.16501389814E+04  0.21430065328E+04  0.92159783961E+03 0.  0.
        -24    2    4    4    0    0  0.93760610234E+02 -0.10473644166E+04 -0.97707426938E+03  0.14376400899E+04  0.79822471776E+02 0.  0.
         24    2    4    4    0    0 -0.19053124269E+03  0.41973344257E+02 -0.67306471204E+03  0.70536644292E+03  0.80385297922E+02 0.  0.
         11    1    3    3    0    0  0.89425787814E+01  0.47137928527E+02 -0.20091497560E+02  0.52015596654E+02  0.00000000000E+00 0.  1.
        -11    1    3    3    0    0  0.87828053676E+02  0.95825314379E+03 -0.86896894641E+03  0.12965607909E+04  0.00000000000E+00 0. -1.
          2    1    6    6  502    0 -0.11987975301E+03 -0.14210935155E+02 -0.37982009489E+03  0.39854285885E+03  0.00000000000E+00 0. -1.
          3    1    5    5  503    0 -0.87910471557E+01 -0.51793362762E+02 -0.34704545990E+02  0.62962214452E+02  0.00000000000E+00 0. -1.
         -4    1    5    5    0  503  0.10255165739E+03 -0.99557105381E+03 -0.94236972339E+03  0.13746778754E+04  0.00000000000E+00 0.  1.
         -1    1    6    6    0  502 -0.70651489677E+02  0.56184279412E+02 -0.29324461715E+03  0.30682358406E+03  0.00000000000E+00 0.  1.
<mgrwt>
<rscale>  0 0.23965846E+04</rscale>
<asrwt>0</asrwt>
<pdfrwt beam="1">  1        1 0.46390632E+00 0.23965846E+04</pdfrwt>
<pdfrwt beam="2">  1       -1 0.73260270E-01 0.23965846E+04</pdfrwt>
<totfact> 0.98064907E-01</totfact>
</mgrwt>
</event>
<event>
12    1  0.3266882E-007  0.3574636E+04  0.7818608E-02  0.8096326E-01
         -1   -1    0    0    0  501 -0.00000000000E+00  0.00000000000E+00  0.14209275335E+04  0.14209275335E+04  0.00000000000E+00 0.  1.
          1   -1    0    0  501    0  0.00000000000E+00 -0.00000000000E+00 -0.22481831688E+04  0.22481831688E+04  0.00000000000E+00 0. -1.
         23    2    1    2    0    0  0.15493201523E+04 -0.62460284911E+03 -0.31222914097E+03  0.17018392357E+04  0.90819019429E+02 0.  0.
        254    2    1    2    0    0 -0.15493201523E+04  0.62460284911E+03 -0.51502649432E+03  0.19672714666E+04  0.90243175917E+03 0.  0.
        -24    2    4    4    0    0  0.88534886082E+01  0.73536950336E+02 -0.27299410949E+03  0.29477324537E+03  0.82942239202E+02 0.  0.
         24    2    4    4    0    0 -0.15581736409E+04  0.55106589877E+03 -0.24203238482E+03  0.16724982212E+04  0.84213446908E+02 0.  0.
         11    1    3    3    0    0  0.72056893087E+03 -0.33630064614E+03 -0.13228327608E+03  0.80611201074E+03  0.00000000000E+00 0. -1.
        -11    1    3    3    0    0  0.82875122145E+03 -0.28830220297E+03 -0.17994586489E+03  0.89572722499E+03  0.00000000000E+00 0.  1.
          4    1    6    6  502    0 -0.39520668870E+03  0.10736086824E+03 -0.40082124041E+02  0.41148664558E+03  0.00000000000E+00 0. -1.
          1    1    5    5  503    0 -0.32096275153E+02  0.34002468020E+02 -0.71803903912E+02  0.85686284358E+02  0.00000000000E+00 0. -1.
         -2    1    5    5    0  503  0.40949763761E+02  0.39534482317E+02 -0.20119020558E+03  0.20908696101E+03  0.00000000000E+00 0.  1.
         -3    1    6    6    0  502 -0.11629669522E+04  0.44370503053E+03 -0.20195026078E+03  0.12610115756E+04  0.00000000000E+00 0.  1.
<mgrwt>
<rscale>  0 0.35746358E+04</rscale>
<asrwt>0</asrwt>
<pdfrwt beam="1">  1        1 0.34587433E+00 0.35746358E+04</pdfrwt>
<pdfrwt beam="2">  1       -1 0.21860424E+00 0.35746358E+04</pdfrwt>
<totfact> 0.18413149E-01</totfact>
</mgrwt>
</event>
<event>
12    1  0.2019083E-007  0.2528754E+04  0.7818608E-02  0.8392813E-01
         -1   -1    0    0    0  501 -0.00000000000E+00  0.00000000000E+00  0.69650379846E+03  0.69650379846E+03  0.00000000000E+00 0. -1.
          1   -1    0    0  501    0  0.00000000000E+00 -0.00000000000E+00 -0.22952480998E+04  0.22952480998E+04  0.00000000000E+00 0.  1.
         23    2    1    2    0    0 -0.23208615912E+03  0.88215646106E+03 -0.14313721074E+04  0.16997728378E+04  0.91310368620E+02 0.  0.
        254    2    1    2    0    0  0.23208615912E+03 -0.88215646106E+03 -0.16737219399E+03  0.12919790605E+04  0.89951788992E+03 0.  0.
        -24    2    4    4    0    0 -0.30245129417E+03 -0.38109784201E+03  0.10892660219E+03  0.50479969631E+03  0.79027705310E+02 0.  0.
         24    2    4    4    0    0  0.53453745328E+03 -0.50105861906E+03 -0.27629879618E+03  0.78717936415E+03  0.80748361484E+02 0.  0.
         13    1    3    3    0    0 -0.11438455895E+03  0.53793839686E+03 -0.79347401434E+03  0.96543387013E+03  0.00000000000E+00 0. -1.
        -13    1    3    3    0    0 -0.11770160016E+03  0.34421806420E+03 -0.63789809301E+03  0.73433896769E+03  0.00000000000E+00 0.  1.
          2    1    6    6  502    0  0.30809169547E+03 -0.24714000637E+03 -0.12018036184E+03  0.41284621221E+03  0.00000000000E+00 0. -1.
          3    1    5    5  503    0 -0.42690530017E+02 -0.66354524018E+02 -0.10487917290E+02  0.79595229881E+02  0.00000000000E+00 0. -1.
         -4    1    5    5    0  503 -0.25976076415E+03 -0.31474331799E+03  0.11941451948E+03  0.42520446643E+03  0.00000000000E+00 0.  1.
         -1    1    6    6    0  502  0.22644575781E+03 -0.25391861269E+03 -0.15611843434E+03  0.37433315194E+03  0.00000000000E+00 0.  1.
<mgrwt>
<rscale>  0 0.25287539E+04</rscale>
<asrwt>0</asrwt>
<pdfrwt beam="1">  1        1 0.35311510E+00 0.25287539E+04</pdfrwt>
<pdfrwt beam="2">  1       -1 0.10715443E+00 0.25287539E+04</pdfrwt>
<totfact> 0.13486600E+00</totfact>
</mgrwt>
</event>
<event>
12    1  0.2019083E-007  0.1441612E+04  0.7818608E-02  0.8924237E-01
         -1   -1    0    0    0  501 -0.00000000000E+00  0.00000000000E+00  0.27624385380E+03  0.27624385380E+03  0.00000000000E+00 0.  1.
          1   -1    0    0  501    0  0.00000000000E+00 -0.00000000000E+00 -0.18808063340E+04  0.18808063340E+04  0.00000000000E+00 0. -1.
         23    2    1    2    0    0 -0.32802541552E+03  0.22391207210E+03 -0.75864003646E+03  0.86036796287E+03  0.83432831446E+02 0.  0.
        254    2    1    2    0    0  0.32802541552E+03 -0.22391207210E+03 -0.84592244373E+03  0.12966822249E+04  0.89892309032E+03 0.  0.
        -24    2    4    4    0    0 -0.31863183039E+01 -0.36749720420E+03 -0.24597980464E+01  0.37586749081E+03  0.78777993867E+02 0.  0.
         24    2    4    4    0    0  0.33121173383E+03  0.14358513211E+03 -0.84346264568E+03  0.92081473410E+03  0.78438747321E+02 0.  0.
         13    1    3    3    0    0 -0.85513665164E+02  0.77615851853E+02 -0.15221999122E+03  0.19106996916E+03  0.00000000000E+00 0. -1.
        -13    1    3    3    0    0 -0.24251175036E+03  0.14629622024E+03 -0.60642004524E+03  0.66929799371E+03  0.00000000000E+00 0.  1.
          2    1    6    6  502    0  0.63296913175E+02  0.51043498858E+02 -0.13287855472E+03  0.15578397960E+03  0.00000000000E+00 0. -1.
          3    1    5    5  503    0  0.54697310178E+00 -0.79635742993E+02 -0.33330905207E+02  0.86331338363E+02  0.00000000000E+00 0. -1.
         -4    1    5    5    0  503 -0.37332914057E+01 -0.28786146121E+03  0.30871107161E+02  0.28953615244E+03  0.00000000000E+00 0.  1.
         -1    1    6    6    0  502  0.26791482065E+03  0.92541633250E+02 -0.71058409096E+03  0.76503075450E+03  0.00000000000E+00 0.  1.
<mgrwt>
<rscale>  0 0.14416119E+04</rscale>
<asrwt>0</asrwt>
<pdfrwt beam="1">  1        1 0.28935483E+00 0.14416119E+04</pdfrwt>
<pdfrwt beam="2">  1       -1 0.42499053E-01 0.14416119E+04</pdfrwt>
<totfact> 0.19015911E+01</totfact>
</mgrwt>
</event>
<event>
12    1  0.2019083E-007  0.1346624E+04  0.7818608E-02  0.8993388E-01
          2   -1    0    0  501    0  0.00000000000E+00  0.00000000000E+00  0.20977709080E+04  0.20977709080E+04  0.00000000000E+00 0.  1.
         -2   -1    0    0    0  501 -0.00000000000E+00 -0.00000000000E+00 -0.21610987259E+03  0.21610987259E+03  0.00000000000E+00 0. -1.
         23    2    1    2    0    0 -0.81455556135E+02 -0.30199527714E+03  0.20191815081E+03  0.38320948537E+03  0.90787747024E+02 0.  0.
        254    2    1    2    0    0  0.81455556135E+02  0.30199527714E+03  0.16797428846E+04  0.19306712952E+04  0.89895457995E+03 0.  0.
        -24    2    4    4    0    0  0.21925797357E+03 -0.64842794713E+02  0.43330158862E+02  0.24604323072E+03  0.79881923602E+02 0.  0.
         24    2    4    4    0    0 -0.13780241743E+03  0.36683807185E+03  0.16364127257E+04  0.16846280645E+04  0.81027338319E+02 0.  0.
         11    1    3    3    0    0 -0.42448892253E+02 -0.40874091347E+02  0.57223137741E+02  0.82140655524E+02  0.00000000000E+00 0.  1.
        -11    1    3    3    0    0 -0.39006663883E+02 -0.26112118579E+03  0.14469501307E+03  0.30106882984E+03  0.00000000000E+00 0. -1.
          2    1    6    6  502    0 -0.73629334161E+01  0.53005000415E+02  0.13476971593E+03  0.14500558330E+03  0.00000000000E+00 0. -1.
          1    1    5    5  503    0  0.88990489724E+02  0.34883270756E+01  0.43104732030E+02  0.98941869855E+02  0.00000000000E+00 0. -1.
         -4    1    5    5    0  503  0.13026748384E+03 -0.68331121788E+02  0.22542683177E+00  0.14710136087E+03  0.00000000000E+00 0.  1.
         -1    1    6    6    0  502 -0.13043948402E+03  0.31383307144E+03  0.15016430098E+04  0.15396224812E+04  0.00000000000E+00 0.  1.
<mgrwt>
<rscale>  0 0.13466239E+04</rscale>
<asrwt>0</asrwt>
<pdfrwt beam="1">  1        2 0.32273397E+00 0.13466239E+04</pdfrwt>
<pdfrwt beam="2">  1       -2 0.33247674E-01 0.13466239E+04</pdfrwt>
<totfact> 0.48705175E+01</totfact>
</mgrwt>
</event>
<event>
12    1  0.2019083E-007  0.1457422E+04  0.7818608E-02  0.8913271E-01
         -1   -1    0    0    0  501 -0.00000000000E+00  0.00000000000E+00  0.21099833826E+03  0.21099833826E+03  0.00000000000E+00 0.  1.
          1   -1    0    0  501    0  0.00000000000E+00 -0.00000000000E+00 -0.25167003816E+04  0.25167003816E+04  0.00000000000E+00 0. -1.
         23    2    1    2    0    0 -0.78095237844E+02 -0.18199040590E+03  0.28824924732E+02  0.21831129372E+03  0.87232853133E+02 0.  0.
        254    2    1    2    0    0  0.78095237844E+02  0.18199040590E+03 -0.23345269681E+04  0.25093874262E+04  0.89877122554E+03 0.  0.
        -24    2    4    4    0    0 -0.14423320777E+03  0.38411581147E+03 -0.51276431957E+03  0.66117964966E+03  0.76701413642E+02 0.  0.
         24    2    4    4    0    0  0.22232844562E+03 -0.20212540557E+03 -0.18217626485E+04  0.18482077765E+04  0.82269194171E+02 0.  0.
         11    1    3    3    0    0 -0.44480523207E+02 -0.98881727749E+02 -0.28237407280E+02  0.11204224291E+03  0.00000000000E+00 0. -1.
        -11    1    3    3    0    0 -0.33614714637E+02 -0.83108678147E+02  0.57062332012E+02  0.10626905080E+03  0.00000000000E+00 0.  1.
          4    1    6    6  502    0  0.13364110564E+03 -0.15836402568E+03 -0.10611837689E+04  0.10812262025E+04  0.00000000000E+00 0. -1.
          1    1    5    5  503    0 -0.12265947644E+03  0.36245554722E+03 -0.44536175513E+03  0.58716817336E+03  0.00000000000E+00 0. -1.
         -2    1    5    5    0  503 -0.21573731339E+02  0.21660264242E+02 -0.67402564439E+02  0.74011476299E+02  0.00000000000E+00 0.  1.
         -3    1    6    6    0  502  0.88687339981E+02 -0.43761379886E+02 -0.76057887966E+03  0.76698157398E+03  0.00000000000E+00 0.  1.
<mgrwt>
<rscale>  0 0.14574218E+04</rscale>
<asrwt>0</asrwt>
<pdfrwt beam="1">  1        1 0.38718469E+00 0.14574218E+04</pdfrwt>
<pdfrwt beam="2">  1       -1 0.32461282E-01 0.14574218E+04</pdfrwt>
<totfact> 0.11400253E+01</totfact>
</mgrwt>
</event>
<event>
12    1  0.2019083E-007  0.3924047E+04  0.7818608E-02  0.8020046E-01
         -2   -1    0    0    0  501 -0.00000000000E+00  0.00000000000E+00  0.12156868536E+04  0.12156868536E+04  0.00000000000E+00 0.  1.
          2   -1    0    0  501    0  0.00000000000E+00 -0.00000000000E+00 -0.31665517461E+04  0.31665517461E+04  0.00000000000E+00 0. -1.
         23    2    1    2    0    0  0.15157109601E+04 -0.70284780605E+03 -0.17712459322E+02  0.16731651786E+04  0.88279275472E+02 0.  0.
        254    2    1    2    0    0 -0.15157109601E+04  0.70284780605E+03 -0.19331524333E+04  0.27090734211E+04  0.90034755394E+03 0.  0.
        -24    2    4    4    0    0 -0.10167531854E+04  0.87736948881E+03 -0.15423500723E+04  0.20467531281E+04  0.82403652934E+02 0.  0.
         24    2    4    4    0    0 -0.49895777473E+03 -0.17452168276E+03 -0.39080236094E+03  0.66232029303E+03  0.80777512508E+02 0.  0.
         13    1    3    3    0    0  0.66265151582E+03 -0.26619914551E+03 -0.30323794361E+02  0.71476468086E+03  0.00000000000E+00 0. -1.
        -13    1    3    3    0    0  0.85305944429E+03 -0.43664866054E+03  0.12611335039E+02  0.95840049771E+03  0.00000000000E+00 0.  1.
          2    1    6    6  502    0 -0.91384002489E+02 -0.23573079376E+00 -0.62610094141E+02  0.11077506655E+03  0.00000000000E+00 0. -1.
          3    1    5    5  503    0 -0.45311581255E+03  0.42918960350E+03 -0.76063552571E+03  0.98391262738E+03  0.00000000000E+00 0. -1.
         -4    1    5    5    0  503 -0.56363737283E+03  0.44817988531E+03 -0.78171454660E+03  0.10628405007E+04  0.00000000000E+00 0.  1.
         -1    1    6    6    0  502 -0.40757377224E+03 -0.17428595196E+03 -0.32819226680E+03  0.55154522649E+03  0.00000000000E+00 0.  1.
<mgrwt>
<rscale>  0 0.39240465E+04</rscale>
<asrwt>0</asrwt>
<pdfrwt beam="1">  1        2 0.48716181E+00 0.39240465E+04</pdfrwt>
<pdfrwt beam="2">  1       -2 0.18702875E+00 0.39240465E+04</pdfrwt>
<totfact> 0.17549255E-01</totfact>
</mgrwt>
</event>
<event>
12    1  0.2019083E-007  0.1504227E+04  0.7818608E-02  0.8881647E-01
         -2   -1    0    0    0  501 -0.00000000000E+00  0.00000000000E+00  0.59271420355E+03  0.59271420355E+03  0.00000000000E+00 0.  1.
          2   -1    0    0  501    0  0.00000000000E+00 -0.00000000000E+00 -0.95437977539E+03  0.95437977539E+03  0.00000000000E+00 0. -1.
         23    2    1    2    0    0  0.33089678879E+03 -0.18158338682E+03  0.18374614816E+03  0.42954224811E+03  0.90987277951E+02 0.  0.
        254    2    1    2    0    0 -0.33089678879E+03  0.18158338682E+03 -0.54541171999E+03  0.11175517308E+04  0.89943466442E+03 0.  0.
        -24    2    4    4    0    0 -0.34313423600E+03  0.51669534722E+03 -0.40857919038E+03  0.74677928821E+03  0.77634816502E+02 0.  0.
         24    2    4    4    0    0  0.12237447208E+02 -0.33511196040E+03 -0.13683252961E+03  0.37077244261E+03  0.79368015753E+02 0.  0.
         13    1    3    3    0    0  0.80684182658E+02 -0.36766441599E+02  0.32539208589E+01  0.88725963280E+02  0.00000000000E+00 0. -1.
        -13    1    3    3    0    0  0.25021260613E+03 -0.14481694522E+03  0.18049222730E+03  0.34081628483E+03  0.00000000000E+00 0.  1.
          4    1    6    6  502    0  0.24510785328E+02 -0.29931459533E+03 -0.14266873038E+03  0.33248213818E+03  0.00000000000E+00 0. -1.
          1    1    5    5  503    0 -0.11250446411E+03  0.21451881151E+03 -0.19342364043E+03  0.30998109557E+03  0.00000000000E+00 0. -1.
         -2    1    5    5    0  503 -0.23062977188E+03  0.30217653572E+03 -0.21515554995E+03  0.43679819264E+03  0.00000000000E+00 0.  1.
         -3    1    6    6    0  502 -0.12273338121E+02 -0.35797365068E+02  0.58362007748E+01  0.38290304437E+02  0.00000000000E+00 0.  1.
<mgrwt>
<rscale>  0 0.15042266E+04</rscale>
<asrwt>0</asrwt>
<pdfrwt beam="1">  1        2 0.14682766E+00 0.15042266E+04</pdfrwt>
<pdfrwt beam="2">  1       -2 0.91186802E-01 0.15042266E+04</pdfrwt>
<totfact> 0.26715052E+01</totfact>
</mgrwt>
</event>
<event>
12    1  0.2019083E-007  0.1858186E+04  0.7818608E-02  0.8675955E-01
          2   -1    0    0  501    0  0.00000000000E+00  0.00000000000E+00  0.91430086917E+03  0.91430086917E+03  0.00000000000E+00 0. -1.
         -2   -1    0    0    0  501 -0.00000000000E+00 -0.00000000000E+00 -0.94412394188E+03  0.94412394188E+03  0.00000000000E+00 0.  1.
         23    2    1    2    0    0  0.54627119387E+03  0.31910116381E+03  0.30025097959E+03  0.70619293418E+03  0.91214250759E+02 0.  0.
        254    2    1    2    0    0 -0.54627119387E+03 -0.31910116381E+03 -0.33007405230E+03  0.11522318769E+04  0.90468317552E+03 0.  0.
        -24    2    4    4    0    0 -0.10162488008E+03  0.29201102813E+03 -0.21216204940E+03  0.38315975533E+03  0.78743927394E+02 0.  0.
         24    2    4    4    0    0 -0.44464631380E+03 -0.61111219194E+03 -0.11791200290E+03  0.76907212154E+03  0.80001451208E+02 0.  0.
         13    1    3    3    0    0  0.25375326847E+03  0.13428201097E+03  0.18479578392E+03  0.34142621675E+03  0.00000000000E+00 0. -1.
        -13    1    3    3    0    0  0.29251792540E+03  0.18481915285E+03  0.11545519568E+03  0.36476671744E+03  0.00000000000E+00 0.  1.
          4    1    6    6  502    0 -0.29052847146E+03 -0.45283480022E+03 -0.65224332244E+02  0.54195974255E+03  0.00000000000E+00 0. -1.
          3    1    5    5  503    0 -0.10078054022E+03  0.25531685468E+03 -0.15499772279E+03  0.31522643868E+03  0.00000000000E+00 0. -1.
         -4    1    5    5    0  503 -0.84433985713E+00  0.36694173445E+02 -0.57164326612E+02  0.67933316654E+02  0.00000000000E+00 0.  1.
         -3    1    6    6    0  502 -0.15411784233E+03 -0.15827739171E+03 -0.52687670654E+02  0.22711237899E+03  0.00000000000E+00 0.  1.
<mgrwt>
<rscale>  0 0.18581855E+04</rscale>
<asrwt>0</asrwt>
<pdfrwt beam="1">  1        2 0.14066167E+00 0.18581855E+04</pdfrwt>
<pdfrwt beam="2">  1       -2 0.14524984E+00 0.18581855E+04</pdfrwt>
<totfact> 0.87886515E+00</totfact>
</mgrwt>
</event>
<event>
12    1  0.2019083E-007  0.3942504E+04  0.7818608E-02  0.8016247E-01
         -1   -1    0    0    0  501 -0.00000000000E+00  0.00000000000E+00  0.13539460211E+04  0.13539460211E+04  0.00000000000E+00 0.  1.
          1   -1    0    0  501    0  0.00000000000E+00 -0.00000000000E+00 -0.28700067652E+04  0.28700067652E+04  0.00000000000E+00 0. -1.
         23    2    1    2    0    0 -0.10691180536E+04 -0.15279154905E+04 -0.61300519062E+03  0.19651239519E+04  0.91638549913E+02 0.  0.
        254    2    1    2    0    0  0.10691180536E+04  0.15279154905E+04 -0.90305555347E+03  0.22588288345E+04  0.89958835709E+03 0.  0.
        -24    2    4    4    0    0  0.93970218315E+03  0.79422769895E+03 -0.86828980135E+03  0.15080300567E+04  0.79935236785E+02 0.  0.
         24    2    4    4    0    0  0.12941587048E+03  0.73368779151E+03 -0.34765752123E+02  0.75079877775E+03  0.86278063239E+02 0.  0.
         13    1    3    3    0    0 -0.34680157522E+03 -0.55447524837E+03 -0.24418567796E+03  0.69809797232E+03  0.00000000000E+00 0.  1.
        -13    1    3    3    0    0 -0.72231647841E+03 -0.97344024209E+03 -0.36881951266E+03  0.12670259795E+04  0.00000000000E+00 0. -1.
          2    1    6    6  502    0  0.63434357865E+02  0.24094325983E+03 -0.46798105168E+02  0.25351062081E+03  0.00000000000E+00 0. -1.
          3    1    5    5  503    0  0.24253770594E+03  0.16232724944E+03 -0.21732063729E+03  0.36387213978E+03  0.00000000000E+00 0. -1.
         -4    1    5    5    0  503  0.69716447721E+03  0.63190044950E+03 -0.65096916405E+03  0.11441579169E+04  0.00000000000E+00 0.  1.
         -1    1    6    6    0  502  0.65981512620E+02  0.49274453169E+03  0.12032353045E+02  0.49728815694E+03  0.00000000000E+00 0.  1.
<mgrwt>
<rscale>  0 0.39425039E+04</rscale>
<asrwt>0</asrwt>
<pdfrwt beam="1">  1        1 0.44153950E+00 0.39425039E+04</pdfrwt>
<pdfrwt beam="2">  1       -1 0.20829939E+00 0.39425039E+04</pdfrwt>
<totfact> 0.77058563E-02</totfact>
</mgrwt>
</event>
<event>
12    1  0.2019083E-007  0.1473875E+04  0.7818608E-02  0.8902014E-01
          1   -1    0    0  501    0  0.00000000000E+00  0.00000000000E+00  0.73931175341E+03  0.73931175341E+03  0.00000000000E+00 0. -1.
         -1   -1    0    0    0  501 -0.00000000000E+00 -0.00000000000E+00 -0.73457043204E+03  0.73457043204E+03  0.00000000000E+00 0.  1.
         23    2    1    2    0    0  0.31531116691E+03  0.31733344566E+03 -0.96601688904E+02  0.46618450864E+03  0.88738165853E+02 0.  0.
        254    2    1    2    0    0 -0.31531116691E+03 -0.31733344566E+03  0.10134301028E+03  0.10076976768E+04  0.89725278177E+03 0.  0.
        -24    2    4    4    0    0  0.69258614742E+02 -0.22544121228E+03  0.42307539063E+03  0.49121789565E+03  0.81741904462E+02 0.  0.
         24    2    4    4    0    0 -0.38456978166E+03 -0.91892233380E+02 -0.32173238035E+03  0.51647978116E+03  0.83075509413E+02 0.  0.
         11    1    3    3    0    0  0.26515728554E+03  0.29768485654E+03 -0.10352428422E+03  0.41187611889E+03  0.00000000000E+00 0.  1.
        -11    1    3    3    0    0  0.50153881373E+02  0.19648589122E+02  0.69225953132E+01  0.54308389749E+02  0.00000000000E+00 0. -1.
          4    1    6    6  502    0 -0.15037446740E+03  0.40460421280E+01 -0.13266715233E+03  0.20057274045E+03  0.00000000000E+00 0. -1.
          3    1    5    5  503    0  0.15706817535E+02 -0.13353933366E+03  0.17035699160E+03  0.21702756124E+03  0.00000000000E+00 0. -1.
         -4    1    5    5    0  503  0.53551797208E+02 -0.91901878622E+02  0.25271839902E+03  0.27419033441E+03  0.00000000000E+00 0.  1.
         -3    1    6    6    0  502 -0.23419531425E+03 -0.95938275508E+02 -0.18906522801E+03  0.31590704071E+03  0.00000000000E+00 0.  1.
<mgrwt>
<rscale>  0 0.14738746E+04</rscale>
<asrwt>0</asrwt>
<pdfrwt beam="1">  1        1 0.11374027E+00 0.14738746E+04</pdfrwt>
<pdfrwt beam="2">  1       -1 0.11301084E+00 0.14738746E+04</pdfrwt>
<totfact> 0.17383715E+01</totfact>
</mgrwt>
</event>
<event>
12    1  0.2019083E-007  0.2993643E+04  0.7818608E-02  0.8245549E-01
         -1   -1    0    0    0  501 -0.00000000000E+00  0.00000000000E+00  0.20548030861E+04  0.20548030861E+04  0.00000000000E+00 0.  1.
          1   -1    0    0  501    0  0.00000000000E+00 -0.00000000000E+00 -0.10903595341E+04  0.10903595341E+04  0.00000000000E+00 0. -1.
         23    2    1    2    0    0 -0.17141397689E+03  0.13503259449E+04  0.42315540651E+03  0.14284289493E+04  0.92659894037E+02 0.  0.
        254    2    1    2    0    0  0.17141397689E+03 -0.13503259449E+04  0.54128814543E+03  0.17167336709E+04  0.89521993473E+03 0.  0.
        -24    2    4    4    0    0 -0.31934241815E+03 -0.74954602998E+03  0.11197963519E+03  0.82630135219E+03  0.80222533323E+02 0.  0.
         24    2    4    4    0    0  0.49075639504E+03 -0.60077991496E+03  0.42930851025E+03  0.89043231875E+03  0.82374582381E+02 0.  0.
         13    1    3    3    0    0 -0.13320628867E+03  0.70604878971E+03  0.20566468363E+03  0.74735986706E+03  0.00000000000E+00 0. -1.
        -13    1    3    3    0    0 -0.38207688215E+02  0.64427715522E+03  0.21749072288E+03  0.68106908219E+03  0.00000000000E+00 0.  1.
          4    1    6    6  502    0  0.81991763724E+02 -0.15443620797E+03  0.93805916831E+02  0.19842565782E+03  0.00000000000E+00 0. -1.
          1    1    5    5  503    0 -0.11052909172E+03 -0.30252268832E+03  0.85920554514E+01  0.32219633840E+03  0.00000000000E+00 0. -1.
         -2    1    5    5    0  503 -0.20881332644E+03 -0.44702334166E+03  0.10338757974E+03  0.50410501379E+03  0.00000000000E+00 0.  1.
         -3    1    6    6    0  502  0.40876463131E+03 -0.44634370699E+03  0.33550259342E+03  0.69200666093E+03  0.00000000000E+00 0.  1.
<mgrwt>
<rscale>  0 0.29936427E+04</rscale>
<asrwt>0</asrwt>
<pdfrwt beam="1">  1        1 0.16774762E+00 0.29936427E+04</pdfrwt>
<pdfrwt beam="2">  1       -1 0.31612355E+00 0.29936427E+04</pdfrwt>
<totfact> 0.28476939E-01</totfact>
</mgrwt>
</event>
<event>
12    1  0.2019083E-007  0.1401104E+04  0.7818608E-02  0.8953020E-01
          1   -1    0    0  501    0  0.00000000000E+00  0.00000000000E+00  0.16512700959E+04  0.16512700959E+04  0.00000000000E+00 0. -1.
         -1   -1    0    0    0  501 -0.00000000000E+00 -0.00000000000E+00 -0.29720949217E+03  0.29720949217E+03  0.00000000000E+00 0.  1.
         23    2    1    2    0    0  0.54946623623E+01 -0.58067456889E+02 -0.15630301597E+03  0.19055715226E+03  0.92083519771E+02 0.  0.
        254    2    1    2    0    0 -0.54946623623E+01  0.58067456889E+02  0.15103636197E+04  0.17579224358E+04  0.89760292209E+03 0.  0.
        -24    2    4    4    0    0  0.22769261975E+03  0.34585500769E+02  0.14891626773E+04  0.15090197303E+04  0.80591444827E+02 0.  0.
         24    2    4    4    0    0 -0.23318728211E+03  0.23481956120E+02  0.21200942400E+02  0.24890270552E+03  0.81088630857E+02 0.  0.
         13    1    3    3    0    0  0.35207360663E+02  0.47808712664E+01 -0.30507504872E+02  0.46830789321E+02  0.00000000000E+00 0. -1.
        -13    1    3    3    0    0 -0.29712698301E+02 -0.62848328155E+02 -0.12579551110E+03  0.14372636294E+03  0.00000000000E+00 0.  1.
          2    1    6    6  502    0 -0.68941739866E+02 -0.26820361551E+02  0.21819585081E+02  0.77125803610E+02  0.00000000000E+00 0. -1.
          1    1    5    5  503    0  0.11425091546E+03  0.49713700081E+02  0.62379733688E+03  0.63611936078E+03  0.00000000000E+00 0. -1.
         -2    1    5    5    0  503  0.11344170429E+03 -0.15128199312E+02  0.86536534046E+03  0.87290036954E+03  0.00000000000E+00 0.  1.
         -1    1    6    6    0  502 -0.16424554225E+03  0.50302317671E+02 -0.61864268099E+00  0.17177690191E+03  0.00000000000E+00 0.  1.
<mgrwt>
<rscale>  0 0.14011041E+04</rscale>
<asrwt>0</asrwt>
<pdfrwt beam="1">  1        1 0.25404155E+00 0.14011041E+04</pdfrwt>
<pdfrwt beam="2">  1       -1 0.45724538E-01 0.14011041E+04</pdfrwt>
<totfact> 0.23848931E+01</totfact>
</mgrwt>
</event>
<event>
12    1  0.2019083E-007  0.3526900E+04  0.7818608E-02  0.8107444E-01
          2   -1    0    0  501    0  0.00000000000E+00  0.00000000000E+00  0.13597837046E+04  0.13597837046E+04  0.00000000000E+00 0. -1.
         -2   -1    0    0    0  501 -0.00000000000E+00 -0.00000000000E+00 -0.22869487814E+04  0.22869487814E+04  0.00000000000E+00 0.  1.
         23    2    1    2    0    0  0.75934458532E+03  0.59163243546E+03  0.94958196406E+03  0.13539730821E+04  0.70029012981E+02 0.  0.
        254    2    1    2    0    0 -0.75934458532E+03 -0.59163243546E+03 -0.18767470408E+04  0.22927594039E+04  0.89885098367E+03 0.  0.
        -24    2    4    4    0    0  0.14148051720E+03 -0.27960539061E+03 -0.26642308403E+03  0.41948447661E+03  0.82401791264E+02 0.  0.
         24    2    4    4    0    0 -0.90082510251E+03 -0.31202704485E+03 -0.16103239568E+04  0.18732749273E+04  0.84669742286E+02 0.  0.
         13    1    3    3    0    0  0.38877428245E+03  0.32059106876E+03  0.45178187661E+03  0.67677983133E+03  0.00000000000E+00 0.  1.
        -13    1    3    3    0    0  0.37057030287E+03  0.27104136670E+03  0.49780008745E+03  0.67719325077E+03  0.00000000000E+00 0. -1.
          4    1    6    6  502    0 -0.80659532211E+03 -0.26162595098E+03 -0.13864435296E+04  0.16251983918E+04  0.00000000000E+00 0. -1.
          1    1    5    5  503    0  0.13995923739E+03 -0.28461642036E+03 -0.25516466877E+03  0.40706768855E+03  0.00000000000E+00 0. -1.
         -2    1    5    5    0  503  0.15212798039E+01  0.50110297536E+01 -0.11258415261E+02  0.12416788056E+02  0.00000000000E+00 0.  1.
         -3    1    6    6    0  502 -0.94229780402E+02 -0.50401093869E+02 -0.22388042716E+03  0.24807653546E+03  0.00000000000E+00 0.  1.
<mgrwt>
<rscale>  0 0.35268999E+04</rscale>
<asrwt>0</asrwt>
<pdfrwt beam="1">  1        2 0.20919750E+00 0.35268999E+04</pdfrwt>
<pdfrwt beam="2">  1       -2 0.35183827E+00 0.35268999E+04</pdfrwt>
<totfact> 0.18947135E-01</totfact>
</mgrwt>
</event>
<event>
12    1  0.2019083E-007  0.2156934E+04  0.7818608E-02  0.8536570E-01
          2   -1    0    0  501    0  0.00000000000E+00  0.00000000000E+00  0.18506076775E+04  0.18506076775E+04  0.00000000000E+00 0. -1.
         -2   -1    0    0    0  501 -0.00000000000E+00 -0.00000000000E+00 -0.62849119817E+03  0.62849119817E+03  0.00000000000E+00 0.  1.
         23    2    1    2    0    0 -0.53552740866E+03  0.70196052101E+03  0.40342587155E+03  0.97549825629E+03  0.96468832748E+02 0.  0.
        254    2    1    2    0    0  0.53552740866E+03 -0.70196052101E+03  0.81869060776E+03  0.15036006194E+04  0.90056778359E+03 0.  0.
        -24    2    4    4    0    0  0.46490170033E+03  0.37125903492E+02  0.50906623677E+03  0.69511414412E+03  0.80767049332E+02 0.  0.
         24    2    4    4    0    0  0.70625708335E+02 -0.73908642450E+03  0.30962437099E+03  0.80848647525E+03  0.80909801527E+02 0.  0.
         11    1    3    3    0    0 -0.93963788612E+02  0.73195057739E+02  0.40848247354E+02  0.12591778810E+03  0.00000000000E+00 0.  1.
        -11    1    3    3    0    0 -0.44156362005E+03  0.62876546327E+03  0.36257762419E+03  0.84958046819E+03  0.00000000000E+00 0. -1.
          2    1    6    6  502    0  0.31411242156E+02 -0.76062525761E+02  0.42262386972E+02  0.92510990220E+02  0.00000000000E+00 0. -1.
          1    1    5    5  503    0  0.99487511632E+02  0.22167225732E+02  0.69820483060E+02  0.12354776697E+03  0.00000000000E+00 0. -1.
         -2    1    5    5    0  503  0.36541418870E+03  0.14958677759E+02  0.43924575371E+03  0.57156637716E+03  0.00000000000E+00 0.  1.
         -1    1    6    6    0  502  0.39214466179E+02 -0.66302389874E+03  0.26736198401E+03  0.71597548503E+03  0.00000000000E+00 0.  1.
<mgrwt>
<rscale>  0 0.21569336E+04</rscale>
<asrwt>0</asrwt>
<pdfrwt beam="1">  1        2 0.28470887E+00 0.21569336E+04</pdfrwt>
<pdfrwt beam="2">  1       -2 0.96690954E-01 0.21569336E+04</pdfrwt>
<totfact> 0.66344360E+00</totfact>
</mgrwt>
</event>
<event>
12    1  0.2019083E-007  0.1779983E+04  0.7818608E-02  0.8717017E-01
          2   -1    0    0  501    0  0.00000000000E+00  0.00000000000E+00  0.30192739485E+04  0.30192739485E+04  0.00000000000E+00 0. -1.
         -2   -1    0    0    0  501 -0.00000000000E+00 -0.00000000000E+00 -0.26234275639E+03  0.26234275639E+03  0.00000000000E+00 0.  1.
         23    2    1    2    0    0 -0.35783788883E+03  0.54516188508E+03  0.85190933207E+03  0.10765638311E+04  0.89390920599E+02 0.  0.
        254    2    1    2    0    0  0.35783788883E+03 -0.54516188508E+03  0.19050218600E+04  0.22050528738E+04  0.89883282840E+03 0.  0.
        -24    2    4    4    0    0  0.25616099328E+03 -0.77911934638E+03  0.15890023869E+04  0.17899394196E+04  0.79430031219E+02 0.  0.
         24    2    4    4    0    0  0.10167689555E+03  0.23395746130E+03  0.31601947313E+03  0.41511345420E+03  0.85887063479E+02 0.  0.
         13    1    3    3    0    0 -0.13730990435E+03  0.27497584002E+03  0.44209968000E+03  0.53844020047E+03  0.00000000000E+00 0. -1.
        -13    1    3    3    0    0 -0.22052798449E+03  0.27018604506E+03  0.40980965207E+03  0.53812363061E+03  0.00000000000E+00 0.  1.
          2    1    6    6  502    0 -0.12029127608E+02  0.47076062134E+02  0.40106146650E+02  0.63002845461E+02  0.00000000000E+00 0. -1.
          3    1    5    5  503    0  0.48618015513E+02 -0.17464395190E+03  0.42436198955E+03  0.46146215397E+03  0.00000000000E+00 0. -1.
         -4    1    5    5    0  503  0.20754297777E+03 -0.60447539448E+03  0.11646403974E+04  0.13284772656E+04  0.00000000000E+00 0.  1.
         -1    1    6    6    0  502  0.11370602316E+03  0.18688139917E+03  0.27591332648E+03  0.35211060874E+03  0.00000000000E+00 0.  1.
<mgrwt>
<rscale>  0 0.17799828E+04</rscale>
<asrwt>0</asrwt>
<pdfrwt beam="1">  1        2 0.46450366E+00 0.17799828E+04</pdfrwt>
<pdfrwt beam="2">  1       -2 0.40360426E-01 0.17799828E+04</pdfrwt>
<totfact> 0.93431839E+00</totfact>
</mgrwt>
</event>
<event>
12    1  0.2019083E-007  0.1251172E+04  0.7818608E-02  0.9069208E-01
          1   -1    0    0  501    0  0.00000000000E+00  0.00000000000E+00  0.54335342013E+03  0.54335342013E+03  0.00000000000E+00 0. -1.
         -1   -1    0    0    0  501 -0.00000000000E+00 -0.00000000000E+00 -0.72026380474E+03  0.72026380474E+03  0.00000000000E+00 0.  1.
         23    2    1    2    0    0 -0.28825462904E+03 -0.49947649423E+01 -0.13160143979E+02  0.30332432355E+03  0.93363681530E+02 0.  0.
        254    2    1    2    0    0  0.28825462904E+03  0.49947649423E+01 -0.16375024063E+03  0.96029290131E+03  0.90123949989E+03 0.  0.
        -24    2    4    4    0    0  0.33851542351E+03  0.37991041272E+03 -0.23690930147E+03  0.56710434273E+03  0.80973481950E+02 0.  0.
         24    2    4    4    0    0 -0.50260794471E+02 -0.37491564778E+03  0.73159060836E+02  0.39318855858E+03  0.78467216124E+02 0.  0.
         11    1    3    3    0    0 -0.17935163174E+03  0.18750613368E+02 -0.47885364733E+02  0.18657867366E+03  0.00000000000E+00 0.  1.
        -11    1    3    3    0    0 -0.10890299730E+03 -0.23745378311E+02  0.34725220754E+02  0.11674564990E+03  0.00000000000E+00 0. -1.
          2    1    6    6  502    0 -0.67536522675E+02 -0.32131707903E+03  0.49257630712E+02  0.33201229097E+03  0.00000000000E+00 0. -1.
          3    1    5    5  503    0  0.32917908994E+03  0.34527940015E+03 -0.23334039934E+03  0.53105977007E+03  0.00000000000E+00 0. -1.
         -4    1    5    5    0  503  0.93363335673E+01  0.34631012567E+02 -0.35689021247E+01  0.36044572660E+02  0.00000000000E+00 0.  1.
         -1    1    6    6    0  502  0.17275728204E+02 -0.53598568750E+02  0.23901430124E+02  0.61176267612E+02  0.00000000000E+00 0.  1.
<mgrwt>
<rscale>  0 0.12511719E+04</rscale>
<asrwt>0</asrwt>
<pdfrwt beam="1">  1        1 0.83592834E-01 0.12511719E+04</pdfrwt>
<pdfrwt beam="2">  1       -1 0.11080982E+00 0.12511719E+04</pdfrwt>
<totfact> 0.29200206E+01</totfact>
</mgrwt>
</event>
<event>
12    1  0.2019083E-007  0.1594868E+04  0.7818608E-02  0.8823707E-01
         -1   -1    0    0    0  501 -0.00000000000E+00  0.00000000000E+00  0.76700125338E+03  0.76700125338E+03  0.00000000000E+00 0.  1.
          1   -1    0    0  501    0  0.00000000000E+00 -0.00000000000E+00 -0.82907399853E+03  0.82907399853E+03  0.00000000000E+00 0. -1.
         23    2    1    2    0    0  0.23571986901E+03  0.30869560718E+03  0.35303176593E+03  0.53252745257E+03  0.89984584487E+02 0.  0.
        254    2    1    2    0    0 -0.23571986901E+03 -0.30869560718E+03 -0.41510451108E+03  0.10635477993E+04  0.89886891805E+03 0.  0.
        -24    2    4    4    0    0  0.22555082735E+03 -0.41684207405E+03 -0.30834817261E+03  0.57121453548E+03  0.81098456029E+02 0.  0.
         24    2    4    4    0    0 -0.46127069636E+03  0.10814646687E+03 -0.10675633847E+03  0.49233326387E+03  0.80801072366E+02 0.  0.
         11    1    3    3    0    0  0.86392718609E+02  0.18655527426E+03  0.19023774549E+03  0.28010171723E+03  0.00000000000E+00 0. -1.
        -11    1    3    3    0    0  0.14932715040E+03  0.12214033292E+03  0.16279402044E+03  0.25242573534E+03  0.00000000000E+00 0.  1.
          2    1    6    6  502    0 -0.13318682766E+03  0.38024733964E+01 -0.55176188248E+02  0.14421373588E+03  0.00000000000E+00 0. -1.
          3    1    5    5  503    0  0.19928518134E+02 -0.96553287844E+02 -0.83144902677E+02  0.12896805058E+03  0.00000000000E+00 0. -1.
         -4    1    5    5    0  503  0.20562230921E+03 -0.32028878621E+03 -0.22520326993E+03  0.44224648490E+03  0.00000000000E+00 0.  1.
         -1    1    6    6    0  502 -0.32808386869E+03  0.10434399348E+03 -0.51580150222E+02  0.34811952799E+03  0.00000000000E+00 0.  1.
<mgrwt>
<rscale>  0 0.15948678E+04</rscale>
<asrwt>0</asrwt>
<pdfrwt beam="1">  1        1 0.12754985E+00 0.15948678E+04</pdfrwt>
<pdfrwt beam="2">  1       -1 0.11800019E+00 0.15948678E+04</pdfrwt>
<totfact> 0.12923433E+01</totfact>
</mgrwt>
</event>
<event>
12    1  0.2019083E-007  0.3147630E+04  0.7818608E-02  0.8202787E-01
          1   -1    0    0  501    0  0.00000000000E+00  0.00000000000E+00  0.12703732378E+04  0.12703732378E+04  0.00000000000E+00 0. -1.
         -1   -1    0    0    0  501 -0.00000000000E+00 -0.00000000000E+00 -0.19497366748E+04  0.19497366748E+04  0.00000000000E+00 0.  1.
         23    2    1    2    0    0 -0.55904342498E+03 -0.11937562225E+04  0.28584716862E+03  0.13519252931E+04  0.91705640648E+02 0.  0.
        254    2    1    2    0    0  0.55904342498E+03  0.11937562225E+04 -0.96521060571E+03  0.18681846195E+04  0.90603465132E+03 0.  0.
        -24    2    4    4    0    0 -0.23829490872E+03  0.22308462506E+03 -0.25731320037E+03  0.42411613817E+03  0.84339801466E+02 0.  0.
         24    2    4    4    0    0  0.79733833371E+03  0.97067159745E+03 -0.70789740534E+03  0.14440684813E+04  0.79140847893E+02 0.  0.
         13    1    3    3    0    0 -0.26010255886E+03 -0.62796206605E+03  0.11246734842E+03  0.68894020204E+03  0.00000000000E+00 0. -1.
        -13    1    3    3    0    0 -0.29894086612E+03 -0.56579415646E+03  0.17337982020E+03  0.66298509107E+03  0.00000000000E+00 0.  1.
          4    1    6    6  502    0  0.26938307901E+03  0.31911289228E+03 -0.27808675824E+03  0.50172953509E+03  0.00000000000E+00 0. -1.
          3    1    5    5  503    0 -0.16766200738E+03  0.19871613572E+03 -0.17763781546E+03  0.31488703498E+03  0.00000000000E+00 0. -1.
         -4    1    5    5    0  503 -0.70632901339E+02  0.24368489342E+02 -0.79675384909E+02  0.10922910320E+03  0.00000000000E+00 0.  1.
         -3    1    6    6    0  502  0.52795525470E+03  0.65155870517E+03 -0.42981064709E+03  0.94233894624E+03  0.00000000000E+00 0.  1.
<mgrwt>
<rscale>  0 0.31476298E+04</rscale>
<asrwt>0</asrwt>
<pdfrwt beam="1">  1        1 0.19544204E+00 0.31476298E+04</pdfrwt>
<pdfrwt beam="2">  1       -1 0.29995949E+00 0.31476298E+04</pdfrwt>
<totfact> 0.26377780E-01</totfact>
</mgrwt>
</event>
<event>
12    1  0.2019083E-007  0.1936705E+04  0.7818608E-02  0.8636799E-01
         -1   -1    0    0    0  501 -0.00000000000E+00  0.00000000000E+00  0.27399546932E+03  0.27399546932E+03  0.00000000000E+00 0.  1.
          1   -1    0    0  501    0  0.00000000000E+00 -0.00000000000E+00 -0.34223418435E+04  0.34223418435E+04  0.00000000000E+00 0. -1.
         23    2    1    2    0    0  0.34129804939E+03  0.29215248213E+03 -0.77882039470E+02  0.46517723397E+03  0.92123914373E+02 0.  0.
        254    2    1    2    0    0 -0.34129804939E+03 -0.29215248213E+03 -0.30704643347E+04  0.32311600788E+04  0.90044810683E+03 0.  0.
        -24    2    4    4    0    0 -0.90420039209E+02 -0.59369350042E+03 -0.18458676272E+04  0.19427685052E+04  0.80463729494E+02 0.  0.
         24    2    4    4    0    0 -0.25087801018E+03  0.30154101829E+03 -0.12245967075E+04  0.12883915736E+04  0.80305599303E+02 0.  0.
         11    1    3    3    0    0  0.26171743040E+03  0.26605820590E+03 -0.48116003253E+02  0.37629527246E+03  0.00000000000E+00 0.  1.
        -11    1    3    3    0    0  0.79580618984E+02  0.26094276226E+02 -0.29766036216E+02  0.88881961508E+02  0.00000000000E+00 0. -1.
          4    1    6    6  502    0 -0.14229549192E+03  0.15468239174E+03 -0.52918377610E+03  0.56939451896E+03  0.00000000000E+00 0. -1.
          1    1    5    5  503    0  0.54368789409E+00 -0.24471919016E+03 -0.78719866726E+03  0.82436006658E+03  0.00000000000E+00 0. -1.
         -2    1    5    5    0  503 -0.90963727103E+02 -0.34897431026E+03 -0.10586689599E+04  0.11184084386E+04  0.00000000000E+00 0.  1.
         -1    1    6    6    0  502 -0.10858251825E+03  0.14685862655E+03 -0.69541293142E+03  0.71899705469E+03  0.00000000000E+00 0.  1.
<mgrwt>
<rscale>  0 0.19367046E+04</rscale>
<asrwt>0</asrwt>
<pdfrwt beam="1">  1        1 0.52651413E+00 0.19367046E+04</pdfrwt>
<pdfrwt beam="2">  1       -1 0.42153149E-01 0.19367046E+04</pdfrwt>
<totfact> 0.14895596E+00</totfact>
</mgrwt>
</event>
<event>
12    1  0.2019083E-007  0.2575989E+04  0.7818608E-02  0.8376403E-01
          1   -1    0    0  501    0  0.00000000000E+00  0.00000000000E+00  0.13703740993E+04  0.13703740993E+04  0.00000000000E+00 0. -1.
         -1   -1    0    0    0  501 -0.00000000000E+00 -0.00000000000E+00 -0.12105666797E+04  0.12105666797E+04  0.00000000000E+00 0.  1.
         23    2    1    2    0    0 -0.10406175574E+04 -0.17563059737E+03  0.46644251820E+03  0.11573490142E+04  0.90316721894E+02 0.  0.
        254    2    1    2    0    0  0.10406175574E+04  0.17563059737E+03 -0.30663509859E+03  0.14235917649E+04  0.90490741057E+03 0.  0.
        -24    2    4    4    0    0 -0.10244679752E+03  0.26718908396E+02 -0.22722795607E+03  0.26523789487E+03  0.86656508526E+02 0.  0.
         24    2    4    4    0    0  0.11430643550E+04  0.14891168897E+03 -0.79407142519E+02  0.11583538700E+04  0.81898614992E+02 0.  0.
         13    1    3    3    0    0 -0.39252758888E+03 -0.10796889105E+03  0.19624951732E+03  0.45193922436E+03  0.00000000000E+00 0.  1.
        -13    1    3    3    0    0 -0.64808996856E+03 -0.67661706319E+02  0.27019300088E+03  0.70540978982E+03  0.00000000000E+00 0. -1.
          4    1    6    6  502    0  0.11807991560E+02 -0.61045656340E+01 -0.46455967849E+01  0.14081049526E+02  0.00000000000E+00 0. -1.
          1    1    5    5  503    0 -0.53584380787E+01 -0.17820687396E+02 -0.86958016724E+02  0.88926860006E+02  0.00000000000E+00 0. -1.
         -2    1    5    5    0  503 -0.97088359443E+02  0.44539595792E+02 -0.14026993934E+03  0.17631103487E+03  0.00000000000E+00 0.  1.
         -3    1    6    6    0  502  0.11312563634E+04  0.15501625460E+03 -0.74761545734E+02  0.11442728205E+04  0.00000000000E+00 0.  1.
<mgrwt>
<rscale>  0 0.25759885E+04</rscale>
<asrwt>0</asrwt>
<pdfrwt beam="1">  1        1 0.21082679E+00 0.25759885E+04</pdfrwt>
<pdfrwt beam="2">  1       -1 0.18624103E+00 0.25759885E+04</pdfrwt>
<totfact> 0.13363943E+00</totfact>
</mgrwt>
</event>
<event>
12    1  0.2019083E-007  0.3930822E+04  0.7818608E-02  0.8018649E-01
          2   -1    0    0  501    0  0.00000000000E+00  0.00000000000E+00  0.48606135946E+04  0.48606135946E+04  0.00000000000E+00 0. -1.
         -2   -1    0    0    0  501 -0.00000000000E+00 -0.00000000000E+00 -0.79472275619E+03  0.79472275619E+03  0.00000000000E+00 0.  1.
         23    2    1    2    0    0 -0.13396496062E+04 -0.10039346495E+04  0.75642059285E+03  0.18387938954E+04  0.80280936470E+02 0.  0.
        254    2    1    2    0    0  0.13396496062E+04  0.10039346495E+04  0.33094702456E+04  0.38165424554E+04  0.90047607390E+03 0.  0.
        -24    2    4    4    0    0  0.13314755062E+04  0.61193553485E+03  0.22772264032E+04  0.27091601076E+04  0.80599470089E+02 0.  0.
         24    2    4    4    0    0  0.81740999492E+01  0.39199911465E+03  0.10322438424E+04  0.11073823478E+04  0.83893934971E+02 0.  0.
         11    1    3    3    0    0 -0.61413539959E+03 -0.47103238098E+03  0.30687876733E+03  0.83259135883E+03  0.00000000000E+00 0.  1.
        -11    1    3    3    0    0 -0.72551420658E+03 -0.53290226852E+03  0.44954182552E+03  0.10062025366E+04  0.00000000000E+00 0. -1.
          2    1    6    6  502    0 -0.75185556615E+01  0.53574352890E+01  0.64239881116E+02  0.64899869938E+02  0.00000000000E+00 0. -1.
          1    1    5    5  503    0  0.22416169915E+02  0.22593207624E+02  0.55215211709E+02  0.63731132961E+02  0.00000000000E+00 0. -1.
         -2    1    5    5    0  503  0.13090593363E+04  0.58934232723E+03  0.22220111915E+04  0.26454289746E+04  0.00000000000E+00 0.  1.
         -1    1    6    6    0  502  0.15692655611E+02  0.38664167936E+03  0.96800396128E+03  0.10424824779E+04  0.00000000000E+00 0.  1.
<mgrwt>
<rscale>  0 0.39308219E+04</rscale>
<asrwt>0</asrwt>
<pdfrwt beam="1">  1        2 0.74778669E+00 0.39308219E+04</pdfrwt>
<pdfrwt beam="2">  1       -2 0.12226504E+00 0.39308219E+04</pdfrwt>
<totfact> 0.20181273E-02</totfact>
</mgrwt>
</event>
<event>
12    1  0.2019083E-007  0.2862134E+04  0.7818608E-02  0.8284234E-01
         -2   -1    0    0    0  501 -0.00000000000E+00  0.00000000000E+00  0.12374454636E+04  0.12374454636E+04  0.00000000000E+00 0.  1.
          2   -1    0    0  501    0  0.00000000000E+00 -0.00000000000E+00 -0.16549841819E+04  0.16549841819E+04  0.00000000000E+00 0. -1.
         23    2    1    2    0    0  0.12314802493E+04  0.15711533921E+03 -0.54837593425E+03  0.13599622809E+04  0.86904579250E+02 0.  0.
        254    2    1    2    0    0 -0.12314802493E+04 -0.15711533921E+03  0.13083721600E+03  0.15324673647E+04  0.88888076392E+03 0.  0.
        -24    2    4    4    0    0 -0.13348588292E+04 -0.15238753082E+03 -0.21808338602E+01  0.13459285423E+04  0.80304616607E+02 0.  0.
         24    2    4    4    0    0  0.10337857994E+03 -0.47278083892E+01  0.13301804986E+03  0.18653882235E+03  0.79959037575E+02 0.  0.
         13    1    3    3    0    0  0.67169502729E+03  0.10222853172E+03 -0.25615773304E+03  0.72611408647E+03  0.00000000000E+00 0.  1.
        -13    1    3    3    0    0  0.55978522200E+03  0.54886807493E+02 -0.29221820121E+03  0.63384819439E+03  0.00000000000E+00 0. -1.
          4    1    6    6  502    0 -0.89937415720E+01 -0.18028066808E+01  0.38787150370E+02  0.39857001056E+02  0.00000000000E+00 0. -1.
          3    1    5    5  503    0 -0.77280062405E+03 -0.92744031412E+02 -0.40653208182E+02  0.77940678931E+03  0.00000000000E+00 0. -1.
         -4    1    5    5    0  503 -0.56205820519E+03 -0.59643499407E+02  0.38472374322E+02  0.56652175301E+03  0.00000000000E+00 0.  1.
         -3    1    6    6    0  502  0.11237232152E+03 -0.29250017084E+01  0.94230899495E+02  0.14668182129E+03  0.00000000000E+00 0.  1.
<mgrwt>
<rscale>  0 0.28621339E+04</rscale>
<asrwt>0</asrwt>
<pdfrwt beam="1">  1        2 0.25461295E+00 0.28621339E+04</pdfrwt>
<pdfrwt beam="2">  1       -2 0.19037623E+00 0.28621339E+04</pdfrwt>
<totfact> 0.13863562E+00</totfact>
</mgrwt>
</event>
<event>
12    1  0.2019083E-007  0.1935719E+04  0.7818608E-02  0.8637278E-01
          2   -1    0    0  501    0  0.00000000000E+00  0.00000000000E+00  0.29735399755E+04  0.29735399755E+04  0.00000000000E+00 0. -1.
         -2   -1    0    0    0  501 -0.00000000000E+00 -0.00000000000E+00 -0.31502937969E+03  0.31502937969E+03  0.00000000000E+00 0.  1.
         23    2    1    2    0    0 -0.49406404044E+03 -0.55947719644E+03  0.12248662736E+04  0.14371471950E+04  0.89334554537E+02 0.  0.
        254    2    1    2    0    0  0.49406404044E+03  0.55947719644E+03  0.14336443223E+04  0.18514221602E+04  0.90294737560E+03 0.  0.
        -24    2    4    4    0    0  0.18338921760E+03  0.69474270805E+03  0.12788526354E+04  0.14690574221E+04  0.79791044691E+02 0.  0.
         24    2    4    4    0    0  0.31067482284E+03 -0.13526551161E+03  0.15479168683E+03  0.38236473807E+03  0.86178433649E+02 0.  0.
         13    1    3    3    0    0 -0.43783107322E+03 -0.45079828959E+03  0.10507649686E+04  0.12243456072E+04  0.00000000000E+00 0. -1.
        -13    1    3    3    0    0 -0.56232967220E+02 -0.10867890685E+03  0.17410130493E+03  0.21280158781E+03  0.00000000000E+00 0.  1.
          4    1    6    6  502    0  0.17387537670E+03 -0.10718517147E+03  0.57609610905E+02  0.21222670632E+03  0.00000000000E+00 0. -1.
          1    1    5    5  503    0  0.18026382055E+03  0.57027135053E+03  0.10405223481E+04  0.12001629952E+04  0.00000000000E+00 0. -1.
         -2    1    5    5    0  503  0.31253970465E+01  0.12447135752E+03  0.23833028736E+03  0.26889442691E+03  0.00000000000E+00 0.  1.
         -3    1    6    6    0  502  0.13679944614E+03 -0.28080340147E+02  0.97182075927E+02  0.17013803175E+03  0.00000000000E+00 0.  1.
<mgrwt>
<rscale>  0 0.19357195E+04</rscale>
<asrwt>0</asrwt>
<pdfrwt beam="1">  1        2 0.45746767E+00 0.19357195E+04</pdfrwt>
<pdfrwt beam="2">  1       -2 0.48466061E-01 0.19357195E+04</pdfrwt>
<totfact> 0.68296152E+00</totfact>
</mgrwt>
</event>
<event>
12    1  0.2019083E-007  0.1639536E+04  0.7818608E-02  0.8796621E-01
         -2   -1    0    0    0  501 -0.00000000000E+00  0.00000000000E+00  0.37109532707E+03  0.37109532707E+03  0.00000000000E+00 0. -1.
          2   -1    0    0  501    0  0.00000000000E+00 -0.00000000000E+00 -0.18109076429E+04  0.18109076429E+04  0.00000000000E+00 0.  1.
         23    2    1    2    0    0  0.37489176746E+03 -0.35965077637E+03 -0.81304818041E+03  0.96900660217E+03  0.89632210273E+02 0.  0.
        254    2    1    2    0    0 -0.37489176746E+03  0.35965077637E+03 -0.62676413543E+03  0.12129963678E+04  0.89924100698E+03 0.  0.
        -24    2    4    4    0    0 -0.24733600313E+03  0.52858173088E+03 -0.75125608930E+03  0.95451242210E+03  0.78323097238E+02 0.  0.
         24    2    4    4    0    0 -0.12755576433E+03 -0.16893095451E+03  0.12449195387E+03  0.25848394573E+03  0.80669468924E+02 0.  0.
         13    1    3    3    0    0  0.12134238725E+03 -0.14898673789E+03 -0.36831124107E+03  0.41542050179E+03  0.00000000000E+00 0.  1.
        -13    1    3    3    0    0  0.25354938020E+03 -0.21066403848E+03 -0.44473693934E+03  0.55358610037E+03  0.00000000000E+00 0. -1.
          4    1    6    6  502    0 -0.11892896421E+03 -0.95614195484E+02  0.87641392535E+02  0.17597496013E+03  0.00000000000E+00 0. -1.
          3    1    5    5  503    0 -0.15045253840E+03  0.40314520467E+03 -0.54556410925E+03  0.69483970790E+03  0.00000000000E+00 0. -1.
         -4    1    5    5    0  503 -0.96883464733E+02  0.12543652621E+03 -0.20569198005E+03  0.25967271420E+03  0.00000000000E+00 0.  1.
         -3    1    6    6    0  502 -0.86268001151E+01 -0.73316759024E+02  0.36850561336E+02  0.82508985600E+02  0.00000000000E+00 0.  1.
<mgrwt>
<rscale>  0 0.16395357E+04</rscale>
<asrwt>0</asrwt>
<pdfrwt beam="1">  1        2 0.27860118E+00 0.16395357E+04</pdfrwt>
<pdfrwt beam="2">  1       -2 0.57091589E-01 0.16395357E+04</pdfrwt>
<totfact> 0.23393046E+01</totfact>
</mgrwt>
</event>
<event>
12    1  0.2019083E-007  0.1197309E+04  0.7818608E-02  0.9115215E-01
         -2   -1    0    0    0  501 -0.00000000000E+00  0.00000000000E+00  0.46518673913E+03  0.46518673913E+03  0.00000000000E+00 0. -1.
          2   -1    0    0  501    0  0.00000000000E+00 -0.00000000000E+00 -0.77041596936E+03  0.77041596936E+03  0.00000000000E+00 0.  1.
         23    2    1    2    0    0 -0.67438639823E+01  0.77716325906E+01 -0.32349167168E+03  0.33638384183E+03  0.91658875296E+02 0.  0.
        254    2    1    2    0    0  0.67438639823E+01 -0.77716325906E+01  0.18262441454E+02  0.89921886666E+03  0.89897451322E+03 0.  0.
        -24    2    4    4    0    0 -0.41409538407E+03  0.41050075134E+02  0.14793886834E+03  0.44906231475E+03  0.81307797805E+02 0.  0.
         24    2    4    4    0    0  0.42083924805E+03 -0.48821707725E+02 -0.12967642689E+03  0.45015655191E+03  0.79597196536E+02 0.  0.
         11    1    3    3    0    0  0.33163662988E+02  0.81438970184E+01 -0.53576690921E+02  0.63534348280E+02  0.00000000000E+00 0. -1.
        -11    1    3    3    0    0 -0.39907526970E+02 -0.37226442787E+00 -0.26991498076E+03  0.27284949355E+03  0.00000000000E+00 0.  1.
          2    1    6    6  502    0  0.31212219498E+03 -0.70806632461E+02 -0.10060170870E+03  0.33549150152E+03  0.00000000000E+00 0. -1.
          1    1    5    5  503    0 -0.11354354168E+02  0.15461986217E+02  0.14406954411E+02  0.23990721367E+02  0.00000000000E+00 0. -1.
         -2    1    5    5    0  503 -0.40274102990E+03  0.25588088917E+02  0.13353191393E+03  0.42507159338E+03  0.00000000000E+00 0.  1.
         -1    1    6    6    0  502  0.10871705307E+03  0.21984924736E+02 -0.29074718185E+02  0.11466505039E+03  0.00000000000E+00 0.  1.
<mgrwt>
<rscale>  0 0.11973091E+04</rscale>
<asrwt>0</asrwt>
<pdfrwt beam="1">  1        2 0.11852553E+00 0.11973091E+04</pdfrwt>
<pdfrwt beam="2">  1       -2 0.71567191E-01 0.11973091E+04</pdfrwt>
<totfact> 0.63308975E+01</totfact>
</mgrwt>
</event>
<event>
12    1  0.2019083E-007  0.3074067E+04  0.7818608E-02  0.8222891E-01
          2   -1    0    0  501    0  0.00000000000E+00  0.00000000000E+00  0.34980126658E+04  0.34980126658E+04  0.00000000000E+00 0. -1.
         -2   -1    0    0    0  501 -0.00000000000E+00 -0.00000000000E+00 -0.67537545018E+03  0.67537545018E+03  0.00000000000E+00 0.  1.
         23    2    1    2    0    0  0.12536381876E+04 -0.60110758767E+03  0.10407204260E+04  0.17390172736E+04  0.90238769340E+02 0.  0.
        254    2    1    2    0    0 -0.12536381876E+04  0.60110758767E+03  0.17819167897E+04  0.24343708424E+04  0.90443071339E+03 0.  0.
        -24    2    4    4    0    0 -0.11477681376E+04  0.12240766816E+03  0.11563145096E+04  0.16356907302E+04  0.77881863092E+02 0.  0.
         24    2    4    4    0    0 -0.10587005000E+03  0.47869991951E+03  0.62560228005E+03  0.79868011218E+03  0.78419566199E+02 0.  0.
         11    1    3    3    0    0  0.65954001609E+03 -0.33894461175E+03  0.50467657700E+03  0.89698100873E+03  0.00000000000E+00 0. -1.
        -11    1    3    3    0    0  0.59409817156E+03 -0.26216297592E+03  0.53604384896E+03  0.84203626489E+03  0.00000000000E+00 0.  1.
          4    1    6    6  502    0 -0.28920269260E+02  0.48654607661E+02  0.10297207992E+03  0.11750277471E+03  0.00000000000E+00 0. -1.
          3    1    5    5  503    0 -0.24291366611E+03  0.56955514463E+02  0.26143003573E+03  0.36138157589E+03  0.00000000000E+00 0. -1.
         -4    1    5    5    0  503 -0.90485447154E+03  0.65452153694E+02  0.89488447389E+03  0.12743091543E+04  0.00000000000E+00 0.  1.
         -3    1    6    6    0  502 -0.76949780738E+02  0.43004531185E+03  0.52263020013E+03  0.68117733747E+03  0.00000000000E+00 0.  1.
<mgrwt>
<rscale>  0 0.30740669E+04</rscale>
<asrwt>0</asrwt>
<pdfrwt beam="1">  1        2 0.53815578E+00 0.30740669E+04</pdfrwt>
<pdfrwt beam="2">  1       -2 0.10390392E+00 0.30740669E+04</pdfrwt>
<totfact> 0.52258359E-01</totfact>
</mgrwt>
</event>
<event>
12    1  0.2019083E-007  0.1589064E+04  0.7818608E-02  0.8827295E-01
          1   -1    0    0  501    0  0.00000000000E+00  0.00000000000E+00  0.72761492522E+03  0.72761492522E+03  0.00000000000E+00 0. -1.
         -1   -1    0    0    0  501 -0.00000000000E+00 -0.00000000000E+00 -0.86760302601E+03  0.86760302601E+03  0.00000000000E+00 0.  1.
         23    2    1    2    0    0  0.52778377158E+03  0.34690029505E+02  0.25052605595E+02  0.53783343903E+03  0.94223497087E+02 0.  0.
        254    2    1    2    0    0 -0.52778377158E+03 -0.34690029505E+02 -0.16504070638E+03  0.10573845122E+04  0.90059117482E+03 0.  0.
        -24    2    4    4    0    0 -0.23999438947E+03  0.68147711815E+02  0.35962952289E+03  0.44494882677E+03  0.80029039201E+02 0.  0.
         24    2    4    4    0    0 -0.28778938212E+03 -0.10283774132E+03 -0.52467022927E+03  0.61243568542E+03  0.80001811188E+02 0.  0.
         13    1    3    3    0    0  0.28625740984E+03  0.52612742910E+02  0.46303625101E+02  0.29471245495E+03  0.00000000000E+00 0. -1.
        -13    1    3    3    0    0  0.24152636174E+03 -0.17922713405E+02 -0.21251019505E+02  0.24312098408E+03  0.00000000000E+00 0.  1.
          4    1    6    6  502    0 -0.51548905699E+02 -0.28646642342E+02 -0.16952487157E+03  0.17948983781E+03  0.00000000000E+00 0. -1.
          1    1    5    5  503    0 -0.32856664518E+01 -0.10568283973E+02  0.26941566982E+02  0.29126143954E+02  0.00000000000E+00 0. -1.
         -2    1    5    5    0  503 -0.23670872301E+03  0.78715995789E+02  0.33268795590E+03  0.41582268282E+03  0.00000000000E+00 0.  1.
         -3    1    6    6    0  502 -0.23624047642E+03 -0.74191098979E+02 -0.35514535770E+03  0.43294584761E+03  0.00000000000E+00 0.  1.
<mgrwt>
<rscale>  0 0.15890638E+04</rscale>
<asrwt>0</asrwt>
<pdfrwt beam="1">  1        1 0.11194076E+00 0.15890638E+04</pdfrwt>
<pdfrwt beam="2">  1       -1 0.13347739E+00 0.15890638E+04</pdfrwt>
<totfact> 0.11695190E+01</totfact>
</mgrwt>
</event>
<event>
12    1  0.2019083E-007  0.1159153E+04  0.7818608E-02  0.9149380E-01
         -1   -1    0    0    0  501 -0.00000000000E+00  0.00000000000E+00  0.31165482541E+03  0.31165482541E+03  0.00000000000E+00 0.  1.
          1   -1    0    0  501    0  0.00000000000E+00 -0.00000000000E+00 -0.10778243196E+04  0.10778243196E+04  0.00000000000E+00 0. -1.
         23    2    1    2    0    0 -0.22528460945E+02 -0.10750694953E+03  0.67968244424E+02  0.15749914343E+03  0.90116714215E+02 0.  0.
        254    2    1    2    0    0  0.22528460945E+02  0.10750694953E+03 -0.83413773859E+03  0.12319800016E+04  0.89995759985E+03 0.  0.
        -24    2    4    4    0    0 -0.33242273183E+03 -0.17759538406E+03 -0.60107416913E+03  0.71404437815E+03  0.80772669288E+02 0.  0.
         24    2    4    4    0    0  0.35495119277E+03  0.28510233359E+03 -0.23306356947E+03  0.51793562340E+03  0.81639406555E+02 0.  0.
         13    1    3    3    0    0  0.26514512916E+02 -0.66033755158E+02  0.11707751302E+02  0.72114822720E+02  0.00000000000E+00 0. -1.
        -13    1    3    3    0    0 -0.49042973862E+02 -0.41473194373E+02  0.56260493121E+02  0.85384320709E+02  0.00000000000E+00 0.  1.
          4    1    6    6  502    0  0.25996196323E+03  0.15989969277E+03 -0.16056842787E+03  0.34486280475E+03  0.00000000000E+00 0. -1.
          3    1    5    5  503    0 -0.85095872249E+02 -0.11052061425E+02 -0.16151894643E+03  0.18289840238E+03  0.00000000000E+00 0. -1.
         -4    1    5    5    0  503 -0.24732685958E+03 -0.16654332264E+03 -0.43955522269E+03  0.53114597577E+03  0.00000000000E+00 0.  1.
         -3    1    6    6    0  502  0.94989229539E+02  0.12520264083E+03 -0.72495141599E+02  0.17307281865E+03  0.00000000000E+00 0.  1.
<mgrwt>
<rscale>  0 0.11591534E+04</rscale>
<asrwt>0</asrwt>
<pdfrwt beam="1">  1        1 0.16581913E+00 0.11591534E+04</pdfrwt>
<pdfrwt beam="2">  1       -1 0.47946896E-01 0.11591534E+04</pdfrwt>
<totfact> 0.56832330E+01</totfact>
</mgrwt>
</event>
<event>
12    1  0.2019083E-007  0.1688479E+04  0.7818608E-02  0.8767962E-01
         -2   -1    0    0    0  501 -0.00000000000E+00  0.00000000000E+00  0.38502699704E+03  0.38502699704E+03  0.00000000000E+00 0.  1.
          2   -1    0    0  501    0  0.00000000000E+00 -0.00000000000E+00 -0.18511448252E+04  0.18511448252E+04  0.00000000000E+00 0. -1.
         23    2    1    2    0    0  0.17158873980E+03 -0.57499050135E+03 -0.55475662995E+03  0.82251983698E+03  0.93419438444E+02 0.  0.
        254    2    1    2    0    0 -0.17158873980E+03  0.57499050135E+03 -0.91136119821E+03  0.14136519853E+04  0.89876355598E+03 0.  0.
        -24    2    4    4    0    0  0.28390820527E+03 -0.11674758915E+02 -0.44133317392E+03  0.53102730076E+03  0.80466482083E+02 0.  0.
         24    2    4    4    0    0 -0.45549694507E+03  0.58666526027E+03 -0.47002802429E+03  0.88262468450E+03  0.80289448231E+02 0.  0.
         13    1    3    3    0    0  0.84284467281E+02 -0.17636801760E+03 -0.13822443344E+03  0.23940664789E+03  0.00000000000E+00 0. -1.
        -13    1    3    3    0    0  0.87304272520E+02 -0.39862248376E+03 -0.41653219652E+03  0.58311318909E+03  0.00000000000E+00 0.  1.
          2    1    6    6  502    0 -0.43039769455E+03  0.51742496666E+03 -0.43188351677E+03  0.79968377729E+03  0.00000000000E+00 0. -1.
          3    1    5    5  503    0  0.23019499336E+03  0.12619315699E+02 -0.38907292548E+03  0.45224630837E+03  0.00000000000E+00 0. -1.
         -4    1    5    5    0  503  0.53713211906E+02 -0.24294074614E+02 -0.52260248443E+02  0.78780992390E+02  0.00000000000E+00 0.  1.
         -1    1    6    6    0  502 -0.25099250520E+02  0.69240293606E+02 -0.38144507518E+02  0.82940907212E+02  0.00000000000E+00 0.  1.
<mgrwt>
<rscale>  0 0.16884795E+04</rscale>
<asrwt>0</asrwt>
<pdfrwt beam="1">  1        2 0.28479151E+00 0.16884795E+04</pdfrwt>
<pdfrwt beam="2">  1       -2 0.59234924E-01 0.16884795E+04</pdfrwt>
<totfact> 0.20484881E+01</totfact>
</mgrwt>
</event>
<event>
12    1  0.2019083E-007  0.1672323E+04  0.7818608E-02  0.8777309E-01
         -2   -1    0    0    0  501 -0.00000000000E+00  0.00000000000E+00  0.72012058006E+03  0.72012058006E+03  0.00000000000E+00 0.  1.
          2   -1    0    0  501    0  0.00000000000E+00 -0.00000000000E+00 -0.97090108537E+03  0.97090108537E+03  0.00000000000E+00 0. -1.
         23    2    1    2    0    0 -0.18293513863E+03 -0.42988606722E+03 -0.45621626427E+03  0.65917189095E+03  0.90038915482E+02 0.  0.
        254    2    1    2    0    0  0.18293513863E+03  0.42988606722E+03  0.20543575896E+03  0.10318497745E+04  0.89679585765E+03 0.  0.
        -24    2    4    4    0    0  0.36129087887E+03 -0.13140150913E+03  0.19315385257E+03  0.43746609902E+03  0.79187885898E+02 0.  0.
         24    2    4    4    0    0 -0.17835574024E+03  0.56128757635E+03  0.12281906395E+02  0.59438367546E+03  0.79288050792E+02 0.  0.
         13    1    3    3    0    0 -0.66818825557E+02 -0.70767349225E+02 -0.76546151921E+02  0.12382280299E+03  0.00000000000E+00 0. -1.
        -13    1    3    3    0    0 -0.11611631307E+03 -0.35911871799E+03 -0.37967011235E+03  0.53534908797E+03  0.00000000000E+00 0.  1.
          2    1    6    6  502    0 -0.70273756270E+02  0.31337923472E+03  0.34597376463E+02  0.32302000562E+03  0.00000000000E+00 0. -1.
          3    1    5    5  503    0  0.84310832477E+02 -0.49393180398E+02  0.17157568518E+02  0.99208794470E+02  0.00000000000E+00 0. -1.
         -4    1    5    5    0  503  0.27698004639E+03 -0.82008328731E+02  0.17599628405E+03  0.33825730455E+03  0.00000000000E+00 0.  1.
         -1    1    6    6    0  502 -0.10808198397E+03  0.24790834162E+03 -0.22315470068E+02  0.27136366984E+03  0.00000000000E+00 0.  1.
<mgrwt>
<rscale>  0 0.16723228E+04</rscale>
<asrwt>0</asrwt>
<pdfrwt beam="1">  1        2 0.14936940E+00 0.16723228E+04</pdfrwt>
<pdfrwt beam="2">  1       -2 0.11078778E+00 0.16723228E+04</pdfrwt>
<totfact> 0.16200928E+01</totfact>
</mgrwt>
</event>
<event>
12    1  0.2019083E-007  0.2198669E+04  0.7818608E-02  0.8518982E-01
          1   -1    0    0  501    0  0.00000000000E+00  0.00000000000E+00  0.20755359806E+04  0.20755359806E+04  0.00000000000E+00 0. -1.
         -1   -1    0    0    0  501 -0.00000000000E+00 -0.00000000000E+00 -0.58227671840E+03  0.58227671840E+03  0.00000000000E+00 0.  1.
         23    2    1    2    0    0  0.77120321857E+03 -0.48396079663E+03  0.68979520735E+03  0.11458770721E+04  0.90798564466E+02 0.  0.
        254    2    1    2    0    0 -0.77120321857E+03  0.48396079663E+03  0.80346405483E+03  0.15119356269E+04  0.90078987305E+03 0.  0.
        -24    2    4    4    0    0 -0.92483329742E+03  0.20200585873E+03  0.60066796166E+03  0.11239561738E+04  0.79702480503E+02 0.  0.
         24    2    4    4    0    0  0.15363007885E+03  0.28195493790E+03  0.20279609317E+03  0.38797945311E+03  0.79378917208E+02 0.  0.
         13    1    3    3    0    0  0.14064629583E+03 -0.13035379769E+03  0.15654581454E+03  0.24754814714E+03  0.00000000000E+00 0. -1.
        -13    1    3    3    0    0  0.63055692274E+03 -0.35360699895E+03  0.53324939281E+03  0.89832892497E+03  0.00000000000E+00 0.  1.
          2    1    6    6  502    0  0.11191085467E+03  0.12872364862E+03  0.87289243843E+02  0.19160696542E+03  0.00000000000E+00 0. -1.
          3    1    5    5  503    0 -0.75033889405E+03  0.19201054271E+03  0.50640475099E+03  0.92537682933E+03  0.00000000000E+00 0. -1.
         -4    1    5    5    0  503 -0.17449440337E+03  0.99953160231E+01  0.94263210666E+02  0.19857934443E+03  0.00000000000E+00 0.  1.
         -1    1    6    6    0  502  0.41719224181E+02  0.15323128928E+03  0.11550684932E+03  0.19637248769E+03  0.00000000000E+00 0.  1.
<mgrwt>
<rscale>  0 0.21986689E+04</rscale>
<asrwt>0</asrwt>
<pdfrwt beam="1">  1        1 0.31931322E+00 0.21986689E+04</pdfrwt>
<pdfrwt beam="2">  1       -1 0.89581034E-01 0.21986689E+04</pdfrwt>
<totfact> 0.29462490E+00</totfact>
</mgrwt>
</event>
<event>
12    1  0.2019083E-007  0.2107848E+04  0.7818608E-02  0.8557794E-01
          1   -1    0    0  501    0  0.00000000000E+00  0.00000000000E+00  0.42328869014E+04  0.42328869014E+04  0.00000000000E+00 0. -1.
         -1   -1    0    0    0  501 -0.00000000000E+00 -0.00000000000E+00 -0.26241085888E+03  0.26241085888E+03  0.00000000000E+00 0.  1.
         23    2    1    2    0    0  0.34618874991E+03  0.10211239856E+03  0.32876487512E+04  0.33086907893E+04  0.92340866745E+02 0.  0.
        254    2    1    2    0    0 -0.34618874991E+03 -0.10211239856E+03  0.68282729135E+03  0.11866069710E+04  0.90083816596E+03 0.  0.
        -24    2    4    4    0    0  0.21619460515E+03 -0.17149445111E+03 -0.11085023587E+02  0.28718121542E+03  0.78738292372E+02 0.  0.
         24    2    4    4    0    0 -0.56238335506E+03  0.69382052548E+02  0.69391231494E+03  0.89942575555E+03  0.79771433922E+02 0.  0.
         13    1    3    3    0    0  0.90162135590E+01 -0.13243799424E+02  0.16367597032E+03  0.16445824269E+03  0.00000000000E+00 0.  1.
        -13    1    3    3    0    0  0.33717253635E+03  0.11535619799E+03  0.31239727809E+04  0.31442325466E+04  0.00000000000E+00 0. -1.
          2    1    6    6  502    0 -0.39433803476E+03  0.57566744903E+02  0.42947843231E+03  0.58589089393E+03  0.00000000000E+00 0. -1.
          1    1    5    5  503    0  0.18794962820E+03 -0.13509562481E+03  0.18861234798E+02  0.23223185992E+03  0.00000000000E+00 0. -1.
         -2    1    5    5    0  503  0.28244976949E+02 -0.36398826298E+02 -0.29946258384E+02  0.54949355501E+02  0.00000000000E+00 0.  1.
         -1    1    6    6    0  502 -0.16804532030E+03  0.11815307645E+02  0.26443388263E+03  0.31353486162E+03  0.00000000000E+00 0.  1.
<mgrwt>
<rscale>  0 0.21078477E+04</rscale>
<asrwt>0</asrwt>
<pdfrwt beam="1">  1        1 0.65121332E+00 0.21078477E+04</pdfrwt>
<pdfrwt beam="2">  1       -1 0.40370905E-01 0.21078477E+04</pdfrwt>
<totfact> 0.32715527E-01</totfact>
</mgrwt>
</event>
<event>
12    1  0.2019083E-007  0.1527074E+04  0.7818608E-02  0.8866646E-01
          2   -1    0    0  501    0  0.00000000000E+00  0.00000000000E+00  0.15343354112E+04  0.15343354112E+04  0.00000000000E+00 0. -1.
         -2   -1    0    0    0  501 -0.00000000000E+00 -0.00000000000E+00 -0.37996149448E+03  0.37996149448E+03  0.00000000000E+00 0.  1.
         23    2    1    2    0    0  0.28536642055E+03  0.39499650661E+03  0.47296939063E+03  0.68514263543E+03  0.90907382539E+02 0.  0.
        254    2    1    2    0    0 -0.28536642055E+03 -0.39499650661E+03  0.68140452610E+03  0.12291542703E+04  0.89947310005E+03 0.  0.
        -24    2    4    4    0    0 -0.28608802930E+03 -0.41656761150E+03  0.87713608715E+03  0.10154757503E+04  0.80301610270E+02 0.  0.
         24    2    4    4    0    0  0.72160875230E+00  0.21571104890E+02 -0.19573156105E+03  0.21367851996E+03  0.82956811743E+02 0.  0.
         13    1    3    3    0    0  0.68482247780E+02  0.15618497222E+03  0.19744058948E+03  0.26089528586E+03  0.00000000000E+00 0. -1.
        -13    1    3    3    0    0  0.21688417277E+03  0.23881153438E+03  0.27552880114E+03  0.42424734956E+03  0.00000000000E+00 0.  1.
          4    1    6    6  502    0 -0.10350112104E+02 -0.20257100056E+02 -0.14598822550E+03  0.14774991339E+03  0.00000000000E+00 0. -1.
          3    1    5    5  503    0 -0.26480557320E+03 -0.34093415335E+03  0.71299414040E+03  0.83349789008E+03  0.00000000000E+00 0. -1.
         -4    1    5    5    0  503 -0.21282456102E+02 -0.75633458150E+02  0.16414194675E+03  0.18197786023E+03  0.00000000000E+00 0.  1.
         -3    1    6    6    0  502  0.11071720856E+02  0.41828204947E+02 -0.49743335553E+02  0.65928606566E+02  0.00000000000E+00 0.  1.
<mgrwt>
<rscale>  0 0.15270735E+04</rscale>
<asrwt>0</asrwt>
<pdfrwt beam="1">  1        2 0.23605160E+00 0.15270735E+04</pdfrwt>
<pdfrwt beam="2">  1       -2 0.58455615E-01 0.15270735E+04</pdfrwt>
<totfact> 0.32028849E+01</totfact>
</mgrwt>
</event>
<event>
12    1  0.2019083E-007  0.2403829E+04  0.7818608E-02  0.8438072E-01
          2   -1    0    0  501    0  0.00000000000E+00  0.00000000000E+00  0.65852447745E+03  0.65852447745E+03  0.00000000000E+00 0. -1.
         -2   -1    0    0    0  501 -0.00000000000E+00 -0.00000000000E+00 -0.21936891741E+04  0.21936891741E+04  0.00000000000E+00 0.  1.
         23    2    1    2    0    0  0.94337694590E+03 -0.28706392905E+03 -0.10191085793E+04  0.14209552864E+04  0.90365194000E+02 0.  0.
        254    2    1    2    0    0 -0.94337694590E+03  0.28706392905E+03 -0.51605611738E+03  0.14312583651E+04  0.89990045561E+03 0.  0.
        -24    2    4    4    0    0 -0.10572939745E+04  0.65947657956E+02 -0.33690342009E+03  0.11146388143E+04  0.81829884175E+02 0.  0.
         24    2    4    4    0    0  0.11391702856E+03  0.22111627110E+03 -0.17915269729E+03  0.31661955078E+03  0.79263839487E+02 0.  0.
         13    1    3    3    0    0  0.19632673482E+03 -0.96899455890E+02 -0.20875191326E+03  0.30250793815E+03  0.00000000000E+00 0. -1.
        -13    1    3    3    0    0  0.74705021109E+03 -0.19016447316E+03 -0.81035666601E+03  0.11184473483E+04  0.00000000000E+00 0.  1.
          4    1    6    6  502    0  0.12001697144E+02  0.90114233360E+02 -0.91233341162E+02  0.12879494683E+03  0.00000000000E+00 0. -1.
          3    1    5    5  503    0 -0.84885568659E+03  0.28264214590E+02 -0.24683392216E+03  0.88446697372E+03  0.00000000000E+00 0. -1.
         -4    1    5    5    0  503 -0.20843828787E+03  0.37683443366E+02 -0.90069497930E+02  0.23017184061E+03  0.00000000000E+00 0.  1.
         -3    1    6    6    0  502  0.10191533141E+03  0.13100203774E+03 -0.87919356130E+02  0.18782460395E+03  0.00000000000E+00 0.  1.
<mgrwt>
<rscale>  0 0.24038286E+04</rscale>
<asrwt>0</asrwt>
<pdfrwt beam="1">  1        2 0.10131146E+00 0.24038286E+04</pdfrwt>
<pdfrwt beam="2">  1       -2 0.33749064E+00 0.24038286E+04</pdfrwt>
<totfact> 0.74190839E-01</totfact>
</mgrwt>
</event>
<event>
12    1  0.2019083E-007  0.2782325E+04  0.7818608E-02  0.8308777E-01
         -1   -1    0    0    0  501 -0.00000000000E+00  0.00000000000E+00  0.25257090616E+04  0.25257090616E+04  0.00000000000E+00 0.  1.
          1   -1    0    0  501    0  0.00000000000E+00 -0.00000000000E+00 -0.76625328804E+03  0.76625328804E+03  0.00000000000E+00 0. -1.
         23    2    1    2    0    0 -0.76920667230E+03  0.68743472163E+03 -0.32840023738E+02  0.10364525763E+04  0.94393191803E+02 0.  0.
        254    2    1    2    0    0  0.76920667230E+03 -0.68743472163E+03  0.17922957973E+04  0.22555097733E+04  0.90041918638E+03 0.  0.
        -24    2    4    4    0    0  0.55990601868E+03 -0.78391810118E+03  0.86642414891E+03  0.12981290924E+04  0.80162307860E+02 0.  0.
         24    2    4    4    0    0  0.20930065361E+03  0.96483379556E+02  0.92587164841E+03  0.95738068091E+03  0.78890130666E+02 0.  0.
         11    1    3    3    0    0 -0.38606233366E+03  0.33819321570E+03  0.30606024325E+02  0.51415513743E+03  0.00000000000E+00 0.  1.
        -11    1    3    3    0    0 -0.38314433864E+03  0.34924150592E+03 -0.63446048064E+02  0.52229743892E+03  0.00000000000E+00 0. -1.
          2    1    6    6  502    0  0.50843827095E+02  0.49198108310E+01  0.11068182490E+03  0.12190063845E+03  0.00000000000E+00 0. -1.
          3    1    5    5  503    0  0.90696873330E+02 -0.10345847917E+03  0.15821580302E+03  0.20967074205E+03  0.00000000000E+00 0. -1.
         -4    1    5    5    0  503  0.46920914535E+03 -0.68045962201E+03  0.70820834589E+03  0.10884583504E+04  0.00000000000E+00 0.  1.
         -1    1    6    6    0  502  0.15845682652E+03  0.91563568725E+02  0.81518982351E+03  0.83548004245E+03  0.00000000000E+00 0.  1.
<mgrwt>
<rscale>  0 0.27823248E+04</rscale>
<asrwt>0</asrwt>
<pdfrwt beam="1">  1        1 0.11788512E+00 0.27823248E+04</pdfrwt>
<pdfrwt beam="2">  1       -1 0.38857062E+00 0.27823248E+04</pdfrwt>
<totfact> 0.17568392E-01</totfact>
</mgrwt>
</event>
<event>
12    1  0.2019083E-007  0.2663530E+04  0.7818608E-02  0.8346936E-01
          1   -1    0    0  501    0  0.00000000000E+00  0.00000000000E+00  0.59688040844E+03  0.59688040844E+03  0.00000000000E+00 0. -1.
         -1   -1    0    0    0  501 -0.00000000000E+00 -0.00000000000E+00 -0.29714455730E+04  0.29714455730E+04  0.00000000000E+00 0.  1.
         23    2    1    2    0    0  0.11265833917E+04 -0.10662324015E+03 -0.61776971673E+03  0.12926192508E+04  0.93093774796E+02 0.  0.
        254    2    1    2    0    0 -0.11265833917E+04  0.10662324015E+03 -0.17567954478E+04  0.22757067306E+04  0.90108391636E+03 0.  0.
        -24    2    4    4    0    0 -0.89827109005E+03  0.18040977644E+03 -0.61471459211E+03  0.11060196264E+04  0.77244712093E+02 0.  0.
         24    2    4    4    0    0 -0.22831230166E+03 -0.73786536290E+02 -0.11420808557E+04  0.11696871042E+04  0.79046067084E+02 0.  0.
         13    1    3    3    0    0  0.79031008745E+03 -0.61036595022E+02 -0.47784140571E+03  0.92555275877E+03  0.00000000000E+00 0.  1.
        -13    1    3    3    0    0  0.33627330427E+03 -0.45586645124E+02 -0.13992831102E+03  0.36706649207E+03  0.00000000000E+00 0. -1.
          2    1    6    6  502    0 -0.84951438158E+02  0.88910204081E+01 -0.32671260920E+03  0.33769353873E+03  0.00000000000E+00 0. -1.
          3    1    5    5  503    0 -0.16887218813E+03  0.64843975844E+02 -0.12633262079E+03  0.22064108458E+03  0.00000000000E+00 0. -1.
         -4    1    5    5    0  503 -0.72939890193E+03  0.11556580059E+03 -0.48838197131E+03  0.88537854181E+03  0.00000000000E+00 0.  1.
         -1    1    6    6    0  502 -0.14336086350E+03 -0.82677556698E+02 -0.81536824649E+03  0.83199356544E+03  0.00000000000E+00 0.  1.
<mgrwt>
<rscale>  0 0.26635297E+04</rscale>
<asrwt>0</asrwt>
<pdfrwt beam="1">  1        1 0.91827757E-01 0.26635297E+04</pdfrwt>
<pdfrwt beam="2">  1       -1 0.45714546E+00 0.26635297E+04</pdfrwt>
<totfact> 0.87215166E-02</totfact>
</mgrwt>
</event>
<event>
12    1  0.2019083E-007  0.3512825E+04  0.7818608E-02  0.8110757E-01
         -2   -1    0    0    0  501 -0.00000000000E+00  0.00000000000E+00  0.10393814923E+04  0.10393814923E+04  0.00000000000E+00 0.  1.
          2   -1    0    0  501    0  0.00000000000E+00 -0.00000000000E+00 -0.29680968541E+04  0.29680968541E+04  0.00000000000E+00 0. -1.
         23    2    1    2    0    0  0.27851889432E+03  0.15558968349E+04 -0.14023812987E+04  0.21147121030E+04  0.83344083819E+02 0.  0.
        254    2    1    2    0    0 -0.27851889432E+03 -0.15558968349E+04 -0.52633406307E+03  0.18927662434E+04  0.89841458728E+03 0.  0.
        -24    2    4    4    0    0  0.20546406242E+03 -0.93177297799E+03 -0.54074093045E+03  0.10992912927E+04  0.74994859705E+02 0.  0.
         24    2    4    4    0    0 -0.48398295674E+03 -0.62412385692E+03  0.14406867376E+02  0.79347495061E+03  0.74998988161E+02 0.  0.
         13    1    3    3    0    0  0.85567947367E+02  0.35786717781E+03 -0.36456828060E+03  0.51797762673E+03  0.00000000000E+00 0. -1.
        -13    1    3    3    0    0  0.19295094695E+03  0.11980296571E+04 -0.10378130181E+04  0.15967344763E+04  0.00000000000E+00 0.  1.
          2    1    6    6  502    0 -0.10882958524E+03 -0.18839656656E+03 -0.11904508154E+02  0.21789644841E+03  0.00000000000E+00 0. -1.
          3    1    5    5  503    0  0.14303353253E+03 -0.52356061469E+03 -0.27759622593E+03  0.60961789125E+03  0.00000000000E+00 0. -1.
         -4    1    5    5    0  503  0.62430529890E+02 -0.40821236329E+03 -0.26314470453E+03  0.48967340149E+03  0.00000000000E+00 0.  1.
         -1    1    6    6    0  502 -0.37515337149E+03 -0.43572729036E+03  0.26311375529E+02  0.57557850219E+03  0.00000000000E+00 0.  1.
<mgrwt>
<rscale>  0 0.35128250E+04</rscale>
<asrwt>0</asrwt>
<pdfrwt beam="1">  1        2 0.45663029E+00 0.35128250E+04</pdfrwt>
<pdfrwt beam="2">  1       -2 0.15990484E+00 0.35128250E+04</pdfrwt>
<totfact> 0.37730061E-01</totfact>
</mgrwt>
</event>
<event>
12    1  0.2019083E-007  0.1367622E+04  0.7818608E-02  0.8977595E-01
         -1   -1    0    0    0  501 -0.00000000000E+00  0.00000000000E+00  0.22924442070E+03  0.22924442070E+03  0.00000000000E+00 0.  1.
          1   -1    0    0  501    0  0.00000000000E+00 -0.00000000000E+00 -0.20397330595E+04  0.20397330595E+04  0.00000000000E+00 0. -1.
         23    2    1    2    0    0  0.40609873063E+01  0.36373824479E+03 -0.31680057316E+03  0.49088498132E+03  0.91013512153E+02 0.  0.
        254    2    1    2    0    0 -0.40609873063E+01 -0.36373824479E+03 -0.14936880657E+04  0.17780924989E+04  0.89341305946E+03 0.  0.
        -24    2    4    4    0    0  0.17432843595E+03 -0.61623445333E+03 -0.10079241664E+04  0.11968001371E+04  0.79272554826E+02 0.  0.
         24    2    4    4    0    0 -0.17838942326E+03  0.25249620855E+03 -0.48576389929E+03  0.58129236180E+03  0.79731564483E+02 0.  0.
         13    1    3    3    0    0  0.31781605698E+02  0.32891801616E+03 -0.27767528684E+03  0.43162564421E+03  0.00000000000E+00 0.  1.
        -13    1    3    3    0    0 -0.27720618391E+02  0.34820228624E+02 -0.39125286323E+02  0.59259337115E+02  0.00000000000E+00 0. -1.
          2    1    6    6  502    0 -0.33203932563E+02  0.10118464483E+03 -0.12702481566E+03  0.16575927510E+03  0.00000000000E+00 0. -1.
          1    1    5    5  503    0  0.14285801629E+03 -0.54240226424E+03 -0.83172282240E+03  0.10031806828E+04  0.00000000000E+00 0. -1.
         -2    1    5    5    0  503  0.31470419659E+02 -0.73832189095E+02 -0.17620134398E+03  0.19361945429E+03  0.00000000000E+00 0.  1.
         -1    1    6    6    0  502 -0.14518549070E+03  0.15131156371E+03 -0.35873908363E+03  0.41553308670E+03  0.00000000000E+00 0.  1.
<mgrwt>
<rscale>  0 0.13676219E+04</rscale>
<asrwt>0</asrwt>
<pdfrwt beam="1">  1        1 0.31380509E+00 0.13676219E+04</pdfrwt>
<pdfrwt beam="2">  1       -1 0.35268372E-01 0.13676219E+04</pdfrwt>
<totfact> 0.20977994E+01</totfact>
</mgrwt>
</event>
<event>
12    1  0.2019083E-007  0.1562393E+04  0.7818608E-02  0.8843990E-01
         -2   -1    0    0    0  501 -0.00000000000E+00  0.00000000000E+00  0.19409893291E+04  0.19409893291E+04  0.00000000000E+00 0.  1.
          2   -1    0    0  501    0  0.00000000000E+00 -0.00000000000E+00 -0.31441076585E+03  0.31441076585E+03  0.00000000000E+00 0. -1.
         23    2    1    2    0    0 -0.11047594736E+03 -0.27094632686E+03  0.11632203023E+04  0.12034596368E+04  0.98065176012E+02 0.  0.
        254    2    1    2    0    0  0.11047594736E+03  0.27094632686E+03  0.46335826095E+03  0.10519404581E+04  0.89792037649E+03 0.  0.
        -24    2    4    4    0    0 -0.32964287931E+03  0.35072917180E+03  0.19929062767E+03  0.52699247837E+03  0.79554623658E+02 0.  0.
         24    2    4    4    0    0  0.44011882667E+03 -0.79782844939E+02  0.26406763327E+03  0.52494797978E+03  0.75952502247E+02 0.  0.
         11    1    3    3    0    0 -0.26270694515E+02 -0.43490834166E+02  0.38448961277E+03  0.38783226320E+03  0.00000000000E+00 0.  1.
        -11    1    3    3    0    0 -0.84205252840E+02 -0.22745549269E+03  0.77873068957E+03  0.81562737364E+03  0.00000000000E+00 0. -1.
          4    1    6    6  502    0  0.51219334868E+02  0.15068762672E+02  0.30278488049E+02  0.61378128933E+02  0.00000000000E+00 0. -1.
          3    1    5    5  503    0 -0.45550288978E+01 -0.50177392442E+00  0.12381505633E+02  0.13202338697E+02  0.00000000000E+00 0. -1.
         -2    1    5    5    0  503 -0.32508785041E+03  0.35123094572E+03  0.18690912204E+03  0.51379013967E+03  0.00000000000E+00 0.  1.
         -3    1    6    6    0  502  0.38889949180E+03 -0.94851607611E+02  0.23378914523E+03  0.46356985085E+03  0.00000000000E+00 0.  1.
<mgrwt>
<rscale>  0 0.15623930E+04</rscale>
<asrwt>0</asrwt>
<pdfrwt beam="1">  1        2 0.48370888E-01 0.15623930E+04</pdfrwt>
<pdfrwt beam="2">  1       -2 0.29861374E+00 0.15623930E+04</pdfrwt>
<totfact> 0.32574190E+00</totfact>
</mgrwt>
</event>
<event>
12    1  0.2019083E-007  0.2218380E+04  0.7818608E-02  0.8510817E-01
          1   -1    0    0  501    0  0.00000000000E+00  0.00000000000E+00  0.62468716906E+03  0.62468716906E+03  0.00000000000E+00 0. -1.
         -1   -1    0    0    0  501 -0.00000000000E+00 -0.00000000000E+00 -0.19694702207E+04  0.19694702207E+04  0.00000000000E+00 0.  1.
         23    2    1    2    0    0 -0.87355529292E+03  0.29903294703E+03 -0.55615332381E+03  0.10821475802E+04  0.96006835964E+02 0.  0.
        254    2    1    2    0    0  0.87355529292E+03 -0.29903294703E+03 -0.78862972785E+03  0.15120098096E+04  0.90095353011E+03 0.  0.
        -24    2    4    4    0    0  0.78983505953E+03 -0.35128269985E+02 -0.90284638173E+03  0.12027232375E+04  0.79612690329E+02 0.  0.
         24    2    4    4    0    0  0.83720233392E+02 -0.26390467705E+03  0.11421665388E+03  0.30928657205E+03  0.77187975621E+02 0.  0.
         11    1    3    3    0    0 -0.49854851464E+03  0.22047267714E+03 -0.33072224552E+03  0.63760177736E+03  0.00000000000E+00 0. -1.
        -11    1    3    3    0    0 -0.37500677828E+03  0.78560269889E+02 -0.22543107829E+03  0.44454580284E+03  0.00000000000E+00 0.  1.
          4    1    6    6  502    0  0.33882333725E+02 -0.19671548699E+03  0.10379298967E+03  0.22498439960E+03  0.00000000000E+00 0. -1.
          1    1    5    5  503    0  0.64869512695E+03 -0.58585632409E+02 -0.75053871117E+03  0.99375349107E+03  0.00000000000E+00 0. -1.
         -2    1    5    5    0  503  0.14113993258E+03  0.23457362425E+02 -0.15230767057E+03  0.20896974645E+03  0.00000000000E+00 0.  1.
         -3    1    6    6    0  502  0.49837899667E+02 -0.67189190064E+02  0.10423664211E+02  0.84302172453E+02  0.00000000000E+00 0.  1.
<mgrwt>
<rscale>  0 0.22183803E+04</rscale>
<asrwt>0</asrwt>
<pdfrwt beam="1">  1        1 0.96105718E-01 0.22183803E+04</pdfrwt>
<pdfrwt beam="2">  1       -1 0.30299542E+00 0.22183803E+04</pdfrwt>
<totfact> 0.92867263E-01</totfact>
</mgrwt>
</event>
<event>
12    1  0.2019083E-007  0.1833630E+04  0.7818608E-02  0.8688617E-01
          2   -1    0    0  501    0  0.00000000000E+00  0.00000000000E+00  0.18752376829E+04  0.18752376829E+04  0.00000000000E+00 0.  1.
         -2   -1    0    0    0  501 -0.00000000000E+00 -0.00000000000E+00 -0.44823652336E+03  0.44823652336E+03  0.00000000000E+00 0. -1.
         23    2    1    2    0    0 -0.36963872008E+03  0.32890828910E+03  0.11530880425E+04  0.12569880146E+04  0.74788963648E+02 0.  0.
        254    2    1    2    0    0  0.36963872008E+03 -0.32890828910E+03  0.27391311711E+03  0.10664861917E+04  0.90418524395E+03 0.  0.
        -24    2    4    4    0    0  0.35683887786E+03 -0.60410283079E+03  0.32115488414E+03  0.77588422385E+03  0.81127395416E+02 0.  0.
         24    2    4    4    0    0  0.12799842223E+02  0.27519454169E+03 -0.47241767026E+02  0.29060196787E+03  0.79510046150E+02 0.  0.
         11    1    3    3    0    0 -0.31515204808E+03  0.24043193780E+03  0.92388614859E+03  0.10053327537E+04  0.00000000000E+00 0.  1.
        -11    1    3    3    0    0 -0.54486672006E+02  0.88476351300E+02  0.22920189388E+03  0.25165526087E+03  0.00000000000E+00 0. -1.
          2    1    6    6  502    0 -0.20131594599E+02  0.19927814170E+03 -0.11978081214E+02  0.20065027607E+03  0.00000000000E+00 0. -1.
          1    1    5    5  503    0  0.23581575338E+03 -0.43457717290E+03  0.18968842974E+03  0.52957349738E+03  0.00000000000E+00 0. -1.
         -2    1    5    5    0  503  0.12102312448E+03 -0.16952565789E+03  0.13146645439E+03  0.24631072647E+03  0.00000000000E+00 0.  1.
         -1    1    6    6    0  502  0.32931436822E+02  0.75916399996E+02 -0.35263685812E+02  0.89951691794E+02  0.00000000000E+00 0.  1.
<mgrwt>
<rscale>  0 0.18336303E+04</rscale>
<asrwt>0</asrwt>
<pdfrwt beam="1">  1        2 0.28849810E+00 0.18336303E+04</pdfrwt>
<pdfrwt beam="2">  1       -2 0.68959466E-01 0.18336303E+04</pdfrwt>
<totfact> 0.14172284E+01</totfact>
</mgrwt>
</event>
<event>
12    1  0.2019083E-007  0.1395165E+04  0.7818608E-02  0.8957326E-01
         -2   -1    0    0    0  501 -0.00000000000E+00  0.00000000000E+00  0.17826953146E+03  0.17826953146E+03  0.00000000000E+00 0.  1.
          2   -1    0    0  501    0  0.00000000000E+00 -0.00000000000E+00 -0.27296949274E+04  0.27296949274E+04  0.00000000000E+00 0. -1.
         23    2    1    2    0    0  0.39583167585E+03  0.21818376108E+02 -0.63384673769E+03  0.75301742695E+03  0.90082191731E+02 0.  0.
        254    2    1    2    0    0 -0.39583167585E+03 -0.21818376108E+02 -0.19175786583E+04  0.21549470320E+04  0.89973887471E+03 0.  0.
        -24    2    4    4    0    0  0.19023327694E+03 -0.16175528209E+03 -0.18781727590E+03  0.32125427385E+03  0.74669327023E+02 0.  0.
         24    2    4    4    0    0 -0.58606495279E+03  0.13993690598E+03 -0.17297613824E+04  0.18336927581E+04  0.85441351840E+02 0.  0.
         11    1    3    3    0    0  0.33882435709E+03  0.49928387319E+02 -0.54759912427E+03  0.64587892807E+03  0.00000000000E+00 0. -1.
        -11    1    3    3    0    0  0.57007318759E+02 -0.28110011211E+02 -0.86247613421E+02  0.10713849888E+03  0.00000000000E+00 0.  1.
          2    1    6    6  502    0 -0.34212812968E+00  0.11335167809E+01 -0.38252637065E+02  0.38270957062E+02  0.00000000000E+00 0. -1.
          3    1    5    5  503    0  0.72450628082E+02 -0.77944408393E+02 -0.37820815897E+02  0.11293732078E+03  0.00000000000E+00 0. -1.
         -4    1    5    5    0  503  0.11778264886E+03 -0.83810873693E+02 -0.14999646001E+03  0.20831695307E+03  0.00000000000E+00 0.  1.
         -1    1    6    6    0  502 -0.58572282466E+03  0.13880338920E+03 -0.16915087453E+04  0.17954218011E+04  0.00000000000E+00 0.  1.
<mgrwt>
<rscale>  0 0.13951651E+04</rscale>
<asrwt>0</asrwt>
<pdfrwt beam="1">  1        2 0.41995302E+00 0.13951651E+04</pdfrwt>
<pdfrwt beam="2">  1       -2 0.27426085E-01 0.13951651E+04</pdfrwt>
<totfact> 0.30239689E+01</totfact>
</mgrwt>
</event>
<event>
12    1  0.2019083E-007  0.1355822E+04  0.7818608E-02  0.8986432E-01
          2   -1    0    0  501    0  0.00000000000E+00  0.00000000000E+00  0.23217732699E+04  0.23217732699E+04  0.00000000000E+00 0.  1.
         -2   -1    0    0    0  501 -0.00000000000E+00 -0.00000000000E+00 -0.19793647137E+03  0.19793647137E+03  0.00000000000E+00 0. -1.
         23    2    1    2    0    0 -0.28194434063E+02 -0.35357248518E+03  0.40746610108E+03  0.54787503439E+03  0.91268841256E+02 0.  0.
        254    2    1    2    0    0  0.28194434063E+02  0.35357248518E+03  0.17163706974E+04  0.19718347069E+04  0.90354596554E+03 0.  0.
        -24    2    4    4    0    0  0.11047595037E+03 -0.81286307218E+02 -0.36363713100E+02  0.16240516136E+03  0.78998211729E+02 0.  0.
         24    2    4    4    0    0 -0.82281516305E+02  0.43485879240E+03  0.17527344105E+04  0.18094295455E+04  0.78006083424E+02 0.  0.
         13    1    3    3    0    0  0.22031642372E+02 -0.57743349637E+02  0.40692929232E+02  0.73997311995E+02  0.00000000000E+00 0. -1.
        -13    1    3    3    0    0 -0.50226076435E+02 -0.29582913554E+03  0.36677317185E+03  0.47387772239E+03  0.00000000000E+00 0.  1.
          2    1    6    6  502    0 -0.73108496785E+01  0.52814184956E+02  0.12723054725E+03  0.13795071152E+03  0.00000000000E+00 0. -1.
          3    1    5    5  503    0  0.45800561760E+02 -0.47837356118E+02  0.21252228602E+02  0.69554017270E+02  0.00000000000E+00 0. -1.
         -4    1    5    5    0  503  0.64675388609E+02 -0.33448951100E+02 -0.57615941702E+02  0.92851144095E+02  0.00000000000E+00 0.  1.
         -1    1    6    6    0  502 -0.74970666627E+02  0.38204460744E+03  0.16255038633E+04  0.16714788340E+04  0.00000000000E+00 0.  1.
<mgrwt>
<rscale>  0 0.13558224E+04</rscale>
<asrwt>0</asrwt>
<pdfrwt beam="1">  1        2 0.35719587E+00 0.13558224E+04</pdfrwt>
<pdfrwt beam="2">  1       -2 0.30451766E-01 0.13558224E+04</pdfrwt>
<totfact> 0.43012600E+01</totfact>
</mgrwt>
</event>
<event>
12    1  0.2019083E-007  0.2313615E+04  0.7818608E-02  0.8472572E-01
          1   -1    0    0  501    0  0.00000000000E+00  0.00000000000E+00  0.84542794218E+03  0.84542794218E+03  0.00000000000E+00 0. -1.
         -1   -1    0    0    0  501 -0.00000000000E+00 -0.00000000000E+00 -0.15828713532E+04  0.15828713532E+04  0.00000000000E+00 0.  1.
         23    2    1    2    0    0 -0.62852613249E+03  0.75764033299E+03 -0.27954903832E+03  0.10273176910E+04  0.90388052669E+02 0.  0.
        254    2    1    2    0    0  0.62852613249E+03 -0.75764033299E+03 -0.45789437270E+03  0.14009816044E+04  0.88544803675E+03 0.  0.
        -24    2    4    4    0    0  0.20217239097E+03  0.25481222484E+02  0.19507274561E+03  0.29303420063E+03  0.79326529527E+02 0.  0.
         24    2    4    4    0    0  0.42635374153E+03 -0.78312155547E+03 -0.65296711831E+03  0.11079474037E+04  0.78259237666E+02 0.  0.
         13    1    3    3    0    0 -0.13400177846E+03  0.16655302399E+03 -0.22698821947E+02  0.21496888833E+03  0.00000000000E+00 0.  1.
        -13    1    3    3    0    0 -0.49452435404E+03  0.59108730899E+03 -0.25685021637E+03  0.81234880269E+03  0.00000000000E+00 0. -1.
          4    1    6    6  502    0  0.41766949571E+03 -0.74652975464E+03 -0.63933919032E+03  0.10679461983E+04  0.00000000000E+00 0. -1.
          1    1    5    5  503    0  0.11552762541E+03  0.20872745734E+02  0.16224572608E+03  0.20026477319E+03  0.00000000000E+00 0. -1.
         -2    1    5    5    0  503  0.86644765555E+02  0.46084767498E+01  0.32827019530E+02  0.92769427438E+02  0.00000000000E+00 0.  1.
         -3    1    6    6    0  502  0.86842458134E+01 -0.36591800828E+02 -0.13627927984E+02  0.40001205411E+02  0.00000000000E+00 0.  1.
<mgrwt>
<rscale>  0 0.23136151E+04</rscale>
<asrwt>0</asrwt>
<pdfrwt beam="1">  1        1 0.13006584E+00 0.23136151E+04</pdfrwt>
<pdfrwt beam="2">  1       -1 0.24351867E+00 0.23136151E+04</pdfrwt>
<totfact> 0.14023570E+00</totfact>
</mgrwt>
</event>
<event>
12    1  0.2019083E-007  0.1873810E+04  0.7818608E-02  0.8668004E-01
         -2   -1    0    0    0  501 -0.00000000000E+00  0.00000000000E+00  0.58788160957E+03  0.58788160957E+03  0.00000000000E+00 0.  1.
          2   -1    0    0  501    0  0.00000000000E+00 -0.00000000000E+00 -0.14931428486E+04  0.14931428486E+04  0.00000000000E+00 0. -1.
         23    2    1    2    0    0 -0.21405583925E+03 -0.54264746438E+03 -0.81350766873E+03  0.10056621560E+04  0.96309251680E+02 0.  0.
        254    2    1    2    0    0  0.21405583925E+03  0.54264746438E+03 -0.91753570280E+02  0.10753623022E+04  0.89872086344E+03 0.  0.
        -24    2    4    4    0    0 -0.19836359523E+03 -0.14610877428E+03 -0.67257801978E+02  0.26745176852E+03  0.79441467283E+02 0.  0.
         24    2    4    4    0    0  0.41241943448E+03  0.68875623866E+03 -0.24495768302E+02  0.80791053366E+03  0.87432496878E+02 0.  0.
         11    1    3    3    0    0 -0.19564570649E+03 -0.50623508321E+03 -0.79033527243E+03  0.95873929969E+03  0.00000000000E+00 0. -1.
        -11    1    3    3    0    0 -0.18410132761E+02 -0.36412381174E+02 -0.23172396306E+02  0.46922856281E+02  0.00000000000E+00 0.  1.
          4    1    6    6  502    0  0.19551610533E+03  0.24451841551E+03 -0.32477573302E+01  0.31309160144E+03  0.00000000000E+00 0. -1.
          3    1    5    5  503    0 -0.16454774262E+03 -0.10503391679E+03 -0.82766016640E+02  0.21203371616E+03  0.00000000000E+00 0. -1.
         -4    1    5    5    0  503 -0.33815852607E+02 -0.41074857491E+02  0.15508214662E+02  0.55418052361E+02  0.00000000000E+00 0.  1.
         -3    1    6    6    0  502  0.21690332916E+03  0.44423782315E+03 -0.21248010972E+02  0.49481893223E+03  0.00000000000E+00 0.  1.
<mgrwt>
<rscale>  0 0.18738103E+04</rscale>
<asrwt>0</asrwt>
<pdfrwt beam="1">  1        2 0.22971428E+00 0.18738103E+04</pdfrwt>
<pdfrwt beam="2">  1       -2 0.90443326E-01 0.18738103E+04</pdfrwt>
<totfact> 0.12560455E+01</totfact>
</mgrwt>
</event>
<event>
12    1  0.2019083E-007  0.1608585E+04  0.7818608E-02  0.8815291E-01
         -1   -1    0    0    0  501 -0.00000000000E+00  0.00000000000E+00  0.43316401771E+03  0.43316401771E+03  0.00000000000E+00 0.  1.
          1   -1    0    0  501    0  0.00000000000E+00 -0.00000000000E+00 -0.14933990744E+04  0.14933990744E+04  0.00000000000E+00 0. -1.
         23    2    1    2    0    0  0.22933241426E+03 -0.41271620072E+03 -0.31786666412E+02  0.48164215454E+03  0.89670253182E+02 0.  0.
        254    2    1    2    0    0 -0.22933241426E+03  0.41271620072E+03 -0.10284483903E+04  0.14449209375E+04  0.89842217568E+03 0.  0.
        -24    2    4    4    0    0 -0.26848882238E+03  0.34711755406E+03 -0.11781985974E+04  0.12593914298E+04  0.73061579622E+02 0.  0.
         24    2    4    4    0    0  0.39156408125E+02  0.65598646664E+02  0.14975020716E+03  0.18552950774E+03  0.78483545778E+02 0.  0.
         11    1    3    3    0    0  0.20740279405E+02 -0.94960354587E+02  0.16133810791E+02  0.98528818037E+02  0.00000000000E+00 0.  1.
        -11    1    3    3    0    0  0.20859213485E+03 -0.31775584613E+03 -0.47920477202E+02  0.38311333651E+03  0.00000000000E+00 0. -1.
          2    1    6    6  502    0  0.51057186416E+02  0.30878435342E+02  0.45589449340E+02  0.75091357326E+02  0.00000000000E+00 0. -1.
          3    1    5    5  503    0 -0.11957425136E+03  0.12002518050E+03 -0.53590445380E+03  0.56204771073E+03  0.00000000000E+00 0. -1.
         -4    1    5    5    0  503 -0.14891457102E+03  0.22709237356E+03 -0.64229414362E+03  0.69734371906E+03  0.00000000000E+00 0.  1.
         -1    1    6    6    0  502 -0.11900778291E+02  0.34720211322E+02  0.10416075782E+03  0.11043815042E+03  0.00000000000E+00 0.  1.
<mgrwt>
<rscale>  0 0.16085854E+04</rscale>
<asrwt>0</asrwt>
<pdfrwt beam="1">  1        1 0.22975370E+00 0.16085854E+04</pdfrwt>
<pdfrwt beam="2">  1       -1 0.66640618E-01 0.16085854E+04</pdfrwt>
<totfact> 0.14461906E+01</totfact>
</mgrwt>
</event>
<event>
12    1  0.2019083E-007  0.3576152E+04  0.7818608E-02  0.8095976E-01
          1   -1    0    0  501    0  0.00000000000E+00  0.00000000000E+00  0.20699508781E+04  0.20699508781E+04  0.00000000000E+00 0. -1.
         -1   -1    0    0    0  501 -0.00000000000E+00 -0.00000000000E+00 -0.15445854362E+04  0.15445854362E+04  0.00000000000E+00 0.  1.
         23    2    1    2    0    0 -0.12785607393E+04 -0.81438837596E+02  0.13337945598E+04  0.18516064303E+04  0.89936624885E+02 0.  0.
        254    2    1    2    0    0  0.12785607393E+04  0.81438837596E+02 -0.80842911792E+03  0.17629298840E+04  0.90167304974E+03 0.  0.
        -24    2    4    4    0    0  0.21850402402E+03  0.11232805645E+03 -0.63500472253E+03  0.68560535413E+03  0.80387207932E+02 0.  0.
         24    2    4    4    0    0  0.10600567153E+04 -0.30889218855E+02 -0.17342439539E+03  0.10773245298E+04  0.76666408183E+02 0.  0.
         13    1    3    3    0    0 -0.28780491057E+03 -0.26001924908E+02  0.24943219591E+03  0.38173837508E+03  0.00000000000E+00 0.  1.
        -13    1    3    3    0    0 -0.99075582875E+03 -0.55436912688E+02  0.10843623639E+04  0.14698680552E+04  0.00000000000E+00 0. -1.
          2    1    6    6  502    0  0.62345637707E+02  0.47505042301E+01 -0.27739813096E+02  0.68403531065E+02  0.00000000000E+00 0. -1.
          3    1    5    5  503    0  0.19940426191E+02 -0.23954947377E+01 -0.12248040937E+03  0.12411611366E+03  0.00000000000E+00 0. -1.
         -4    1    5    5    0  503  0.19856359783E+03  0.11472355119E+03 -0.51252431316E+03  0.56148924047E+03  0.00000000000E+00 0.  1.
         -1    1    6    6    0  502  0.99771107759E+03 -0.35639723085E+02 -0.14568458230E+03  0.10089209988E+04  0.00000000000E+00 0.  1.
<mgrwt>
<rscale>  0 0.35761521E+04</rscale>
<asrwt>0</asrwt>
<pdfrwt beam="1">  1        1 0.31845398E+00 0.35761521E+04</pdfrwt>
<pdfrwt beam="2">  1       -1 0.23762853E+00 0.35761521E+04</pdfrwt>
<totfact> 0.18200013E-01</totfact>
</mgrwt>
</event>
<event>
12    1  0.2019083E-007  0.1535258E+04  0.7818608E-02  0.8861340E-01
          1   -1    0    0  501    0  0.00000000000E+00  0.00000000000E+00  0.87938379737E+03  0.87938379737E+03  0.00000000000E+00 0. -1.
         -1   -1    0    0    0  501 -0.00000000000E+00 -0.00000000000E+00 -0.67007594927E+03  0.67007594927E+03  0.00000000000E+00 0.  1.
         23    2    1    2    0    0 -0.47611943388E+02 -0.34013524913E+03  0.43256882448E+03  0.56016007193E+03  0.93298624947E+02 0.  0.
        254    2    1    2    0    0  0.47611943388E+02  0.34013524913E+03 -0.22326097638E+03  0.98929967471E+03  0.90050513488E+03 0.  0.
        -24    2    4    4    0    0 -0.40807447872E+03  0.26965602055E+03 -0.11599078929E+03  0.50902087742E+03  0.80057734454E+02 0.  0.
         24    2    4    4    0    0  0.45568642211E+03  0.70479228589E+02 -0.10727018709E+03  0.48027879729E+03  0.80891242628E+02 0.  0.
         13    1    3    3    0    0 -0.61724277439E+02 -0.30059924692E+03  0.41111655524E+03  0.51301716898E+03  0.00000000000E+00 0. -1.
        -13    1    3    3    0    0  0.14112334051E+02 -0.39536002213E+02  0.21452269245E+02  0.47142902955E+02  0.00000000000E+00 0.  1.
          4    1    6    6  502    0  0.41245473039E+02 -0.63090264044E+01  0.97342415559E+01  0.42845633605E+02  0.00000000000E+00 0. -1.
          1    1    5    5  503    0 -0.25548810653E+03  0.21366810211E+03 -0.80849892634E+02  0.34273157948E+03  0.00000000000E+00 0. -1.
         -2    1    5    5    0  503 -0.15258637219E+03  0.55987918441E+02 -0.35140896656E+02  0.16628929794E+03  0.00000000000E+00 0.  1.
         -3    1    6    6    0  502  0.41444094907E+03  0.76788254993E+02 -0.11700442865E+03  0.43743316369E+03  0.00000000000E+00 0.  1.
<mgrwt>
<rscale>  0 0.15352575E+04</rscale>
<asrwt>0</asrwt>
<pdfrwt beam="1">  1        1 0.13528981E+00 0.15352575E+04</pdfrwt>
<pdfrwt beam="2">  1       -1 0.10308861E+00 0.15352575E+04</pdfrwt>
<totfact> 0.16224520E+01</totfact>
</mgrwt>
</event>
<event>
12    1  0.2019083E-007  0.1674734E+04  0.7818608E-02  0.8775907E-01
         -2   -1    0    0    0  501 -0.00000000000E+00  0.00000000000E+00  0.15340385956E+04  0.15340385956E+04  0.00000000000E+00 0. -1.
          2   -1    0    0  501    0  0.00000000000E+00 -0.00000000000E+00 -0.45708321938E+03  0.45708321938E+03  0.00000000000E+00 0.  1.
         23    2    1    2    0    0 -0.28809149628E+03  0.49353034973E+02  0.98664469820E+03  0.10336866200E+04  0.98019567763E+02 0.  0.
        254    2    1    2    0    0  0.28809149628E+03 -0.49353034973E+02  0.90310678008E+02  0.95743519492E+03  0.90724511662E+03 0.  0.
        -24    2    4    4    0    0  0.35796819997E+03  0.14597399967E+03 -0.30828899222E+03  0.50108046182E+03  0.81178111137E+02 0.  0.
         24    2    4    4    0    0 -0.69876703693E+02 -0.19532703464E+03  0.39859967023E+03  0.45635473310E+03  0.79640072439E+02 0.  0.
         11    1    3    3    0    0 -0.28874516090E+03  0.32774950929E+02  0.95018676007E+03  0.99363114100E+03  0.00000000000E+00 0. -1.
        -11    1    3    3    0    0  0.65366462365E+00  0.16578084044E+02  0.36457938124E+02  0.40055479029E+02  0.00000000000E+00 0.  1.
          4    1    6    6  502    0 -0.55132692536E+02 -0.45311928329E+02  0.12144506073E+03  0.14086052467E+03  0.00000000000E+00 0. -1.
          1    1    5    5  503    0  0.28811608554E+03  0.11838283014E+03 -0.20318233321E+03  0.37189841858E+03  0.00000000000E+00 0. -1.
         -2    1    5    5    0  503  0.69852114433E+02  0.27591169529E+02 -0.10510665901E+03  0.12918204324E+03  0.00000000000E+00 0.  1.
         -3    1    6    6    0  502 -0.14744011157E+02 -0.15001510631E+03  0.27715460950E+03  0.31549420843E+03  0.00000000000E+00 0.  1.
<mgrwt>
<rscale>  0 0.16747338E+04</rscale>
<asrwt>0</asrwt>
<pdfrwt beam="1">  1        2 0.70320496E-01 0.16747338E+04</pdfrwt>
<pdfrwt beam="2">  1       -2 0.23600594E+00 0.16747338E+04</pdfrwt>
<totfact> 0.51064740E+00</totfact>
</mgrwt>
</event>
<event>
12    1  0.2019083E-007  0.1912090E+04  0.7818608E-02  0.8648862E-01
          2   -1    0    0  501    0  0.00000000000E+00  0.00000000000E+00  0.39851783586E+04  0.39851783586E+04  0.00000000000E+00 0. -1.
         -2   -1    0    0    0  501 -0.00000000000E+00 -0.00000000000E+00 -0.22935536422E+03  0.22935536422E+03  0.00000000000E+00 0.  1.
         23    2    1    2    0    0  0.49567555663E+03 -0.28472260402E+03  0.42740084582E+03  0.71947584247E+03  0.90624423868E+02 0.  0.
        254    2    1    2    0    0 -0.49567555663E+03  0.28472260402E+03  0.33284221485E+04  0.34950578803E+04  0.90015241449E+03 0.  0.
        -24    2    4    4    0    0  0.21865631661E+03  0.20634569525E+03  0.14305520118E+04  0.14641364889E+04  0.82628498568E+02 0.  0.
         24    2    4    4    0    0 -0.71433187325E+03  0.78376908766E+02  0.18978701367E+04  0.20309213914E+04  0.79483819017E+02 0.  0.
         11    1    3    3    0    0  0.10640215388E+03 -0.45550672764E+02  0.13133161678E+03  0.17505506478E+03  0.00000000000E+00 0. -1.
        -11    1    3    3    0    0  0.38927340275E+03 -0.23917193125E+03  0.29606922904E+03  0.54442077768E+03  0.00000000000E+00 0.  1.
          4    1    6    6  502    0 -0.64995788995E+03  0.94035027943E+02  0.17190185826E+04  0.18401936671E+04  0.00000000000E+00 0. -1.
          3    1    5    5  503    0  0.18986859866E+03  0.15540617708E+03  0.12643155194E+04  0.12879032950E+04  0.00000000000E+00 0. -1.
         -4    1    5    5    0  503  0.28787717952E+02  0.50939518167E+02  0.16623649246E+03  0.17623319393E+03  0.00000000000E+00 0.  1.
         -3    1    6    6    0  502 -0.64373983296E+02 -0.15658119177E+02  0.17885155409E+03  0.19072772431E+03  0.00000000000E+00 0.  1.
<mgrwt>
<rscale>  0 0.19120900E+04</rscale>
<asrwt>0</asrwt>
<pdfrwt beam="1">  1        2 0.61310431E+00 0.19120900E+04</pdfrwt>
<pdfrwt beam="2">  1       -2 0.35285444E-01 0.19120900E+04</pdfrwt>
<totfact> 0.25119739E+00</totfact>
</mgrwt>
</event>
<event>
12    1  0.2019083E-007  0.1851626E+04  0.7818608E-02  0.8679317E-01
          2   -1    0    0  501    0  0.00000000000E+00  0.00000000000E+00  0.24866346382E+04  0.24866346382E+04  0.00000000000E+00 0. -1.
         -2   -1    0    0    0  501 -0.00000000000E+00 -0.00000000000E+00 -0.34469459522E+03  0.34469459522E+03  0.00000000000E+00 0.  1.
         23    2    1    2    0    0  0.60214486055E+03  0.35727507097E+03  0.67306071454E+03  0.97567194591E+03  0.93279746763E+02 0.  0.
        254    2    1    2    0    0 -0.60214486055E+03 -0.35727507097E+03  0.14688793285E+04  0.18556572876E+04  0.89198294702E+03 0.  0.
        -24    2    4    4    0    0 -0.41121612022E+03 -0.13429677090E+03  0.14867801112E+04  0.15506948830E+04  0.83697077531E+02 0.  0.
         24    2    4    4    0    0 -0.19092874032E+03 -0.22297830007E+03 -0.17900782706E+02  0.30496240459E+03  0.80675423847E+02 0.  0.
         11    1    3    3    0    0  0.33271912310E+03  0.22738294065E+03  0.33288489855E+03  0.52270199182E+03  0.00000000000E+00 0. -1.
        -11    1    3    3    0    0  0.26942573745E+03  0.12989213032E+03  0.34017581599E+03  0.45296995409E+03  0.00000000000E+00 0.  1.
          2    1    6    6  502    0 -0.69548760681E+01 -0.22887160427E+02  0.19140961088E+02  0.30636070324E+02  0.00000000000E+00 0. -1.
          1    1    5    5  503    0 -0.16036320515E+03 -0.10381785539E+02  0.52478610036E+03  0.54883931179E+03  0.00000000000E+00 0. -1.
         -2    1    5    5    0  503 -0.25085291507E+03 -0.12391498536E+03  0.96199401084E+03  0.10018555712E+04  0.00000000000E+00 0.  1.
         -1    1    6    6    0  502 -0.18397386426E+03 -0.20009113964E+03 -0.37041743794E+02  0.27432633427E+03  0.00000000000E+00 0.  1.
<mgrwt>
<rscale>  0 0.18516258E+04</rscale>
<asrwt>0</asrwt>
<pdfrwt beam="1">  1        2 0.38255916E+00 0.18516258E+04</pdfrwt>
<pdfrwt beam="2">  1       -2 0.53029939E-01 0.18516258E+04</pdfrwt>
<totfact> 0.11183023E+01</totfact>
</mgrwt>
</event>
<event>
12    1  0.2019083E-007  0.2362264E+04  0.7818608E-02  0.8453768E-01
         -1   -1    0    0    0  501 -0.00000000000E+00  0.00000000000E+00  0.14482574564E+04  0.14482574564E+04  0.00000000000E+00 0.  1.
          1   -1    0    0  501    0  0.00000000000E+00 -0.00000000000E+00 -0.96327717870E+03  0.96327717870E+03  0.00000000000E+00 0. -1.
         23    2    1    2    0    0 -0.67056331429E+02 -0.10028258644E+04  0.27255422333E+03  0.10455478544E+04  0.93425078685E+02 0.  0.
        254    2    1    2    0    0  0.67056331429E+02  0.10028258644E+04  0.21242605433E+03  0.13659867806E+04  0.90035481359E+03 0.  0.
        -24    2    4    4    0    0  0.14743908691E+03  0.27642450612E+03 -0.32206549738E+03  0.45703198741E+03  0.83685488487E+02 0.  0.
         24    2    4    4    0    0 -0.80382755480E+02  0.72640135830E+03  0.53449155171E+03  0.90895479321E+03  0.79982976512E+02 0.  0.
         11    1    3    3    0    0 -0.46436162162E+02 -0.32845406585E+03  0.52290285810E+02  0.33581641491E+03  0.00000000000E+00 0. -1.
        -11    1    3    3    0    0 -0.20620169267E+02 -0.67437179856E+03  0.22026393752E+03  0.70973143952E+03  0.00000000000E+00 0.  1.
          2    1    6    6  502    0 -0.65360171810E+02  0.28990199910E+03  0.24273561730E+03  0.38371304519E+03  0.00000000000E+00 0. -1.
          1    1    5    5  503    0  0.52088509862E+02  0.37173747970E+02 -0.41991663071E+02  0.76540186603E+02  0.00000000000E+00 0. -1.
         -2    1    5    5    0  503  0.95350577048E+02  0.23925075815E+03 -0.28007383431E+03  0.38049180081E+03  0.00000000000E+00 0.  1.
         -1    1    6    6    0  502 -0.15022583671E+02  0.43649935920E+03  0.29175593441E+03  0.52524174802E+03  0.00000000000E+00 0.  1.
<mgrwt>
<rscale>  0 0.23622645E+04</rscale>
<asrwt>0</asrwt>
<pdfrwt beam="1">  1        1 0.14819649E+00 0.23622645E+04</pdfrwt>
<pdfrwt beam="2">  1       -1 0.22280884E+00 0.23622645E+04</pdfrwt>
<totfact> 0.15324973E+00</totfact>
</mgrwt>
</event>
<event>
12    1  0.2019083E-007  0.2160559E+04  0.7818608E-02  0.8535026E-01
         -1   -1    0    0    0  501 -0.00000000000E+00  0.00000000000E+00  0.48411060061E+03  0.48411060061E+03  0.00000000000E+00 0.  1.
          1   -1    0    0  501    0  0.00000000000E+00 -0.00000000000E+00 -0.24106139390E+04  0.24106139390E+04  0.00000000000E+00 0. -1.
         23    2    1    2    0    0 -0.42064426315E+02  0.71871026137E+03 -0.97101092444E+02  0.73207411606E+03  0.90498803773E+02 0.  0.
        254    2    1    2    0    0  0.42064426315E+02 -0.71871026137E+03 -0.18294022459E+04  0.21626504235E+04  0.90112730579E+03 0.  0.
        -24    2    4    4    0    0 -0.16479351297E+03 -0.75358406717E+03 -0.17670154850E+04  0.19296619630E+04  0.78776386185E+02 0.  0.
         24    2    4    4    0    0  0.20685793928E+03  0.34873805797E+02 -0.62386760892E+02  0.23298846050E+03  0.79906979765E+02 0.  0.
         11    1    3    3    0    0  0.17560353715E+02  0.18679387546E+03 -0.53277071827E+02  0.19503528993E+03  0.00000000000E+00 0.  1.
        -11    1    3    3    0    0 -0.59624780030E+02  0.53191638591E+03 -0.43824020617E+02  0.53703882613E+03  0.00000000000E+00 0. -1.
          2    1    6    6  502    0  0.82204170632E+02 -0.23441521787E+02 -0.36535036739E+02  0.92961494838E+02  0.00000000000E+00 0. -1.
          1    1    5    5  503    0 -0.24182722394E+02 -0.11846711845E+03 -0.35467492031E+03  0.37471797570E+03  0.00000000000E+00 0. -1.
         -2    1    5    5    0  503 -0.14061079058E+03 -0.63511694872E+03 -0.14123405647E+04  0.15549439873E+04  0.00000000000E+00 0.  1.
         -1    1    6    6    0  502  0.12465376865E+03  0.58315327584E+02 -0.25851724153E+02  0.14002696566E+03  0.00000000000E+00 0.  1.
<mgrwt>
<rscale>  0 0.21605590E+04</rscale>
<asrwt>0</asrwt>
<pdfrwt beam="1">  1        1 0.37086369E+00 0.21605590E+04</pdfrwt>
<pdfrwt beam="2">  1       -1 0.74478552E-01 0.21605590E+04</pdfrwt>
<totfact> 0.25927948E+00</totfact>
</mgrwt>
</event>
<event>
12    1  0.2019083E-007  0.1286680E+04  0.7818608E-02  0.9040195E-01
          2   -1    0    0  501    0  0.00000000000E+00  0.00000000000E+00  0.23845199496E+04  0.23845199496E+04  0.00000000000E+00 0. -1.
         -2   -1    0    0    0  501 -0.00000000000E+00 -0.00000000000E+00 -0.17357210599E+03  0.17357210599E+03  0.00000000000E+00 0.  1.
         23    2    1    2    0    0  0.28884881817E+03 -0.89309371434E+02  0.36215313058E+03  0.47986270585E+03  0.87769715102E+02 0.  0.
        254    2    1    2    0    0 -0.28884881817E+03  0.89309371434E+02  0.18487947130E+04  0.20782293497E+04  0.89976971256E+03 0.  0.
        -24    2    4    4    0    0 -0.78876090614E+02 -0.26511125023E+03  0.14493357046E+03  0.32347731824E+03  0.84418143180E+02 0.  0.
         24    2    4    4    0    0 -0.20997272755E+03  0.35442062166E+03  0.17038611425E+04  0.17547520315E+04  0.79431577943E+02 0.  0.
         13    1    3    3    0    0  0.13695454259E+03  0.21276149827E+01  0.14374932933E+03  0.19855715340E+03  0.00000000000E+00 0.  1.
        -13    1    3    3    0    0  0.15189427557E+03 -0.91436986417E+02  0.21840380125E+03  0.28130555245E+03  0.00000000000E+00 0. -1.
          4    1    6    6  502    0 -0.18117558465E+03  0.26164446084E+03  0.11919122940E+04  0.12336682427E+04  0.00000000000E+00 0. -1.
          3    1    5    5  503    0 -0.51445103401E+02 -0.18406961683E+03  0.14158427456E+03  0.23785358796E+03  0.00000000000E+00 0. -1.
         -4    1    5    5    0  503 -0.27430987214E+02 -0.81041633395E+02  0.33492959055E+01  0.85623730273E+02  0.00000000000E+00 0.  1.
         -3    1    6    6    0  502 -0.28797142898E+02  0.92776160823E+02  0.51194884850E+03  0.52108378879E+03  0.00000000000E+00 0.  1.
<mgrwt>
<rscale>  0 0.12866797E+04</rscale>
<asrwt>0</asrwt>
<pdfrwt beam="1">  1        2 0.36684920E+00 0.12866797E+04</pdfrwt>
<pdfrwt beam="2">  1       -2 0.26703403E-01 0.12866797E+04</pdfrwt>
<totfact> 0.50827419E+01</totfact>
</mgrwt>
</event>
<event>
12    1  0.2019083E-007  0.1716459E+04  0.7818608E-02  0.8752032E-01
          2   -1    0    0  501    0  0.00000000000E+00  0.00000000000E+00  0.13188313629E+04  0.13188313629E+04  0.00000000000E+00 0.  1.
         -2   -1    0    0    0  501 -0.00000000000E+00 -0.00000000000E+00 -0.55849312589E+03  0.55849312589E+03  0.00000000000E+00 0. -1.
         23    2    1    2    0    0  0.56637017549E+02 -0.28559344356E+03  0.87381929428E+03  0.92557648913E+03  0.91434738491E+02 0.  0.
        254    2    1    2    0    0 -0.56637017549E+02  0.28559344356E+03 -0.11348105730E+03  0.95174799964E+03  0.89898550471E+03 0.  0.
        -24    2    4    4    0    0  0.22330297293E+03  0.48004892684E+03 -0.22793464258E+03  0.58202527625E+03  0.80548314800E+02 0.  0.
         24    2    4    4    0    0 -0.27993999048E+03 -0.19445548328E+03  0.11445358529E+03  0.36972272339E+03  0.86115827541E+02 0.  0.
         13    1    3    3    0    0  0.23801434101E+01 -0.30463732552E+01 -0.15298205053E+01  0.41576223302E+01  0.00000000000E+00 0. -1.
        -13    1    3    3    0    0  0.54256874138E+02 -0.28254707031E+03  0.87534911479E+03  0.92141886680E+03  0.00000000000E+00 0.  1.
          4    1    6    6  502    0 -0.20852442009E+03 -0.16229914895E+03  0.12198708253E+03  0.29104002445E+03  0.00000000000E+00 0. -1.
          3    1    5    5  503    0  0.22724502616E+03  0.45056117998E+03 -0.22366358263E+03  0.55197017765E+03  0.00000000000E+00 0. -1.
         -4    1    5    5    0  503 -0.39420532242E+01  0.29487746864E+02 -0.42710599555E+01  0.30055098601E+02  0.00000000000E+00 0.  1.
         -3    1    6    6    0  502 -0.71415570389E+02 -0.32156334332E+02 -0.75334972446E+01  0.78682698939E+02  0.00000000000E+00 0.  1.
<mgrwt>
<rscale>  0 0.17164594E+04</rscale>
<asrwt>0</asrwt>
<pdfrwt beam="1">  1        2 0.20289713E+00 0.17164594E+04</pdfrwt>
<pdfrwt beam="2">  1       -2 0.85922020E-01 0.17164594E+04</pdfrwt>
<totfact> 0.18009863E+01</totfact>
</mgrwt>
</event>
<event>
12    1  0.2019083E-007  0.2319189E+04  0.7818608E-02  0.8470394E-01
          2   -1    0    0  501    0  0.00000000000E+00  0.00000000000E+00  0.10826560742E+04  0.10826560742E+04  0.00000000000E+00 0. -1.
         -2   -1    0    0    0  501 -0.00000000000E+00 -0.00000000000E+00 -0.12420000056E+04  0.12420000056E+04  0.00000000000E+00 0.  1.
         23    2    1    2    0    0 -0.23089377710E+03 -0.93669055895E+03  0.11650769020E+03  0.97596457394E+03  0.90728541168E+02 0.  0.
        254    2    1    2    0    0  0.23089377710E+03  0.93669055895E+03 -0.27585162163E+03  0.13486915059E+04  0.90120670293E+03 0.  0.
        -24    2    4    4    0    0  0.23377021044E+03  0.81220051418E+03 -0.56837527468E+03  0.10215843326E+04  0.79157496141E+02 0.  0.
         24    2    4    4    0    0 -0.28764333365E+01  0.12449004477E+03  0.29252365305E+03  0.32710717331E+03  0.76960834979E+02 0.  0.
         13    1    3    3    0    0 -0.13719158720E+03 -0.38402492905E+03  0.31595409348E+02  0.40901705052E+03  0.00000000000E+00 0.  1.
        -13    1    3    3    0    0 -0.93702189899E+02 -0.55266562990E+03  0.84912280856E+02  0.56694752342E+03  0.00000000000E+00 0. -1.
          2    1    6    6  502    0  0.23139103312E+02  0.92673160045E+02  0.25154315206E+03  0.26906818846E+03  0.00000000000E+00 0. -1.
          1    1    5    5  503    0  0.11630422605E+03  0.52292069606E+03 -0.33556085935E+03  0.63211851554E+03  0.00000000000E+00 0. -1.
         -2    1    5    5    0  503  0.11746598439E+03  0.28927981813E+03 -0.23281441533E+03  0.38946581705E+03  0.00000000000E+00 0.  1.
         -1    1    6    6    0  502 -0.26015536648E+02  0.31816884723E+02  0.40980500998E+02  0.58038984851E+02  0.00000000000E+00 0.  1.
<mgrwt>
<rscale>  0 0.23191885E+04</rscale>
<asrwt>0</asrwt>
<pdfrwt beam="1">  1        2 0.16656247E+00 0.23191885E+04</pdfrwt>
<pdfrwt beam="2">  1       -2 0.19107692E+00 0.23191885E+04</pdfrwt>
<totfact> 0.30812736E+00</totfact>
</mgrwt>
</event>
<event>
12    1  0.2019083E-007  0.1119330E+04  0.7818608E-02  0.9186554E-01
         -1   -1    0    0    0  501 -0.00000000000E+00  0.00000000000E+00  0.21622334524E+03  0.21622334524E+03  0.00000000000E+00 0.  1.
          1   -1    0    0  501    0  0.00000000000E+00 -0.00000000000E+00 -0.14486172273E+04  0.14486172273E+04  0.00000000000E+00 0. -1.
         23    2    1    2    0    0 -0.31471123385E+02  0.16862033152E+03 -0.28636291934E+03  0.34625634082E+03  0.92013499971E+02 0.  0.
        254    2    1    2    0    0  0.31471123385E+02 -0.16862033152E+03 -0.94603096274E+03  0.13185842317E+04  0.90236719020E+03 0.  0.
        -24    2    4    4    0    0  0.94895211903E+02 -0.18080670448E+03 -0.11072941786E+04  0.11287810244E+04  0.79687122287E+02 0.  0.
         24    2    4    4    0    0 -0.63424088518E+02  0.12186372959E+02  0.16126321591E+03  0.18980320730E+03  0.76474244084E+02 0.  0.
         13    1    3    3    0    0 -0.36637339457E+02  0.75629926272E+02 -0.65460175916E+02  0.10652330741E+03  0.00000000000E+00 0.  1.
        -13    1    3    3    0    0  0.51662160723E+01  0.92990405248E+02 -0.22090274343E+03  0.23973303341E+03  0.00000000000E+00 0. -1.
          2    1    6    6  502    0 -0.38278171921E+02  0.42505230020E+02  0.69973972596E+02  0.90378481208E+02  0.00000000000E+00 0. -1.
          3    1    5    5  503    0  0.84415281525E+02 -0.17172540488E+03 -0.85699205078E+03  0.87809505723E+03  0.00000000000E+00 0. -1.
         -4    1    5    5    0  503  0.10479930378E+02 -0.90812995972E+01 -0.25030212786E+03  0.25068596721E+03  0.00000000000E+00 0.  1.
         -1    1    6    6    0  502 -0.25145916597E+02 -0.30318857061E+02  0.91289243310E+02  0.99424726095E+02  0.00000000000E+00 0.  1.
<mgrwt>
<rscale>  0 0.11193299E+04</rscale>
<asrwt>0</asrwt>
<pdfrwt beam="1">  1        1 0.22286420E+00 0.11193299E+04</pdfrwt>
<pdfrwt beam="2">  1       -1 0.33265129E-01 0.11193299E+04</pdfrwt>
<totfact> 0.60055175E+01</totfact>
</mgrwt>
</event>
<event>
12    1  0.2019083E-007  0.2843006E+04  0.7818608E-02  0.8290040E-01
         -2   -1    0    0    0  501 -0.00000000000E+00  0.00000000000E+00  0.13047148524E+04  0.13047148524E+04  0.00000000000E+00 0.  1.
          2   -1    0    0  501    0  0.00000000000E+00 -0.00000000000E+00 -0.15487447715E+04  0.15487447715E+04  0.00000000000E+00 0. -1.
         23    2    1    2    0    0  0.10165506188E+03  0.12692399205E+04  0.38970949461E+01  0.12767455086E+04  0.93595827063E+02 0.  0.
        254    2    1    2    0    0 -0.10165506188E+03 -0.12692399205E+04 -0.24792701402E+03  0.15767141153E+04  0.89624542942E+03 0.  0.
        -24    2    4    4    0    0  0.19373559112E+03 -0.59859276879E+03  0.25598077395E+03  0.68379702302E+03  0.78774551420E+02 0.  0.
         24    2    4    4    0    0 -0.29539065300E+03 -0.67064715174E+03 -0.50390778798E+03  0.89291709232E+03  0.79715964196E+02 0.  0.
         13    1    3    3    0    0  0.16122304013E+02  0.73169003587E+03  0.20930919239E+02  0.73216688033E+03  0.00000000000E+00 0.  1.
        -13    1    3    3    0    0  0.85532757865E+02  0.53754988467E+03 -0.17033824293E+02  0.54457862825E+03  0.00000000000E+00 0. -1.
          4    1    6    6  502    0 -0.35038573598E+02 -0.13656384936E+03 -0.12335257992E+03  0.18733191283E+03  0.00000000000E+00 0. -1.
          3    1    5    5  503    0  0.33595252800E+02 -0.89310111546E+02  0.70456217637E+02  0.11861288142E+03  0.00000000000E+00 0. -1.
         -4    1    5    5    0  503  0.16014033832E+03 -0.50928265724E+03  0.18552455632E+03  0.56518414160E+03  0.00000000000E+00 0.  1.
         -3    1    6    6    0  502 -0.26035207940E+03 -0.53408330238E+03 -0.38055520806E+03  0.70558517949E+03  0.00000000000E+00 0.  1.
<mgrwt>
<rscale>  0 0.28430057E+04</rscale>
<asrwt>0</asrwt>
<pdfrwt beam="1">  1        2 0.23826843E+00 0.28430057E+04</pdfrwt>
<pdfrwt beam="2">  1       -2 0.20072536E+00 0.28430057E+04</pdfrwt>
<totfact> 0.13593017E+00</totfact>
</mgrwt>
</event>
<event>
12    1  0.2019083E-007  0.2125817E+04  0.7818608E-02  0.8549955E-01
         -2   -1    0    0    0  501 -0.00000000000E+00  0.00000000000E+00  0.99228029173E+03  0.99228029173E+03  0.00000000000E+00 0. -1.
          2   -1    0    0  501    0  0.00000000000E+00 -0.00000000000E+00 -0.11385639473E+04  0.11385639473E+04  0.00000000000E+00 0.  1.
         23    2    1    2    0    0  0.71580563016E+03  0.29068344710E+03  0.33859205711E+03  0.84834599562E+03  0.90397901266E+02 0.  0.
        254    2    1    2    0    0 -0.71580563016E+03 -0.29068344710E+03 -0.48487571267E+03  0.12824982434E+04  0.90156681449E+03 0.  0.
        -24    2    4    4    0    0  0.18075351475E+03  0.27134514376E+02 -0.20530807457E+03  0.28765687283E+03  0.84775916592E+02 0.  0.
         24    2    4    4    0    0 -0.89655914491E+03 -0.31781796148E+03 -0.27956763809E+03  0.99484137057E+03  0.82004459394E+02 0.  0.
         11    1    3    3    0    0  0.27185038311E+01  0.19238139688E+01  0.12186109109E+02  0.12632995626E+02  0.00000000000E+00 0. -1.
        -11    1    3    3    0    0  0.71308712633E+03  0.28875963313E+03  0.32640594800E+03  0.83571299999E+03  0.00000000000E+00 0.  1.
          4    1    6    6  502    0 -0.10676474744E+03 -0.26691776291E+02 -0.78508717090E+01  0.11033040562E+03  0.00000000000E+00 0. -1.
          3    1    5    5  503    0  0.14836673420E+03  0.17442987018E+02 -0.20523987939E+03  0.25385104630E+03  0.00000000000E+00 0. -1.
         -4    1    5    5    0  503  0.32386780550E+02  0.96915273574E+01 -0.68195184785E-01  0.33805826531E+02  0.00000000000E+00 0.  1.
         -3    1    6    6    0  502 -0.78979439747E+03 -0.29112618518E+03 -0.27171676638E+03  0.88451096495E+03  0.00000000000E+00 0.  1.
<mgrwt>
<rscale>  0 0.21258171E+04</rscale>
<asrwt>0</asrwt>
<pdfrwt beam="1">  1        2 0.17516368E+00 0.21258171E+04</pdfrwt>
<pdfrwt beam="2">  1       -2 0.15265851E+00 0.21258171E+04</pdfrwt>
<totfact> 0.54248571E+00</totfact>
</mgrwt>
</event>
<event>
12    1  0.2019083E-007  0.2386091E+04  0.7818608E-02  0.8444729E-01
          2   -1    0    0  501    0  0.00000000000E+00  0.00000000000E+00  0.85628555446E+03  0.85628555446E+03  0.00000000000E+00 0. -1.
         -2   -1    0    0    0  501 -0.00000000000E+00 -0.00000000000E+00 -0.16622461519E+04  0.16622461519E+04  0.00000000000E+00 0.  1.
         23    2    1    2    0    0  0.10015650053E+04  0.11916010133E+03 -0.52424624901E+03  0.11400467341E+04  0.86837990823E+02 0.  0.
        254    2    1    2    0    0 -0.10015650053E+04 -0.11916010133E+03 -0.28171434847E+03  0.13784849723E+04  0.89639626017E+03 0.  0.
        -24    2    4    4    0    0  0.14230425139E+03  0.78279990154E+02 -0.15712788996E+01  0.18169454347E+03  0.81438205949E+02 0.  0.
         24    2    4    4    0    0 -0.11438692567E+04 -0.19744009148E+03 -0.28014306957E+03  0.11967904289E+04  0.80048267122E+02 0.  0.
         13    1    3    3    0    0  0.39191140105E+03  0.40995199095E+01 -0.20550928894E+03  0.44254425787E+03  0.00000000000E+00 0. -1.
        -13    1    3    3    0    0  0.60965360425E+03  0.11506058142E+03 -0.31873696007E+03  0.69750247619E+03  0.00000000000E+00 0.  1.
          4    1    6    6  502    0 -0.10110247676E+04 -0.18673563829E+03 -0.22440946997E+03  0.10523311691E+04  0.00000000000E+00 0. -1.
          3    1    5    5  503    0  0.14572073835E+03  0.56591869935E+02  0.10432749956E+02  0.15667168092E+03  0.00000000000E+00 0. -1.
         -4    1    5    5    0  503 -0.34164869638E+01  0.21688120219E+02 -0.12004028856E+02  0.25022862557E+02  0.00000000000E+00 0.  1.
         -3    1    6    6    0  502 -0.13284448914E+03 -0.10704453194E+02 -0.55733599598E+02  0.14445925978E+03  0.00000000000E+00 0.  1.
<mgrwt>
<rscale>  0 0.23860908E+04</rscale>
<asrwt>0</asrwt>
<pdfrwt beam="1">  1        2 0.13173624E+00 0.23860908E+04</pdfrwt>
<pdfrwt beam="2">  1       -2 0.25573018E+00 0.23860908E+04</pdfrwt>
<totfact> 0.16759417E+00</totfact>
</mgrwt>
</event>
<event>
12    1  0.2019083E-007  0.1611872E+04  0.7818608E-02  0.8813288E-01
          2   -1    0    0  501    0  0.00000000000E+00  0.00000000000E+00  0.14830602333E+04  0.14830602333E+04  0.00000000000E+00 0. -1.
         -2   -1    0    0    0  501 -0.00000000000E+00 -0.00000000000E+00 -0.43796799637E+03  0.43796799637E+03  0.00000000000E+00 0.  1.
         23    2    1    2    0    0  0.21537285908E+03 -0.40988501504E+03  0.71551132595E+03  0.85726546186E+03  0.92500921961E+02 0.  0.
        254    2    1    2    0    0 -0.21537285908E+03  0.40988501504E+03  0.32958091096E+03  0.10637627678E+04  0.89920879403E+03 0.  0.
        -24    2    4    4    0    0 -0.23663035030E+03  0.63630481723E+03  0.42457981132E+03  0.80486285341E+03  0.81599347426E+02 0.  0.
         24    2    4    4    0    0  0.21257491214E+02 -0.22641980219E+03 -0.94998900366E+02  0.25889991437E+03  0.79287873182E+02 0.  0.
         13    1    3    3    0    0  0.10513365294E+02 -0.84881299477E+02  0.98790465417E+02  0.13067104464E+03  0.00000000000E+00 0.  1.
        -13    1    3    3    0    0  0.20485949379E+03 -0.32500371556E+03  0.61672086053E+03  0.72659441722E+03  0.00000000000E+00 0. -1.
          2    1    6    6  502    0  0.36143044850E+02 -0.13239347267E+03 -0.88881617834E+02  0.16350624846E+03  0.00000000000E+00 0. -1.
          1    1    5    5  503    0 -0.22175147339E+03  0.52209302560E+03  0.37136102001E+03  0.67798514034E+03  0.00000000000E+00 0. -1.
         -2    1    5    5    0  503 -0.14878876903E+02  0.11421179164E+03  0.53218791307E+02  0.12687771307E+03  0.00000000000E+00 0.  1.
         -1    1    6    6    0  502 -0.14885553636E+02 -0.94026329527E+02 -0.61172825322E+01  0.95393665916E+02  0.00000000000E+00 0.  1.
<mgrwt>
<rscale>  0 0.16118721E+04</rscale>
<asrwt>0</asrwt>
<pdfrwt beam="1">  1        2 0.22816311E+00 0.16118721E+04</pdfrwt>
<pdfrwt beam="2">  1       -2 0.67379693E-01 0.16118721E+04</pdfrwt>
<totfact> 0.25111970E+01</totfact>
</mgrwt>
</event>
<event>
12    1  0.2019083E-007  0.3026557E+04  0.7818608E-02  0.8236188E-01
         -1   -1    0    0    0  501 -0.00000000000E+00  0.00000000000E+00  0.27669152877E+04  0.27669152877E+04  0.00000000000E+00 0.  1.
          1   -1    0    0  501    0  0.00000000000E+00 -0.00000000000E+00 -0.82764089192E+03  0.82764089192E+03  0.00000000000E+00 0. -1.
         23    2    1    2    0    0 -0.56034754024E+03 -0.12371935810E+04  0.11693981907E+04  0.17946898689E+04  0.93713790497E+02 0.  0.
        254    2    1    2    0    0  0.56034754024E+03  0.12371935810E+04  0.76987620510E+03  0.17998663107E+04  0.89564057656E+03 0.  0.
        -24    2    4    4    0    0  0.44452876910E+03  0.13555059927E+04  0.59890511744E+03  0.15492387156E+04  0.80317715604E+02 0.  0.
         24    2    4    4    0    0  0.11581877114E+03 -0.11831241163E+03  0.17097108766E+03  0.25062759512E+03  0.78557393826E+02 0.  0.
         11    1    3    3    0    0 -0.37750880975E+03 -0.73659414297E+03  0.68192873388E+03  0.10724321102E+04  0.00000000000E+00 0. -1.
        -11    1    3    3    0    0 -0.18283873049E+03 -0.50059943805E+03  0.48746945680E+03  0.72225775874E+03  0.00000000000E+00 0.  1.
          4    1    6    6  502    0  0.80643391149E+01  0.11796072030E+02  0.12100760918E+02  0.18724563960E+02  0.00000000000E+00 0. -1.
          1    1    5    5  503    0  0.64082177307E+02  0.24635369619E+03  0.13584162529E+03  0.28853009590E+03  0.00000000000E+00 0. -1.
         -2    1    5    5    0  503  0.38044659179E+03  0.11091522965E+04  0.46306349215E+03  0.12607086197E+04  0.00000000000E+00 0.  1.
         -3    1    6    6    0  502  0.10775443203E+03 -0.13010848366E+03  0.15887032675E+03  0.23190303116E+03  0.00000000000E+00 0.  1.
<mgrwt>
<rscale>  0 0.30265573E+04</rscale>
<asrwt>0</asrwt>
<pdfrwt beam="1">  1        1 0.12732937E+00 0.30265573E+04</pdfrwt>
<pdfrwt beam="2">  1       -1 0.42567927E+00 0.30265573E+04</pdfrwt>
<totfact> 0.84568136E-02</totfact>
</mgrwt>
</event>
<event>
12    1  0.2019083E-007  0.1579774E+04  0.7818608E-02  0.8833071E-01
          2   -1    0    0  501    0  0.00000000000E+00  0.00000000000E+00  0.21820201585E+04  0.21820201585E+04  0.00000000000E+00 0. -1.
         -2   -1    0    0    0  501 -0.00000000000E+00 -0.00000000000E+00 -0.28593767761E+03  0.28593767761E+03  0.00000000000E+00 0.  1.
         23    2    1    2    0    0  0.39951392430E+03 -0.27096925632E+03  0.31251960024E+03  0.58137768449E+03  0.85415443085E+02 0.  0.
        254    2    1    2    0    0 -0.39951392430E+03  0.27096925632E+03  0.15835628806E+04  0.18865801516E+04  0.90469749524E+03 0.  0.
        -24    2    4    4    0    0  0.60861313945E+02  0.29027684085E+02  0.12696242334E+04  0.12739125360E+04  0.79754306540E+02 0.  0.
         24    2    4    4    0    0 -0.46037523824E+03  0.24194157224E+03  0.31393864724E+03  0.61266761558E+03  0.79517599252E+02 0.  0.
         11    1    3    3    0    0  0.10951392226E+03 -0.66808381215E+02  0.12949567172E+03  0.18227942276E+03  0.00000000000E+00 0. -1.
        -11    1    3    3    0    0  0.29000000204E+03 -0.20416087511E+03  0.18302392852E+03  0.39909826173E+03  0.00000000000E+00 0.  1.
          2    1    6    6  502    0 -0.28139068277E+03  0.17841945888E+03  0.16797633046E+03  0.37313572229E+03  0.00000000000E+00 0. -1.
          1    1    5    5  503    0 -0.18315851909E+02 -0.38298869007E+01  0.22408837707E+03  0.22486827078E+03  0.00000000000E+00 0. -1.
         -2    1    5    5    0  503  0.79177165853E+02  0.32857570986E+02  0.10455358563E+04  0.10490442652E+04  0.00000000000E+00 0.  1.
         -1    1    6    6    0  502 -0.17898455547E+03  0.63522113358E+02  0.14596231679E+03  0.23953189329E+03  0.00000000000E+00 0.  1.
<mgrwt>
<rscale>  0 0.15797744E+04</rscale>
<asrwt>0</asrwt>
<pdfrwt beam="1">  1        2 0.33569540E+00 0.15797744E+04</pdfrwt>
<pdfrwt beam="2">  1       -2 0.43990413E-01 0.15797744E+04</pdfrwt>
<totfact> 0.24894940E+01</totfact>
</mgrwt>
</event>
<event>
12    1  0.2019083E-007  0.3295656E+04  0.7818608E-02  0.8164001E-01
          1   -1    0    0  501    0  0.00000000000E+00  0.00000000000E+00  0.18381667676E+04  0.18381667676E+04  0.00000000000E+00 0. -1.
         -1   -1    0    0    0  501 -0.00000000000E+00 -0.00000000000E+00 -0.14771988830E+04  0.14771988830E+04  0.00000000000E+00 0.  1.
         23    2    1    2    0    0 -0.54336530632E+03 -0.70457263078E+03 -0.10765226376E+04  0.13999763511E+04  0.96769552625E+02 0.  0.
        254    2    1    2    0    0  0.54336530632E+03  0.70457263078E+03  0.14374905222E+04  0.19153892995E+04  0.90037143398E+03 0.  0.
        -24    2    4    4    0    0 -0.25449369718E+02  0.67230072419E+03  0.63864056907E+03  0.93098460811E+03  0.78959672677E+02 0.  0.
         24    2    4    4    0    0  0.56881467603E+03  0.32271906585E+02  0.79884995309E+03  0.98440469137E+03  0.79370883926E+02 0.  0.
         11    1    3    3    0    0 -0.14794621252E+03 -0.21019946730E+03 -0.37976165741E+03  0.45857476412E+03  0.00000000000E+00 0.  1.
        -11    1    3    3    0    0 -0.39541909379E+03 -0.49437316348E+03 -0.69676098016E+03  0.94140158698E+03  0.00000000000E+00 0. -1.
          2    1    6    6  502    0  0.51733630656E+03  0.76274185243E+01  0.70340852666E+03  0.87320019869E+03  0.00000000000E+00 0. -1.
          1    1    5    5  503    0 -0.45621999851E+02  0.30805453206E+03  0.32158679403E+03  0.44765726587E+03  0.00000000000E+00 0. -1.
         -2    1    5    5    0  503  0.20172630133E+02  0.36424619213E+03  0.31705377504E+03  0.48332734224E+03  0.00000000000E+00 0.  1.
         -1    1    6    6    0  502  0.51478369473E+02  0.24644488061E+02  0.95441426425E+02  0.11120449269E+03  0.00000000000E+00 0.  1.
<mgrwt>
<rscale>  0 0.32956565E+04</rscale>
<asrwt>0</asrwt>
<pdfrwt beam="1">  1        1 0.28279489E+00 0.32956565E+04</pdfrwt>
<pdfrwt beam="2">  1       -1 0.22726137E+00 0.32956565E+04</pdfrwt>
<totfact> 0.31352591E-01</totfact>
</mgrwt>
</event>
<event>
12    1  0.2019083E-007  0.3751860E+04  0.7818608E-02  0.8056565E-01
         -2   -1    0    0    0  501 -0.00000000000E+00  0.00000000000E+00  0.28882861886E+04  0.28882861886E+04  0.00000000000E+00 0.  1.
          2   -1    0    0  501    0  0.00000000000E+00 -0.00000000000E+00 -0.12184086989E+04  0.12184086989E+04  0.00000000000E+00 0. -1.
         23    2    1    2    0    0  0.13670944086E+04 -0.11166492316E+04  0.69759061081E+03  0.19001514205E+04  0.89945161185E+02 0.  0.
        254    2    1    2    0    0 -0.13670944086E+04  0.11166492316E+04  0.97228687890E+03  0.22065434670E+04  0.89868774793E+03 0.  0.
        -24    2    4    4    0    0  0.26181149147E+02  0.39098833418E+03  0.12002002788E+03  0.41755877713E+03  0.79957458836E+02 0.  0.
         24    2    4    4    0    0 -0.13932755578E+04  0.72566089738E+03  0.85226685102E+03  0.17889846898E+04  0.79416102020E+02 0.  0.
         11    1    3    3    0    0  0.73017927530E+03 -0.59295399860E+03  0.41982426261E+03  0.10300527317E+04  0.00000000000E+00 0.  1.
        -11    1    3    3    0    0  0.63691513333E+03 -0.52369523296E+03  0.27776634819E+03  0.87009868882E+03  0.00000000000E+00 0. -1.
          2    1    6    6  502    0 -0.43328495339E+03  0.22678813122E+03  0.22391448125E+03  0.53787210582E+03  0.00000000000E+00 0. -1.
          3    1    5    5  503    0  0.66695576514E+00  0.94733288528E+02 -0.52861191595E+01  0.94883000801E+02  0.00000000000E+00 0. -1.
         -4    1    5    5    0  503  0.25514193382E+02  0.29625504566E+03  0.12530614704E+03  0.32267577632E+03  0.00000000000E+00 0.  1.
         -1    1    6    6    0  502 -0.95999060438E+03  0.49887276616E+03  0.62835236977E+03  0.12511125840E+04  0.00000000000E+00 0.  1.
<mgrwt>
<rscale>  0 0.37518598E+04</rscale>
<asrwt>0</asrwt>
<pdfrwt beam="1">  1        2 0.18744749E+00 0.37518598E+04</pdfrwt>
<pdfrwt beam="2">  1       -2 0.44435172E+00 0.37518598E+04</pdfrwt>
<totfact> 0.56197669E-02</totfact>
</mgrwt>
</event>
<event>
12    1  0.2019083E-007  0.2774160E+04  0.7818608E-02  0.8311336E-01
         -2   -1    0    0    0  501 -0.00000000000E+00  0.00000000000E+00  0.89462572104E+03  0.89462572104E+03  0.00000000000E+00 0.  1.
          2   -1    0    0  501    0  0.00000000000E+00 -0.00000000000E+00 -0.21506093772E+04  0.21506093772E+04  0.00000000000E+00 0. -1.
         23    2    1    2    0    0  0.64172536228E+02  0.74900538854E+03  0.51879209304E+03  0.91817210870E+03  0.93635457567E+02 0.  0.
        254    2    1    2    0    0 -0.64172536228E+02 -0.74900538854E+03 -0.17747757492E+04  0.21270629896E+04  0.89968928808E+03 0.  0.
        -24    2    4    4    0    0  0.40376146241E+03 -0.44658991118E+03 -0.86304162835E+03  0.10556378443E+04  0.84050811076E+02 0.  0.
         24    2    4    4    0    0 -0.46793399864E+03 -0.30241547736E+03 -0.91173412085E+03  0.10714251452E+04  0.79217337927E+02 0.  0.
         11    1    3    3    0    0  0.46941122888E+01  0.56323756551E+02  0.11859134611E+02  0.57749799271E+02  0.00000000000E+00 0. -1.
        -11    1    3    3    0    0  0.59478423940E+02  0.69268163199E+03  0.50693295843E+03  0.86042230943E+03  0.00000000000E+00 0.  1.
          4    1    6    6  502    0 -0.11361979337E+03 -0.42454053488E+02 -0.16174495097E+03  0.20217129685E+03  0.00000000000E+00 0. -1.
          1    1    5    5  503    0  0.43989566837E+02 -0.76226008255E+02 -0.16961639030E+03  0.19108952400E+03  0.00000000000E+00 0. -1.
         -2    1    5    5    0  503  0.35977189558E+03 -0.37036390292E+03 -0.69342523805E+03  0.86454832034E+03  0.00000000000E+00 0.  1.
         -3    1    6    6    0  502 -0.35431420527E+03 -0.25996142388E+03 -0.74998916987E+03  0.86925384836E+03  0.00000000000E+00 0.  1.
<mgrwt>
<rscale>  0 0.27741597E+04</rscale>
<asrwt>0</asrwt>
<pdfrwt beam="1">  1        2 0.33086298E+00 0.27741597E+04</pdfrwt>
<pdfrwt beam="2">  1       -2 0.13763473E+00 0.27741597E+04</pdfrwt>
<totfact> 0.18018630E+00</totfact>
</mgrwt>
</event>
<event>
12    1  0.2019083E-007  0.1914080E+04  0.7818608E-02  0.8647879E-01
         -2   -1    0    0    0  501 -0.00000000000E+00  0.00000000000E+00  0.17269317367E+04  0.17269317367E+04  0.00000000000E+00 0.  1.
          2   -1    0    0  501    0  0.00000000000E+00 -0.00000000000E+00 -0.53037764167E+03  0.53037764167E+03  0.00000000000E+00 0. -1.
         23    2    1    2    0    0 -0.29275241034E+03  0.35510010134E+02 -0.33687284355E+03  0.45699570968E+03  0.91634225951E+02 0.  0.
        254    2    1    2    0    0  0.29275241034E+03 -0.35510010134E+02  0.15334269386E+04  0.18003136687E+04  0.89597220671E+03 0.  0.
        -24    2    4    4    0    0 -0.18379969906E+03  0.16143268922E+02  0.11864781872E+04  0.12033804360E+04  0.79693479189E+02 0.  0.
         24    2    4    4    0    0  0.47655210940E+03 -0.51653279056E+02  0.34694875146E+03  0.59693323274E+03  0.78650327431E+02 0.  0.
         11    1    3    3    0    0 -0.15439419042E+03  0.33473676508E+02 -0.11459637414E+03  0.19516757420E+03  0.00000000000E+00 0.  1.
        -11    1    3    3    0    0 -0.13835821992E+03  0.20363336258E+01 -0.22227646941E+03  0.26182813548E+03  0.00000000000E+00 0. -1.
          2    1    6    6  502    0 -0.11941787880E+01  0.42127142705E+01  0.56464919230E+01  0.71453408274E+01  0.00000000000E+00 0. -1.
          1    1    5    5  503    0  0.33803043095E+01  0.19456039304E+01  0.25432551823E+01  0.46561764143E+01  0.00000000000E+00 0. -1.
         -2    1    5    5    0  503 -0.18718000337E+03  0.14197664992E+02  0.11839349320E+04  0.11987242596E+04  0.00000000000E+00 0.  1.
         -1    1    6    6    0  502  0.47774628819E+03 -0.55865993326E+02  0.34130225953E+03  0.58978789192E+03  0.00000000000E+00 0.  1.
<mgrwt>
<rscale>  0 0.19140804E+04</rscale>
<asrwt>0</asrwt>
<pdfrwt beam="1">  1        2 0.81596561E-01 0.19140804E+04</pdfrwt>
<pdfrwt beam="2">  1       -2 0.26568180E+00 0.19140804E+04</pdfrwt>
<totfact> 0.27695796E+00</totfact>
</mgrwt>
</event>
<event>
12    1  0.2019083E-007  0.1787858E+04  0.7818608E-02  0.8712783E-01
          2   -1    0    0  501    0  0.00000000000E+00  0.00000000000E+00  0.28862609300E+04  0.28862609300E+04  0.00000000000E+00 0. -1.
         -2   -1    0    0    0  501 -0.00000000000E+00 -0.00000000000E+00 -0.27686647153E+03  0.27686647153E+03  0.00000000000E+00 0.  1.
         23    2    1    2    0    0  0.16014041487E+03 -0.40968407399E+03  0.18940948689E+04  0.19466436933E+04  0.91325260654E+02 0.  0.
        254    2    1    2    0    0 -0.16014041487E+03  0.40968407399E+03  0.71529958958E+03  0.12164837083E+04  0.88016652781E+03 0.  0.
        -24    2    4    4    0    0 -0.51893179437E+03  0.27313982120E+03  0.41949329349E+03  0.72539622580E+03  0.79558104531E+02 0.  0.
         24    2    4    4    0    0  0.35879137950E+03  0.13654425279E+03  0.29580629609E+03  0.49108748246E+03  0.79309291094E+02 0.  0.
         13    1    3    3    0    0  0.59635466528E+02 -0.23617511611E+03  0.89056987029E+03  0.92328206319E+03  0.00000000000E+00 0. -1.
        -13    1    3    3    0    0  0.10050494834E+03 -0.17350895788E+03  0.10035249986E+04  0.10233616301E+04  0.00000000000E+00 0.  1.
          2    1    6    6  502    0  0.30616227689E+03  0.13936980001E+03  0.27473911332E+03  0.43432805727E+03  0.00000000000E+00 0. -1.
          3    1    5    5  503    0 -0.16352222091E+03  0.80199610985E+02  0.86931888668E+02  0.20181339797E+03  0.00000000000E+00 0. -1.
         -4    1    5    5    0  503 -0.35540957346E+03  0.19294021021E+03  0.33256140482E+03  0.52358282783E+03  0.00000000000E+00 0.  1.
         -1    1    6    6    0  502  0.52629102605E+02 -0.28255472145E+01  0.21067182765E+02  0.56759425189E+02  0.00000000000E+00 0.  1.
<mgrwt>
<rscale>  0 0.17878578E+04</rscale>
<asrwt>0</asrwt>
<pdfrwt beam="1">  1        2 0.44404012E+00 0.17878578E+04</pdfrwt>
<pdfrwt beam="2">  1       -2 0.42594844E-01 0.17878578E+04</pdfrwt>
<totfact> 0.10147166E+01</totfact>
</mgrwt>
</event>
<event>
12    1  0.2019083E-007  0.1270094E+04  0.7818608E-02  0.9053623E-01
         -2   -1    0    0    0  501 -0.00000000000E+00  0.00000000000E+00  0.86490707238E+03  0.86490707238E+03  0.00000000000E+00 0.  1.
          2   -1    0    0  501    0  0.00000000000E+00 -0.00000000000E+00 -0.46627528331E+03  0.46627528331E+03  0.00000000000E+00 0. -1.
         23    2    1    2    0    0  0.12785094841E+02 -0.30183021318E+03  0.14784979694E+03  0.34904163053E+03  0.93303596623E+02 0.  0.
        254    2    1    2    0    0 -0.12785094841E+02  0.30183021318E+03  0.25078199213E+03  0.98214072516E+03  0.90024655523E+03 0.  0.
        -24    2    4    4    0    0 -0.86715910643E+01 -0.21151896745E+03  0.38289770854E+03  0.44508176760E+03  0.81680196879E+02 0.  0.
         24    2    4    4    0    0 -0.41135037770E+01  0.51334918064E+03 -0.13211571641E+03  0.53705895757E+03  0.86217511021E+02 0.  0.
         11    1    3    3    0    0 -0.35756327221E+02 -0.16727904481E+03  0.60507847114E+02  0.18144418792E+03  0.00000000000E+00 0. -1.
        -11    1    3    3    0    0  0.48541422062E+02 -0.13455116837E+03  0.87341949829E+02  0.16759744260E+03  0.00000000000E+00 0.  1.
          2    1    6    6  502    0 -0.21725751533E+02  0.35669898532E+03 -0.12727247871E+03  0.37934741101E+03  0.00000000000E+00 0. -1.
          3    1    5    5  503    0 -0.43561308916E+02 -0.14906311067E+03  0.25697396607E+03  0.30025492141E+03  0.00000000000E+00 0. -1.
         -4    1    5    5    0  503  0.34889717851E+02 -0.62455856783E+02  0.12592374247E+03  0.14482684618E+03  0.00000000000E+00 0.  1.
         -1    1    6    6    0  502  0.17612247756E+02  0.15665019532E+03 -0.48432376995E+01  0.15771154655E+03  0.00000000000E+00 0.  1.
<mgrwt>
<rscale>  0 0.12700942E+04</rscale>
<asrwt>0</asrwt>
<pdfrwt beam="1">  1        2 0.71734659E-01 0.12700942E+04</pdfrwt>
<pdfrwt beam="2">  1       -2 0.13306263E+00 0.12700942E+04</pdfrwt>
<totfact> 0.26826269E+01</totfact>
</mgrwt>
</event>
<event>
12    1  0.2019083E-007  0.1300742E+04  0.7818608E-02  0.9028977E-01
          1   -1    0    0  501    0  0.00000000000E+00  0.00000000000E+00  0.40334943684E+04  0.40334943684E+04  0.00000000000E+00 0. -1.
         -1   -1    0    0    0  501 -0.00000000000E+00 -0.00000000000E+00 -0.10486746893E+03  0.10486746893E+03  0.00000000000E+00 0.  1.
         23    2    1    2    0    0  0.22279163576E+03  0.37683748425E+02  0.17398485272E+04  0.17578986432E+04  0.10990252132E+03 0.  0.
        254    2    1    2    0    0 -0.22279163576E+03 -0.37683748425E+02  0.21887783723E+04  0.23804631942E+04  0.90818394502E+03 0.  0.
        -24    2    4    4    0    0  0.77867524945E+02  0.24923374862E+03  0.17989009275E+03  0.32751616363E+03  0.82009627958E+02 0.  0.
         24    2    4    4    0    0 -0.30065916071E+03 -0.28691749705E+03  0.20088882796E+04  0.20529470306E+04  0.79005123566E+02 0.  0.
         11    1    3    3    0    0  0.11944218190E+03  0.75199411997E+02  0.94528266283E+03  0.95576184221E+03  0.00000000000E+00 0.  1.
        -11    1    3    3    0    0  0.10334945387E+03 -0.37515663571E+02  0.79456586436E+03  0.80213680095E+03  0.00000000000E+00 0. -1.
          4    1    6    6  502    0 -0.22750016255E+03 -0.19166127468E+03  0.12709811864E+04  0.13053289028E+04  0.00000000000E+00 0. -1.
          1    1    5    5  503    0  0.64046505819E+02  0.19587265408E+03  0.96495992071E+02  0.22755115471E+03  0.00000000000E+00 0. -1.
         -2    1    5    5    0  503  0.13821019126E+02  0.53361094538E+02  0.83394100684E+02  0.99965008922E+02  0.00000000000E+00 0.  1.
         -3    1    6    6    0  502 -0.73158998156E+02 -0.95256222364E+02  0.73790709316E+03  0.74761812782E+03  0.00000000000E+00 0.  1.
<mgrwt>
<rscale>  0 0.13007419E+04</rscale>
<asrwt>0</asrwt>
<pdfrwt beam="1">  1        1 0.62053748E+00 0.13007419E+04</pdfrwt>
<pdfrwt beam="2">  1       -1 0.16133460E-01 0.13007419E+04</pdfrwt>
<totfact> 0.26478709E+00</totfact>
</mgrwt>
</event>
<event>
12    1  0.2019083E-007  0.2513706E+04  0.7818608E-02  0.8398119E-01
          2   -1    0    0  501    0  0.00000000000E+00  0.00000000000E+00  0.11461001401E+04  0.11461001401E+04  0.00000000000E+00 0. -1.
         -2   -1    0    0    0  501 -0.00000000000E+00 -0.00000000000E+00 -0.13783083217E+04  0.13783083217E+04  0.00000000000E+00 0.  1.
         23    2    1    2    0    0 -0.24172744987E+03 -0.73004192106E+03 -0.88236475670E+03  0.11741467075E+04  0.93056758793E+02 0.  0.
        254    2    1    2    0    0  0.24172744987E+03  0.73004192106E+03  0.65015657515E+03  0.13502617543E+04  0.89950534544E+03 0.  0.
        -24    2    4    4    0    0 -0.10041223602E+02 -0.14086161614E+03  0.36038902966E+03  0.39466136944E+03  0.77035853681E+02 0.  0.
         24    2    4    4    0    0  0.25176867347E+03  0.87090353720E+03  0.28976754549E+03  0.95560038490E+03  0.85711312798E+02 0.  0.
         11    1    3    3    0    0 -0.60271804735E+02 -0.31866789190E+03 -0.34531324143E+03  0.47373320602E+03  0.00000000000E+00 0. -1.
        -11    1    3    3    0    0 -0.18145564514E+03 -0.41137402916E+03 -0.53705151527E+03  0.70041350149E+03  0.00000000000E+00 0.  1.
          2    1    6    6  502    0  0.50426046252E+02  0.28529842583E+03  0.65858619917E+02  0.29711165534E+03  0.00000000000E+00 0. -1.
          1    1    5    5  503    0 -0.10567845667E+02 -0.46151884579E+02  0.22182521167E+03  0.22682173693E+03  0.00000000000E+00 0. -1.
         -4    1    5    5    0  503  0.52662206570E+00 -0.94709731562E+02  0.13856381799E+03  0.16783963251E+03  0.00000000000E+00 0.  1.
         -1    1    6    6    0  502  0.20134262722E+03  0.58560511137E+03  0.22390892557E+03  0.65848872956E+03  0.00000000000E+00 0.  1.
<mgrwt>
<rscale>  0 0.25137059E+04</rscale>
<asrwt>0</asrwt>
<pdfrwt beam="1">  1        2 0.17632310E+00 0.25137059E+04</pdfrwt>
<pdfrwt beam="2">  1       -2 0.21204743E+00 0.25137059E+04</pdfrwt>
<totfact> 0.20200665E+00</totfact>
</mgrwt>
</event>
<event>
12    1  0.2019083E-007  0.3034978E+04  0.7818608E-02  0.8233813E-01
         -2   -1    0    0    0  501 -0.00000000000E+00  0.00000000000E+00  0.13392651591E+04  0.13392651591E+04  0.00000000000E+00 0.  1.
          2   -1    0    0  501    0  0.00000000000E+00 -0.00000000000E+00 -0.17194301141E+04  0.17194301141E+04  0.00000000000E+00 0. -1.
         23    2    1    2    0    0 -0.12792917500E+04 -0.46945345235E+03  0.59542612159E+02  0.13670122274E+04  0.90571416649E+02 0.  0.
        254    2    1    2    0    0  0.12792917500E+04  0.46945345235E+03 -0.43970756716E+03  0.16916830459E+04  0.90081899270E+03 0.  0.
        -24    2    4    4    0    0  0.21264740181E+03 -0.53358908309E+02  0.22793106214E+03  0.32651126950E+03  0.81184662509E+02 0.  0.
         24    2    4    4    0    0  0.10666443482E+04  0.52281236066E+03 -0.66763862930E+03  0.13651717764E+04  0.83004275507E+02 0.  0.
         13    1    3    3    0    0 -0.13448934057E+03 -0.75087543955E+02  0.22102175211E+02  0.15560857345E+03  0.00000000000E+00 0. -1.
        -13    1    3    3    0    0 -0.11448024095E+04 -0.39436590840E+03  0.37440436948E+02  0.12114036539E+04  0.00000000000E+00 0.  1.
          4    1    6    6  502    0  0.21365500995E+03  0.12598889064E+03 -0.17183280628E+03  0.30174190487E+03  0.00000000000E+00 0. -1.
          3    1    5    5  503    0  0.99942319218E+02 -0.39846030530E+01  0.54623114208E+02  0.11396503340E+03  0.00000000000E+00 0. -1.
         -4    1    5    5    0  503  0.11270508259E+03 -0.49374305256E+02  0.17330794793E+03  0.21254623610E+03  0.00000000000E+00 0.  1.
         -3    1    6    6    0  502  0.85298933827E+03  0.39682347002E+03 -0.49580582302E+03  0.10634298715E+04  0.00000000000E+00 0.  1.
<mgrwt>
<rscale>  0 0.30349780E+04</rscale>
<asrwt>0</asrwt>
<pdfrwt beam="1">  1        2 0.26452771E+00 0.30349780E+04</pdfrwt>
<pdfrwt beam="2">  1       -2 0.20604079E+00 0.30349780E+04</pdfrwt>
<totfact> 0.99178486E-01</totfact>
</mgrwt>
</event>
<event>
12    1  0.2019083E-007  0.3409286E+04  0.7818608E-02  0.8135631E-01
         -1   -1    0    0    0  501 -0.00000000000E+00  0.00000000000E+00  0.16700290833E+04  0.16700290833E+04  0.00000000000E+00 0.  1.
          1   -1    0    0  501    0  0.00000000000E+00 -0.00000000000E+00 -0.17399743402E+04  0.17399743402E+04  0.00000000000E+00 0. -1.
         23    2    1    2    0    0 -0.76504384469E+03 -0.13334540579E+04 -0.41613299043E+03  0.15949222089E+04  0.84961036971E+02 0.  0.
        254    2    1    2    0    0  0.76504384469E+03  0.13334540579E+04  0.34618773358E+03  0.18150812146E+04  0.90071197382E+03 0.  0.
        -24    2    4    4    0    0  0.10932658982E+02 -0.89306006928E+02  0.14881938206E+03  0.19083894275E+03  0.78595214133E+02 0.  0.
         24    2    4    4    0    0  0.75411118571E+03  0.14227600649E+04  0.19736835152E+03  0.16242422718E+04  0.79238935562E+02 0.  0.
         13    1    3    3    0    0 -0.48420651636E+02 -0.13115493517E+03 -0.45269283669E+02  0.14695402195E+03  0.00000000000E+00 0.  1.
        -13    1    3    3    0    0 -0.71662319305E+03 -0.12022991228E+04 -0.37086370676E+03  0.14479681870E+04  0.00000000000E+00 0. -1.
          4    1    6    6  502    0  0.14493299559E+03  0.26682251166E+03  0.68457865935E+02  0.31126565077E+03  0.00000000000E+00 0. -1.
          1    1    5    5  503    0  0.59470011120E+01 -0.57787692167E+02  0.25473975186E+02  0.63432701346E+02  0.00000000000E+00 0. -1.
         -2    1    5    5    0  503  0.49856578700E+01 -0.31518314760E+02  0.12334540688E+03  0.12740624140E+03  0.00000000000E+00 0.  1.
         -3    1    6    6    0  502  0.60917819012E+03  0.11559375532E+04  0.12891048558E+03  0.13129766211E+04  0.00000000000E+00 0.  1.
<mgrwt>
<rscale>  0 0.34092860E+04</rscale>
<asrwt>0</asrwt>
<pdfrwt beam="1">  1        1 0.26768836E+00 0.34092860E+04</pdfrwt>
<pdfrwt beam="2">  1       -1 0.25692755E+00 0.34092860E+04</pdfrwt>
<totfact> 0.23118137E-01</totfact>
</mgrwt>
</event>
<event>
12    1  0.2019083E-007  0.1280648E+04  0.7818608E-02  0.9045053E-01
          2   -1    0    0  501    0  0.00000000000E+00  0.00000000000E+00  0.12493025185E+04  0.12493025185E+04  0.00000000000E+00 0.  1.
         -2   -1    0    0    0  501 -0.00000000000E+00 -0.00000000000E+00 -0.32819523175E+03  0.32819523175E+03  0.00000000000E+00 0. -1.
         23    2    1    2    0    0 -0.38887811703E+02 -0.15523246690E+03  0.56893226638E+03  0.59783795752E+03  0.90093945636E+02 0.  0.
        254    2    1    2    0    0  0.38887811703E+02  0.15523246690E+03  0.35217502033E+03  0.97965979269E+03  0.90005371161E+03 0.  0.
        -24    2    4    4    0    0 -0.32803118026E+03 -0.67498847814E+02  0.41459944877E+03  0.53890515469E+03  0.79784166000E+02 0.  0.
         24    2    4    4    0    0  0.36691899196E+03  0.22273131471E+03 -0.62424428448E+02  0.44075463800E+03  0.78288290527E+02 0.  0.
         13    1    3    3    0    0 -0.47454032664E+01 -0.13409711626E+03  0.50344905663E+03  0.52102351968E+03  0.00000000000E+00 0.  1.
        -13    1    3    3    0    0 -0.34142408437E+02 -0.21135350638E+02  0.65483209754E+02  0.76814437837E+02  0.00000000000E+00 0. -1.
          2    1    6    6  502    0  0.34317172532E+03  0.18495850812E+03 -0.68209022718E+02  0.39576375980E+03  0.00000000000E+00 0. -1.
          1    1    5    5  503    0 -0.27334507679E+03 -0.48454545733E+02  0.28971414677E+03  0.40124763033E+03  0.00000000000E+00 0. -1.
         -2    1    5    5    0  503 -0.54686103467E+02 -0.19044302081E+02  0.12488530201E+03  0.13765752435E+03  0.00000000000E+00 0.  1.
         -1    1    6    6    0  502  0.23747266640E+02  0.37772806589E+02  0.57845942703E+01  0.44990878202E+02  0.00000000000E+00 0.  1.
<mgrwt>
<rscale>  0 0.12806485E+04</rscale>
<asrwt>0</asrwt>
<pdfrwt beam="1">  1        2 0.19220039E+00 0.12806485E+04</pdfrwt>
<pdfrwt beam="2">  1       -2 0.50491575E-01 0.12806485E+04</pdfrwt>
<totfact> 0.64437851E+01</totfact>
</mgrwt>
</event>
<event>
12    1  0.2019083E-007  0.4400925E+04  0.7818608E-02  0.7928215E-01
         -1   -1    0    0    0  501 -0.00000000000E+00  0.00000000000E+00  0.19393334361E+04  0.19393334361E+04  0.00000000000E+00 0. -1.
          1   -1    0    0  501    0  0.00000000000E+00 -0.00000000000E+00 -0.24967518480E+04  0.24967518480E+04  0.00000000000E+00 0.  1.
         23    2    1    2    0    0  0.20874681162E+04  0.28142689022E+03 -0.33226720652E+03  0.21343375042E+04  0.90944240449E+02 0.  0.
        254    2    1    2    0    0 -0.20874681162E+04 -0.28142689022E+03 -0.22515120540E+03  0.23017477799E+04  0.90034745878E+03 0.  0.
        -24    2    4    4    0    0 -0.43827999853E+02 -0.22029934769E+03 -0.71101875334E+02  0.24985127957E+03  0.83171443793E+02 0.  0.
         24    2    4    4    0    0 -0.20436401163E+04 -0.61127542529E+02 -0.15404933006E+03  0.20518965004E+04  0.79665240959E+02 0.  0.
         11    1    3    3    0    0  0.27429591059E+03  0.26545904038E+02 -0.72924000077E+02  0.28506287267E+03  0.00000000000E+00 0.  1.
        -11    1    3    3    0    0  0.18131722056E+04  0.25488098618E+03 -0.25934320644E+03  0.18492746316E+04  0.00000000000E+00 0. -1.
          2    1    6    6  502    0 -0.16557264244E+04 -0.78681949677E+02 -0.13605226896E+03  0.16631689816E+04  0.00000000000E+00 0. -1.
          1    1    5    5  503    0  0.12683729631E+02 -0.24439620675E+02  0.11581437582E+02  0.29871420330E+02  0.00000000000E+00 0. -1.
         -4    1    5    5    0  503 -0.56511729484E+02 -0.19585972701E+03 -0.82683312916E+02  0.21997985924E+03  0.00000000000E+00 0.  1.
         -1    1    6    6    0  502 -0.38791369195E+03  0.17554407147E+02 -0.17997061110E+02  0.38872751874E+03  0.00000000000E+00 0.  1.
<mgrwt>
<rscale>  0 0.44009246E+04</rscale>
<asrwt>0</asrwt>
<pdfrwt beam="1">  1        1 0.38411567E+00 0.44009246E+04</pdfrwt>
<pdfrwt beam="2">  1       -1 0.29835899E+00 0.44009246E+04</pdfrwt>
<totfact> 0.34914378E-02</totfact>
</mgrwt>
</event>
<event>
12    1  0.2019083E-007  0.1166979E+04  0.7818608E-02  0.9142261E-01
          1   -1    0    0  501    0  0.00000000000E+00  0.00000000000E+00  0.11839441680E+04  0.11839441680E+04  0.00000000000E+00 0. -1.
         -1   -1    0    0    0  501 -0.00000000000E+00 -0.00000000000E+00 -0.28756400608E+03  0.28756400608E+03  0.00000000000E+00 0.  1.
         23    2    1    2    0    0 -0.18370652364E+03  0.23437111644E+02  0.33865522378E+03  0.39683639903E+03  0.92164971476E+02 0.  0.
        254    2    1    2    0    0  0.18370652364E+03 -0.23437111644E+02  0.55772493810E+03  0.10746717750E+04  0.89975826331E+03 0.  0.
        -24    2    4    4    0    0  0.52101896956E+03 -0.10413962166E+03  0.45652078250E+03  0.70503210469E+03  0.79707065812E+02 0.  0.
         24    2    4    4    0    0 -0.33731244592E+03  0.80702510019E+02  0.10120415560E+03  0.36963967033E+03  0.78093683965E+02 0.  0.
         11    1    3    3    0    0 -0.74448495594E+02  0.53035170529E+02  0.12261146885E+03  0.15293423456E+03  0.00000000000E+00 0.  1.
        -11    1    3    3    0    0 -0.10925802805E+03 -0.29598058885E+02  0.21604375494E+03  0.24390216447E+03  0.00000000000E+00 0. -1.
          4    1    6    6  502    0 -0.70462108203E+02 -0.84541238315E+01  0.40863777483E+02  0.81891569849E+02  0.00000000000E+00 0. -1.
          3    1    5    5  503    0  0.12482865639E+02  0.75123249827E+01  0.37372082747E+01  0.15040734254E+02  0.00000000000E+00 0. -1.
         -4    1    5    5    0  503  0.50853610392E+03 -0.11165194665E+03  0.45278357422E+03  0.68999137043E+03  0.00000000000E+00 0.  1.
         -3    1    6    6    0  502 -0.26685033771E+03  0.89156633851E+02  0.60340378117E+02  0.28774810048E+03  0.00000000000E+00 0.  1.
<mgrwt>
<rscale>  0 0.11669785E+04</rscale>
<asrwt>0</asrwt>
<pdfrwt beam="1">  1        1 0.18214525E+00 0.11669785E+04</pdfrwt>
<pdfrwt beam="2">  1       -1 0.44240617E-01 0.11669785E+04</pdfrwt>
<totfact> 0.55038497E+01</totfact>
</mgrwt>
</event>
<event>
12    1  0.2019083E-007  0.2401451E+04  0.7818608E-02  0.8438961E-01
         -2   -1    0    0    0  501 -0.00000000000E+00  0.00000000000E+00  0.23760966124E+04  0.23760966124E+04  0.00000000000E+00 0.  1.
          2   -1    0    0  501    0  0.00000000000E+00 -0.00000000000E+00 -0.60676896556E+03  0.60676896556E+03  0.00000000000E+00 0. -1.
         23    2    1    2    0    0 -0.71109120643E+03 -0.59644024748E+02  0.16815651179E+04  0.18284194591E+04  0.79046563963E+02 0.  0.
        254    2    1    2    0    0  0.71109120643E+03  0.59644024748E+02  0.87762528984E+02  0.11544461189E+04  0.90323610775E+03 0.  0.
        -24    2    4    4    0    0  0.68745408624E+02 -0.10012552248E+03  0.39472798770E+03  0.42054060191E+03  0.79329453066E+02 0.  0.
         24    2    4    4    0    0  0.64234579780E+03  0.15976954722E+03 -0.30696545872E+03  0.73390551696E+03  0.79089081437E+02 0.  0.
         11    1    3    3    0    0 -0.36040515946E+03 -0.52571990651E+01  0.76908191170E+03  0.84935652350E+03  0.00000000000E+00 0. -1.
        -11    1    3    3    0    0 -0.35068604696E+03 -0.54386825683E+02  0.91248320620E+03  0.97906293563E+03  0.00000000000E+00 0.  1.
          4    1    6    6  502    0  0.55736690326E+03  0.16363739030E+03 -0.25655691784E+03  0.63502481246E+03  0.00000000000E+00 0. -1.
          3    1    5    5  503    0  0.39396616164E+02 -0.75874656003E+02  0.35642641299E+03  0.36653628015E+03  0.00000000000E+00 0. -1.
         -4    1    5    5    0  503  0.29348792460E+02 -0.24250866474E+02  0.38301574707E+02  0.54004321759E+02  0.00000000000E+00 0.  1.
         -3    1    6    6    0  502  0.84978894545E+02 -0.38678430800E+01 -0.50408540878E+02  0.98880704496E+02  0.00000000000E+00 0.  1.
<mgrwt>
<rscale>  0 0.24014510E+04</rscale>
<asrwt>0</asrwt>
<pdfrwt beam="1">  1        2 0.93349073E-01 0.24014510E+04</pdfrwt>
<pdfrwt beam="2">  1       -2 0.36555332E+00 0.24014510E+04</pdfrwt>
<totfact> 0.54572453E-01</totfact>
</mgrwt>
</event>
<event>
12    1  0.2019083E-007  0.5873133E+04  0.7818608E-02  0.7706334E-01
          2   -1    0    0  501    0  0.00000000000E+00  0.00000000000E+00  0.31733700056E+04  0.31733700056E+04  0.00000000000E+00 0. -1.
         -2   -1    0    0    0  501 -0.00000000000E+00 -0.00000000000E+00 -0.27174340059E+04  0.27174340059E+04  0.00000000000E+00 0.  1.
         23    2    1    2    0    0  0.12462508731E+04  0.17228882433E+04  0.21508351784E+04  0.30258814197E+04  0.91549243373E+02 0.  0.
        254    2    1    2    0    0 -0.12462508731E+04 -0.17228882433E+04 -0.16948991787E+04  0.28649225917E+04  0.90200504051E+03 0.  0.
        -24    2    4    4    0    0 -0.10814999852E+04 -0.14950325828E+04 -0.17753057099E+04  0.25618790834E+04  0.82154931859E+02 0.  0.
         24    2    4    4    0    0 -0.16475088785E+03 -0.22785566046E+03  0.80406531161E+02  0.30304350831E+03  0.79429847174E+02 0.  0.
         11    1    3    3    0    0  0.46691809836E+03  0.57147621508E+03  0.74006343939E+03  0.10451274895E+04  0.00000000000E+00 0. -1.
        -11    1    3    3    0    0  0.77933277474E+03  0.11514120282E+04  0.14107717390E+04  0.19807539302E+04  0.00000000000E+00 0.  1.
          2    1    6    6  502    0 -0.12328023871E+02 -0.73815060682E+02  0.11970589555E+02  0.75788774699E+02  0.00000000000E+00 0. -1.
          1    1    5    5  503    0 -0.27839479528E+03 -0.41232159058E+03 -0.43384837529E+03  0.66010390760E+03  0.00000000000E+00 0. -1.
         -4    1    5    5    0  503 -0.80310518997E+03 -0.10827109922E+04 -0.13414573346E+04  0.19017751758E+04  0.00000000000E+00 0.  1.
         -1    1    6    6    0  502 -0.15242286398E+03 -0.15404059978E+03  0.68435941606E+02  0.22725473361E+03  0.00000000000E+00 0.  1.
<mgrwt>
<rscale>  0 0.58731333E+04</rscale>
<asrwt>0</asrwt>
<pdfrwt beam="1">  1        2 0.48821077E+00 0.58731333E+04</pdfrwt>
<pdfrwt beam="2">  1       -2 0.41806677E+00 0.58731333E+04</pdfrwt>
<totfact> 0.51862772E-03</totfact>
</mgrwt>
</event>
<event>
12    1  0.2019083E-007  0.1492733E+04  0.7818608E-02  0.8889300E-01
         -2   -1    0    0    0  501 -0.00000000000E+00  0.00000000000E+00  0.49681950417E+03  0.49681950417E+03  0.00000000000E+00 0. -1.
          2   -1    0    0  501    0  0.00000000000E+00 -0.00000000000E+00 -0.11212588864E+04  0.11212588864E+04  0.00000000000E+00 0.  1.
         23    2    1    2    0    0  0.35697637077E+03  0.22318295537E+03  0.86444832495E+01  0.43051129546E+03  0.89568340233E+02 0.  0.
        254    2    1    2    0    0 -0.35697637077E+03 -0.22318295537E+03 -0.63308386549E+03  0.11875670951E+04  0.91229253194E+03 0.  0.
        -24    2    4    4    0    0 -0.11990343491E+03  0.31904230123E+03 -0.51052852221E+02  0.35377940453E+03  0.79929028961E+02 0.  0.
         24    2    4    4    0    0 -0.23707293586E+03 -0.54222525660E+03 -0.58203101327E+03  0.83378769060E+03  0.78930391925E+02 0.  0.
         11    1    3    3    0    0  0.18927827846E+03  0.14998100148E+03  0.40236252496E+02  0.24482549605E+03  0.00000000000E+00 0. -1.
        -11    1    3    3    0    0  0.16769809231E+03  0.73201953886E+02 -0.31591769247E+02  0.18568579941E+03  0.00000000000E+00 0.  1.
          2    1    6    6  502    0 -0.82030389950E+01 -0.88059473536E+02 -0.88130350621E+02  0.12485479337E+03  0.00000000000E+00 0. -1.
          1    1    5    5  503    0 -0.47169298898E+02  0.59505423988E+02  0.12236315863E+02  0.76912714608E+02  0.00000000000E+00 0. -1.
         -2    1    5    5    0  503 -0.72734136013E+02  0.25953687725E+03 -0.63289168084E+02  0.27686668992E+03  0.00000000000E+00 0.  1.
         -1    1    6    6    0  502 -0.22886989686E+03 -0.45416578306E+03 -0.49390066265E+03  0.70893289722E+03  0.00000000000E+00 0.  1.
<mgrwt>
<rscale>  0 0.14927334E+04</rscale>
<asrwt>0</asrwt>
<pdfrwt beam="1">  1        2 0.17250137E+00 0.14927334E+04</pdfrwt>
<pdfrwt beam="2">  1       -2 0.76433771E-01 0.14927334E+04</pdfrwt>
<totfact> 0.31291548E+01</totfact>
</mgrwt>
</event>
<event>
12    1  0.2019083E-007  0.1799275E+04  0.7818608E-02  0.8706685E-01
         -2   -1    0    0    0  501 -0.00000000000E+00  0.00000000000E+00  0.33433267760E+03  0.33433267760E+03  0.00000000000E+00 0.  1.
          2   -1    0    0  501    0  0.00000000000E+00 -0.00000000000E+00 -0.24207841575E+04  0.24207841575E+04  0.00000000000E+00 0. -1.
         23    2    1    2    0    0 -0.37799833994E+03 -0.53943947514E+03 -0.60770042406E+03  0.90083416954E+03  0.91239811894E+02 0.  0.
        254    2    1    2    0    0  0.37799833994E+03  0.53943947514E+03 -0.14787510558E+04  0.18542826656E+04  0.90431290290E+03 0.  0.
        -24    2    4    4    0    0 -0.25216612318E+03  0.28811044505E+03 -0.80393672948E+03  0.89394122086E+03  0.78874958792E+02 0.  0.
         24    2    4    4    0    0  0.63016446311E+03  0.25132903008E+03 -0.67481432636E+03  0.96034144470E+03  0.81288273565E+02 0.  0.
         13    1    3    3    0    0 -0.19238963914E+02 -0.62781908464E+02 -0.37675266791E+02  0.75704236940E+02  0.00000000000E+00 0.  1.
        -13    1    3    3    0    0 -0.35875937602E+03 -0.47665756667E+03 -0.57002515727E+03  0.82512993260E+03  0.00000000000E+00 0. -1.
          4    1    6    6  502    0  0.30224020317E+03  0.16255834942E+03 -0.32315842569E+03  0.47138702302E+03  0.00000000000E+00 0. -1.
          3    1    5    5  503    0 -0.20759857707E+02  0.25066455594E+02 -0.13437181126E+03  0.13825730559E+03  0.00000000000E+00 0. -1.
         -4    1    5    5    0  503 -0.23140626547E+03  0.26304398946E+03 -0.66956491822E+03  0.75568391527E+03  0.00000000000E+00 0.  1.
         -3    1    6    6    0  502  0.32792425994E+03  0.88770680658E+02 -0.35165590067E+03  0.48895442168E+03  0.00000000000E+00 0.  1.
<mgrwt>
<rscale>  0 0.17992746E+04</rscale>
<asrwt>0</asrwt>
<pdfrwt beam="1">  1        2 0.37242834E+00 0.17992746E+04</pdfrwt>
<pdfrwt beam="2">  1       -2 0.51435796E-01 0.17992746E+04</pdfrwt>
<totfact> 0.13051663E+01</totfact>
</mgrwt>
</event>
<event>
12    1  0.2019083E-007  0.2845277E+04  0.7818608E-02  0.8289348E-01
          2   -1    0    0  501    0  0.00000000000E+00  0.00000000000E+00  0.14014143717E+04  0.14014143717E+04  0.00000000000E+00 0. -1.
         -2   -1    0    0    0  501 -0.00000000000E+00 -0.00000000000E+00 -0.14441843183E+04  0.14441843183E+04  0.00000000000E+00 0.  1.
         23    2    1    2    0    0 -0.98849439799E+03  0.69962748849E+03  0.37887473787E+03  0.12722448332E+04  0.91983971865E+02 0.  0.
        254    2    1    2    0    0  0.98849439799E+03 -0.69962748849E+03 -0.42164468455E+03  0.15733538568E+04  0.91162400209E+03 0.  0.
        -24    2    4    4    0    0  0.90749314308E+03 -0.16007029254E+03 -0.43553896332E+03  0.10216607019E+04  0.70214655772E+02 0.  0.
         24    2    4    4    0    0  0.81001254917E+02 -0.53955719596E+03  0.13894278772E+02  0.55169315494E+03  0.80555044629E+02 0.  0.
         13    1    3    3    0    0 -0.51637047187E+03  0.37720953935E+03  0.24702175226E+03  0.68552552606E+03  0.00000000000E+00 0.  1.
        -13    1    3    3    0    0 -0.47212392612E+03  0.32241794915E+03  0.13185298561E+03  0.58671930713E+03  0.00000000000E+00 0. -1.
          2    1    6    6  502    0 -0.15847266317E+02 -0.57799302026E+02 -0.29891645907E+01  0.60006918512E+02  0.00000000000E+00 0. -1.
          1    1    5    5  503    0  0.20214289076E+03 -0.26893412086E+02 -0.66186699286E+02  0.21439608919E+03  0.00000000000E+00 0. -1.
         -2    1    5    5    0  503  0.70535025231E+03 -0.13317688045E+03 -0.36935226404E+03  0.80726461267E+03  0.00000000000E+00 0.  1.
         -1    1    6    6    0  502  0.96848521234E+02 -0.48175789393E+03  0.16883443363E+02  0.49168623643E+03  0.00000000000E+00 0.  1.
<mgrwt>
<rscale>  0 0.28452773E+04</rscale>
<asrwt>0</asrwt>
<pdfrwt beam="1">  1        2 0.21560221E+00 0.28452773E+04</pdfrwt>
<pdfrwt beam="2">  1       -2 0.22218220E+00 0.28452773E+04</pdfrwt>
<totfact> 0.11989149E+00</totfact>
</mgrwt>
</event>
<event>
12    1  0.2019083E-007  0.2043593E+04  0.7818608E-02  0.8586506E-01
          1   -1    0    0  501    0  0.00000000000E+00  0.00000000000E+00  0.11134685782E+04  0.11134685782E+04  0.00000000000E+00 0. -1.
         -1   -1    0    0    0  501 -0.00000000000E+00 -0.00000000000E+00 -0.93767172177E+03  0.93767172177E+03  0.00000000000E+00 0.  1.
         23    2    1    2    0    0  0.19010117359E+03 -0.77572306535E+03  0.29957619354E+03  0.85797696096E+03  0.92162028362E+02 0.  0.
        254    2    1    2    0    0 -0.19010117359E+03  0.77572306535E+03 -0.12377933716E+03  0.11931633390E+04  0.87774295717E+03 0.  0.
        -24    2    4    4    0    0  0.33667593088E+03  0.42658140398E+03 -0.64726980396E+02  0.55323195113E+03  0.80954512572E+02 0.  0.
         24    2    4    4    0    0 -0.52677710447E+03  0.34914166137E+03 -0.59052356761E+02  0.63993138785E+03  0.81430846859E+02 0.  0.
         13    1    3    3    0    0  0.46066767361E+02 -0.25826423404E+03  0.56258696700E+02  0.26830505510E+03  0.00000000000E+00 0.  1.
        -13    1    3    3    0    0  0.14403440623E+03 -0.51745883131E+03  0.24331749684E+03  0.58967190585E+03  0.00000000000E+00 0. -1.
          4    1    6    6  502    0 -0.33191593964E+03  0.23601205618E+03 -0.10791970658E+01  0.40727269282E+03  0.00000000000E+00 0. -1.
          1    1    5    5  503    0  0.40973218787E+02  0.27917548327E+02  0.11910450337E+02  0.50990714739E+02  0.00000000000E+00 0. -1.
         -2    1    5    5    0  503  0.29570271209E+03  0.39866385565E+03 -0.76637430733E+02  0.50224123639E+03  0.00000000000E+00 0.  1.
         -3    1    6    6    0  502 -0.19486116483E+03  0.11312960519E+03 -0.57973159695E+02  0.23265869503E+03  0.00000000000E+00 0.  1.
<mgrwt>
<rscale>  0 0.20435929E+04</rscale>
<asrwt>0</asrwt>
<pdfrwt beam="1">  1        1 0.17130286E+00 0.20435929E+04</pdfrwt>
<pdfrwt beam="2">  1       -1 0.14425719E+00 0.20435929E+04</pdfrwt>
<totfact> 0.44342006E+00</totfact>
</mgrwt>
</event>
<event>
12    1  0.2019083E-007  0.1567768E+04  0.7818608E-02  0.8840598E-01
          2   -1    0    0  501    0  0.00000000000E+00  0.00000000000E+00  0.37072177023E+04  0.37072177023E+04  0.00000000000E+00 0. -1.
         -2   -1    0    0    0  501 -0.00000000000E+00 -0.00000000000E+00 -0.16575072772E+03  0.16575072772E+03  0.00000000000E+00 0.  1.
         23    2    1    2    0    0 -0.34369076047E+03 -0.22119689680E+03  0.19916250149E+04  0.20354135394E+04  0.96367371487E+02 0.  0.
        254    2    1    2    0    0  0.34369076047E+03  0.22119689680E+03  0.15498419597E+04  0.18375548906E+04  0.89863589410E+03 0.  0.
        -24    2    4    4    0    0  0.27148548975E+03  0.35155538692E+03  0.22855758313E+03  0.50556047463E+03  0.77828423398E+02 0.  0.
         24    2    4    4    0    0  0.72205270715E+02 -0.13035849011E+03  0.13212843765E+04  0.13319944160E+04  0.78802179653E+02 0.  0.
         13    1    3    3    0    0 -0.92690148798E+02 -0.66694796648E+02  0.36999316758E+03  0.38721389908E+03  0.00000000000E+00 0.  1.
        -13    1    3    3    0    0 -0.25100061167E+03 -0.15450210015E+03  0.16216318473E+04  0.16481996403E+04  0.00000000000E+00 0. -1.
          4    1    6    6  502    0  0.28024752576E+02 -0.11415447919E+03  0.79984866161E+03  0.80843955454E+03  0.00000000000E+00 0. -1.
          3    1    5    5  503    0  0.20323426839E+03  0.26822701430E+03  0.20883447509E+03  0.39605774457E+03  0.00000000000E+00 0. -1.
         -4    1    5    5    0  503  0.68251221361E+02  0.83328372620E+02  0.19723108041E+02  0.10950273006E+03  0.00000000000E+00 0.  1.
         -3    1    6    6    0  502  0.44180518139E+02 -0.16204010923E+02  0.52143571494E+03  0.52355486147E+03  0.00000000000E+00 0.  1.
<mgrwt>
<rscale>  0 0.15677679E+04</rscale>
<asrwt>0</asrwt>
<pdfrwt beam="1">  1        2 0.57034112E+00 0.15677679E+04</pdfrwt>
<pdfrwt beam="2">  1       -2 0.25500115E-01 0.15677679E+04</pdfrwt>
<totfact> 0.77925298E+00</totfact>
</mgrwt>
</event>
<event>
12    1  0.2019083E-007  0.1351489E+04  0.7818608E-02  0.8989702E-01
         -2   -1    0    0    0  501 -0.00000000000E+00  0.00000000000E+00  0.14581519901E+04  0.14581519901E+04  0.00000000000E+00 0.  1.
          2   -1    0    0  501    0  0.00000000000E+00 -0.00000000000E+00 -0.31315703085E+03  0.31315703085E+03  0.00000000000E+00 0. -1.
         23    2    1    2    0    0 -0.18874384382E+03  0.13671478965E+03  0.69303003304E+03  0.73669685511E+03  0.90091383314E+02 0.  0.
        254    2    1    2    0    0  0.18874384382E+03 -0.13671478965E+03  0.45196492618E+03  0.10346121658E+04  0.90101879383E+03 0.  0.
        -24    2    4    4    0    0 -0.37123348506E+02 -0.14097826330E+02 -0.25909971475E+03  0.27444328726E+03  0.81299225286E+02 0.  0.
         24    2    4    4    0    0  0.22586719233E+03 -0.12261696332E+03  0.71106464093E+03  0.76016887854E+03  0.78694930332E+02 0.  0.
         13    1    3    3    0    0 -0.26839449899E+02  0.61001065714E+02  0.13176112735E+03  0.14765663131E+03  0.00000000000E+00 0. -1.
        -13    1    3    3    0    0 -0.16190439392E+03  0.75713723935E+02  0.56126890568E+03  0.58904022380E+03  0.00000000000E+00 0.  1.
          4    1    6    6  502    0  0.20621758859E+03 -0.12438904791E+03  0.58598838988E+03  0.63354614841E+03  0.00000000000E+00 0. -1.
          3    1    5    5  503    0 -0.44906485090E+00  0.27121042401E+02 -0.38809084910E+02  0.47348681837E+02  0.00000000000E+00 0. -1.
         -4    1    5    5    0  503 -0.36674283655E+02 -0.41218868731E+02 -0.22029062984E+03  0.22709460543E+03  0.00000000000E+00 0.  1.
         -3    1    6    6    0  502  0.19649603739E+02  0.17720845951E+01  0.12507625104E+03  0.12662273013E+03  0.00000000000E+00 0.  1.
<mgrwt>
<rscale>  0 0.13514889E+04</rscale>
<asrwt>0</asrwt>
<pdfrwt beam="1">  1        2 0.48178005E-01 0.13514889E+04</pdfrwt>
<pdfrwt beam="2">  1       -2 0.22433107E+00 0.13514889E+04</pdfrwt>
<totfact> 0.94847005E+00</totfact>
</mgrwt>
</event>
<event>
12    1  0.2019083E-007  0.4786135E+04  0.7818608E-02  0.7862372E-01
         -2   -1    0    0    0  501 -0.00000000000E+00  0.00000000000E+00  0.17149768702E+04  0.17149768702E+04  0.00000000000E+00 0.  1.
          2   -1    0    0  501    0  0.00000000000E+00 -0.00000000000E+00 -0.33392708495E+04  0.33392708495E+04  0.00000000000E+00 0. -1.
         23    2    1    2    0    0 -0.14573714925E+04 -0.99801057732E+03  0.78435433167E+03  0.19349595435E+04  0.94339481466E+02 0.  0.
        254    2    1    2    0    0  0.14573714925E+04  0.99801057732E+03 -0.24086483109E+04  0.31192881762E+04  0.89911915811E+03 0.  0.
        -24    2    4    4    0    0  0.10759673218E+04  0.10126237307E+04 -0.22612394955E+04  0.27023212180E+04  0.78888601180E+02 0.  0.
         24    2    4    4    0    0  0.38140417070E+03 -0.14613153356E+02 -0.14740881539E+03  0.41696695818E+03  0.80308154467E+02 0.  0.
         13    1    3    3    0    0 -0.52853788131E+03 -0.32876492179E+03  0.23730649342E+03  0.66614790970E+03  0.00000000000E+00 0. -1.
        -13    1    3    3    0    0 -0.92883361121E+03 -0.66924565553E+03  0.54704783825E+03  0.12688116338E+04  0.00000000000E+00 0.  1.
          2    1    6    6  502    0  0.38015229522E+03 -0.19118472283E+02 -0.15250766720E+03  0.41004862163E+03  0.00000000000E+00 0. -1.
          3    1    5    5  503    0  0.97468127190E+03  0.94685549017E+03 -0.20759322953E+04  0.24811355859E+04  0.00000000000E+00 0. -1.
         -4    1    5    5    0  503  0.10128604992E+03  0.65768240500E+02 -0.18530720022E+03  0.22118563204E+03  0.00000000000E+00 0.  1.
         -1    1    6    6    0  502  0.12518754855E+01  0.45053189261E+01  0.50988518085E+01  0.69183365502E+01  0.00000000000E+00 0.  1.
<mgrwt>
<rscale>  0 0.47861351E+04</rscale>
<asrwt>0</asrwt>
<pdfrwt beam="1">  1        2 0.51373397E+00 0.47861351E+04</pdfrwt>
<pdfrwt beam="2">  1       -2 0.26384260E+00 0.47861351E+04</pdfrwt>
<totfact> 0.40971099E-02</totfact>
</mgrwt>
</event>
<event>
12    1  0.2019083E-007  0.2502653E+04  0.7818608E-02  0.8402041E-01
         -1   -1    0    0    0  501 -0.00000000000E+00  0.00000000000E+00  0.69406317071E+03  0.69406317071E+03  0.00000000000E+00 0.  1.
          1   -1    0    0  501    0  0.00000000000E+00 -0.00000000000E+00 -0.22560173453E+04  0.22560173453E+04  0.00000000000E+00 0. -1.
         23    2    1    2    0    0 -0.10289191964E+04  0.82662072088E+02 -0.10883029109E+04  0.15027454849E+04  0.91285463649E+02 0.  0.
        254    2    1    2    0    0  0.10289191964E+04 -0.82662072088E+02 -0.47365126373E+03  0.14473350311E+04  0.89717637160E+03 0.  0.
        -24    2    4    4    0    0  0.84007449073E+03 -0.24711613274E+02  0.85825173545E+02  0.84850270602E+03  0.79088987252E+02 0.  0.
         24    2    4    4    0    0  0.18884470563E+03 -0.57950458814E+02 -0.55947643727E+03  0.59883232506E+03  0.81028952546E+02 0.  0.
         13    1    3    3    0    0 -0.41809333520E+03  0.78549089377E+02 -0.45077717836E+03  0.61981615089E+03  0.00000000000E+00 0.  1.
        -13    1    3    3    0    0 -0.61082586116E+03  0.41129827108E+01 -0.63752573250E+03  0.88292933403E+03  0.00000000000E+00 0. -1.
          2    1    6    6  502    0  0.15548438974E+03 -0.78154200065E+02 -0.44058631108E+03  0.47370853059E+03  0.00000000000E+00 0. -1.
          1    1    5    5  503    0  0.74380300592E+03 -0.36138373924E+02  0.96761607433E+02  0.75094054516E+03  0.00000000000E+00 0. -1.
         -2    1    5    5    0  503  0.96271484804E+02  0.11426760649E+02 -0.10936433889E+02  0.97562160859E+02  0.00000000000E+00 0.  1.
         -1    1    6    6    0  502  0.33360315898E+02  0.20203741251E+02 -0.11889012619E+03  0.12512379447E+03  0.00000000000E+00 0.  1.
<mgrwt>
<rscale>  0 0.25026534E+04</rscale>
<asrwt>0</asrwt>
<pdfrwt beam="1">  1        1 0.34707959E+00 0.25026534E+04</pdfrwt>
<pdfrwt beam="2">  1       -1 0.10677895E+00 0.25026534E+04</pdfrwt>
<totfact> 0.14498687E+00</totfact>
</mgrwt>
</event>
<event>
12    1  0.2019083E-007  0.1901650E+04  0.7818608E-02  0.8654035E-01
          1   -1    0    0  501    0  0.00000000000E+00  0.00000000000E+00  0.71691689510E+03  0.71691689510E+03  0.00000000000E+00 0. -1.
         -1   -1    0    0    0  501 -0.00000000000E+00 -0.00000000000E+00 -0.12610503597E+04  0.12610503597E+04  0.00000000000E+00 0.  1.
         23    2    1    2    0    0 -0.39432419000E+03 -0.58830061294E+03 -0.20931098384E+01  0.71388488670E+03  0.89655297391E+02 0.  0.
        254    2    1    2    0    0  0.39432419000E+03  0.58830061294E+03 -0.54204035477E+03  0.12640823681E+04  0.89582772294E+03 0.  0.
        -24    2    4    4    0    0 -0.72679073365E+02 -0.96582394243E+02 -0.39242442148E+03  0.41788330777E+03  0.77583024912E+02 0.  0.
         24    2    4    4    0    0  0.46700326336E+03  0.68488300718E+03 -0.14961593329E+03  0.84619906035E+03  0.80691639751E+02 0.  0.
         11    1    3    3    0    0 -0.22723389077E+03 -0.26308151268E+03 -0.15879747947E+02  0.34799323244E+03  0.00000000000E+00 0.  1.
        -11    1    3    3    0    0 -0.16709029923E+03 -0.32521910025E+03  0.13786638108E+02  0.36589165426E+03  0.00000000000E+00 0. -1.
          4    1    6    6  502    0  0.24239306848E+03  0.42519271157E+03 -0.93926379923E+02  0.49836272580E+03  0.00000000000E+00 0. -1.
          3    1    5    5  503    0  0.37315708577E+01 -0.96205939365E+01 -0.18103762030E+01  0.10476540973E+02  0.00000000000E+00 0. -1.
         -4    1    5    5    0  503 -0.76410644222E+02 -0.86961800307E+02 -0.39061404528E+03  0.40740676680E+03  0.00000000000E+00 0.  1.
         -3    1    6    6    0  502  0.22461019488E+03  0.25969029561E+03 -0.55689553367E+02  0.34783633455E+03  0.00000000000E+00 0.  1.
<mgrwt>
<rscale>  0 0.19016501E+04</rscale>
<asrwt>0</asrwt>
<pdfrwt beam="1">  1        1 0.11029491E+00 0.19016501E+04</pdfrwt>
<pdfrwt beam="2">  1       -1 0.19400775E+00 0.19016501E+04</pdfrwt>
<totfact> 0.40695071E+00</totfact>
</mgrwt>
</event>
<event>
12    1  0.2019083E-007  0.2322318E+04  0.7818608E-02  0.8469173E-01
          1   -1    0    0  501    0  0.00000000000E+00  0.00000000000E+00  0.21812571225E+04  0.21812571225E+04  0.00000000000E+00 0. -1.
         -1   -1    0    0    0  501 -0.00000000000E+00 -0.00000000000E+00 -0.61812519927E+03  0.61812519927E+03  0.00000000000E+00 0.  1.
         23    2    1    2    0    0  0.84624626328E+03  0.19254852956E+03  0.12242038397E+04  0.15033673670E+04  0.90723342644E+02 0.  0.
        254    2    1    2    0    0 -0.84624626328E+03 -0.19254852956E+03  0.33892808362E+03  0.12960149548E+04  0.90087448781E+03 0.  0.
        -24    2    4    4    0    0  0.92873672386E+02  0.11380734870E+02 -0.16679607431E+03  0.20710963260E+03  0.79488548622E+02 0.  0.
         24    2    4    4    0    0 -0.93911993566E+03 -0.20392926443E+03  0.50572415793E+03  0.10889053222E+04  0.80152843286E+02 0.  0.
         11    1    3    3    0    0  0.28422085634E+03  0.10145508451E+03  0.46607622601E+03  0.55524920333E+03  0.00000000000E+00 0.  1.
        -11    1    3    3    0    0  0.56202540693E+03  0.91093445052E+02  0.75812761365E+03  0.94811816371E+03  0.00000000000E+00 0. -1.
          4    1    6    6  502    0 -0.16014125251E+03 -0.11461127911E+02  0.63004807755E+02  0.17247082075E+03  0.00000000000E+00 0. -1.
          3    1    5    5  503    0 -0.10777168195E+02  0.98971551931E+01 -0.44216908050E+02  0.46575057625E+02  0.00000000000E+00 0. -1.
         -4    1    5    5    0  503  0.10365084058E+03  0.14835796770E+01 -0.12257916626E+03  0.16053457498E+03  0.00000000000E+00 0.  1.
         -3    1    6    6    0  502 -0.77897868315E+03 -0.19246813652E+03  0.44271935018E+03  0.91643450142E+03  0.00000000000E+00 0.  1.
<mgrwt>
<rscale>  0 0.23223178E+04</rscale>
<asrwt>0</asrwt>
<pdfrwt beam="1">  1        1 0.33557802E+00 0.23223178E+04</pdfrwt>
<pdfrwt beam="2">  1       -1 0.95096186E-01 0.23223178E+04</pdfrwt>
<totfact> 0.21619019E+00</totfact>
</mgrwt>
</event>
<event>
12    1  0.2019083E-007  0.1485728E+04  0.7818608E-02  0.8894000E-01
         -1   -1    0    0    0  501 -0.00000000000E+00  0.00000000000E+00  0.56888439869E+03  0.56888439869E+03  0.00000000000E+00 0.  1.
          1   -1    0    0  501    0  0.00000000000E+00 -0.00000000000E+00 -0.97005047460E+03  0.97005047460E+03  0.00000000000E+00 0. -1.
         23    2    1    2    0    0 -0.24226268982E+03  0.17772560006E+03 -0.49325047008E+03  0.58467518727E+03  0.90947504546E+02 0.  0.
        254    2    1    2    0    0  0.24226268982E+03 -0.17772560006E+03  0.92084394174E+02  0.95425968602E+03  0.90102964042E+03 0.  0.
        -24    2    4    4    0    0  0.94602841805E+02  0.26128179613E+03  0.32074060843E+03  0.43161719392E+03  0.78746362011E+02 0.  0.
         24    2    4    4    0    0  0.14765984802E+03 -0.43900739618E+03 -0.22865621426E+03  0.52264249209E+03  0.79627794163E+02 0.  0.
         11    1    3    3    0    0 -0.11693964688E+03  0.49055651218E+02 -0.26873579017E+03  0.29715360144E+03  0.00000000000E+00 0. -1.
        -11    1    3    3    0    0 -0.12532304294E+03  0.12866994884E+03 -0.22451467991E+03  0.28752158584E+03  0.00000000000E+00 0.  1.
          2    1    6    6  502    0  0.12662651696E+03 -0.30933764261E+03 -0.19523675986E+03  0.38709358601E+03  0.00000000000E+00 0. -1.
          3    1    5    5  503    0  0.79589076469E+01  0.93134601065E+02  0.15031571350E+03  0.17700907279E+03  0.00000000000E+00 0. -1.
         -4    1    5    5    0  503  0.86643934159E+02  0.16814719506E+03  0.17042489493E+03  0.25460812113E+03  0.00000000000E+00 0.  1.
         -1    1    6    6    0  502  0.21033331058E+02 -0.12966975358E+03 -0.33419454399E+02  0.13554890608E+03  0.00000000000E+00 0.  1.
<mgrwt>
<rscale>  0 0.14857275E+04</rscale>
<asrwt>0</asrwt>
<pdfrwt beam="1">  1        1 0.14923853E+00 0.14857275E+04</pdfrwt>
<pdfrwt beam="2">  1       -1 0.87520677E-01 0.14857275E+04</pdfrwt>
<totfact> 0.19879905E+01</totfact>
</mgrwt>
</event>
<event>
12    1  0.2019083E-007  0.3101417E+04  0.7818608E-02  0.8215349E-01
          2   -1    0    0  501    0  0.00000000000E+00  0.00000000000E+00  0.17943819718E+04  0.17943819718E+04  0.00000000000E+00 0. -1.
         -2   -1    0    0    0  501 -0.00000000000E+00 -0.00000000000E+00 -0.13401250564E+04  0.13401250564E+04  0.00000000000E+00 0.  1.
         23    2    1    2    0    0 -0.67774941687E+03 -0.10801101727E+04 -0.41977678624E+03  0.13455042101E+04  0.90480782653E+02 0.  0.
        254    2    1    2    0    0  0.67774941687E+03  0.10801101727E+04  0.87403370168E+03  0.17890028181E+04  0.90034099893E+03 0.  0.
        -24    2    4    4    0    0  0.36035313992E+02 -0.23462879924E+02 -0.13107571584E+03  0.16226575701E+03  0.85441687869E+02 0.  0.
         24    2    4    4    0    0  0.64171410287E+03  0.11035730526E+04  0.10051094175E+04  0.16267370611E+04  0.79737397287E+02 0.  0.
         13    1    3    3    0    0 -0.18641662079E+03 -0.23923640132E+03 -0.12425531671E+03  0.32775691595E+03  0.00000000000E+00 0.  1.
        -13    1    3    3    0    0 -0.49133279608E+03 -0.84087377134E+03 -0.29552146953E+03  0.10177472942E+04  0.00000000000E+00 0. -1.
          2    1    6    6  502    0  0.33328544661E+03  0.50225819210E+03  0.49641278520E+03  0.78087651633E+03  0.00000000000E+00 0. -1.
          1    1    5    5  503    0 -0.75921060566E+01  0.27362417789E+02 -0.33559023179E+02  0.43960778182E+02  0.00000000000E+00 0. -1.
         -2    1    5    5    0  503  0.43627420048E+02 -0.50825297713E+02 -0.97516692661E+02  0.11830497883E+03  0.00000000000E+00 0.  1.
         -1    1    6    6    0  502  0.30842865627E+03  0.60131486048E+03  0.50869663232E+03  0.84586054475E+03  0.00000000000E+00 0.  1.
<mgrwt>
<rscale>  0 0.31014166E+04</rscale>
<asrwt>0</asrwt>
<pdfrwt beam="1">  1        2 0.27605876E+00 0.31014166E+04</pdfrwt>
<pdfrwt beam="2">  1       -2 0.20617309E+00 0.31014166E+04</pdfrwt>
<totfact> 0.89441335E-01</totfact>
</mgrwt>
</event>
<event>
12    1  0.2019083E-007  0.1602731E+04  0.7818608E-02  0.8818872E-01
          1   -1    0    0  501    0  0.00000000000E+00  0.00000000000E+00  0.16649217520E+04  0.16649217520E+04  0.00000000000E+00 0. -1.
         -1   -1    0    0    0  501 -0.00000000000E+00 -0.00000000000E+00 -0.38571586701E+03  0.38571586701E+03  0.00000000000E+00 0.  1.
         23    2    1    2    0    0 -0.38568149446E+03  0.36422235481E+03  0.27291573550E+03  0.60358635078E+03  0.91789679408E+02 0.  0.
        254    2    1    2    0    0  0.38568149446E+03 -0.36422235481E+03  0.10062901495E+04  0.14470512683E+04  0.89438770622E+03 0.  0.
        -24    2    4    4    0    0 -0.23390832396E+03 -0.32438317815E+03  0.31954189915E+03  0.51817601252E+03  0.80385349122E+02 0.  0.
         24    2    4    4    0    0  0.61958981843E+03 -0.39839176665E+02  0.68674825037E+03  0.92887525574E+03  0.75547192176E+02 0.  0.
         13    1    3    3    0    0 -0.32581732353E+03  0.27349773145E+03  0.24678777780E+03  0.49179481971E+03  0.00000000000E+00 0. -1.
        -13    1    3    3    0    0 -0.59864170937E+02  0.90724623361E+02  0.26127957704E+02  0.11179153107E+03  0.00000000000E+00 0.  1.
          2    1    6    6  502    0  0.17861887488E+03 -0.44995185155E+02  0.21438415339E+03  0.28264789823E+03  0.00000000000E+00 0. -1.
          1    1    5    5  503    0 -0.34062103829E+01 -0.11900960363E+02  0.34019074956E+02  0.36201278812E+02  0.00000000000E+00 0. -1.
         -2    1    5    5    0  503 -0.23050211358E+03 -0.31248221779E+03  0.28552282420E+03  0.48197473371E+03  0.00000000000E+00 0.  1.
         -1    1    6    6    0  502  0.44097094355E+03  0.51560084903E+01  0.47236409698E+03  0.64622735751E+03  0.00000000000E+00 0.  1.
<mgrwt>
<rscale>  0 0.16027311E+04</rscale>
<asrwt>0</asrwt>
<pdfrwt beam="1">  1        1 0.25614180E+00 0.16027311E+04</pdfrwt>
<pdfrwt beam="2">  1       -1 0.59340904E-01 0.16027311E+04</pdfrwt>
<totfact> 0.13909178E+01</totfact>
</mgrwt>
</event>
<event>
12    1  0.2019083E-007  0.1947574E+04  0.7818608E-02  0.8631531E-01
          2   -1    0    0  501    0  0.00000000000E+00  0.00000000000E+00  0.14649873175E+04  0.14649873175E+04  0.00000000000E+00 0. -1.
         -2   -1    0    0    0  501 -0.00000000000E+00 -0.00000000000E+00 -0.64728304344E+03  0.64728304344E+03  0.00000000000E+00 0.  1.
         23    2    1    2    0    0  0.16891161248E+03 -0.99990686823E+02  0.11283167102E+04  0.11488629253E+04  0.90874376365E+02 0.  0.
        254    2    1    2    0    0 -0.16891161248E+03  0.99990686823E+02 -0.31061243609E+03  0.96340743572E+03  0.89058662210E+03 0.  0.
        -24    2    4    4    0    0  0.36065678401E+03  0.46238037347E+02 -0.15244450517E+03  0.40235318532E+03  0.80233949343E+02 0.  0.
         24    2    4    4    0    0 -0.52956839649E+03  0.53752649475E+02 -0.15816793092E+03  0.56105425040E+03  0.80204386617E+02 0.  0.
         13    1    3    3    0    0 -0.46004168559E+01  0.11532905495E+00  0.22593374018E+01  0.51265721036E+01  0.00000000000E+00 0.  1.
        -13    1    3    3    0    0  0.17351202934E+03 -0.10010601588E+03  0.11260573728E+04  0.11437363532E+04  0.00000000000E+00 0. -1.
          2    1    6    6  502    0 -0.76229780218E+02 -0.67210829887E+01  0.17558566643E+01  0.76545642470E+02  0.00000000000E+00 0. -1.
          3    1    5    5  503    0  0.18757240311E+02 -0.11885351278E+02 -0.23555327937E+02  0.32372042156E+02  0.00000000000E+00 0. -1.
         -2    1    5    5    0  503  0.34189954370E+03  0.58123388625E+02 -0.12888917723E+03  0.36998114316E+03  0.00000000000E+00 0.  1.
         -1    1    6    6    0  502 -0.45333861628E+03  0.60473732464E+02 -0.15992378758E+03  0.48450860793E+03  0.00000000000E+00 0.  1.
<mgrwt>
<rscale>  0 0.19475743E+04</rscale>
<asrwt>0</asrwt>
<pdfrwt beam="1">  1        2 0.22538266E+00 0.19475743E+04</pdfrwt>
<pdfrwt beam="2">  1       -2 0.99582007E-01 0.19475743E+04</pdfrwt>
<totfact> 0.10343123E+01</totfact>
</mgrwt>
</event>
<event>
12    1  0.2019083E-007  0.4240574E+04  0.7818608E-02  0.7957699E-01
         -1   -1    0    0    0  501 -0.00000000000E+00  0.00000000000E+00  0.22369357273E+04  0.22369357273E+04  0.00000000000E+00 0.  1.
          1   -1    0    0  501    0  0.00000000000E+00 -0.00000000000E+00 -0.20097210634E+04  0.20097210634E+04  0.00000000000E+00 0. -1.
         23    2    1    2    0    0 -0.17952518405E+04  0.87953159655E+03  0.42047485493E+03  0.20449668148E+04  0.92656192231E+02 0.  0.
        254    2    1    2    0    0  0.17952518405E+04 -0.87953159655E+03 -0.19326019104E+03  0.22016899759E+04  0.90198905131E+03 0.  0.
        -24    2    4    4    0    0  0.13831891571E+03  0.13589969064E+03  0.10399344516E+03  0.23421632853E+03  0.80260846961E+02 0.  0.
         24    2    4    4    0    0  0.16569329247E+04 -0.10154312872E+04 -0.29725363620E+03  0.19674736474E+04  0.77880760466E+02 0.  0.
         13    1    3    3    0    0 -0.10838044911E+04  0.56420526652E+03  0.22215990188E+03  0.12418996657E+04  0.00000000000E+00 0.  1.
        -13    1    3    3    0    0 -0.71144734932E+03  0.31532633003E+03  0.19831495305E+03  0.80306714904E+03  0.00000000000E+00 0. -1.
          4    1    6    6  502    0  0.49284405962E+03 -0.32201358267E+03 -0.12194780697E+03  0.60121483860E+03  0.00000000000E+00 0. -1.
          3    1    5    5  503    0  0.19537756004E+02  0.21369726642E+02 -0.13207832152E+02  0.31825083764E+02  0.00000000000E+00 0. -1.
         -4    1    5    5    0  503  0.11878115971E+03  0.11452996400E+03  0.11720127731E+03  0.20239124477E+03  0.00000000000E+00 0.  1.
         -3    1    6    6    0  502  0.11640888651E+04 -0.69341770453E+03 -0.17530582922E+03  0.13662588088E+04  0.00000000000E+00 0.  1.
<mgrwt>
<rscale>  0 0.42405739E+04</rscale>
<asrwt>0</asrwt>
<pdfrwt beam="1">  1        1 0.30918786E+00 0.42405739E+04</pdfrwt>
<pdfrwt beam="2">  1       -1 0.34414396E+00 0.42405739E+04</pdfrwt>
<totfact> 0.38260146E-02</totfact>
</mgrwt>
</event>
<event>
12    1  0.2019083E-007  0.1893464E+04  0.7818608E-02  0.8658116E-01
         -2   -1    0    0    0  501 -0.00000000000E+00  0.00000000000E+00  0.37361527222E+03  0.37361527222E+03  0.00000000000E+00 0.  1.
          2   -1    0    0  501    0  0.00000000000E+00 -0.00000000000E+00 -0.23989965386E+04  0.23989965386E+04  0.00000000000E+00 0. -1.
         23    2    1    2    0    0 -0.49519011393E+03  0.18235690309E+03 -0.45396570053E+02  0.53726541506E+03  0.90144265546E+02 0.  0.
        254    2    1    2    0    0  0.49519011393E+03 -0.18235690309E+03 -0.19799846963E+04  0.22353463958E+04  0.89328988705E+03 0.  0.
        -24    2    4    4    0    0 -0.14249608011E+03 -0.10419243932E+02 -0.11954794028E+04  0.12068578515E+04  0.83193614897E+02 0.  0.
         24    2    4    4    0    0  0.63768619404E+03 -0.17193765916E+03 -0.78450529350E+03  0.10284885443E+04  0.78319151664E+02 0.  0.
         13    1    3    3    0    0 -0.31963268098E+03  0.13801502608E+03  0.87670852305E+01  0.34826722493E+03  0.00000000000E+00 0.  1.
        -13    1    3    3    0    0 -0.17555743295E+03  0.44341877004E+02 -0.54163655283E+02  0.18899819013E+03  0.00000000000E+00 0. -1.
          2    1    6    6  502    0  0.36775324932E+03 -0.85659058257E+02 -0.50392919517E+03  0.62970196156E+03  0.00000000000E+00 0. -1.
          1    1    5    5  503    0 -0.36864212299E+02  0.98465192260E+01 -0.63536873562E+03  0.63651343607E+03  0.00000000000E+00 0. -1.
         -2    1    5    5    0  503 -0.10563186781E+03 -0.20265763158E+02 -0.56011066721E+03  0.57034441540E+03  0.00000000000E+00 0.  1.
         -1    1    6    6    0  502  0.26993294472E+03 -0.86278600899E+02 -0.28057609833E+03  0.39878658274E+03  0.00000000000E+00 0.  1.
<mgrwt>
<rscale>  0 0.18934643E+04</rscale>
<asrwt>0</asrwt>
<pdfrwt beam="1">  1        2 0.36907638E+00 0.18934643E+04</pdfrwt>
<pdfrwt beam="2">  1       -2 0.57479274E-01 0.18934643E+04</pdfrwt>
<totfact> 0.10581729E+01</totfact>
</mgrwt>
</event>
<event>
12    1  0.2019083E-007  0.2627109E+04  0.7818608E-02  0.8359051E-01
         -2   -1    0    0    0  501 -0.00000000000E+00  0.00000000000E+00  0.10234525692E+04  0.10234525692E+04  0.00000000000E+00 0.  1.
          2   -1    0    0  501    0  0.00000000000E+00 -0.00000000000E+00 -0.16858872576E+04  0.16858872576E+04  0.00000000000E+00 0. -1.
         23    2    1    2    0    0  0.10020028931E+04  0.43162896004E+03 -0.68181197442E+03  0.12900564698E+04  0.95209085277E+02 0.  0.
        254    2    1    2    0    0 -0.10020028931E+04 -0.43162896004E+03  0.19377286058E+02  0.14192833569E+04  0.90756620198E+03 0.  0.
        -24    2    4    4    0    0 -0.16932366315E+03 -0.12208738594E+03 -0.38144390404E+03  0.44161139421E+03  0.77106023504E+02 0.  0.
         24    2    4    4    0    0 -0.83267923000E+03 -0.30954157410E+03  0.40082119009E+03  0.97767196270E+03  0.77550977151E+02 0.  0.
         13    1    3    3    0    0  0.62388622382E+03  0.30392149468E+03 -0.47083297691E+03  0.83862148038E+03  0.00000000000E+00 0. -1.
        -13    1    3    3    0    0  0.37811666933E+03  0.12770746536E+03 -0.21097899751E+03  0.45143498947E+03  0.00000000000E+00 0.  1.
          2    1    6    6  502    0 -0.76783014794E+03 -0.29397660999E+03  0.34888646731E+03  0.89314452940E+03  0.00000000000E+00 0. -1.
          1    1    5    5  503    0 -0.74727116948E+02 -0.31576920103E+02 -0.21533830205E+03  0.23011264247E+03  0.00000000000E+00 0. -1.
         -2    1    5    5    0  503 -0.94596546198E+02 -0.90510465841E+02 -0.16610560198E+03  0.21149875174E+03  0.00000000000E+00 0.  1.
         -1    1    6    6    0  502 -0.64849082058E+02 -0.15564964104E+02  0.51934722781E+02  0.84527433308E+02  0.00000000000E+00 0.  1.
<mgrwt>
<rscale>  0 0.26271092E+04</rscale>
<asrwt>0</asrwt>
<pdfrwt beam="1">  1        2 0.25936727E+00 0.26271092E+04</pdfrwt>
<pdfrwt beam="2">  1       -2 0.15745424E+00 0.26271092E+04</pdfrwt>
<totfact> 0.23193437E+00</totfact>
</mgrwt>
</event>
<event>
12    1  0.2019083E-007  0.4138987E+04  0.7818608E-02  0.7977081E-01
          2   -1    0    0  501    0  0.00000000000E+00  0.00000000000E+00  0.17263184633E+04  0.17263184633E+04  0.00000000000E+00 0.  1.
         -2   -1    0    0    0  501 -0.00000000000E+00 -0.00000000000E+00 -0.24808879816E+04  0.24808879816E+04  0.00000000000E+00 0. -1.
         23    2    1    2    0    0 -0.14183949180E+03 -0.19529416648E+04 -0.58566193611E+03  0.20458066728E+04  0.90694274992E+02 0.  0.
        254    2    1    2    0    0  0.14183949180E+03  0.19529416648E+04 -0.16890758223E+03  0.21613997721E+04  0.89945517722E+03 0.  0.
        -24    2    4    4    0    0 -0.33599728626E+03  0.11379984964E+04  0.43237147442E+02  0.11899400174E+04  0.78441313913E+02 0.  0.
         24    2    4    4    0    0  0.47783677806E+03  0.81494316837E+03 -0.21214472967E+03  0.97145975471E+03  0.79172688278E+02 0.  0.
         11    1    3    3    0    0  0.10487064792E+02 -0.24480049167E+03 -0.83865276678E+02  0.25898000672E+03  0.00000000000E+00 0. -1.
        -11    1    3    3    0    0 -0.15232655659E+03 -0.17081411731E+04 -0.50179665943E+03  0.17868266661E+04  0.00000000000E+00 0.  1.
          2    1    6    6  502    0  0.38379975430E+03  0.61148545373E+03 -0.13535565402E+03  0.73453241222E+03  0.00000000000E+00 0. -1.
          1    1    5    5  503    0 -0.31228832246E+03  0.99795242675E+03  0.57067052623E+02  0.10472295311E+04  0.00000000000E+00 0. -1.
         -2    1    5    5    0  503 -0.23708963801E+02  0.14004606968E+03 -0.13829905181E+02  0.14271048621E+03  0.00000000000E+00 0.  1.
         -1    1    6    6    0  502  0.94037023755E+02  0.20345771464E+03 -0.76789075650E+02  0.23692734250E+03  0.00000000000E+00 0.  1.
<mgrwt>
<rscale>  0 0.41389867E+04</rscale>
<asrwt>0</asrwt>
<pdfrwt beam="1">  1        2 0.26558745E+00 0.41389867E+04</pdfrwt>
<pdfrwt beam="2">  1       -2 0.38167508E+00 0.41389867E+04</pdfrwt>
<totfact> 0.72211557E-02</totfact>
</mgrwt>
</event>
<event>
12    1  0.2019083E-007  0.2693021E+04  0.7818608E-02  0.8337273E-01
          1   -1    0    0  501    0  0.00000000000E+00  0.00000000000E+00  0.17109853316E+04  0.17109853316E+04  0.00000000000E+00 0. -1.
         -1   -1    0    0    0  501 -0.00000000000E+00 -0.00000000000E+00 -0.10596761022E+04  0.10596761022E+04  0.00000000000E+00 0.  1.
         23    2    1    2    0    0 -0.80247185839E+03  0.86757888869E+03  0.45949089625E+03  0.12712470401E+04  0.91010668172E+02 0.  0.
        254    2    1    2    0    0  0.80247185839E+03 -0.86757888869E+03  0.19181833313E+03  0.14994143936E+04  0.90265997987E+03 0.  0.
        -24    2    4    4    0    0  0.11474947062E+03 -0.31476396237E+02  0.37264345990E+03  0.39897800549E+03  0.78499019931E+02 0.  0.
         24    2    4    4    0    0  0.68772238777E+03 -0.83610249245E+03 -0.18082512677E+03  0.11004363881E+04  0.78949713937E+02 0.  0.
         11    1    3    3    0    0 -0.76893327393E+03  0.81660560528E+03  0.45376711663E+03  0.12099618550E+04  0.00000000000E+00 0. -1.
        -11    1    3    3    0    0 -0.33538584461E+02  0.50973283415E+02  0.57237796248E+01  0.61285185183E+02  0.00000000000E+00 0.  1.
          4    1    6    6  502    0  0.63349646690E+03 -0.74208471765E+03 -0.14678037783E+03  0.98668737757E+03  0.00000000000E+00 0. -1.
          3    1    5    5  503    0  0.10708780635E+03 -0.39867081518E+02  0.37009427763E+03  0.38733313412E+03  0.00000000000E+00 0. -1.
         -4    1    5    5    0  503  0.76616642697E+01  0.83906852804E+01  0.25491822726E+01  0.11644871365E+02  0.00000000000E+00 0.  1.
         -3    1    6    6    0  502  0.54225920870E+02 -0.94017774808E+02 -0.34044748943E+02  0.11374901057E+03  0.00000000000E+00 0.  1.
<mgrwt>
<rscale>  0 0.26930208E+04</rscale>
<asrwt>0</asrwt>
<pdfrwt beam="1">  1        1 0.26322851E+00 0.26930208E+04</pdfrwt>
<pdfrwt beam="2">  1       -1 0.16302709E+00 0.26930208E+04</pdfrwt>
<totfact> 0.11347520E+00</totfact>
</mgrwt>
</event>
<event>
12    1  0.2019083E-007  0.2028160E+04  0.7818608E-02  0.8593567E-01
         -1   -1    0    0    0  501 -0.00000000000E+00  0.00000000000E+00  0.10980648433E+04  0.10980648433E+04  0.00000000000E+00 0.  1.
          1   -1    0    0  501    0  0.00000000000E+00 -0.00000000000E+00 -0.93651913505E+03  0.93651913505E+03  0.00000000000E+00 0. -1.
         23    2    1    2    0    0 -0.17379096743E+03 -0.67274450909E+03 -0.35491087944E+03  0.78563081602E+03  0.92008542298E+02 0.  0.
        254    2    1    2    0    0  0.17379096743E+03  0.67274450909E+03  0.51645658772E+03  0.12489531624E+04  0.90020448783E+03 0.  0.
        -24    2    4    4    0    0 -0.21888210125E+02  0.74207016890E+03  0.65027991231E+03  0.99002501668E+03  0.78347558858E+02 0.  0.
         24    2    4    4    0    0  0.19567917756E+03 -0.69325659809E+02 -0.13382332459E+03  0.25892814569E+03  0.77709167980E+02 0.  0.
         13    1    3    3    0    0 -0.17185893308E+03 -0.54871084999E+03 -0.31317024184E+03  0.65474780652E+03  0.00000000000E+00 0. -1.
        -13    1    3    3    0    0 -0.19320343589E+01 -0.12403365910E+03 -0.41740637609E+02  0.13088300950E+03  0.00000000000E+00 0.  1.
          2    1    6    6  502    0  0.65503964551E+02 -0.62595184681E+02 -0.44750979219E+02  0.10105234613E+03  0.00000000000E+00 0. -1.
          3    1    5    5  503    0 -0.19876895520E+01  0.90289955404E+02  0.47612313699E+02  0.10209387529E+03  0.00000000000E+00 0. -1.
         -4    1    5    5    0  503 -0.19900520573E+02  0.65178021350E+03  0.60266759861E+03  0.88793114139E+03  0.00000000000E+00 0.  1.
         -1    1    6    6    0  502  0.13017521301E+03 -0.67304751278E+01 -0.89072345372E+02  0.15787579956E+03  0.00000000000E+00 0.  1.
<mgrwt>
<rscale>  0 0.20281605E+04</rscale>
<asrwt>0</asrwt>
<pdfrwt beam="1">  1        1 0.14407987E+00 0.20281605E+04</pdfrwt>
<pdfrwt beam="2">  1       -1 0.16893305E+00 0.20281605E+04</pdfrwt>
<totfact> 0.39402885E+00</totfact>
</mgrwt>
</event>
<event>
12    1  0.2019083E-007  0.2155679E+04  0.7818608E-02  0.8537105E-01
          2   -1    0    0  501    0  0.00000000000E+00  0.00000000000E+00  0.15412742277E+04  0.15412742277E+04  0.00000000000E+00 0. -1.
         -2   -1    0    0    0  501 -0.00000000000E+00 -0.00000000000E+00 -0.75375195136E+03  0.75375195136E+03  0.00000000000E+00 0.  1.
         23    2    1    2    0    0 -0.88323943570E+03 -0.94790080495E+02  0.32436262637E+03  0.94988681401E+03  0.89312854103E+02 0.  0.
        254    2    1    2    0    0  0.88323943570E+03  0.94790080495E+02  0.46315965000E+03  0.13451393651E+04  0.89765583044E+03 0.  0.
        -24    2    4    4    0    0  0.87824755712E+03 -0.11086751331E+03  0.61010137560E+03  0.10780338501E+04  0.79516767825E+02 0.  0.
         24    2    4    4    0    0  0.49918785820E+01  0.20565759381E+03 -0.14694172559E+03  0.26710551497E+03  0.86217867426E+02 0.  0.
         13    1    3    3    0    0 -0.56347490761E+03 -0.21002775378E+02  0.22381180622E+03  0.60666037672E+03  0.00000000000E+00 0.  1.
        -13    1    3    3    0    0 -0.31976452810E+03 -0.73787305117E+02  0.10055082015E+03  0.34322643729E+03  0.00000000000E+00 0. -1.
          2    1    6    6  502    0  0.15213647929E+02  0.63761712615E+02 -0.95487899793E+02  0.11582292556E+03  0.00000000000E+00 0. -1.
          3    1    5    5  503    0  0.29138162124E+02  0.27217702385E+01  0.62415878686E+01  0.29923200770E+02  0.00000000000E+00 0. -1.
         -4    1    5    5    0  503  0.84910939500E+03 -0.11358928355E+03  0.60385978773E+03  0.10481106493E+04  0.00000000000E+00 0.  1.
         -1    1    6    6    0  502 -0.10221769347E+02  0.14189588119E+03 -0.51453825802E+02  0.15128258941E+03  0.00000000000E+00 0.  1.
<mgrwt>
<rscale>  0 0.21556794E+04</rscale>
<asrwt>0</asrwt>
<pdfrwt beam="1">  1        2 0.23711911E+00 0.21556794E+04</pdfrwt>
<pdfrwt beam="2">  1       -2 0.11596184E+00 0.21556794E+04</pdfrwt>
<totfact> 0.63777588E+00</totfact>
</mgrwt>
</event>
<event>
12    1  0.2019083E-007  0.1136676E+04  0.7818608E-02  0.9170164E-01
          2   -1    0    0  501    0  0.00000000000E+00  0.00000000000E+00  0.41784289451E+04  0.41784289451E+04  0.00000000000E+00 0. -1.
         -2   -1    0    0    0  501 -0.00000000000E+00 -0.00000000000E+00 -0.77303747934E+02  0.77303747934E+02  0.00000000000E+00 0.  1.
         23    2    1    2    0    0 -0.10471419761E+03  0.14548064533E+03  0.11134506157E+04  0.11314496060E+04  0.90973930272E+02 0.  0.
        254    2    1    2    0    0  0.10471419761E+03 -0.14548064533E+03  0.29876745814E+04  0.31242830870E+04  0.89599984474E+03 0.  0.
        -24    2    4    4    0    0 -0.37534290784E+03 -0.17688155191E+03  0.12588264501E+04  0.13279364407E+04  0.81251321666E+02 0.  0.
         24    2    4    4    0    0  0.48005710545E+03  0.31400906572E+02  0.17288481314E+04  0.17963466463E+04  0.80650920002E+02 0.  0.
         13    1    3    3    0    0 -0.41342773083E+02  0.14294269217E+01  0.16981742475E+03  0.17478336848E+03  0.00000000000E+00 0.  1.
        -13    1    3    3    0    0 -0.63371424529E+02  0.14405121841E+03  0.94363319094E+03  0.95666623752E+03  0.00000000000E+00 0. -1.
          2    1    6    6  502    0  0.39180291798E+03  0.34233428675E+02  0.12866224459E+04  0.13453916799E+04  0.00000000000E+00 0. -1.
          1    1    5    5  503    0 -0.27440019560E+03 -0.91266319232E+02  0.90996152629E+03  0.95480625662E+03  0.00000000000E+00 0. -1.
         -2    1    5    5    0  503 -0.10094271224E+03 -0.85615232674E+02  0.34886492378E+03  0.37313018407E+03  0.00000000000E+00 0.  1.
         -1    1    6    6    0  502  0.88254187476E+02 -0.28325221035E+01  0.44222568548E+03  0.45095496636E+03  0.00000000000E+00 0.  1.
<mgrwt>
<rscale>  0 0.11366762E+04</rscale>
<asrwt>0</asrwt>
<pdfrwt beam="1">  1        2 0.64283505E+00 0.11366762E+04</pdfrwt>
<pdfrwt beam="2">  1       -2 0.11892888E-01 0.11366762E+04</pdfrwt>
<totfact> 0.13107565E+01</totfact>
</mgrwt>
</event>
<event>
12    1  0.2019083E-007  0.2694865E+04  0.7818608E-02  0.8336673E-01
         -1   -1    0    0    0  501 -0.00000000000E+00  0.00000000000E+00  0.79969509634E+03  0.79969509634E+03  0.00000000000E+00 0.  1.
          1   -1    0    0  501    0  0.00000000000E+00 -0.00000000000E+00 -0.22703339698E+04  0.22703339698E+04  0.00000000000E+00 0. -1.
         23    2    1    2    0    0 -0.50454377460E+02  0.41651044832E+03 -0.19288575530E+04  0.19758622952E+04  0.86681901376E+02 0.  0.
        254    2    1    2    0    0  0.50454377460E+02 -0.41651044832E+03  0.45821867956E+03  0.10941667709E+04  0.90067195280E+03 0.  0.
        -24    2    4    4    0    0 -0.35544709898E+03 -0.44642200430E+03  0.23844871591E+03  0.62482158999E+03  0.88932463725E+02 0.  0.
         24    2    4    4    0    0  0.40590147644E+03  0.29911555979E+02  0.21976996365E+03  0.46934518094E+03  0.79594925684E+02 0.  0.
         13    1    3    3    0    0 -0.18203726497E+01  0.21998394679E+03 -0.11675696464E+04  0.11881141064E+04  0.00000000000E+00 0. -1.
        -13    1    3    3    0    0 -0.48634004810E+02  0.19652650153E+03 -0.76128790663E+03  0.78774818883E+03  0.00000000000E+00 0.  1.
          2    1    6    6  502    0  0.28685755913E+02 -0.18725871271E+02  0.21279036700E+02  0.40327760291E+02  0.00000000000E+00 0. -1.
          3    1    5    5  503    0 -0.52933673783E+02 -0.11223943762E+03  0.76837643378E+02  0.14595783164E+03  0.00000000000E+00 0. -1.
         -4    1    5    5    0  503 -0.30251342520E+03 -0.33418256668E+03  0.16161107253E+03  0.47886375835E+03  0.00000000000E+00 0.  1.
         -1    1    6    6    0  502  0.37721572053E+03  0.48637427249E+02  0.19849092695E+03  0.42901742065E+03  0.00000000000E+00 0.  1.
<mgrwt>
<rscale>  0 0.26948654E+04</rscale>
<asrwt>0</asrwt>
<pdfrwt beam="1">  1        1 0.34928214E+00 0.26948654E+04</pdfrwt>
<pdfrwt beam="2">  1       -1 0.12303002E+00 0.26948654E+04</pdfrwt>
<totfact> 0.99150294E-01</totfact>
</mgrwt>
</event>
<event>
12    1  0.2019083E-007  0.1738238E+04  0.7818608E-02  0.8739851E-01
         -1   -1    0    0    0  501 -0.00000000000E+00  0.00000000000E+00  0.13787857576E+04  0.13787857576E+04  0.00000000000E+00 0.  1.
          1   -1    0    0  501    0  0.00000000000E+00 -0.00000000000E+00 -0.54785032993E+03  0.54785032993E+03  0.00000000000E+00 0. -1.
         23    2    1    2    0    0  0.20496027647E+03 -0.47147543414E+03  0.71355749753E+03  0.88412105808E+03  0.90597699406E+02 0.  0.
        254    2    1    2    0    0 -0.20496027647E+03  0.47147543414E+03  0.11737793013E+03  0.10425150294E+04  0.89931207497E+03 0.  0.
        -24    2    4    4    0    0  0.22490552581E+03  0.44719833815E+01 -0.21557736391E+03  0.32135668859E+03  0.78702142904E+02 0.  0.
         24    2    4    4    0    0 -0.42986580228E+03  0.46700345076E+03  0.33295529404E+03  0.72115834085E+03  0.79581993896E+02 0.  0.
         11    1    3    3    0    0  0.15911936537E+03 -0.41140108657E+03  0.64912553303E+03  0.78481449024E+03  0.00000000000E+00 0.  1.
        -11    1    3    3    0    0  0.45840911105E+02 -0.60074347569E+02  0.64431964501E+02  0.99306567841E+02  0.00000000000E+00 0. -1.
          4    1    6    6  502    0 -0.32131098510E+03  0.36259717172E+03  0.28957370745E+03  0.56442040195E+03  0.00000000000E+00 0. -1.
          3    1    5    5  503    0  0.20845168878E+03 -0.48108224264E+01 -0.16049101166E+03  0.26312091402E+03  0.00000000000E+00 0. -1.
         -4    1    5    5    0  503  0.16453837026E+02  0.92828058079E+01 -0.55086352242E+02  0.58235774571E+02  0.00000000000E+00 0.  1.
         -3    1    6    6    0  502 -0.10855481718E+03  0.10440627903E+03  0.43381586585E+02  0.15673793890E+03  0.00000000000E+00 0.  1.
<mgrwt>
<rscale>  0 0.17382385E+04</rscale>
<asrwt>0</asrwt>
<pdfrwt beam="1">  1        1 0.84284667E-01 0.17382385E+04</pdfrwt>
<pdfrwt beam="2">  1       -1 0.21212088E+00 0.17382385E+04</pdfrwt>
<totfact> 0.46008092E+00</totfact>
</mgrwt>
</event>
<event>
12    1  0.2019083E-007  0.2110234E+04  0.7818608E-02  0.8556749E-01
         -2   -1    0    0    0  501 -0.00000000000E+00  0.00000000000E+00  0.38056386845E+03  0.38056386845E+03  0.00000000000E+00 0.  1.
          2   -1    0    0  501    0  0.00000000000E+00 -0.00000000000E+00 -0.29253218746E+04  0.29253218746E+04  0.00000000000E+00 0. -1.
         23    2    1    2    0    0 -0.31321256802E+03  0.55775019420E+03 -0.19590360582E+04  0.20628195688E+04  0.90636108747E+02 0.  0.
        254    2    1    2    0    0  0.31321256802E+03 -0.55775019420E+03 -0.58572194789E+03  0.12430661742E+04  0.89048072483E+03 0.  0.
        -24    2    4    4    0    0  0.48514415388E+03 -0.52066165672E+03 -0.71402197528E+03  0.10110423996E+04  0.76980138548E+02 0.  0.
         24    2    4    4    0    0 -0.17193158586E+03 -0.37088537479E+02  0.12830002740E+03  0.23202377462E+03  0.80237803615E+02 0.  0.
         13    1    3    3    0    0 -0.20579575347E+03  0.27416216033E+03 -0.10338760019E+04  0.10892274187E+04  0.00000000000E+00 0. -1.
        -13    1    3    3    0    0 -0.10741681455E+03  0.28358803387E+03 -0.92516005631E+03  0.97359215013E+03  0.00000000000E+00 0.  1.
          2    1    6    6  502    0 -0.17297321172E+03 -0.17955123793E+02  0.11182586107E+03  0.20675381894E+03  0.00000000000E+00 0. -1.
          1    1    5    5  503    0  0.35856349922E+03 -0.33302210743E+03 -0.49623483591E+03  0.69693652464E+03  0.00000000000E+00 0. -1.
         -2    1    5    5    0  503  0.12658065466E+03 -0.18763954929E+03 -0.21778713938E+03  0.31410587494E+03  0.00000000000E+00 0.  1.
         -1    1    6    6    0  502  0.10416258581E+01 -0.19133413686E+02  0.16474166329E+02  0.25269955678E+02  0.00000000000E+00 0.  1.
<mgrwt>
<rscale>  0 0.21102339E+04</rscale>
<asrwt>0</asrwt>
<pdfrwt beam="1">  1        2 0.45004952E+00 0.21102339E+04</pdfrwt>
<pdfrwt beam="2">  1       -2 0.58548287E-01 0.21102339E+04</pdfrwt>
<totfact> 0.48741182E+00</totfact>
</mgrwt>
</event>
<event>
12    1  0.2019083E-007  0.2434173E+04  0.7818608E-02  0.8426820E-01
          1   -1    0    0  501    0  0.00000000000E+00  0.00000000000E+00  0.15272708709E+04  0.15272708709E+04  0.00000000000E+00 0. -1.
         -1   -1    0    0    0  501 -0.00000000000E+00 -0.00000000000E+00 -0.96989948181E+03  0.96989948181E+03  0.00000000000E+00 0.  1.
         23    2    1    2    0    0 -0.75759757957E+03 -0.66960616012E+03 -0.45732866755E+02  0.10161616165E+04  0.90368321160E+02 0.  0.
        254    2    1    2    0    0  0.75759757957E+03  0.66960616012E+03  0.60310425590E+03  0.14810087363E+04  0.89851301115E+03 0.  0.
        -24    2    4    4    0    0  0.13661434082E+03  0.28844371570E+03  0.66838279017E+03  0.74507885809E+03  0.80893110530E+02 0.  0.
         24    2    4    4    0    0  0.62098323875E+03  0.38116244442E+03 -0.65278534274E+02  0.73592987819E+03  0.80165495832E+02 0.  0.
         11    1    3    3    0    0 -0.71204927106E+03 -0.63628202611E+03 -0.22651117283E+02  0.95518692112E+03  0.00000000000E+00 0. -1.
        -11    1    3    3    0    0 -0.45548308514E+02 -0.33324134011E+02 -0.23081749472E+02  0.60974695365E+02  0.00000000000E+00 0.  1.
          4    1    6    6  502    0  0.49626172858E+03  0.32735401455E+03 -0.28419418365E+02  0.59518401981E+03  0.00000000000E+00 0. -1.
          3    1    5    5  503    0  0.83842626867E+02  0.94491339526E+02  0.29799224546E+03  0.32366275300E+03  0.00000000000E+00 0. -1.
         -4    1    5    5    0  503  0.52771713951E+02  0.19395237618E+03  0.37039054470E+03  0.42141610508E+03  0.00000000000E+00 0.  1.
         -3    1    6    6    0  502  0.12472151018E+03  0.53808429871E+02 -0.36859115910E+02  0.14074585838E+03  0.00000000000E+00 0.  1.
<mgrwt>
<rscale>  0 0.24341727E+04</rscale>
<asrwt>0</asrwt>
<pdfrwt beam="1">  1        1 0.23496475E+00 0.24341727E+04</pdfrwt>
<pdfrwt beam="2">  1       -1 0.14921531E+00 0.24341727E+04</pdfrwt>
<totfact> 0.19803148E+00</totfact>
</mgrwt>
</event>
<event>
12    1  0.2019083E-007  0.3370672E+04  0.7818608E-02  0.8145142E-01
         -2   -1    0    0    0  501 -0.00000000000E+00  0.00000000000E+00  0.17477284905E+04  0.17477284905E+04  0.00000000000E+00 0.  1.
          2   -1    0    0  501    0  0.00000000000E+00 -0.00000000000E+00 -0.16251706782E+04  0.16251706782E+04  0.00000000000E+00 0. -1.
         23    2    1    2    0    0  0.44393283545E+03  0.75684661127E+03 -0.12382164327E+04  0.15203160615E+04  0.91037558978E+02 0.  0.
        254    2    1    2    0    0 -0.44393283545E+03 -0.75684661127E+03  0.13607742450E+04  0.18525831072E+04  0.90025800075E+03 0.  0.
        -24    2    4    4    0    0 -0.34502586420E+03 -0.94574530688E+03  0.12256634719E+04  0.15881156491E+04  0.79895782527E+02 0.  0.
         24    2    4    4    0    0 -0.98906971244E+02  0.18889869560E+03  0.13511077312E+03  0.26446745815E+03  0.78884784636E+02 0.  0.
         13    1    3    3    0    0  0.36360166373E+03  0.59675670874E+03 -0.10421624228E+04  0.12547618319E+04  0.00000000000E+00 0. -1.
        -13    1    3    3    0    0  0.80331171715E+02  0.16008990254E+03 -0.19605400994E+03  0.26555422960E+03  0.00000000000E+00 0.  1.
          2    1    6    6  502    0 -0.71595980268E+02  0.17258138210E+03  0.85369372258E+02  0.20542212042E+03  0.00000000000E+00 0. -1.
          1    1    5    5  503    0 -0.28132175426E+03 -0.76233256707E+03  0.93751037393E+03  0.12406524789E+04  0.00000000000E+00 0. -1.
         -2    1    5    5    0  503 -0.63704109938E+02 -0.18341273981E+03  0.28815309797E+03  0.34746317016E+03  0.00000000000E+00 0.  1.
         -1    1    6    6    0  502 -0.27310990977E+02  0.16317313502E+02  0.49741400863E+02  0.59045337732E+02  0.00000000000E+00 0.  1.
<mgrwt>
<rscale>  0 0.33706718E+04</rscale>
<asrwt>0</asrwt>
<pdfrwt beam="1">  1        2 0.25002626E+00 0.33706718E+04</pdfrwt>
<pdfrwt beam="2">  1       -2 0.26888131E+00 0.33706718E+04</pdfrwt>
<totfact> 0.44141284E-01</totfact>
</mgrwt>
</event>
<event>
12    1  0.2019083E-007  0.1644808E+04  0.7818608E-02  0.8793484E-01
         -2   -1    0    0    0  501 -0.00000000000E+00  0.00000000000E+00  0.42866147616E+03  0.42866147616E+03  0.00000000000E+00 0. -1.
          2   -1    0    0  501    0  0.00000000000E+00 -0.00000000000E+00 -0.15778147180E+04  0.15778147180E+04  0.00000000000E+00 0.  1.
         23    2    1    2    0    0  0.42428675963E+03  0.34452337854E+03 -0.20211021728E+03  0.58912666020E+03  0.86637573129E+02 0.  0.
        254    2    1    2    0    0 -0.42428675963E+03 -0.34452337854E+03 -0.94704302458E+03  0.14173495340E+04  0.90181683190E+03 0.  0.
        -24    2    4    4    0    0 -0.31273177969E+03  0.16541817698E+03 -0.78564721718E+03  0.86504210382E+03  0.76759052978E+02 0.  0.
         24    2    4    4    0    0 -0.11155497994E+03 -0.50994155551E+03 -0.16139580739E+03  0.55230743016E+03  0.80684491518E+02 0.  0.
         13    1    3    3    0    0  0.80271993561E+02  0.83226644786E+02 -0.91459911664E+01  0.11599101908E+03  0.00000000000E+00 0. -1.
        -13    1    3    3    0    0  0.34401476607E+03  0.26129673375E+03 -0.19296422611E+03  0.47313564112E+03  0.00000000000E+00 0.  1.
          4    1    6    6  502    0 -0.11902958216E+03 -0.39399571865E+03 -0.13502753394E+03  0.43316636834E+03  0.00000000000E+00 0. -1.
          3    1    5    5  503    0 -0.19024281078E+03  0.13862816793E+03 -0.47772167021E+03  0.53256745130E+03  0.00000000000E+00 0. -1.
         -4    1    5    5    0  503 -0.12248896890E+03  0.26790009043E+02 -0.30792554698E+03  0.33247465252E+03  0.00000000000E+00 0.  1.
         -3    1    6    6    0  502  0.74746022168E+01 -0.11594583687E+03 -0.26368273450E+02  0.11914106181E+03  0.00000000000E+00 0.  1.
<mgrwt>
<rscale>  0 0.16448081E+04</rscale>
<asrwt>0</asrwt>
<pdfrwt beam="1">  1        2 0.24274073E+00 0.16448081E+04</pdfrwt>
<pdfrwt beam="2">  1       -2 0.65947919E-01 0.16448081E+04</pdfrwt>
<totfact> 0.23203852E+01</totfact>
</mgrwt>
</event>
<event>
12    1  0.2019083E-007  0.1450440E+04  0.7818608E-02  0.8918096E-01
          1   -1    0    0  501    0  0.00000000000E+00  0.00000000000E+00  0.12109406609E+04  0.12109406609E+04  0.00000000000E+00 0. -1.
         -1   -1    0    0    0  501 -0.00000000000E+00 -0.00000000000E+00 -0.43432674295E+03  0.43432674295E+03  0.00000000000E+00 0.  1.
         23    2    1    2    0    0  0.22410907199E+03 -0.24577910857E+03  0.56220705892E+03  0.65944734667E+03  0.90342567858E+02 0.  0.
        254    2    1    2    0    0 -0.22410907199E+03  0.24577910857E+03  0.21440685901E+03  0.98582005717E+03  0.90290566372E+03 0.  0.
        -24    2    4    4    0    0 -0.49201353868E+03  0.26066609551E+03 -0.93960739184E+02  0.56898653840E+03  0.69949444439E+02 0.  0.
         24    2    4    4    0    0  0.26790446670E+03 -0.14886986940E+02  0.30836759819E+03  0.41683351877E+03  0.81640560394E+02 0.  0.
         11    1    3    3    0    0  0.53429389336E+01 -0.49826848591E+02  0.66477881909E+02  0.83250048769E+02  0.00000000000E+00 0.  1.
        -11    1    3    3    0    0  0.21876613305E+03 -0.19595225998E+03  0.49572917701E+03  0.57619729790E+03  0.00000000000E+00 0. -1.
          2    1    6    6  502    0 -0.50339516688E+01 -0.16597341870E+01  0.71609504755E+00  0.53486614300E+01  0.00000000000E+00 0. -1.
          3    1    5    5  503    0 -0.61933863502E+02  0.48465188153E+02 -0.33978510838E+02  0.85669230823E+02  0.00000000000E+00 0. -1.
         -4    1    5    5    0  503 -0.43007967518E+03  0.21220090736E+03 -0.59982228347E+02  0.48331730758E+03  0.00000000000E+00 0.  1.
         -1    1    6    6    0  502  0.27293841836E+03 -0.13227252753E+02  0.30765150315E+03  0.41148485734E+03  0.00000000000E+00 0.  1.
<mgrwt>
<rscale>  0 0.14504398E+04</rscale>
<asrwt>0</asrwt>
<pdfrwt beam="1">  1        1 0.18629856E+00 0.14504398E+04</pdfrwt>
<pdfrwt beam="2">  1       -1 0.66819499E-01 0.14504398E+04</pdfrwt>
<totfact> 0.23119258E+01</totfact>
</mgrwt>
</event>
<event>
12    1  0.2019083E-007  0.2249108E+04  0.7818608E-02  0.8498262E-01
         -2   -1    0    0    0  501 -0.00000000000E+00  0.00000000000E+00  0.15020382642E+04  0.15020382642E+04  0.00000000000E+00 0. -1.
          2   -1    0    0  501    0  0.00000000000E+00 -0.00000000000E+00 -0.84193700472E+03  0.84193700472E+03  0.00000000000E+00 0.  1.
         23    2    1    2    0    0  0.14999995133E+03 -0.19515337594E+03 -0.67010139926E+03  0.71938247741E+03  0.88828137350E+02 0.  0.
        254    2    1    2    0    0 -0.14999995133E+03  0.19515337594E+03  0.13302026588E+04  0.16245927915E+04  0.89959868797E+03 0.  0.
        -24    2    4    4    0    0 -0.41111889355E+03 -0.10644814594E+03  0.32636554558E+03  0.54154773496E+03  0.80059524657E+02 0.  0.
         24    2    4    4    0    0  0.26111894222E+03  0.30160152188E+03  0.10038371132E+04  0.10830450566E+04  0.78428724271E+02 0.  0.
         13    1    3    3    0    0  0.71534122177E+02 -0.11370479515E+03 -0.47744174447E+03  0.49598037303E+03  0.00000000000E+00 0.  1.
        -13    1    3    3    0    0  0.78465829155E+02 -0.81448580792E+02 -0.19265965479E+03  0.22340210438E+03  0.00000000000E+00 0. -1.
          2    1    6    6  502    0  0.15955045803E+03  0.20798053960E+03  0.56215762795E+03  0.62026885475E+03  0.00000000000E+00 0. -1.
          3    1    5    5  503    0 -0.24881904700E+03 -0.46131531910E+02  0.23695535221E+03  0.34667978789E+03  0.00000000000E+00 0. -1.
         -4    1    5    5    0  503 -0.16229984655E+03 -0.60316614033E+02  0.89410193370E+02  0.19486794707E+03  0.00000000000E+00 0.  1.
         -1    1    6    6    0  502  0.10156848418E+03  0.93620982279E+02  0.44167948524E+03  0.46277620183E+03  0.00000000000E+00 0.  1.
<mgrwt>
<rscale>  0 0.22491079E+04</rscale>
<asrwt>0</asrwt>
<pdfrwt beam="1">  1        2 0.12952877E+00 0.22491079E+04</pdfrwt>
<pdfrwt beam="2">  1       -2 0.23108281E+00 0.22491079E+04</pdfrwt>
<totfact> 0.24632831E+00</totfact>
</mgrwt>
</event>
<event>
12    1  0.2019083E-007  0.2483948E+04  0.7818608E-02  0.8408727E-01
          1   -1    0    0  501    0  0.00000000000E+00  0.00000000000E+00  0.22043523991E+04  0.22043523991E+04  0.00000000000E+00 0. -1.
         -1   -1    0    0    0  501 -0.00000000000E+00 -0.00000000000E+00 -0.69975157659E+03  0.69975157659E+03  0.00000000000E+00 0.  1.
         23    2    1    2    0    0 -0.50235059973E+03 -0.65447469682E+03 -0.15318791486E+03  0.84370085018E+03  0.87586149098E+02 0.  0.
        254    2    1    2    0    0  0.50235059973E+03  0.65447469682E+03  0.16577887374E+04  0.20604031255E+04  0.90349559379E+03 0.  0.
        -24    2    4    4    0    0  0.64568310273E+03  0.63037143139E+03  0.87213689726E+03  0.12575096821E+04  0.80206124211E+02 0.  0.
         24    2    4    4    0    0 -0.14333250301E+03  0.24103265430E+02  0.78565184010E+03  0.80289344339E+03  0.79144764589E+02 0.  0.
         13    1    3    3    0    0 -0.34484652791E+03 -0.51111448451E+03 -0.10731165182E+03  0.62583778626E+03  0.00000000000E+00 0. -1.
        -13    1    3    3    0    0 -0.15750407182E+03 -0.14336021231E+03 -0.45876263044E+02  0.21786306393E+03  0.00000000000E+00 0.  1.
          2    1    6    6  502    0 -0.13929212567E+03  0.36012765113E+02  0.60773436156E+03  0.62453204061E+03  0.00000000000E+00 0. -1.
          1    1    5    5  503    0  0.60111705771E+03  0.60185640235E+03  0.84067259590E+03  0.11959528668E+04  0.00000000000E+00 0. -1.
         -2    1    5    5    0  503  0.44566045027E+02  0.28515029038E+02  0.31464301368E+02  0.61556815309E+02  0.00000000000E+00 0.  1.
         -1    1    6    6    0  502 -0.40403773315E+01 -0.11909499684E+02  0.17791747854E+03  0.17836140278E+03  0.00000000000E+00 0.  1.
<mgrwt>
<rscale>  0 0.24839477E+04</rscale>
<asrwt>0</asrwt>
<pdfrwt beam="1">  1        1 0.33913114E+00 0.24839477E+04</pdfrwt>
<pdfrwt beam="2">  1       -1 0.10765409E+00 0.24839477E+04</pdfrwt>
<totfact> 0.15452965E+00</totfact>
</mgrwt>
</event>
<event>
12    1  0.2019083E-007  0.2077834E+04  0.7818608E-02  0.8571071E-01
         -2   -1    0    0    0  501 -0.00000000000E+00  0.00000000000E+00  0.57511605382E+03  0.57511605382E+03  0.00000000000E+00 0.  1.
          2   -1    0    0  501    0  0.00000000000E+00 -0.00000000000E+00 -0.18767482319E+04  0.18767482319E+04  0.00000000000E+00 0. -1.
         23    2    1    2    0    0  0.68315518561E+03 -0.26687886532E+02 -0.11078912743E+04  0.13050557415E+04  0.91291631314E+02 0.  0.
        254    2    1    2    0    0 -0.68315518561E+03  0.26687886532E+02 -0.19374090378E+03  0.11468085442E+04  0.90012279623E+03 0.  0.
        -24    2    4    4    0    0  0.18309323999E+03  0.11922394969E+03  0.51529603288E+02  0.23820209214E+03  0.79670897934E+02 0.  0.
         24    2    4    4    0    0 -0.86624842560E+03 -0.92536063159E+02 -0.24527050707E+03  0.90860645203E+03  0.80366692104E+02 0.  0.
         13    1    3    3    0    0  0.25232149415E+03  0.33884182073E+02 -0.41902377572E+03  0.49030113076E+03  0.00000000000E+00 0. -1.
        -13    1    3    3    0    0  0.43083369146E+03 -0.60572068605E+02 -0.68886749858E+03  0.81475461078E+03  0.00000000000E+00 0.  1.
          4    1    6    6  502    0 -0.59788518343E+03 -0.51009100975E+02 -0.20483542235E+03  0.63405533765E+03  0.00000000000E+00 0. -1.
          1    1    5    5  503    0  0.14722571986E+03  0.52095121032E+02  0.40116370965E+02  0.16124092980E+03  0.00000000000E+00 0. -1.
         -2    1    5    5    0  503  0.35867520128E+02  0.67128828659E+02  0.11413232323E+02  0.76961162344E+02  0.00000000000E+00 0.  1.
         -3    1    6    6    0  502 -0.26836324217E+03 -0.41526962184E+02 -0.40435084726E+02  0.27455111439E+03  0.00000000000E+00 0.  1.
<mgrwt>
<rscale>  0 0.20778335E+04</rscale>
<asrwt>0</asrwt>
<pdfrwt beam="1">  1        2 0.28873049E+00 0.20778335E+04</pdfrwt>
<pdfrwt beam="2">  1       -2 0.88479394E-01 0.20778335E+04</pdfrwt>
<totfact> 0.79374181E+00</totfact>
</mgrwt>
</event>
<event>
12    1  0.2200391E-007  0.2018318E+04  0.7818608E-02  0.8598104E-01
          1   -1    0    0  501    0  0.00000000000E+00  0.00000000000E+00  0.87081762106E+03  0.87081762106E+03  0.00000000000E+00 0. -1.
         -1   -1    0    0    0  501 -0.00000000000E+00 -0.00000000000E+00 -0.11694780161E+04  0.11694780161E+04  0.00000000000E+00 0.  1.
         23    2    1    2    0    0 -0.74888566707E+03 -0.33438881573E+02  0.17609300785E+03  0.77545401467E+03  0.91500165607E+02 0.  0.
        254    2    1    2    0    0  0.74888566707E+03  0.33438881573E+02 -0.47475340288E+03  0.12648416225E+04  0.90137985073E+03 0.  0.
        -24    2    4    4    0    0  0.14817886527E+03  0.21587388513E+03 -0.56290526111E+03  0.62596097778E+03  0.80039379911E+02 0.  0.
         24    2    4    4    0    0  0.60070680180E+03 -0.18243500355E+03  0.88151858232E+02  0.63888064470E+03  0.79161454074E+02 0.  0.
         13    1    3    3    0    0 -0.14673608756E+03  0.29803613223E+02  0.34264896352E+02  0.15360279253E+03  0.00000000000E+00 0. -1.
        -13    1    3    3    0    0 -0.60214957951E+03 -0.63242494796E+02  0.14182811150E+03  0.62185122213E+03  0.00000000000E+00 0.  1.
          2    1    6    6  502    0  0.50163148549E+03 -0.16956628452E+03  0.49752912518E+02  0.53184793351E+03  0.00000000000E+00 0. -1.
          3    1    5    5  503    0  0.11905101560E+03  0.21304658030E+03 -0.49038402299E+03  0.54775768338E+03  0.00000000000E+00 0. -1.
         -4    1    5    5    0  503  0.29127849661E+02  0.28273048288E+01 -0.72521238117E+02  0.78203294410E+02  0.00000000000E+00 0.  1.
         -1    1    6    6    0  502  0.99075316315E+02 -0.12868719036E+02  0.38398945714E+02  0.10703271119E+03  0.00000000000E+00 0.  1.
<mgrwt>
<rscale>  0 0.20183182E+04</rscale>
<asrwt>0</asrwt>
<pdfrwt beam="1">  1        1 0.13397194E+00 0.20183182E+04</pdfrwt>
<pdfrwt beam="2">  1       -1 0.17991970E+00 0.20183182E+04</pdfrwt>
<totfact> 0.37128417E+00</totfact>
</mgrwt>
</event>
<event>
12    1  0.2019083E-007  0.1778648E+04  0.7818608E-02  0.8717737E-01
         -3   -1    0    0    0  501 -0.00000000000E+00  0.00000000000E+00  0.37750243641E+03  0.37750243641E+03  0.00000000000E+00 0.  1.
          3   -1    0    0  501    0  0.00000000000E+00 -0.00000000000E+00 -0.20950777473E+04  0.20950777473E+04  0.00000000000E+00 0. -1.
         23    2    1    2    0    0 -0.56087534187E+03 -0.29257878981E+03 -0.89125312339E+03  0.10967317968E+04  0.91131809471E+02 0.  0.
        254    2    1    2    0    0  0.56087534187E+03  0.29257878981E+03 -0.82632218751E+03  0.13758483870E+04  0.89998162702E+03 0.  0.
        -24    2    4    4    0    0 -0.19634452485E+03  0.23943916527E+03 -0.13663232835E+03  0.34699613170E+03  0.76522127258E+02 0.  0.
         24    2    4    4    0    0  0.75721986672E+03  0.53139624540E+02 -0.68968985916E+03  0.10288522553E+04  0.81603401127E+02 0.  0.
         11    1    3    3    0    0 -0.28408760576E+03 -0.11506096985E+03 -0.37044923255E+03  0.48080913929E+03  0.00000000000E+00 0.  1.
        -11    1    3    3    0    0 -0.27678773611E+03 -0.17751781996E+03 -0.52080389084E+03  0.61592265746E+03  0.00000000000E+00 0. -1.
          4    1    6    6  502    0  0.22979276200E+03  0.53747651450E+02 -0.21767837351E+03  0.32105668938E+03  0.00000000000E+00 0. -1.
          3    1    5    5  503    0 -0.16223333123E+03  0.16546501287E+03 -0.70929243666E+02  0.24234125083E+03  0.00000000000E+00 0. -1.
         -4    1    5    5    0  503 -0.34111193623E+02  0.73974152404E+02 -0.65703084681E+02  0.10465488087E+03  0.00000000000E+00 0.  1.
         -3    1    6    6    0  502  0.52742710472E+03 -0.60802690962E+00 -0.47201148565E+03  0.70779556588E+03  0.00000000000E+00 0.  1.
<mgrwt>
<rscale>  0 0.17786477E+04</rscale>
<asrwt>0</asrwt>
<pdfrwt beam="1">  1        3 0.32231965E+00 0.17786477E+04</pdfrwt>
<pdfrwt beam="2">  1       -3 0.58077298E-01 0.17786477E+04</pdfrwt>
<totfact> 0.21054545E-01</totfact>
</mgrwt>
</event>
<event>
12    1  0.2019083E-007  0.3672043E+04  0.7818608E-02  0.8074186E-01
         -2   -1    0    0    0  501 -0.00000000000E+00  0.00000000000E+00  0.16136858775E+04  0.16136858775E+04  0.00000000000E+00 0.  1.
          2   -1    0    0  501    0  0.00000000000E+00 -0.00000000000E+00 -0.20889910334E+04  0.20889910334E+04  0.00000000000E+00 0. -1.
         23    2    1    2    0    0  0.25173444219E+03 -0.85427179544E+03 -0.17123953692E+04  0.19326060773E+04  0.97559312962E+02 0.  0.
        254    2    1    2    0    0 -0.25173444219E+03  0.85427179544E+03  0.12370902134E+04  0.17700708337E+04  0.89978221274E+03 0.  0.
        -24    2    4    4    0    0  0.16559426995E+03  0.56602278847E+03  0.22676126713E+03  0.63684976193E+03  0.79710022457E+02 0.  0.
         24    2    4    4    0    0 -0.41732871214E+03  0.28824900697E+03  0.10103289462E+04  0.11332210717E+04  0.78579093207E+02 0.  0.
         13    1    3    3    0    0  0.24316809191E+03 -0.85141362384E+03 -0.17037508792E+04  0.19201049289E+04  0.00000000000E+00 0. -1.
        -13    1    3    3    0    0  0.85663502784E+01 -0.28581716013E+01 -0.86444900173E+01  0.12501148333E+02  0.00000000000E+00 0.  1.
          2    1    6    6  502    0 -0.33311919725E+03  0.21144455614E+03  0.71462347471E+03  0.81631116035E+03  0.00000000000E+00 0. -1.
          3    1    5    5  503    0  0.15291987072E+03  0.49050384464E+03  0.22324603566E+03  0.56019398507E+03  0.00000000000E+00 0. -1.
         -4    1    5    5    0  503  0.12674399224E+02  0.75518943832E+02  0.35152314791E+01  0.76655776857E+02  0.00000000000E+00 0.  1.
         -1    1    6    6    0  502 -0.84209514896E+02  0.76804450829E+02  0.29570547150E+03  0.31690991140E+03  0.00000000000E+00 0.  1.
<mgrwt>
<rscale>  0 0.36720432E+04</rscale>
<asrwt>0</asrwt>
<pdfrwt beam="1">  1        2 0.32138323E+00 0.36720432E+04</pdfrwt>
<pdfrwt beam="2">  1       -2 0.24825937E+00 0.36720432E+04</pdfrwt>
<totfact> 0.31808859E-01</totfact>
</mgrwt>
</event>
<event>
12    1  0.2019083E-007  0.2189362E+04  0.7818608E-02  0.8522869E-01
         -2   -1    0    0    0  501 -0.00000000000E+00  0.00000000000E+00  0.12577922369E+04  0.12577922369E+04  0.00000000000E+00 0.  1.
          2   -1    0    0  501    0  0.00000000000E+00 -0.00000000000E+00 -0.95272212251E+03  0.95272212251E+03  0.00000000000E+00 0. -1.
         23    2    1    2    0    0 -0.47891559301E+03  0.40426405257E+03  0.78794404072E+03  0.10116700069E+04  0.99150502377E+02 0.  0.
        254    2    1    2    0    0  0.47891559301E+03 -0.40426405257E+03 -0.48287392629E+03  0.11988443526E+04  0.90070582519E+03 0.  0.
        -24    2    4    4    0    0  0.27969417245E+02 -0.83906688267E+02 -0.61317747202E+03  0.62468439859E+03  0.80133420063E+02 0.  0.
         24    2    4    4    0    0  0.45094617576E+03 -0.32035736430E+03  0.13030354573E+03  0.57415995396E+03  0.81849522934E+02 0.  0.
         11    1    3    3    0    0 -0.23855003623E+03  0.13946345850E+03  0.36486451501E+03  0.45769235339E+03  0.00000000000E+00 0.  1.
        -11    1    3    3    0    0 -0.24036555678E+03  0.26480059407E+03  0.42307952572E+03  0.55397765351E+03  0.00000000000E+00 0. -1.
          2    1    6    6  502    0  0.19378286133E+02 -0.37427372541E+02  0.97398761959E+00  0.42157737613E+02  0.00000000000E+00 0. -1.
          1    1    5    5  503    0 -0.26759732957E+01  0.33611709684E+01 -0.24597143366E+03  0.24600895203E+03  0.00000000000E+00 0. -1.
         -2    1    5    5    0  503  0.30645390541E+02 -0.87267859235E+02 -0.36720603836E+03  0.37867544656E+03  0.00000000000E+00 0.  1.
         -1    1    6    6    0  502  0.43156788963E+03 -0.28292999176E+03  0.12932955811E+03  0.53200221635E+03  0.00000000000E+00 0.  1.
<mgrwt>
<rscale>  0 0.21893620E+04</rscale>
<asrwt>0</asrwt>
<pdfrwt beam="1">  1        2 0.14657263E+00 0.21893620E+04</pdfrwt>
<pdfrwt beam="2">  1       -2 0.19350650E+00 0.21893620E+04</pdfrwt>
<totfact> 0.36312253E+00</totfact>
</mgrwt>
</event>
<event>
12    1  0.2019083E-007  0.2598149E+04  0.7818608E-02  0.8368830E-01
         -2   -1    0    0    0  501 -0.00000000000E+00  0.00000000000E+00  0.13684047782E+04  0.13684047782E+04  0.00000000000E+00 0.  1.
          2   -1    0    0  501    0  0.00000000000E+00 -0.00000000000E+00 -0.12332565495E+04  0.12332565495E+04  0.00000000000E+00 0. -1.
         23    2    1    2    0    0 -0.59592597587E+03  0.17485307409E+02 -0.91333494426E+03  0.10944443206E+04  0.90521520890E+02 0.  0.
        254    2    1    2    0    0  0.59592597587E+03 -0.17485307409E+02  0.10484831730E+04  0.15072170071E+04  0.90385432330E+03 0.  0.
        -24    2    4    4    0    0  0.48885976942E+03  0.17973599243E+03  0.11372455085E+04  0.12533918271E+04  0.79842497565E+02 0.  0.
         24    2    4    4    0    0  0.10706620645E+03 -0.19722129983E+03 -0.88762335494E+02  0.25382518004E+03  0.78670554510E+02 0.  0.
         11    1    3    3    0    0 -0.34090558046E+03  0.43083415875E+02 -0.57725223405E+03  0.67178340053E+03  0.00000000000E+00 0. -1.
        -11    1    3    3    0    0 -0.25502039541E+03 -0.25598108467E+02 -0.33608271021E+03  0.42266092005E+03  0.00000000000E+00 0.  1.
          4    1    6    6  502    0  0.57728776506E+02 -0.38365669589E+02 -0.41958583159E+02  0.81025051315E+02  0.00000000000E+00 0. -1.
          1    1    5    5  503    0  0.22209909582E+03  0.76049053545E+02  0.60740884795E+03  0.65119657207E+03  0.00000000000E+00 0. -1.
         -2    1    5    5    0  503  0.26676067360E+03  0.10368693888E+03  0.52983666057E+03  0.60219525501E+03  0.00000000000E+00 0.  1.
         -3    1    6    6    0  502  0.49337429947E+02 -0.15885563025E+03 -0.46803752335E+02  0.17280012872E+03  0.00000000000E+00 0.  1.
<mgrwt>
<rscale>  0 0.25981487E+04</rscale>
<asrwt>0</asrwt>
<pdfrwt beam="1">  1        2 0.18973178E+00 0.25981487E+04</pdfrwt>
<pdfrwt beam="2">  1       -2 0.21052381E+00 0.25981487E+04</pdfrwt>
<totfact> 0.18190340E+00</totfact>
</mgrwt>
</event>
<event>
12    1  0.2019083E-007  0.1770390E+04  0.7818608E-02  0.8722206E-01
         -2   -1    0    0    0  501 -0.00000000000E+00  0.00000000000E+00  0.30982667243E+03  0.30982667243E+03  0.00000000000E+00 0.  1.
          2   -1    0    0  501    0  0.00000000000E+00 -0.00000000000E+00 -0.25290586269E+04  0.25290586269E+04  0.00000000000E+00 0. -1.
         23    2    1    2    0    0  0.28653881503E+03 -0.18022538012E+03 -0.17308294776E+04  0.17661466275E+04  0.94432775002E+02 0.  0.
        254    2    1    2    0    0 -0.28653881503E+03  0.18022538012E+03 -0.48840247688E+03  0.10727386719E+04  0.89311007081E+03 0.  0.
        -24    2    4    4    0    0  0.13364823189E+03  0.29948063016E+02  0.19594523135E+03  0.25185018168E+03  0.79216437425E+02 0.  0.
         24    2    4    4    0    0 -0.42018704692E+03  0.15027731710E+03 -0.68434770823E+03  0.82088849020E+03  0.79910582277E+02 0.  0.
         11    1    3    3    0    0  0.13444694499E+03 -0.13966201383E+03 -0.92840987877E+03  0.94843363612E+03  0.00000000000E+00 0.  1.
        -11    1    3    3    0    0  0.15209187004E+03 -0.40563366281E+02 -0.80241959885E+03  0.81771299136E+03  0.00000000000E+00 0. -1.
          4    1    6    6  502    0 -0.98100721378E+02  0.67422851654E+02 -0.14991944802E+03  0.19142996985E+03  0.00000000000E+00 0. -1.
          3    1    5    5  503    0  0.79227900924E+01 -0.41015536197E+01 -0.65580874156E+01  0.11072572217E+02  0.00000000000E+00 0. -1.
         -4    1    5    5    0  503  0.12572544179E+03  0.34049616635E+02  0.20250331877E+03  0.24077760947E+03  0.00000000000E+00 0.  1.
         -3    1    6    6    0  502 -0.32208632554E+03  0.82854465446E+02 -0.53442826021E+03  0.62945852036E+03  0.00000000000E+00 0.  1.
<mgrwt>
<rscale>  0 0.17703896E+04</rscale>
<asrwt>0</asrwt>
<pdfrwt beam="1">  1        2 0.38908596E+00 0.17703896E+04</pdfrwt>
<pdfrwt beam="2">  1       -2 0.47665639E-01 0.17703896E+04</pdfrwt>
<totfact> 0.13233952E+01</totfact>
</mgrwt>
</event>
<event>
12    1  0.2019083E-007  0.1588362E+04  0.7818608E-02  0.8827730E-01
         -2   -1    0    0    0  501 -0.00000000000E+00  0.00000000000E+00  0.55896878065E+03  0.55896878065E+03  0.00000000000E+00 0.  1.
          2   -1    0    0  501    0  0.00000000000E+00 -0.00000000000E+00 -0.11283692889E+04  0.11283692889E+04  0.00000000000E+00 0. -1.
         23    2    1    2    0    0 -0.27927395741E+02  0.52448892509E+03 -0.77149023840E+02  0.53875044140E+03  0.91823168422E+02 0.  0.
        254    2    1    2    0    0  0.27927395741E+02 -0.52448892509E+03 -0.49225148446E+03  0.11485876282E+04  0.89502706312E+03 0.  0.
        -24    2    4    4    0    0 -0.28096018503E+03  0.46419970237E+02  0.48970650183E+02  0.29966897545E+03  0.79435074500E+02 0.  0.
         24    2    4    4    0    0  0.30888758077E+03 -0.57090889532E+03 -0.54122213464E+03  0.84891865274E+03  0.79956085644E+02 0.  0.
         13    1    3    3    0    0  0.26160702618E+02  0.20425324773E+03 -0.45925943952E+01  0.20597296787E+03  0.00000000000E+00 0.  1.
        -13    1    3    3    0    0 -0.54088098359E+02  0.32023567735E+03 -0.72556429444E+02  0.33277747353E+03  0.00000000000E+00 0. -1.
          2    1    6    6  502    0  0.55848063729E+02 -0.17908627174E+03 -0.15560612888E+03  0.24372969924E+03  0.00000000000E+00 0. -1.
          3    1    5    5  503    0 -0.50807368383E+02  0.41180991654E+02  0.12529828331E+02  0.66590234671E+02  0.00000000000E+00 0. -1.
         -2    1    5    5    0  503 -0.23015281665E+03  0.52389785829E+01  0.36440821852E+02  0.23307874078E+03  0.00000000000E+00 0.  1.
         -1    1    6    6    0  502  0.25303951704E+03 -0.39182262358E+03 -0.38561600577E+03  0.60518895350E+03  0.00000000000E+00 0.  1.
<mgrwt>
<rscale>  0 0.15883617E+04</rscale>
<asrwt>0</asrwt>
<pdfrwt beam="1">  1        2 0.17359528E+00 0.15883617E+04</pdfrwt>
<pdfrwt beam="2">  1       -2 0.85995197E-01 0.15883617E+04</pdfrwt>
<totfact> 0.23572379E+01</totfact>
</mgrwt>
</event>
<event>
12    1  0.2019083E-007  0.1454394E+04  0.7818608E-02  0.8915360E-01
         -2   -1    0    0    0  501 -0.00000000000E+00  0.00000000000E+00  0.15599169536E+03  0.15599169536E+03  0.00000000000E+00 0. -1.
          2   -1    0    0  501    0  0.00000000000E+00 -0.00000000000E+00 -0.33900231574E+04  0.33900231574E+04  0.00000000000E+00 0.  1.
         23    2    1    2    0    0 -0.36994532836E+03 -0.23085151017E+03 -0.11927126604E+04  0.12729676938E+04  0.87927774368E+02 0.  0.
        254    2    1    2    0    0  0.36994532836E+03  0.23085151017E+03 -0.20413188017E+04  0.22730471590E+04  0.89978273550E+03 0.  0.
        -24    2    4    4    0    0 -0.16201090648E+03 -0.91822047862E+02 -0.87392103032E+02  0.22090464524E+03  0.80514969565E+02 0.  0.
         24    2    4    4    0    0  0.53195623484E+03  0.32267355803E+03 -0.19539266986E+04  0.20521425137E+04  0.79772753233E+02 0.  0.
         11    1    3    3    0    0 -0.85036290896E+02 -0.27954922614E+02 -0.33313515040E+03  0.34495170227E+03  0.00000000000E+00 0.  1.
        -11    1    3    3    0    0 -0.28490903747E+03 -0.20289658756E+03 -0.85957750998E+03  0.92801599153E+03  0.00000000000E+00 0. -1.
          2    1    6    6  502    0  0.53086296161E+03  0.32363251229E+03 -0.19541492816E+04  0.20506713296E+04  0.00000000000E+00 0. -1.
          1    1    5    5  503    0 -0.65928891038E+02 -0.82295821996E+02 -0.35324744575E+02  0.11120727751E+03  0.00000000000E+00 0. -1.
         -4    1    5    5    0  503 -0.96082015438E+02 -0.95262258657E+01 -0.52067358456E+02  0.10969736773E+03  0.00000000000E+00 0.  1.
         -1    1    6    6    0  502  0.10932732302E+01 -0.95895425711E+00  0.22258299732E+00  0.14711841536E+01  0.00000000000E+00 0.  1.
<mgrwt>
<rscale>  0 0.14543940E+04</rscale>
<asrwt>0</asrwt>
<pdfrwt beam="1">  1        2 0.52154200E+00 0.14543940E+04</pdfrwt>
<pdfrwt beam="2">  1       -2 0.23998723E-01 0.14543940E+04</pdfrwt>
<totfact> 0.14703684E+01</totfact>
</mgrwt>
</event>
<event>
12    1  0.2019083E-007  0.1739650E+04  0.7818608E-02  0.8739068E-01
         -1   -1    0    0    0  501 -0.00000000000E+00  0.00000000000E+00  0.29130498002E+03  0.29130498002E+03  0.00000000000E+00 0.  1.
          1   -1    0    0  501    0  0.00000000000E+00 -0.00000000000E+00 -0.25972636322E+04  0.25972636322E+04  0.00000000000E+00 0. -1.
         23    2    1    2    0    0  0.83256330544E+02  0.39331595094E+03 -0.16568741958E+04  0.17071884290E+04  0.87356611451E+02 0.  0.
        254    2    1    2    0    0 -0.83256330544E+02 -0.39331595094E+03 -0.64908445638E+03  0.11813801832E+04  0.90150954070E+03 0.  0.
        -24    2    4    4    0    0 -0.22954875542E+03 -0.60726758793E+03 -0.63224524370E+03  0.90968214573E+03  0.79504739542E+02 0.  0.
         24    2    4    4    0    0  0.14629242488E+03  0.21395163699E+03 -0.16839212677E+02  0.27169803750E+03  0.79746397733E+02 0.  0.
         13    1    3    3    0    0  0.37019136056E+01  0.22587528211E+03 -0.88882134703E+03  0.91708054945E+03  0.00000000000E+00 0.  1.
        -13    1    3    3    0    0  0.79554416938E+02  0.16744066883E+03 -0.76805284877E+03  0.79010787956E+03  0.00000000000E+00 0. -1.
          2    1    6    6  502    0  0.11283134214E+03  0.20279022390E+03 -0.30108273389E+02  0.23401131342E+03  0.00000000000E+00 0. -1.
          1    1    5    5  503    0 -0.18332250467E+03 -0.55332844132E+03 -0.55825695658E+03  0.80711234302E+03  0.00000000000E+00 0. -1.
         -2    1    5    5    0  503 -0.46226250753E+02 -0.53939146606E+02 -0.73988287125E+02  0.10256980271E+03  0.00000000000E+00 0.  1.
         -1    1    6    6    0  502  0.33461082736E+02  0.11161413083E+02  0.13269060712E+02  0.37686724082E+02  0.00000000000E+00 0.  1.
<mgrwt>
<rscale>  0 0.17396503E+04</rscale>
<asrwt>0</asrwt>
<pdfrwt beam="1">  1        1 0.39957901E+00 0.17396503E+04</pdfrwt>
<pdfrwt beam="2">  1       -1 0.44816152E-01 0.17396503E+04</pdfrwt>
<totfact> 0.54338571E+00</totfact>
</mgrwt>
</event>
<event>
12    1  0.2019083E-007  0.1647582E+04  0.7818608E-02  0.8791838E-01
         -2   -1    0    0    0  501 -0.00000000000E+00  0.00000000000E+00  0.11413856698E+04  0.11413856698E+04  0.00000000000E+00 0. -1.
          2   -1    0    0  501    0  0.00000000000E+00 -0.00000000000E+00 -0.59456801122E+03  0.59456801122E+03  0.00000000000E+00 0.  1.
         23    2    1    2    0    0 -0.48899410353E+03  0.22665981850E+03  0.40167064091E+03  0.67791298666E+03  0.87959121788E+02 0.  0.
        254    2    1    2    0    0  0.48899410353E+03 -0.22665981850E+03  0.14514701762E+03  0.10580406943E+04  0.89882843050E+03 0.  0.
        -24    2    4    4    0    0  0.41067255838E+03 -0.53220515275E+03 -0.49226072738E+02  0.67869699386E+03  0.79448904400E+02 0.  0.
         24    2    4    4    0    0  0.78321545154E+02  0.30554533425E+03  0.19437309036E+03  0.37934370045E+03  0.81415779184E+02 0.  0.
         13    1    3    3    0    0 -0.20283668184E+03  0.13100431839E+03  0.14402779986E+03  0.28115628762E+03  0.00000000000E+00 0. -1.
        -13    1    3    3    0    0 -0.28615742169E+03  0.95655500114E+02  0.25764284104E+03  0.39675669904E+03  0.00000000000E+00 0.  1.
          2    1    6    6  502    0  0.49340288818E+02  0.56741913983E+02  0.41309487679E+02  0.85793838213E+02  0.00000000000E+00 0. -1.
          1    1    5    5  503    0  0.19566395317E+03 -0.24129882568E+03 -0.61766372497E+02  0.31674057305E+03  0.00000000000E+00 0. -1.
         -2    1    5    5    0  503  0.21500860521E+03 -0.29090632707E+03  0.12540299759E+02  0.36195642081E+03  0.00000000000E+00 0.  1.
         -1    1    6    6    0  502  0.28981256336E+02  0.24880342027E+03  0.15306360268E+03  0.29354986224E+03  0.00000000000E+00 0.  1.
<mgrwt>
<rscale>  0 0.16475818E+04</rscale>
<asrwt>0</asrwt>
<pdfrwt beam="1">  1        2 0.91472002E-01 0.16475818E+04</pdfrwt>
<pdfrwt beam="2">  1       -2 0.17559779E+00 0.16475818E+04</pdfrwt>
<totfact> 0.93143157E+00</totfact>
</mgrwt>
</event>
<event>
12    1  0.2019083E-007  0.1790103E+04  0.7818608E-02  0.8711580E-01
          1   -1    0    0  501    0  0.00000000000E+00  0.00000000000E+00  0.15021584551E+04  0.15021584551E+04  0.00000000000E+00 0. -1.
         -1   -1    0    0    0  501 -0.00000000000E+00 -0.00000000000E+00 -0.53331073371E+03  0.53331073371E+03  0.00000000000E+00 0.  1.
         23    2    1    2    0    0  0.13504742978E+03 -0.63267185199E+03  0.18528705696E+03  0.67853286189E+03  0.86971665457E+02 0.  0.
        254    2    1    2    0    0 -0.13504742978E+03  0.63267185199E+03  0.78356066441E+03  0.13569363269E+04  0.89933164064E+03 0.  0.
        -24    2    4    4    0    0 -0.13460747981E+03 -0.13361935175E+03  0.49064545431E+03  0.53218426984E+03  0.80708304673E+02 0.  0.
         24    2    4    4    0    0 -0.43994997743E+00  0.76629120374E+03  0.29291521010E+03  0.82475205706E+03  0.84936640092E+02 0.  0.
         13    1    3    3    0    0  0.77688982347E+02 -0.34624746807E+03  0.14630010985E+03  0.38383148550E+03  0.00000000000E+00 0.  1.
        -13    1    3    3    0    0  0.57358447436E+02 -0.28642438392E+03  0.38986947107E+02  0.29470137638E+03  0.00000000000E+00 0. -1.
          4    1    6    6  502    0  0.37568541771E+01  0.50217102388E+03  0.14840891999E+03  0.52365547711E+03  0.00000000000E+00 0. -1.
          1    1    5    5  503    0 -0.10722019865E+03 -0.11286277363E+03  0.46175168920E+03  0.48728718344E+03  0.00000000000E+00 0. -1.
         -2    1    5    5    0  503 -0.27387281154E+02 -0.20756578122E+02  0.28893765116E+02  0.44897086397E+02  0.00000000000E+00 0.  1.
         -3    1    6    6    0  502 -0.41968041546E+01  0.26412017987E+03  0.14450629011E+03  0.30109657995E+03  0.00000000000E+00 0.  1.
<mgrwt>
<rscale>  0 0.17901030E+04</rscale>
<asrwt>0</asrwt>
<pdfrwt beam="1">  1        1 0.23110130E+00 0.17901030E+04</pdfrwt>
<pdfrwt beam="2">  1       -1 0.82047806E-01 0.17901030E+04</pdfrwt>
<totfact> 0.90975688E+00</totfact>
</mgrwt>
</event>
<event>
12    1  0.2019083E-007  0.2027350E+04  0.7818608E-02  0.8593939E-01
         -1   -1    0    0    0  501 -0.00000000000E+00  0.00000000000E+00  0.97833132257E+03  0.97833132257E+03  0.00000000000E+00 0.  1.
          1   -1    0    0  501    0  0.00000000000E+00 -0.00000000000E+00 -0.10502957927E+04  0.10502957927E+04  0.00000000000E+00 0. -1.
         23    2    1    2    0    0  0.73061566585E+02 -0.77810701060E+03  0.20531569253E+03  0.81326908481E+03  0.91997599168E+02 0.  0.
        254    2    1    2    0    0 -0.73061566585E+02  0.77810701060E+03 -0.27728016263E+03  0.12153580304E+04  0.88849442379E+03 0.  0.
        -24    2    4    4    0    0  0.11980908442E+03  0.91473996570E+03 -0.16187580248E+03  0.94000581978E+03  0.79396122309E+02 0.  0.
         24    2    4    4    0    0 -0.19287065101E+03 -0.13663295510E+03 -0.11540436014E+03  0.27535221065E+03  0.81443361500E+02 0.  0.
         13    1    3    3    0    0  0.78613072220E+02 -0.39228438327E+03  0.84233356125E+02  0.40885487739E+03  0.00000000000E+00 0. -1.
        -13    1    3    3    0    0 -0.55515056347E+01 -0.38582262733E+03  0.12108233640E+03  0.40441420742E+03  0.00000000000E+00 0.  1.
          4    1    6    6  502    0 -0.96242831004E+02 -0.11673501938E+03 -0.67091046744E+02  0.16550213238E+03  0.00000000000E+00 0. -1.
          1    1    5    5  503    0  0.10386233424E+03  0.78707115044E+03 -0.11084955895E+03  0.80159591132E+03  0.00000000000E+00 0. -1.
         -2    1    5    5    0  503  0.15946750183E+02  0.12766881526E+03 -0.51026243530E+02  0.13840990846E+03  0.00000000000E+00 0.  1.
         -3    1    6    6    0  502 -0.96627820004E+02 -0.19897935715E+02 -0.48313313401E+02  0.10985007827E+03  0.00000000000E+00 0.  1.
<mgrwt>
<rscale>  0 0.20273503E+04</rscale>
<asrwt>0</asrwt>
<pdfrwt beam="1">  1        1 0.16158397E+00 0.20273503E+04</pdfrwt>
<pdfrwt beam="2">  1       -1 0.15051251E+00 0.20273503E+04</pdfrwt>
<totfact> 0.44256889E+00</totfact>
</mgrwt>
</event>
<event>
12    1  0.2019083E-007  0.2730657E+04  0.7818608E-02  0.8325126E-01
          1   -1    0    0  501    0  0.00000000000E+00  0.00000000000E+00  0.12195474107E+04  0.12195474107E+04  0.00000000000E+00 0. -1.
         -1   -1    0    0    0  501 -0.00000000000E+00 -0.00000000000E+00 -0.15285353152E+04  0.15285353152E+04  0.00000000000E+00 0.  1.
         23    2    1    2    0    0  0.70575658883E+03 -0.69311908203E+03  0.57018277096E+03  0.11460512747E+04  0.99089391186E+02 0.  0.
        254    2    1    2    0    0 -0.70575658883E+03  0.69311908203E+03 -0.87917067549E+03  0.16020314511E+04  0.90280522221E+03 0.  0.
        -24    2    4    4    0    0 -0.61050602234E+02  0.66650307581E+03 -0.56478675923E+03  0.87936661637E+03  0.79674566118E+02 0.  0.
         24    2    4    4    0    0 -0.64470598659E+03  0.26616006220E+02 -0.31438391626E+03  0.72266483477E+03  0.83982115195E+02 0.  0.
         11    1    3    3    0    0  0.33477301208E+03 -0.26869248527E+03  0.27414555886E+03  0.50933722494E+03  0.00000000000E+00 0. -1.
        -11    1    3    3    0    0  0.37098357674E+03 -0.42442659676E+03  0.29603721210E+03  0.63671404979E+03  0.00000000000E+00 0.  1.
          4    1    6    6  502    0 -0.19536984944E+03  0.46694254142E+02 -0.93337604762E+02  0.22149862280E+03  0.00000000000E+00 0. -1.
          3    1    5    5  503    0 -0.34613190096E+02  0.20194069251E+03 -0.13078927766E+03  0.24307190577E+03  0.00000000000E+00 0. -1.
         -4    1    5    5    0  503 -0.26437412138E+02  0.46456238330E+03 -0.43399748156E+03  0.63629471060E+03  0.00000000000E+00 0.  1.
         -3    1    6    6    0  502 -0.44933613715E+03 -0.20078247923E+02 -0.22104631150E+03  0.50116621197E+03  0.00000000000E+00 0.  1.
<mgrwt>
<rscale>  0 0.27306565E+04</rscale>
<asrwt>0</asrwt>
<pdfrwt beam="1">  1        1 0.18762268E+00 0.27306565E+04</pdfrwt>
<pdfrwt beam="2">  1       -1 0.23515928E+00 0.27306565E+04</pdfrwt>
<totfact> 0.78568489E-01</totfact>
</mgrwt>
</event>
<event>
12    1  0.2019083E-007  0.2528966E+04  0.7818608E-02  0.8392738E-01
          1   -1    0    0  501    0  0.00000000000E+00  0.00000000000E+00  0.17297361205E+04  0.17297361205E+04  0.00000000000E+00 0. -1.
         -1   -1    0    0    0  501 -0.00000000000E+00 -0.00000000000E+00 -0.92437050301E+03  0.92437050301E+03  0.00000000000E+00 0.  1.
         23    2    1    2    0    0 -0.88238862453E+03 -0.63000755353E+03  0.55818666261E+03  0.12233601528E+04  0.97562855780E+02 0.  0.
        254    2    1    2    0    0  0.88238862453E+03  0.63000755353E+03  0.24717895486E+03  0.14307464707E+04  0.90023265082E+03 0.  0.
        -24    2    4    4    0    0  0.40065443361E+03  0.67289154968E+03 -0.14800212766E+03  0.80110738809E+03  0.81002497868E+02 0.  0.
         24    2    4    4    0    0  0.48173419092E+03 -0.42883996144E+02  0.39518108252E+03  0.62963908265E+03  0.79814902042E+02 0.  0.
         13    1    3    3    0    0 -0.64622708569E+02 -0.69761845775E+02  0.72021010932E+02  0.11928887460E+03  0.00000000000E+00 0.  1.
        -13    1    3    3    0    0 -0.81776591596E+03 -0.56024570776E+03  0.48616565168E+03  0.11040712782E+04  0.00000000000E+00 0. -1.
          2    1    6    6  502    0  0.28554504413E+02 -0.99250472906E+01  0.48310340321E+01  0.30613806948E+02  0.00000000000E+00 0. -1.
          1    1    5    5  503    0  0.20808814656E+02  0.11806140593E+02  0.21518060832E+01  0.24021282075E+02  0.00000000000E+00 0. -1.
         -2    1    5    5    0  503  0.37984561895E+03  0.66108540908E+03 -0.15015393375E+03  0.77708610602E+03  0.00000000000E+00 0.  1.
         -1    1    6    6    0  502  0.45317968651E+03 -0.32958948854E+02  0.39035004849E+03  0.59902527570E+03  0.00000000000E+00 0.  1.
<mgrwt>
<rscale>  0 0.25289658E+04</rscale>
<asrwt>0</asrwt>
<pdfrwt beam="1">  1        1 0.26611325E+00 0.25289658E+04</pdfrwt>
<pdfrwt beam="2">  1       -1 0.14221085E+00 0.25289658E+04</pdfrwt>
<totfact> 0.16213158E+00</totfact>
</mgrwt>
</event>
<event>
12    1  0.2019083E-007  0.2528914E+04  0.7818608E-02  0.8392757E-01
         -2   -1    0    0    0  501 -0.00000000000E+00  0.00000000000E+00  0.11459317085E+04  0.11459317085E+04  0.00000000000E+00 0. -1.
          2   -1    0    0  501    0  0.00000000000E+00 -0.00000000000E+00 -0.13952412205E+04  0.13952412205E+04  0.00000000000E+00 0.  1.
         23    2    1    2    0    0 -0.17641309779E+03 -0.93331420491E+03  0.45296064151E+03  0.10564168277E+04  0.92984864095E+02 0.  0.
        254    2    1    2    0    0  0.17641309779E+03  0.93331420491E+03 -0.70227015354E+03  0.14847561012E+04  0.89951115916E+03 0.  0.
        -24    2    4    4    0    0  0.45767643725E+03  0.85605415862E+03 -0.38673438058E+03  0.10480532907E+04  0.80967743009E+02 0.  0.
         24    2    4    4    0    0 -0.28126333946E+03  0.77260046286E+02 -0.31553577296E+03  0.43670281049E+03  0.77899549426E+02 0.  0.
         13    1    3    3    0    0 -0.92712376375E+02 -0.66099469883E+03  0.34856983040E+03  0.75300099819E+03  0.00000000000E+00 0. -1.
        -13    1    3    3    0    0 -0.83700721411E+02 -0.27231950608E+03  0.10439081111E+03  0.30341582951E+03  0.00000000000E+00 0.  1.
          4    1    6    6  502    0 -0.76524534994E+02  0.22162347112E+02 -0.40330421046E+02  0.89295671493E+02  0.00000000000E+00 0. -1.
          1    1    5    5  503    0 -0.66227908895E+00  0.59153345723E+01 -0.94264420627E+01  0.11148435166E+02  0.00000000000E+00 0. -1.
         -2    1    5    5    0  503  0.45833871634E+03  0.85013882405E+03 -0.37730793852E+03  0.10369048556E+04  0.00000000000E+00 0.  1.
         -3    1    6    6    0  502 -0.20473880447E+03  0.55097699174E+02 -0.27520535191E+03  0.34740713900E+03  0.00000000000E+00 0.  1.
<mgrwt>
<rscale>  0 0.25289137E+04</rscale>
<asrwt>0</asrwt>
<pdfrwt beam="1">  1        2 0.21465249E+00 0.25289137E+04</pdfrwt>
<pdfrwt beam="2">  1       -2 0.17629719E+00 0.25289137E+04</pdfrwt>
<totfact> 0.24932110E+00</totfact>
</mgrwt>
</event>
<event>
12    1  0.2019083E-007  0.2664508E+04  0.7818608E-02  0.8346614E-01
          2   -1    0    0  501    0  0.00000000000E+00  0.00000000000E+00  0.24712589932E+04  0.24712589932E+04  0.00000000000E+00 0. -1.
         -2   -1    0    0    0  501 -0.00000000000E+00 -0.00000000000E+00 -0.71821709308E+03  0.71821709308E+03  0.00000000000E+00 0.  1.
         23    2    1    2    0    0  0.33262670970E+03 -0.45057459421E+03  0.20186635014E+04  0.20970687290E+04  0.95062763806E+02 0.  0.
        254    2    1    2    0    0 -0.33262670970E+03  0.45057459421E+03 -0.26562160135E+03  0.10924073573E+04  0.89952265460E+03 0.  0.
        -24    2    4    4    0    0  0.14818210763E+03  0.40392185365E+03 -0.39122452974E+03  0.58702983750E+03  0.80228402511E+02 0.  0.
         24    2    4    4    0    0 -0.48080881733E+03  0.46652740567E+02  0.12560292839E+03  0.50537751977E+03  0.79225910152E+02 0.  0.
         11    1    3    3    0    0  0.53325778382E+02 -0.14092067656E+03  0.57043381849E+03  0.58999747203E+03  0.00000000000E+00 0. -1.
        -11    1    3    3    0    0  0.27930093132E+03 -0.30965391766E+03  0.14482296829E+04  0.15070712569E+04  0.00000000000E+00 0.  1.
          2    1    6    6  502    0 -0.44301784816E+03  0.64324544500E+02  0.11822489060E+03  0.46301143136E+03  0.00000000000E+00 0. -1.
          1    1    5    5  503    0  0.12829629364E+03  0.39588753489E+03 -0.36996730715E+03  0.55683272856E+03  0.00000000000E+00 0. -1.
         -2    1    5    5    0  503  0.19885813985E+02  0.80343187621E+01 -0.21257222595E+02  0.30197108939E+02  0.00000000000E+00 0.  1.
         -1    1    6    6    0  502 -0.37790969169E+02 -0.17671803933E+02  0.73780377872E+01  0.42366088403E+02  0.00000000000E+00 0.  1.
<mgrwt>
<rscale>  0 0.26645078E+04</rscale>
<asrwt>0</asrwt>
<pdfrwt beam="1">  1        2 0.38019369E+00 0.26645078E+04</pdfrwt>
<pdfrwt beam="2">  1       -2 0.11049494E+00 0.26645078E+04</pdfrwt>
<totfact> 0.20678906E+00</totfact>
</mgrwt>
</event>
<event>
12    1  0.2019083E-007  0.4152852E+04  0.7818608E-02  0.7974402E-01
         -2   -1    0    0    0  501 -0.00000000000E+00  0.00000000000E+00  0.14828763300E+04  0.14828763300E+04  0.00000000000E+00 0.  1.
          2   -1    0    0  501    0  0.00000000000E+00 -0.00000000000E+00 -0.29075557148E+04  0.29075557148E+04  0.00000000000E+00 0. -1.
         23    2    1    2    0    0  0.28233663743E+03  0.18951536436E+04 -0.16214810489E+03  0.19250150059E+04  0.89830147705E+02 0.  0.
        254    2    1    2    0    0 -0.28233663743E+03 -0.18951536436E+04 -0.12625312799E+04  0.24654170389E+04  0.90165105963E+03 0.  0.
        -24    2    4    4    0    0  0.18042787722E+01 -0.22789136156E+03 -0.60039060001E+03  0.64745949237E+03  0.82445094313E+02 0.  0.
         24    2    4    4    0    0 -0.28414091620E+03 -0.16672622820E+04 -0.66214067986E+03  0.18179575465E+04  0.77716045381E+02 0.  0.
         11    1    3    3    0    0  0.20371702249E+03  0.10738637764E+04 -0.82032330216E+02  0.10960900231E+04  0.00000000000E+00 0.  1.
        -11    1    3    3    0    0  0.78619614934E+02  0.82128986716E+03 -0.80115774672E+02  0.82892498280E+03  0.00000000000E+00 0. -1.
          2    1    6    6  502    0 -0.82691911656E+02 -0.67515790694E+03 -0.24378702505E+03  0.72257059526E+03  0.00000000000E+00 0. -1.
          3    1    5    5  503    0 -0.20260278411E+02 -0.11901055827E+02 -0.38791244346E+02  0.45352779948E+02  0.00000000000E+00 0. -1.
         -4    1    5    5    0  503  0.22064557183E+02 -0.21599030573E+03 -0.56159935567E+03  0.60210671242E+03  0.00000000000E+00 0.  1.
         -1    1    6    6    0  502 -0.20144900454E+03 -0.99210437506E+03 -0.41835365481E+03  0.10953869512E+04  0.00000000000E+00 0.  1.
<mgrwt>
<rscale>  0 0.41528523E+04</rscale>
<asrwt>0</asrwt>
<pdfrwt beam="1">  1        2 0.44731626E+00 0.41528523E+04</pdfrwt>
<pdfrwt beam="2">  1       -2 0.22813482E+00 0.41528523E+04</pdfrwt>
<totfact> 0.13597812E-01</totfact>
</mgrwt>
</event>
<event>
12    1  0.2019083E-007  0.2016447E+04  0.7818608E-02  0.8598969E-01
          1   -1    0    0  501    0  0.00000000000E+00  0.00000000000E+00  0.11572717072E+04  0.11572717072E+04  0.00000000000E+00 0. -1.
         -1   -1    0    0    0  501 -0.00000000000E+00 -0.00000000000E+00 -0.87837200320E+03  0.87837200320E+03  0.00000000000E+00 0.  1.
         23    2    1    2    0    0 -0.60853233434E+02 -0.47914915310E+03  0.76074751769E+03  0.90576791518E+03  0.91606241897E+02 0.  0.
        254    2    1    2    0    0  0.60853233434E+02  0.47914915310E+03 -0.48184781366E+03  0.11298757952E+04  0.90064142156E+03 0.  0.
        -24    2    4    4    0    0 -0.20605735231E+02  0.38366083271E+03  0.19447685587E+03  0.43769205504E+03  0.78312557749E+02 0.  0.
         24    2    4    4    0    0  0.81458968665E+02  0.95488320390E+02 -0.67632466953E+03  0.69218374020E+03  0.77134225051E+02 0.  0.
         11    1    3    3    0    0  0.72168818979E+01 -0.28231531198E+03  0.41011514106E+03  0.49794422147E+03  0.00000000000E+00 0.  1.
        -11    1    3    3    0    0 -0.68070115331E+02 -0.19683384112E+03  0.35063237663E+03  0.40782369371E+03  0.00000000000E+00 0. -1.
          2    1    6    6  502    0 -0.36282034136E+01  0.38219458999E+02 -0.10664446300E+03  0.11334430906E+03  0.00000000000E+00 0. -1.
          3    1    5    5  503    0  0.77657022234E+01  0.12609090307E+03  0.10264442002E+03  0.16277315175E+03  0.00000000000E+00 0. -1.
         -4    1    5    5    0  503 -0.28371437455E+02  0.25756992963E+03  0.91832435851E+02  0.27491890330E+03  0.00000000000E+00 0.  1.
         -1    1    6    6    0  502  0.85087172079E+02  0.57268861391E+02 -0.56968020653E+03  0.57883943115E+03  0.00000000000E+00 0.  1.
<mgrwt>
<rscale>  0 0.20164474E+04</rscale>
<asrwt>0</asrwt>
<pdfrwt beam="1">  1        1 0.17804180E+00 0.20164474E+04</pdfrwt>
<pdfrwt beam="2">  1       -1 0.13513415E+00 0.20164474E+04</pdfrwt>
<totfact> 0.48903497E+00</totfact>
</mgrwt>
</event>
<event>
12    1  0.2019083E-007  0.1527656E+04  0.7818608E-02  0.8866268E-01
         -1   -1    0    0    0  501 -0.00000000000E+00  0.00000000000E+00  0.73044655234E+03  0.73044655234E+03  0.00000000000E+00 0.  1.
          1   -1    0    0  501    0  0.00000000000E+00 -0.00000000000E+00 -0.79873476304E+03  0.79873476304E+03  0.00000000000E+00 0. -1.
         23    2    1    2    0    0  0.33810747771E+03 -0.35684884148E+03  0.25361361302E+01  0.50055068415E+03  0.94269789763E+02 0.  0.
        254    2    1    2    0    0 -0.33810747771E+03  0.35684884148E+03 -0.70824346828E+02  0.10286306312E+04  0.90078139705E+03 0.  0.
        -24    2    4    4    0    0  0.58529955212E+02 -0.26542056104E+03 -0.29391785244E+02  0.28537023235E+03  0.81844135989E+02 0.  0.
         24    2    4    4    0    0 -0.39663743293E+03  0.62226940252E+03 -0.41432561585E+02  0.74326039888E+03  0.78605984999E+02 0.  0.
         13    1    3    3    0    0  0.18355337179E+03 -0.25948827414E+03  0.44442611425E+01  0.31787695130E+03  0.00000000000E+00 0.  1.
        -13    1    3    3    0    0  0.15455410593E+03 -0.97360567345E+02 -0.19081250122E+01  0.18267373285E+03  0.00000000000E+00 0. -1.
          4    1    6    6  502    0 -0.39053801375E+02  0.10557070614E+03  0.86964415200E+01  0.11289819083E+03  0.00000000000E+00 0. -1.
          1    1    5    5  503    0 -0.93818956740E+01 -0.45568967903E+02 -0.29833287124E+02  0.55268217112E+02  0.00000000000E+00 0. -1.
         -2    1    5    5    0  503  0.67911850886E+02 -0.21985159314E+03  0.44150188035E+00  0.23010201524E+03  0.00000000000E+00 0.  1.
         -3    1    6    6    0  502 -0.35758363155E+03  0.51669869638E+03 -0.50129003105E+02  0.63036220806E+03  0.00000000000E+00 0.  1.
<mgrwt>
<rscale>  0 0.15276558E+04</rscale>
<asrwt>0</asrwt>
<pdfrwt beam="1">  1        1 0.12288227E+00 0.15276558E+04</pdfrwt>
<pdfrwt beam="2">  1       -1 0.11237639E+00 0.15276558E+04</pdfrwt>
<totfact> 0.15524131E+01</totfact>
</mgrwt>
</event>
<event>
12    1  0.2019083E-007  0.1395478E+04  0.7818608E-02  0.8957098E-01
          2   -1    0    0  501    0  0.00000000000E+00  0.00000000000E+00  0.13239550226E+04  0.13239550226E+04  0.00000000000E+00 0. -1.
         -2   -1    0    0    0  501 -0.00000000000E+00 -0.00000000000E+00 -0.36771640726E+03  0.36771640726E+03  0.00000000000E+00 0.  1.
         23    2    1    2    0    0  0.26352005007E+02  0.30298776787E+03 -0.35042422338E+02  0.31937202534E+03  0.90964298271E+02 0.  0.
        254    2    1    2    0    0 -0.26352005007E+02 -0.30298776787E+03  0.99128103767E+03  0.13722994045E+04  0.89892799731E+03 0.  0.
        -24    2    4    4    0    0 -0.48876825977E+02 -0.36187127081E+03 -0.20370626884E+01  0.37376337998E+03  0.79719218747E+02 0.  0.
         24    2    4    4    0    0  0.22524820970E+02  0.58883502936E+02  0.99331810036E+03  0.99853602454E+03  0.80116847948E+02 0.  0.
         11    1    3    3    0    0  0.43277378955E+02  0.60843545023E+02 -0.59992628050E+01  0.74905671710E+02  0.00000000000E+00 0.  1.
        -11    1    3    3    0    0 -0.16925373948E+02  0.24214422285E+03 -0.29043159533E+02  0.24446635363E+03  0.00000000000E+00 0. -1.
          4    1    6    6  502    0 -0.13276723510E+02 -0.13151656210E+00  0.30722945957E+02  0.33469211106E+02  0.00000000000E+00 0. -1.
          1    1    5    5  503    0  0.13562112526E+02 -0.11619274393E+03 -0.23673414690E+02  0.11935290194E+03  0.00000000000E+00 0. -1.
         -2    1    5    5    0  503 -0.62438938503E+02 -0.24567852687E+03  0.21636352002E+02  0.25441047804E+03  0.00000000000E+00 0.  1.
         -3    1    6    6    0  502  0.35801544480E+02  0.59015019498E+02  0.96259515440E+03  0.96506681343E+03  0.00000000000E+00 0.  1.
<mgrwt>
<rscale>  0 0.13954784E+04</rscale>
<asrwt>0</asrwt>
<pdfrwt beam="1">  1        2 0.20368539E+00 0.13954784E+04</pdfrwt>
<pdfrwt beam="2">  1       -2 0.56571756E-01 0.13954784E+04</pdfrwt>
<totfact> 0.45684353E+01</totfact>
</mgrwt>
</event>
<event>
12    1  0.2019083E-007  0.2763732E+04  0.7818608E-02  0.8314617E-01
          2   -1    0    0  501    0  0.00000000000E+00  0.00000000000E+00  0.13439153082E+04  0.13439153082E+04  0.00000000000E+00 0. -1.
         -2   -1    0    0    0  501 -0.00000000000E+00 -0.00000000000E+00 -0.14208886461E+04  0.14208886461E+04  0.00000000000E+00 0.  1.
         23    2    1    2    0    0 -0.37480383304E+03  0.11729978837E+04  0.40933848393E+02  0.12353802294E+04  0.89926542269E+02 0.  0.
        254    2    1    2    0    0  0.37480383304E+03 -0.11729978837E+04 -0.11790718623E+03  0.15294237248E+04  0.89935136471E+03 0.  0.
        -24    2    4    4    0    0 -0.12643190085E+03 -0.88550970852E+03  0.10595085010E+03  0.90449187627E+03  0.82264829501E+02 0.  0.
         24    2    4    4    0    0  0.50123573389E+03 -0.28748817515E+03 -0.22385803633E+03  0.62493184857E+03  0.80874490139E+02 0.  0.
         13    1    3    3    0    0 -0.27264363731E+03  0.92704101588E+03  0.61504039514E+02  0.96825737537E+03  0.00000000000E+00 0.  1.
        -13    1    3    3    0    0 -0.10216019573E+03  0.24595686779E+03 -0.20570191121E+02  0.26712285407E+03  0.00000000000E+00 0. -1.
          2    1    6    6  502    0  0.14328911031E+03 -0.12582573726E+03 -0.71607011609E+02  0.20369450018E+03  0.00000000000E+00 0. -1.
          1    1    5    5  503    0 -0.27598216324E+02 -0.40736642521E+03  0.20458014585E+02  0.40881242189E+03  0.00000000000E+00 0. -1.
         -2    1    5    5    0  503 -0.98833684528E+02 -0.47814328331E+03  0.85492835515E+02  0.49567945438E+03  0.00000000000E+00 0.  1.
         -1    1    6    6    0  502  0.35794662358E+03 -0.16166243788E+03 -0.15225102472E+03  0.42123734839E+03  0.00000000000E+00 0.  1.
<mgrwt>
<rscale>  0 0.27637323E+04</rscale>
<asrwt>0</asrwt>
<pdfrwt beam="1">  1        2 0.20675620E+00 0.27637323E+04</pdfrwt>
<pdfrwt beam="2">  1       -2 0.21859825E+00 0.27637323E+04</pdfrwt>
<totfact> 0.13724413E+00</totfact>
</mgrwt>
</event>
<event>
12    1  0.2019083E-007  0.3894918E+04  0.7818608E-02  0.8026087E-01
          1   -1    0    0  501    0  0.00000000000E+00  0.00000000000E+00  0.20157080990E+04  0.20157080990E+04  0.00000000000E+00 0. -1.
         -1   -1    0    0    0  501 -0.00000000000E+00 -0.00000000000E+00 -0.18815205404E+04  0.18815205404E+04  0.00000000000E+00 0.  1.
         23    2    1    2    0    0  0.51670509685E+03 -0.44633815587E+03  0.17750591558E+04  0.19051633652E+04  0.11229663797E+03 0.  0.
        254    2    1    2    0    0 -0.51670509685E+03  0.44633815587E+03 -0.16408715972E+04  0.19920652741E+04  0.89981250892E+03 0.  0.
        -24    2    4    4    0    0 -0.19768201683E+03  0.37023158203E+03 -0.15955249818E+04  0.16517914583E+04  0.81027463208E+02 0.  0.
         24    2    4    4    0    0 -0.31902308002E+03  0.76106573842E+02 -0.45346615404E+02  0.34027381586E+03  0.78498522689E+02 0.  0.
         11    1    3    3    0    0  0.50436373272E+03 -0.45129907579E+03  0.17164117926E+04  0.18450265777E+04  0.00000000000E+00 0. -1.
        -11    1    3    3    0    0  0.12341364126E+02  0.49609199151E+01  0.58647363277E+02  0.60136787528E+02  0.00000000000E+00 0.  1.
          4    1    6    6  502    0 -0.22098835085E-01  0.11405447185E+02  0.11909521442E+01  0.11467479272E+02  0.00000000000E+00 0. -1.
          1    1    5    5  503    0 -0.95520680779E+01  0.86439368318E+02 -0.32463511741E+03  0.33608178448E+03  0.00000000000E+00 0. -1.
         -2    1    5    5    0  503 -0.18812994875E+03  0.28379221371E+03 -0.12708898644E+04  0.13157096738E+04  0.00000000000E+00 0.  1.
         -3    1    6    6    0  502 -0.31900098118E+03  0.64701126657E+02 -0.46537567548E+02  0.32880633658E+03  0.00000000000E+00 0.  1.
<mgrwt>
<rscale>  0 0.38949178E+04</rscale>
<asrwt>0</asrwt>
<pdfrwt beam="1">  1        1 0.31010894E+00 0.38949178E+04</pdfrwt>
<pdfrwt beam="2">  1       -1 0.28946470E+00 0.38949178E+04</pdfrwt>
<totfact> 0.88712086E-02</totfact>
</mgrwt>
</event>
<event>
12    1  0.2240961E-007  0.1932352E+04  0.7818608E-02  0.8638918E-01
         -1   -1    0    0    0  501 -0.00000000000E+00  0.00000000000E+00  0.86687532542E+03  0.86687532542E+03  0.00000000000E+00 0.  1.
          1   -1    0    0  501    0  0.00000000000E+00 -0.00000000000E+00 -0.10768519210E+04  0.10768519210E+04  0.00000000000E+00 0. -1.
         23    2    1    2    0    0  0.72525128784E+03  0.20179474409E+03 -0.74257636046E+02  0.76199854194E+03  0.91744384881E+02 0.  0.
        254    2    1    2    0    0 -0.72525128784E+03 -0.20179474409E+03 -0.13571895950E+03  0.11817287045E+04  0.90075110087E+03 0.  0.
        -24    2    4    4    0    0 -0.68276302557E+03 -0.19958262160E+03  0.27021910080E+03  0.76554387769E+03  0.83907653418E+02 0.  0.
         24    2    4    4    0    0 -0.42488262270E+02 -0.22121224813E+01 -0.40593806030E+03  0.41618482676E+03  0.81326227678E+02 0.  0.
         13    1    3    3    0    0  0.39537011441E+03  0.15501824881E+03 -0.27650316064E+02  0.42557340708E+03  0.00000000000E+00 0.  1.
        -13    1    3    3    0    0  0.32988117342E+03  0.46776495277E+02 -0.46607319982E+02  0.33642513486E+03  0.00000000000E+00 0. -1.
          4    1    6    6  502    0  0.71606766921E+01  0.38391440317E+01 -0.10191903580E+01  0.81885936870E+01  0.00000000000E+00 0. -1.
          3    1    5    5  503    0 -0.35831627661E+02  0.24948315386E+01  0.28916755574E+02  0.46111912541E+02  0.00000000000E+00 0. -1.
         -2    1    5    5    0  503 -0.64693139790E+03 -0.20207745314E+03  0.24130234523E+03  0.71943196515E+03  0.00000000000E+00 0.  1.
         -3    1    6    6    0  502 -0.49648938962E+02 -0.60512665130E+01 -0.40491886995E+03  0.40799623308E+03  0.00000000000E+00 0.  1.
<mgrwt>
<rscale>  0 0.19323523E+04</rscale>
<asrwt>0</asrwt>
<pdfrwt beam="1">  1        1 0.16566953E+00 0.19323523E+04</pdfrwt>
<pdfrwt beam="2">  1       -1 0.13336544E+00 0.19323523E+04</pdfrwt>
<totfact> 0.58541752E+00</totfact>
</mgrwt>
</event>
<event>
12    1  0.2019083E-007  0.2067369E+04  0.7818608E-02  0.8575756E-01
          1   -1    0    0  501    0  0.00000000000E+00  0.00000000000E+00  0.78448947667E+03  0.78448947667E+03  0.00000000000E+00 0. -1.
         -1   -1    0    0    0  501 -0.00000000000E+00 -0.00000000000E+00 -0.13620365589E+04  0.13620365589E+04  0.00000000000E+00 0.  1.
         23    2    1    2    0    0 -0.73535210951E+03  0.16813427380E+03 -0.60807610449E+03  0.97304724540E+03  0.89735912226E+02 0.  0.
        254    2    1    2    0    0  0.73535210951E+03 -0.16813427380E+03  0.30529022236E+02  0.11734787902E+04  0.89839222551E+03 0.  0.
        -24    2    4    4    0    0  0.45276152230E+03 -0.63348863586E+02 -0.41976700697E+03  0.62570116101E+03  0.79319153766E+02 0.  0.
         24    2    4    4    0    0  0.28259058721E+03 -0.10478541021E+03  0.45029602920E+03  0.54777762919E+03  0.80351695397E+02 0.  0.
         13    1    3    3    0    0 -0.32919814980E+03  0.11826891981E+03 -0.26029136603E+03  0.43601669057E+03  0.00000000000E+00 0. -1.
        -13    1    3    3    0    0 -0.40615395971E+03  0.49865353986E+02 -0.34778473845E+03  0.53703055483E+03  0.00000000000E+00 0.  1.
          2    1    6    6  502    0  0.22561180216E+03 -0.11254604085E+03  0.33871385565E+03  0.42224918305E+03  0.00000000000E+00 0. -1.
          1    1    5    5  503    0  0.35588709244E+03 -0.68528891003E+02 -0.29285374622E+03  0.46595616548E+03  0.00000000000E+00 0. -1.
         -2    1    5    5    0  503  0.96874429862E+02  0.51800274169E+01 -0.12691326074E+03  0.15974499553E+03  0.00000000000E+00 0.  1.
         -1    1    6    6    0  502  0.56978785051E+02  0.77606306343E+01  0.11158217356E+03  0.12552844614E+03  0.00000000000E+00 0.  1.
<mgrwt>
<rscale>  0 0.20673687E+04</rscale>
<asrwt>0</asrwt>
<pdfrwt beam="1">  1        1 0.12069069E+00 0.20673687E+04</pdfrwt>
<pdfrwt beam="2">  1       -1 0.20954408E+00 0.20673687E+04</pdfrwt>
<totfact> 0.27240354E+00</totfact>
</mgrwt>
</event>
<event>
12    1  0.2019083E-007  0.3449806E+04  0.7818608E-02  0.8125789E-01
          1   -1    0    0  501    0  0.00000000000E+00  0.00000000000E+00  0.24972888260E+04  0.24972888260E+04  0.00000000000E+00 0. -1.
         -1   -1    0    0    0  501 -0.00000000000E+00 -0.00000000000E+00 -0.11914080657E+04  0.11914080657E+04  0.00000000000E+00 0.  1.
         23    2    1    2    0    0 -0.23749419530E+03  0.99605034036E+03 -0.71373508974E+03  0.12514809400E+04  0.90922998224E+02 0.  0.
        254    2    1    2    0    0  0.23749419530E+03 -0.99605034036E+03  0.20196158501E+04  0.24372159516E+04  0.90147303875E+03 0.  0.
        -24    2    4    4    0    0  0.53321556829E+03 -0.43728233100E+03  0.13166648145E+04  0.14883272010E+04  0.77310699089E+02 0.  0.
         24    2    4    4    0    0 -0.29572137299E+03 -0.55876800936E+03  0.70295103559E+03  0.94888875064E+03  0.81097989644E+02 0.  0.
         13    1    3    3    0    0 -0.20683235961E+02  0.10224256045E+03 -0.41476102465E+02  0.11225686836E+03  0.00000000000E+00 0. -1.
        -13    1    3    3    0    0 -0.21681095934E+03  0.89380777991E+03 -0.67225898727E+03  0.11392240717E+04  0.00000000000E+00 0.  1.
          4    1    6    6  502    0 -0.24607672627E+03 -0.47634209635E+03  0.54921744599E+03  0.76752547250E+03  0.00000000000E+00 0. -1.
          3    1    5    5  503    0  0.42458546898E+03 -0.37429989296E+03  0.11218527097E+04  0.12565535137E+04  0.00000000000E+00 0. -1.
         -4    1    5    5    0  503  0.10863009931E+03 -0.62982438036E+02  0.19481210475E+03  0.23177368732E+03  0.00000000000E+00 0.  1.
         -3    1    6    6    0  502 -0.49644646717E+02 -0.82425913016E+02  0.15373358961E+03  0.18136327814E+03  0.00000000000E+00 0.  1.
<mgrwt>
<rscale>  0 0.34498058E+04</rscale>
<asrwt>0</asrwt>
<pdfrwt beam="1">  1        1 0.38419828E+00 0.34498058E+04</pdfrwt>
<pdfrwt beam="2">  1       -1 0.18329355E+00 0.34498058E+04</pdfrwt>
<totfact> 0.21968082E-01</totfact>
</mgrwt>
</event>
<event>
12    1  0.2019083E-007  0.2465452E+04  0.7818608E-02  0.8415398E-01
          2   -1    0    0  501    0  0.00000000000E+00  0.00000000000E+00  0.11287386913E+04  0.11287386913E+04  0.00000000000E+00 0. -1.
         -2   -1    0    0    0  501 -0.00000000000E+00 -0.00000000000E+00 -0.13462936643E+04  0.13462936643E+04  0.00000000000E+00 0.  1.
         23    2    1    2    0    0  0.38556643968E+03 -0.99424054958E+03 -0.61118006854E+02  0.10717064464E+04  0.87427379218E+02 0.  0.
        254    2    1    2    0    0 -0.38556643968E+03  0.99424054958E+03 -0.15643696611E+03  0.14033259093E+04  0.89870759058E+03 0.  0.
        -24    2    4    4    0    0 -0.34697191592E+03 -0.35069602578E+01 -0.18493206244E+03  0.40124153123E+03  0.79956797429E+02 0.  0.
         24    2    4    4    0    0 -0.38594523763E+02  0.99774750984E+03  0.28495096331E+02  0.10020843780E+04  0.79821673221E+02 0.  0.
         11    1    3    3    0    0  0.30802100521E+03 -0.73536176925E+03 -0.77132297409E+02  0.80098892791E+03  0.00000000000E+00 0.  1.
        -11    1    3    3    0    0  0.77545434472E+02 -0.25887878033E+03  0.16014290555E+02  0.27071751848E+03  0.00000000000E+00 0. -1.
          4    1    6    6  502    0  0.27091303486E+01  0.15871529991E+03  0.32477169545E+02  0.16202670260E+03  0.00000000000E+00 0. -1.
          1    1    5    5  503    0 -0.25063925699E+01 -0.93880070411E+01  0.97693502426E+00  0.97658118946E+01  0.00000000000E+00 0. -1.
         -2    1    5    5    0  503 -0.34446552335E+03  0.58810467833E+01 -0.18590899746E+03  0.39147571933E+03  0.00000000000E+00 0.  1.
         -3    1    6    6    0  502 -0.41303654112E+02  0.83903220992E+03 -0.39820732146E+01  0.84005767542E+03  0.00000000000E+00 0.  1.
<mgrwt>
<rscale>  0 0.24654523E+04</rscale>
<asrwt>0</asrwt>
<pdfrwt beam="1">  1        2 0.17365211E+00 0.24654523E+04</pdfrwt>
<pdfrwt beam="2">  1       -2 0.20712210E+00 0.24654523E+04</pdfrwt>
<totfact> 0.22357371E+00</totfact>
</mgrwt>
</event>
<event>
12    1  0.2019083E-007  0.4622039E+04  0.7818608E-02  0.7889613E-01
          2   -1    0    0  501    0  0.00000000000E+00  0.00000000000E+00  0.21059133338E+04  0.21059133338E+04  0.00000000000E+00 0. -1.
         -2   -1    0    0    0  501 -0.00000000000E+00 -0.00000000000E+00 -0.25361021667E+04  0.25361021667E+04  0.00000000000E+00 0.  1.
         23    2    1    2    0    0  0.39881245619E+03 -0.21247472751E+04 -0.72643564462E+03  0.22825066714E+04  0.92334181163E+02 0.  0.
        254    2    1    2    0    0 -0.39881245619E+03  0.21247472751E+04  0.29624681169E+03  0.23595088291E+04  0.89772901433E+03 0.  0.
        -24    2    4    4    0    0 -0.50276699300E+03  0.18360008841E+04  0.51494453618E+03  0.19735616120E+04  0.78125958801E+02 0.  0.
         24    2    4    4    0    0  0.10395453681E+03  0.28874639097E+03 -0.21869772449E+03  0.38594721710E+03  0.83339880436E+02 0.  0.
         13    1    3    3    0    0  0.25440840944E+03 -0.12807334875E+04 -0.39323837565E+03  0.13636855668E+04  0.00000000000E+00 0. -1.
        -13    1    3    3    0    0  0.14440404675E+03 -0.84401378753E+03 -0.33319726897E+03  0.91882110463E+03  0.00000000000E+00 0.  1.
          2    1    6    6  502    0  0.10415955835E+03  0.25024759289E+03 -0.21732450604E+03  0.34742339050E+03  0.00000000000E+00 0. -1.
          3    1    5    5  503    0 -0.27904797630E+03  0.91467201221E+03  0.28725332457E+03  0.99850244640E+03  0.00000000000E+00 0. -1.
         -4    1    5    5    0  503 -0.22371901670E+03  0.92132887189E+03  0.22769121161E+03  0.97505916562E+03  0.00000000000E+00 0.  1.
         -1    1    6    6    0  502 -0.20502153790E+00  0.38498798075E+02 -0.13732184561E+01  0.38523826601E+02  0.00000000000E+00 0.  1.
<mgrwt>
<rscale>  0 0.46220391E+04</rscale>
<asrwt>0</asrwt>
<pdfrwt beam="1">  1        2 0.32398667E+00 0.46220391E+04</pdfrwt>
<pdfrwt beam="2">  1       -2 0.39016956E+00 0.46220391E+04</pdfrwt>
<totfact> 0.37646180E-02</totfact>
</mgrwt>
</event>
<event>
12    1  0.2019083E-007  0.4576481E+04  0.7818608E-02  0.7897382E-01
          2   -1    0    0  501    0  0.00000000000E+00  0.00000000000E+00  0.29586547570E+04  0.29586547570E+04  0.00000000000E+00 0. -1.
         -2   -1    0    0    0  501 -0.00000000000E+00 -0.00000000000E+00 -0.17697384122E+04  0.17697384122E+04  0.00000000000E+00 0.  1.
         23    2    1    2    0    0  0.21441130712E+04 -0.35143647548E+03  0.22382776358E+03  0.21859976944E+04  0.88082881001E+02 0.  0.
        254    2    1    2    0    0 -0.21441130712E+04  0.35143647548E+03  0.96508858128E+03  0.25423954748E+04  0.90091637914E+03 0.  0.
        -24    2    4    4    0    0 -0.18698697044E+04 -0.30016465295E+02  0.71079209690E+03  0.20022396667E+04  0.80153466576E+02 0.  0.
         24    2    4    4    0    0 -0.27424336675E+03  0.38145294078E+03  0.25429648438E+03  0.54015580808E+03  0.79911355854E+02 0.  0.
         13    1    3    3    0    0  0.97200992334E+03 -0.19434248169E+03  0.12923311631E+03  0.99963667881E+03  0.00000000000E+00 0. -1.
        -13    1    3    3    0    0  0.11721031478E+04 -0.15709399379E+03  0.94594647266E+02  0.11863610156E+04  0.00000000000E+00 0.  1.
          2    1    6    6  502    0 -0.27478329455E+03  0.38494025592E+03  0.25317171663E+03  0.53645202739E+03  0.00000000000E+00 0. -1.
          1    1    5    5  503    0 -0.15020954920E+04 -0.51846676280E+02  0.55397783663E+03  0.16018334459E+04  0.00000000000E+00 0. -1.
         -2    1    5    5    0  503 -0.36777421241E+03  0.21830210985E+02  0.15681426026E+03  0.40040622078E+03  0.00000000000E+00 0.  1.
         -1    1    6    6    0  502  0.53992779971E+00 -0.34873151361E+01  0.11247677501E+01  0.37037806873E+01  0.00000000000E+00 0.  1.
<mgrwt>
<rscale>  0 0.45764812E+04</rscale>
<asrwt>0</asrwt>
<pdfrwt beam="1">  1        2 0.45517766E+00 0.45764812E+04</pdfrwt>
<pdfrwt beam="2">  1       -2 0.27226745E+00 0.45764812E+04</pdfrwt>
<totfact> 0.65297519E-02</totfact>
</mgrwt>
</event>
<event>
12    1  0.2019083E-007  0.2222239E+04  0.7818608E-02  0.8509228E-01
         -1   -1    0    0    0  501 -0.00000000000E+00  0.00000000000E+00  0.64466676730E+03  0.64466676730E+03  0.00000000000E+00 0.  1.
          1   -1    0    0  501    0  0.00000000000E+00 -0.00000000000E+00 -0.19150777829E+04  0.19150777829E+04  0.00000000000E+00 0. -1.
         23    2    1    2    0    0 -0.83151751117E+03 -0.13794083449E+03 -0.97558257735E+03  0.12923582477E+04  0.89327655238E+02 0.  0.
        254    2    1    2    0    0  0.83151751117E+03  0.13794083449E+03 -0.29482843821E+03  0.12673863025E+04  0.89938600526E+03 0.  0.
        -24    2    4    4    0    0 -0.26884718897E+02 -0.21536623159E+03  0.10405340833E+03  0.25382424504E+03  0.80586808884E+02 0.  0.
         24    2    4    4    0    0  0.85840223007E+03  0.35330706608E+03 -0.39888184654E+03  0.10135620574E+04  0.80752988754E+02 0.  0.
         11    1    3    3    0    0 -0.65292174875E+03 -0.10536671261E+03 -0.81836276645E+03  0.10522008229E+04  0.00000000000E+00 0. -1.
        -11    1    3    3    0    0 -0.17859576242E+03 -0.32574121878E+02 -0.15721981090E+03  0.24015742485E+03  0.00000000000E+00 0.  1.
          2    1    6    6  502    0  0.36442953628E+03  0.14516844323E+03 -0.21190797524E+03  0.44585620304E+03  0.00000000000E+00 0. -1.
          1    1    5    5  503    0  0.17202497091E+02 -0.78615837279E+01  0.42603403626E+01  0.19387648256E+02  0.00000000000E+00 0. -1.
         -2    1    5    5    0  503 -0.44087215989E+02 -0.20750464786E+03  0.99793067970E+02  0.23443659679E+03  0.00000000000E+00 0.  1.
         -1    1    6    6    0  502  0.49397269379E+03  0.20813862285E+03 -0.18697387129E+03  0.56770585437E+03  0.00000000000E+00 0.  1.
<mgrwt>
<rscale>  0 0.22222394E+04</rscale>
<asrwt>0</asrwt>
<pdfrwt beam="1">  1        1 0.29462735E+00 0.22222394E+04</pdfrwt>
<pdfrwt beam="2">  1       -1 0.99179503E-01 0.22222394E+04</pdfrwt>
<totfact> 0.30070098E+00</totfact>
</mgrwt>
</event>
<event>
12    1  0.2019083E-007  0.3742365E+04  0.7818608E-02  0.8058637E-01
         -1   -1    0    0    0  501 -0.00000000000E+00  0.00000000000E+00  0.20814076703E+04  0.20814076703E+04  0.00000000000E+00 0.  1.
          1   -1    0    0  501    0  0.00000000000E+00 -0.00000000000E+00 -0.16821907864E+04  0.16821907864E+04  0.00000000000E+00 0. -1.
         23    2    1    2    0    0 -0.16054745146E+04 -0.44701292334E+03 -0.38626775301E+03  0.17132554996E+04  0.93127112887E+02 0.  0.
        254    2    1    2    0    0  0.16054745146E+04  0.44701292334E+03  0.78548463688E+03  0.20503429571E+04  0.89975060788E+03 0.  0.
        -24    2    4    4    0    0  0.14627336643E+04  0.58790355474E+02  0.53621557222E+03  0.15611041193E+04  0.80454040674E+02 0.  0.
         24    2    4    4    0    0  0.14274085029E+03  0.38822256787E+03  0.24926906465E+03  0.48923883786E+03  0.78280657480E+02 0.  0.
         11    1    3    3    0    0 -0.12440064094E+04 -0.30591969329E+03 -0.30181276734E+03  0.13161419953E+04  0.00000000000E+00 0.  1.
        -11    1    3    3    0    0 -0.36146810524E+03 -0.14109323006E+03 -0.84454985671E+02  0.39711350427E+03  0.00000000000E+00 0. -1.
          4    1    6    6  502    0  0.93173314550E+02  0.32728724868E+03  0.18246919504E+03  0.38612590800E+03  0.00000000000E+00 0. -1.
          3    1    5    5  503    0  0.10595434247E+04  0.26471065373E+02  0.35355142211E+03  0.11172876058E+04  0.00000000000E+00 0. -1.
         -4    1    5    5    0  503  0.40319023964E+03  0.32319290101E+02  0.18266415011E+03  0.44381651343E+03  0.00000000000E+00 0.  1.
         -3    1    6    6    0  502  0.49567535739E+02  0.60935319195E+02  0.66799869617E+02  0.10311292987E+03  0.00000000000E+00 0.  1.
<mgrwt>
<rscale>  0 0.37423655E+04</rscale>
<asrwt>0</asrwt>
<pdfrwt beam="1">  1        1 0.25879858E+00 0.37423655E+04</pdfrwt>
<pdfrwt beam="2">  1       -1 0.32021657E+00 0.37423655E+04</pdfrwt>
<totfact> 0.95579584E-02</totfact>
</mgrwt>
</event>
<event>
12    1  0.2019083E-007  0.1437617E+04  0.7818608E-02  0.8927031E-01
          1   -1    0    0  501    0  0.00000000000E+00  0.00000000000E+00  0.10178009485E+04  0.10178009485E+04  0.00000000000E+00 0. -1.
         -1   -1    0    0    0  501 -0.00000000000E+00 -0.00000000000E+00 -0.50764916448E+03  0.50764916448E+03  0.00000000000E+00 0.  1.
         23    2    1    2    0    0  0.25150444065E+03  0.21421302558E+03 -0.13388298032E+03  0.36798191870E+03  0.91347337539E+02 0.  0.
        254    2    1    2    0    0 -0.25150444065E+03 -0.21421302558E+03  0.64403476433E+03  0.11574681943E+04  0.90322208734E+03 0.  0.
        -24    2    4    4    0    0  0.31754596037E+02 -0.43980709327E+03  0.64630455427E+03  0.78644366729E+03  0.79658215511E+02 0.  0.
         24    2    4    4    0    0 -0.28325903669E+03  0.22559406768E+03 -0.22697899436E+01  0.37102452697E+03  0.80781696100E+02 0.  0.
         13    1    3    3    0    0  0.20290695228E+03  0.20506136638E+03 -0.90907515363E+02  0.30246581892E+03  0.00000000000E+00 0. -1.
        -13    1    3    3    0    0  0.48597488374E+02  0.91516592008E+01 -0.42975464959E+02  0.65516099784E+02  0.00000000000E+00 0.  1.
          2    1    6    6  502    0 -0.16945638251E+03  0.83901171947E+02  0.48110465449E+01  0.18915078217E+03  0.00000000000E+00 0. -1.
          1    1    5    5  503    0  0.53634588470E+02 -0.21815550789E+03  0.30243302075E+03  0.37674159147E+03  0.00000000000E+00 0. -1.
         -2    1    5    5    0  503 -0.21879992433E+02 -0.22165158538E+03  0.34387153352E+03  0.40970207583E+03  0.00000000000E+00 0.  1.
         -1    1    6    6    0  502 -0.11380265418E+03  0.14169289574E+03 -0.70808364885E+01  0.18187374479E+03  0.00000000000E+00 0.  1.
<mgrwt>
<rscale>  0 0.14376172E+04</rscale>
<asrwt>0</asrwt>
<pdfrwt beam="1">  1        1 0.15658476E+00 0.14376172E+04</pdfrwt>
<pdfrwt beam="2">  1       -1 0.78099872E-01 0.14376172E+04</pdfrwt>
<totfact> 0.23394388E+01</totfact>
</mgrwt>
</event>
<event>
12    1  0.2019083E-007  0.1204265E+04  0.7818608E-02  0.9109131E-01
          1   -1    0    0  501    0  0.00000000000E+00  0.00000000000E+00  0.52469185218E+03  0.52469185218E+03  0.00000000000E+00 0. -1.
         -1   -1    0    0    0  501 -0.00000000000E+00 -0.00000000000E+00 -0.69100333297E+03  0.69100333297E+03  0.00000000000E+00 0.  1.
         23    2    1    2    0    0 -0.19738641224E+03  0.10872049386E+03  0.80708978941E+02  0.25552266902E+03  0.89422332670E+02 0.  0.
        254    2    1    2    0    0  0.19738641224E+03 -0.10872049386E+03 -0.24702045973E+03  0.96017251613E+03  0.90007255912E+03 0.  0.
        -24    2    4    4    0    0  0.11153875929E+03  0.39179251296E+03 -0.12863880074E+03  0.43319332697E+03  0.71876626506E+02 0.  0.
         24    2    4    4    0    0  0.85847652951E+02 -0.50051300681E+03 -0.11838165899E+03  0.52697918916E+03  0.76221775869E+02 0.  0.
         11    1    3    3    0    0 -0.94567197650E+02  0.29036128952E+02 -0.61362465560E+01  0.99114606279E+02  0.00000000000E+00 0.  1.
        -11    1    3    3    0    0 -0.10281921459E+03  0.79684364907E+02  0.86845225497E+02  0.15640806275E+03  0.00000000000E+00 0. -1.
          2    1    6    6  502    0  0.36607520082E+02 -0.39770102162E+03 -0.97060952927E+02  0.41100734995E+03  0.00000000000E+00 0. -1.
          3    1    5    5  503    0  0.11862746074E+03  0.34344158275E+03 -0.12475120909E+03  0.38417113292E+03  0.00000000000E+00 0. -1.
         -4    1    5    5    0  503 -0.70887014422E+01  0.48350930203E+02 -0.38875916557E+01  0.49022194040E+02  0.00000000000E+00 0.  1.
         -1    1    6    6    0  502  0.49240132869E+02 -0.10281198519E+03 -0.21320706059E+02  0.11597183921E+03  0.00000000000E+00 0.  1.
<mgrwt>
<rscale>  0 0.12042655E+04</rscale>
<asrwt>0</asrwt>
<pdfrwt beam="1">  1        1 0.80721824E-01 0.12042655E+04</pdfrwt>
<pdfrwt beam="2">  1       -1 0.10630820E+00 0.12042655E+04</pdfrwt>
<totfact> 0.33935858E+01</totfact>
</mgrwt>
</event>
<event>
12    1  0.2019083E-007  0.1496120E+04  0.7818608E-02  0.8887037E-01
         -1   -1    0    0    0  501 -0.00000000000E+00  0.00000000000E+00  0.71676006603E+03  0.71676006603E+03  0.00000000000E+00 0. -1.
          1   -1    0    0  501    0  0.00000000000E+00 -0.00000000000E+00 -0.78072685388E+03  0.78072685388E+03  0.00000000000E+00 0.  1.
         23    2    1    2    0    0 -0.44732366809E+03  0.14571455432E+03 -0.57781126225E+01  0.47954869267E+03  0.92748944381E+02 0.  0.
        254    2    1    2    0    0  0.44732366809E+03 -0.14571455432E+03 -0.58188675234E+02  0.10179382272E+04  0.90082246707E+03 0.  0.
        -24    2    4    4    0    0  0.67377076568E+03  0.77146107441E+02 -0.92830672454E+02  0.68913696087E+03  0.79835145859E+02 0.  0.
         24    2    4    4    0    0 -0.22644709759E+03 -0.22286066176E+03  0.34641997219E+02  0.32880126637E+03  0.77233685859E+02 0.  0.
         11    1    3    3    0    0 -0.45316610580E+02  0.46624600310E+02  0.63790406496E+01  0.65331008780E+02  0.00000000000E+00 0.  1.
        -11    1    3    3    0    0 -0.40200705751E+03  0.99089954006E+02 -0.12157153272E+02  0.41421768389E+03  0.00000000000E+00 0. -1.
          4    1    6    6  502    0 -0.17178844762E+03 -0.14498940979E+03 -0.70990671197E+01  0.22490797327E+03  0.00000000000E+00 0. -1.
          3    1    5    5  503    0  0.84333592283E+02 -0.84410864194E+01  0.76613312778E+01  0.85100544794E+02  0.00000000000E+00 0. -1.
         -4    1    5    5    0  503  0.58943717339E+03  0.85587193860E+02 -0.10049200373E+03  0.60403641608E+03  0.00000000000E+00 0.  1.
         -3    1    6    6    0  502 -0.54658649971E+02 -0.77871251968E+02  0.41741064339E+02  0.10389329310E+03  0.00000000000E+00 0.  1.
<mgrwt>
<rscale>  0 0.14961201E+04</rscale>
<asrwt>0</asrwt>
<pdfrwt beam="1">  1        1 0.12011182E+00 0.14961201E+04</pdfrwt>
<pdfrwt beam="2">  1       -1 0.11027078E+00 0.14961201E+04</pdfrwt>
<totfact> 0.16884929E+01</totfact>
</mgrwt>
</event>
<event>
12    1  0.2019083E-007  0.2770160E+04  0.7818608E-02  0.8312593E-01
          1   -1    0    0  501    0  0.00000000000E+00  0.00000000000E+00  0.82722235714E+03  0.82722235714E+03  0.00000000000E+00 0. -1.
         -1   -1    0    0    0  501 -0.00000000000E+00 -0.00000000000E+00 -0.23191432884E+04  0.23191432884E+04  0.00000000000E+00 0.  1.
         23    2    1    2    0    0  0.97891331235E+03  0.68137300757E+03 -0.10279362875E+04  0.15770988223E+04  0.89706385102E+02 0.  0.
        254    2    1    2    0    0 -0.97891331235E+03 -0.68137300757E+03 -0.46398464369E+03  0.15692668232E+04  0.90817188039E+03 0.  0.
        -24    2    4    4    0    0 -0.34419368474E+03  0.18122815748E+03 -0.26497626273E+03  0.47711040417E+03  0.78159965941E+02 0.  0.
         24    2    4    4    0    0 -0.63471962761E+03 -0.86260116505E+03 -0.19900838096E+03  0.10921564190E+04  0.79066632328E+02 0.  0.
         13    1    3    3    0    0  0.71426800194E+03  0.54364498930E+03 -0.78067411159E+03  0.11896136858E+04  0.00000000000E+00 0. -1.
        -13    1    3    3    0    0  0.26464531041E+03  0.13772801827E+03 -0.24726217596E+03  0.38748513649E+03  0.00000000000E+00 0.  1.
          4    1    6    6  502    0 -0.29647004295E+03 -0.35953452949E+03 -0.11662216431E+03  0.48037515909E+03  0.00000000000E+00 0. -1.
          1    1    5    5  503    0 -0.15850369391E+00  0.58948240785E+01  0.34570256499E+01  0.68355761046E+01  0.00000000000E+00 0. -1.
         -2    1    5    5    0  503 -0.34403518104E+03  0.17533333341E+03 -0.26843328838E+03  0.47027482806E+03  0.00000000000E+00 0.  1.
         -3    1    6    6    0  502 -0.33824958466E+03 -0.50306663556E+03 -0.82386216643E+02  0.61178125996E+03  0.00000000000E+00 0.  1.
<mgrwt>
<rscale>  0 0.27701604E+04</rscale>
<asrwt>0</asrwt>
<pdfrwt beam="1">  1        1 0.12726498E+00 0.27701604E+04</pdfrwt>
<pdfrwt beam="2">  1       -1 0.35679127E+00 0.27701604E+04</pdfrwt>
<totfact> 0.25451717E-01</totfact>
</mgrwt>
</event>
<event>
12    1  0.2019083E-007  0.1883162E+04  0.7818608E-02  0.8663283E-01
         -1   -1    0    0    0  501 -0.00000000000E+00  0.00000000000E+00  0.10947410932E+04  0.10947410932E+04  0.00000000000E+00 0.  1.
          1   -1    0    0  501    0  0.00000000000E+00 -0.00000000000E+00 -0.80984912325E+03  0.80984912325E+03  0.00000000000E+00 0. -1.
         23    2    1    2    0    0  0.68985472513E+03  0.87721637711E+02  0.30868861618E+03  0.76583574436E+03  0.87298900702E+02 0.  0.
        254    2    1    2    0    0 -0.68985472513E+03 -0.87721637711E+02 -0.23796646231E+02  0.11387544721E+04  0.90144375301E+03 0.  0.
        -24    2    4    4    0    0  0.15975559677E+03 -0.67799407594E+02  0.17887694880E+03  0.26144045335E+03  0.78965419444E+02 0.  0.
         24    2    4    4    0    0 -0.84961032190E+03 -0.19922230117E+02 -0.20267359503E+03  0.87731401875E+03  0.79804179342E+02 0.  0.
         13    1    3    3    0    0  0.32439551488E+03  0.77781883018E+02  0.17380791864E+03  0.37615377704E+03  0.00000000000E+00 0.  1.
        -13    1    3    3    0    0  0.36545921025E+03  0.99397546928E+01  0.13488069754E+03  0.38968196732E+03  0.00000000000E+00 0. -1.
          4    1    6    6  502    0 -0.48061257931E+01  0.38078650997E+01 -0.79395638424E+01  0.10031717488E+02  0.00000000000E+00 0. -1.
          1    1    5    5  503    0  0.29994085560E+02 -0.51817477373E+02  0.59073429261E+02  0.84109251421E+02  0.00000000000E+00 0. -1.
         -2    1    5    5    0  503  0.12976151120E+03 -0.15981930221E+02  0.11980351954E+03  0.17733120193E+03  0.00000000000E+00 0.  1.
         -3    1    6    6    0  502 -0.84480419611E+03 -0.23730095216E+02 -0.19473403119E+03  0.86728230126E+03  0.00000000000E+00 0.  1.
<mgrwt>
<rscale>  0 0.18831624E+04</rscale>
<asrwt>0</asrwt>
<pdfrwt beam="1">  1        1 0.12459217E+00 0.18831624E+04</pdfrwt>
<pdfrwt beam="2">  1       -1 0.16842171E+00 0.18831624E+04</pdfrwt>
<totfact> 0.51334475E+00</totfact>
</mgrwt>
</event>
<event>
12    1  0.2019083E-007  0.1326114E+04  0.7818608E-02  0.9009109E-01
          1   -1    0    0  501    0  0.00000000000E+00  0.00000000000E+00  0.12233318373E+04  0.12233318373E+04  0.00000000000E+00 0. -1.
         -1   -1    0    0    0  501 -0.00000000000E+00 -0.00000000000E+00 -0.35938295977E+03  0.35938295977E+03  0.00000000000E+00 0.  1.
         23    2    1    2    0    0  0.62228128744E+01  0.30716797945E+03  0.29761461533E+02  0.31684018401E+03  0.71491724078E+02 0.  0.
        254    2    1    2    0    0 -0.62228128744E+01 -0.30716797945E+03  0.83418741596E+03  0.12658746130E+04  0.90120974250E+03 0.  0.
        -24    2    4    4    0    0 -0.35611348850E+03  0.99370293095E+02  0.50711072896E+03  0.63252745567E+03  0.78983662295E+02 0.  0.
         24    2    4    4    0    0  0.34989067563E+03 -0.40653827254E+03  0.32707668700E+03  0.63334715736E+03  0.80328143402E+02 0.  0.
         13    1    3    3    0    0  0.12989238099E+02  0.22111331546E+03 -0.10177238494E+02  0.22172820020E+03  0.00000000000E+00 0.  1.
        -13    1    3    3    0    0 -0.67664252243E+01  0.86054663991E+02  0.39938700027E+02  0.95111983813E+02  0.00000000000E+00 0. -1.
          4    1    6    6  502    0  0.18835659820E+03 -0.16093248790E+03  0.16500895285E+03  0.29766663949E+03  0.00000000000E+00 0. -1.
          1    1    5    5  503    0 -0.35984965092E+03  0.94836539374E+02  0.50042634278E+03  0.62362830678E+03  0.00000000000E+00 0. -1.
         -2    1    5    5    0  503  0.37361624180E+01  0.45337537216E+01  0.66843861848E+01  0.88991488969E+01  0.00000000000E+00 0.  1.
         -3    1    6    6    0  502  0.16153407743E+03 -0.24560578465E+03  0.16206773415E+03  0.33568051786E+03  0.00000000000E+00 0.  1.
<mgrwt>
<rscale>  0 0.13261140E+04</rscale>
<asrwt>0</asrwt>
<pdfrwt beam="1">  1        1 0.18820490E+00 0.13261140E+04</pdfrwt>
<pdfrwt beam="2">  1       -1 0.55289687E-01 0.13261140E+04</pdfrwt>
<totfact> 0.33316355E+01</totfact>
</mgrwt>
</event>
<event>
12    1  0.2019083E-007  0.2745520E+04  0.7818608E-02  0.8320385E-01
          2   -1    0    0  501    0  0.00000000000E+00  0.00000000000E+00  0.26363152769E+04  0.26363152769E+04  0.00000000000E+00 0. -1.
         -2   -1    0    0    0  501 -0.00000000000E+00 -0.00000000000E+00 -0.71481187878E+03  0.71481187878E+03  0.00000000000E+00 0.  1.
         23    2    1    2    0    0  0.72397595454E+03 -0.62808014117E+03 -0.67255742037E+02  0.96524441724E+03  0.92453251377E+02 0.  0.
        254    2    1    2    0    0 -0.72397595454E+03  0.62808014117E+03  0.19887591402E+04  0.23858827385E+04  0.90479151055E+03 0.  0.
        -24    2    4    4    0    0 -0.43875403267E+01  0.58533409806E+03  0.82658844762E+03  0.10161559984E+04  0.81788107754E+02 0.  0.
         24    2    4    4    0    0 -0.71958841421E+03  0.42746043111E+02  0.11621706926E+04  0.13697267400E+04  0.76654508142E+02 0.  0.
         11    1    3    3    0    0  0.27827456290E+03 -0.21086729787E+03 -0.62658302527E+02  0.35472216247E+03  0.00000000000E+00 0.  1.
        -11    1    3    3    0    0  0.44570139163E+03 -0.41721284330E+03 -0.45974395104E+01  0.61052225477E+03  0.00000000000E+00 0. -1.
          2    1    6    6  502    0 -0.18889000680E+03  0.19529022129E+02  0.24700656032E+03  0.31156549587E+03  0.00000000000E+00 0. -1.
          3    1    5    5  503    0 -0.18017581658E+02  0.28627133379E+03  0.46937995771E+03  0.55008495207E+03  0.00000000000E+00 0. -1.
         -4    1    5    5    0  503  0.13630041331E+02  0.29906276427E+03  0.35720848992E+03  0.46607104637E+03  0.00000000000E+00 0.  1.
         -1    1    6    6    0  502 -0.53069840741E+03  0.23217020983E+02  0.91516413223E+03  0.10581612441E+04  0.00000000000E+00 0.  1.
<mgrwt>
<rscale>  0 0.27455196E+04</rscale>
<asrwt>0</asrwt>
<pdfrwt beam="1">  1        2 0.40558696E+00 0.27455196E+04</pdfrwt>
<pdfrwt beam="2">  1       -2 0.10997106E+00 0.27455196E+04</pdfrwt>
<totfact> 0.16641567E+00</totfact>
</mgrwt>
</event>
<event>
12    1  0.2019083E-007  0.3271794E+04  0.7818608E-02  0.8170110E-01
          2   -1    0    0  501    0  0.00000000000E+00  0.00000000000E+00  0.26909208729E+04  0.26909208729E+04  0.00000000000E+00 0. -1.
         -2   -1    0    0    0  501 -0.00000000000E+00 -0.00000000000E+00 -0.99451398005E+03  0.99451398005E+03  0.00000000000E+00 0.  1.
         23    2    1    2    0    0  0.39488235704E+03  0.11527306717E+04 -0.22141547970E+03  0.12419477438E+04  0.93216448906E+02 0.  0.
        254    2    1    2    0    0 -0.39488235704E+03 -0.11527306717E+04  0.19178223726E+04  0.24434871091E+04  0.89881395317E+03 0.  0.
        -24    2    4    4    0    0 -0.68018627669E+03 -0.79338448502E+03  0.12942191067E+04  0.16651291149E+04  0.74428227998E+02 0.  0.
         24    2    4    4    0    0  0.28530391964E+03 -0.35934618669E+03  0.62360326591E+03  0.77835799426E+03  0.80200533172E+02 0.  0.
         11    1    3    3    0    0  0.30155329329E+03  0.92051124599E+03 -0.13967139105E+03  0.97866410998E+03  0.00000000000E+00 0. -1.
        -11    1    3    3    0    0  0.93329063755E+02  0.23221942572E+03 -0.81744088649E+02  0.26328363384E+03  0.00000000000E+00 0.  1.
          2    1    6    6  502    0  0.27930392274E+03 -0.33962432316E+03  0.56315936553E+03  0.71449550952E+03  0.00000000000E+00 0. -1.
          3    1    5    5  503    0 -0.59706624612E+03 -0.65599611175E+03  0.11034158664E+04  0.14157491216E+04  0.00000000000E+00 0. -1.
         -4    1    5    5    0  503 -0.83120030565E+02 -0.13738837327E+03  0.19080324022E+03  0.24937999332E+03  0.00000000000E+00 0.  1.
         -1    1    6    6    0  502  0.59999969030E+01 -0.19721863532E+02  0.60443900381E+02  0.63862484741E+02  0.00000000000E+00 0.  1.
<mgrwt>
<rscale>  0 0.32717937E+04</rscale>
<asrwt>0</asrwt>
<pdfrwt beam="1">  1        2 0.41398782E+00 0.32717937E+04</pdfrwt>
<pdfrwt beam="2">  1       -2 0.15300215E+00 0.32717937E+04</pdfrwt>
<totfact> 0.63951478E-01</totfact>
</mgrwt>
</event>
<event>
12    1  0.2019083E-007  0.1864041E+04  0.7818608E-02  0.8672966E-01
          1   -1    0    0  501    0  0.00000000000E+00  0.00000000000E+00  0.11362789884E+04  0.11362789884E+04  0.00000000000E+00 0. -1.
         -1   -1    0    0    0  501 -0.00000000000E+00 -0.00000000000E+00 -0.76447948479E+03  0.76447948479E+03  0.00000000000E+00 0.  1.
         23    2    1    2    0    0  0.55131736137E+03  0.43281347047E+03  0.25190703409E+03  0.75034932779E+03  0.91041895421E+02 0.  0.
        254    2    1    2    0    0 -0.55131736137E+03 -0.43281347047E+03  0.11989246952E+03  0.11504091454E+04  0.90431668370E+03 0.  0.
        -24    2    4    4    0    0 -0.78685454404E+03 -0.23381403427E+03  0.67429935292E+02  0.82752550171E+03  0.80265706854E+02 0.  0.
         24    2    4    4    0    0  0.23553718268E+03 -0.19899943620E+03  0.52462534232E+02  0.32288364370E+03  0.80143557687E+02 0.  0.
         11    1    3    3    0    0  0.42580502318E+03  0.32851253082E+03  0.23285529478E+03  0.58604777022E+03  0.00000000000E+00 0. -1.
        -11    1    3    3    0    0  0.12551233819E+03  0.10430093965E+03  0.19051739313E+02  0.16430155757E+03  0.00000000000E+00 0.  1.
          2    1    6    6  502    0  0.17453686903E+03 -0.18806030523E+03  0.40068262716E+02  0.25968300432E+03  0.00000000000E+00 0. -1.
          1    1    5    5  503    0 -0.69634267011E+03 -0.22357151064E+03  0.79409600149E+02  0.73565156099E+03  0.00000000000E+00 0. -1.
         -2    1    5    5    0  503 -0.90511873931E+02 -0.10242523629E+02 -0.11979664856E+02  0.91873940717E+02  0.00000000000E+00 0.  1.
         -1    1    6    6    0  502  0.61000313651E+02 -0.10939130966E+02  0.12394271517E+02  0.63200639382E+02  0.00000000000E+00 0.  1.
<mgrwt>
<rscale>  0 0.18640407E+04</rscale>
<asrwt>0</asrwt>
<pdfrwt beam="1">  1        1 0.17481215E+00 0.18640407E+04</pdfrwt>
<pdfrwt beam="2">  1       -1 0.11761223E+00 0.18640407E+04</pdfrwt>
<totfact> 0.72678210E+00</totfact>
</mgrwt>
</event>
<event>
12    1  0.2019083E-007  0.2197845E+04  0.7818608E-02  0.8519326E-01
         -1   -1    0    0    0  501 -0.00000000000E+00  0.00000000000E+00  0.54787043523E+03  0.54787043523E+03  0.00000000000E+00 0. -1.
          1   -1    0    0  501    0  0.00000000000E+00 -0.00000000000E+00 -0.22042258735E+04  0.22042258735E+04  0.00000000000E+00 0.  1.
         23    2    1    2    0    0 -0.16144833819E+03 -0.86048322696E+03 -0.37316170655E+03  0.95621811000E+03  0.92771034562E+02 0.  0.
        254    2    1    2    0    0  0.16144833819E+03  0.86048322696E+03 -0.12831937317E+04  0.17958781987E+04  0.90116336018E+03 0.  0.
        -24    2    4    4    0    0 -0.10202917696E+03  0.17362576981E+03 -0.96749767281E+03  0.99091699632E+03  0.72862101337E+02 0.  0.
         24    2    4    4    0    0  0.26347751515E+03  0.68685745715E+03 -0.31569605889E+03  0.80496120239E+03  0.84290974098E+02 0.  0.
         11    1    3    3    0    0 -0.73858682369E+02 -0.18404362097E+03 -0.84896221343E+02  0.21571863105E+03  0.00000000000E+00 0.  1.
        -11    1    3    3    0    0 -0.87589655823E+02 -0.67643960599E+03 -0.28826548521E+03  0.74049947895E+03  0.00000000000E+00 0. -1.
          4    1    6    6  502    0  0.19967243054E+03  0.46167548097E+03 -0.25091930229E+03  0.56211549126E+03  0.00000000000E+00 0. -1.
          3    1    5    5  503    0 -0.81705729601E+02  0.15423807239E+03 -0.91376633581E+03  0.93028712002E+03  0.00000000000E+00 0. -1.
         -4    1    5    5    0  503 -0.20323447359E+02  0.19387697423E+02 -0.53731337001E+02  0.60629876298E+02  0.00000000000E+00 0.  1.
         -3    1    6    6    0  502  0.63805084609E+02  0.22518197618E+03 -0.64776756598E+02  0.24284571113E+03  0.00000000000E+00 0.  1.
<mgrwt>
<rscale>  0 0.21978446E+04</rscale>
<asrwt>0</asrwt>
<pdfrwt beam="1">  1        1 0.33911167E+00 0.21978446E+04</pdfrwt>
<pdfrwt beam="2">  1       -1 0.84287759E-01 0.21978446E+04</pdfrwt>
<totfact> 0.27511791E+00</totfact>
</mgrwt>
</event>
<event>
12    1  0.2019083E-007  0.2950141E+04  0.7818608E-02  0.8258113E-01
         -2   -1    0    0    0  501 -0.00000000000E+00  0.00000000000E+00  0.21324809547E+04  0.21324809547E+04  0.00000000000E+00 0. -1.
          2   -1    0    0  501    0  0.00000000000E+00 -0.00000000000E+00 -0.10203296864E+04  0.10203296864E+04  0.00000000000E+00 0.  1.
         23    2    1    2    0    0 -0.10388288969E+04  0.20600932362E+03 -0.36595836277E+03  0.11236667532E+04  0.84238533140E+02 0.  0.
        254    2    1    2    0    0  0.10388288969E+04 -0.20600932362E+03  0.14781096310E+04  0.20291438879E+04  0.90056177914E+03 0.  0.
        -24    2    4    4    0    0 -0.15028262056E+03  0.37011020376E+02  0.20191023903E+03  0.26605448802E+03  0.77862470406E+02 0.  0.
         24    2    4    4    0    0  0.11891115175E+04 -0.24302034400E+03  0.12761993920E+04  0.17630893999E+04  0.82184276593E+02 0.  0.
         13    1    3    3    0    0 -0.76588223337E+03  0.15577330684E+03 -0.30852552131E+03  0.84025526825E+03  0.00000000000E+00 0. -1.
        -13    1    3    3    0    0 -0.27294666352E+03  0.50236016787E+02 -0.57432841459E+02  0.28341148492E+03  0.00000000000E+00 0.  1.
          2    1    6    6  502    0  0.16928110571E+03 -0.93055702004E+01  0.15825181873E+03  0.23191878863E+03  0.00000000000E+00 0. -1.
          1    1    5    5  503    0 -0.17171663937E+02 -0.11295189920E+02  0.68447856278E+02  0.71467169993E+02  0.00000000000E+00 0. -1.
         -2    1    5    5    0  503 -0.13311095663E+03  0.48306210297E+02  0.13346238275E+03  0.19458731803E+03  0.00000000000E+00 0.  1.
         -1    1    6    6    0  502  0.10198304117E+04 -0.23371477380E+03  0.11179475733E+04  0.15311706113E+04  0.00000000000E+00 0.  1.
<mgrwt>
<rscale>  0 0.29501414E+04</rscale>
<asrwt>0</asrwt>
<pdfrwt beam="1">  1        2 0.15697380E+00 0.29501414E+04</pdfrwt>
<pdfrwt beam="2">  1       -2 0.32807399E+00 0.29501414E+04</pdfrwt>
<totfact> 0.44828026E-01</totfact>
</mgrwt>
</event>
<event>
12    1  0.2019083E-007  0.1986302E+04  0.7818608E-02  0.8613052E-01
         -1   -1    0    0    0  501 -0.00000000000E+00  0.00000000000E+00  0.77480591494E+03  0.77480591494E+03  0.00000000000E+00 0.  1.
          1   -1    0    0  501    0  0.00000000000E+00 -0.00000000000E+00 -0.12730265849E+04  0.12730265849E+04  0.00000000000E+00 0. -1.
         23    2    1    2    0    0 -0.77275371865E+03  0.13769348285E+03 -0.22410007064E+03  0.82092653163E+03  0.87130498549E+02 0.  0.
        254    2    1    2    0    0  0.77275371865E+03 -0.13769348285E+03 -0.27412059935E+03  0.12269059682E+04  0.90224627848E+03 0.  0.
        -24    2    4    4    0    0  0.86043820336E+01 -0.34589682484E+03  0.67144880852E+02  0.36125441845E+03  0.79231755021E+02 0.  0.
         24    2    4    4    0    0  0.76414933661E+03  0.20820334199E+03 -0.34126548020E+03  0.86565154979E+03  0.74950900024E+02 0.  0.
         13    1    3    3    0    0 -0.54581880004E+03  0.12657240001E+03 -0.13118473395E+03  0.57545475004E+03  0.00000000000E+00 0.  1.
        -13    1    3    3    0    0 -0.22693491861E+03  0.11121082835E+02 -0.92915336690E+02  0.24547178160E+03  0.00000000000E+00 0. -1.
          2    1    6    6  502    0  0.39425917878E+01  0.17665023301E+01 -0.10377824977E+02  0.11241165942E+02  0.00000000000E+00 0. -1.
          3    1    5    5  503    0 -0.11272264859E+02 -0.34823087780E+02  0.30029694884E+02  0.47344418598E+02  0.00000000000E+00 0. -1.
         -4    1    5    5    0  503  0.19876646892E+02 -0.31107373706E+03  0.37115185967E+02  0.31390999985E+03  0.00000000000E+00 0.  1.
         -1    1    6    6    0  502  0.76020674483E+03  0.20643683966E+03 -0.33088765523E+03  0.85441038385E+03  0.00000000000E+00 0.  1.
<mgrwt>
<rscale>  0 0.19863016E+04</rscale>
<asrwt>0</asrwt>
<pdfrwt beam="1">  1        1 0.19585024E+00 0.19863016E+04</pdfrwt>
<pdfrwt beam="2">  1       -1 0.11920091E+00 0.19863016E+04</pdfrwt>
<totfact> 0.55282100E+00</totfact>
</mgrwt>
</event>
<event>
12    1  0.2019083E-007  0.2468465E+04  0.7818608E-02  0.8414307E-01
         -1   -1    0    0    0  501 -0.00000000000E+00  0.00000000000E+00  0.21672954032E+04  0.21672954032E+04  0.00000000000E+00 0.  1.
          1   -1    0    0  501    0  0.00000000000E+00 -0.00000000000E+00 -0.70287120750E+03  0.70287120750E+03  0.00000000000E+00 0. -1.
         23    2    1    2    0    0 -0.76259310200E+03  0.31879150176E+03  0.14173308725E+04  0.16432627548E+04  0.91156011257E+02 0.  0.
        254    2    1    2    0    0  0.76259310200E+03 -0.31879150176E+03  0.47093323259E+02  0.12269038560E+04  0.90548276066E+03 0.  0.
        -24    2    4    4    0    0  0.43584816043E+03 -0.49295376288E+03 -0.28614390248E+03  0.72193737793E+03  0.79675676633E+02 0.  0.
         24    2    4    4    0    0  0.32674494157E+03  0.17416226112E+03  0.33323722574E+03  0.50496647802E+03  0.82760771283E+02 0.  0.
         11    1    3    3    0    0 -0.64397458158E+03  0.25209669677E+03  0.12390688091E+04  0.14189952502E+04  0.00000000000E+00 0.  1.
        -11    1    3    3    0    0 -0.11861852042E+03  0.66694804992E+02  0.17826206333E+03  0.22426750461E+03  0.00000000000E+00 0. -1.
          2    1    6    6  502    0  0.11164829313E+03  0.17722065995E+02  0.89141589474E+02  0.14396400924E+03  0.00000000000E+00 0. -1.
          3    1    5    5  503    0  0.22394371358E+03 -0.29543828632E+03 -0.19099053639E+03  0.41702752051E+03  0.00000000000E+00 0. -1.
         -4    1    5    5    0  503  0.21190444685E+03 -0.19751547656E+03 -0.95153366099E+02  0.30490985743E+03  0.00000000000E+00 0.  1.
         -1    1    6    6    0  502  0.21509664844E+03  0.15644019512E+03  0.24409563627E+03  0.36100246878E+03  0.00000000000E+00 0.  1.
<mgrwt>
<rscale>  0 0.24684647E+04</rscale>
<asrwt>0</asrwt>
<pdfrwt beam="1">  1        1 0.10813403E+00 0.24684647E+04</pdfrwt>
<pdfrwt beam="2">  1       -1 0.33343006E+00 0.24684647E+04</pdfrwt>
<totfact> 0.48222265E-01</totfact>
</mgrwt>
</event>
<event>
12    1  0.2019083E-007  0.1501155E+04  0.7818608E-02  0.8883685E-01
         -1   -1    0    0    0  501 -0.00000000000E+00  0.00000000000E+00  0.29598410848E+03  0.29598410848E+03  0.00000000000E+00 0.  1.
          1   -1    0    0  501    0  0.00000000000E+00 -0.00000000000E+00 -0.19033676705E+04  0.19033676705E+04  0.00000000000E+00 0. -1.
         23    2    1    2    0    0 -0.28123299285E+03 -0.30696354748E+03 -0.18362157851E+03  0.46401099231E+03  0.90943395255E+02 0.  0.
        254    2    1    2    0    0  0.28123299285E+03  0.30696354748E+03 -0.14237619835E+04  0.17353407867E+04  0.90055030088E+03 0.  0.
        -24    2    4    4    0    0  0.59944047660E+03  0.12725035766E+03 -0.84268731774E+03  0.10451768943E+04  0.82166211728E+02 0.  0.
         24    2    4    4    0    0 -0.31820748375E+03  0.17971318983E+03 -0.58107466581E+03  0.69016389241E+03  0.71593280689E+02 0.  0.
         13    1    3    3    0    0 -0.68387703044E+02 -0.13623770932E+03 -0.79868818780E+02  0.17209479824E+03  0.00000000000E+00 0. -1.
        -13    1    3    3    0    0 -0.21284528981E+03 -0.17072583817E+03 -0.10375275973E+03  0.29191619407E+03  0.00000000000E+00 0.  1.
          4    1    6    6  502    0 -0.28543993640E+03  0.17098253226E+03 -0.55612679882E+03  0.64806481156E+03  0.00000000000E+00 0. -1.
          3    1    5    5  503    0  0.42280698267E+03  0.56430809084E+02 -0.61473299018E+03  0.74822912936E+03  0.00000000000E+00 0. -1.
         -4    1    5    5    0  503  0.17663349392E+03  0.70819548575E+02 -0.22795432756E+03  0.29694776492E+03  0.00000000000E+00 0.  1.
         -3    1    6    6    0  502 -0.32767547351E+02  0.87306575683E+01 -0.24947866990E+02  0.42099080849E+02  0.00000000000E+00 0.  1.
<mgrwt>
<rscale>  0 0.15011550E+04</rscale>
<asrwt>0</asrwt>
<pdfrwt beam="1">  1        1 0.29282579E+00 0.15011550E+04</pdfrwt>
<pdfrwt beam="2">  1       -1 0.45536017E-01 0.15011550E+04</pdfrwt>
<totfact> 0.16064221E+01</totfact>
</mgrwt>
</event>
<event>
12    1  0.2019083E-007  0.2722451E+04  0.7818608E-02  0.8327757E-01
          2   -1    0    0  501    0  0.00000000000E+00  0.00000000000E+00  0.10856185464E+04  0.10856185464E+04  0.00000000000E+00 0.  1.
         -2   -1    0    0    0  501 -0.00000000000E+00 -0.00000000000E+00 -0.17068010002E+04  0.17068010002E+04  0.00000000000E+00 0. -1.
         23    2    1    2    0    0  0.54994424857E+03 -0.10472011681E+04 -0.54364958886E+03  0.13050733241E+04  0.92695969127E+02 0.  0.
        254    2    1    2    0    0 -0.54994424857E+03  0.10472011681E+04 -0.77532864895E+02  0.14873462225E+04  0.89839772782E+03 0.  0.
        -24    2    4    4    0    0  0.34013607272E+02 -0.11618669067E+03 -0.11181104494E+03  0.18268857046E+03  0.78848788454E+02 0.  0.
         24    2    4    4    0    0 -0.58395785585E+03  0.11633878588E+04  0.34278180044E+02  0.13046576520E+04  0.80489179221E+02 0.  0.
         11    1    3    3    0    0  0.16545874627E+03 -0.27569978779E+03 -0.10763732398E+03  0.33907633834E+03  0.00000000000E+00 0.  1.
        -11    1    3    3    0    0  0.38448550231E+03 -0.77150138032E+03 -0.43601226489E+03  0.96599698574E+03  0.00000000000E+00 0. -1.
          4    1    6    6  502    0 -0.38830720745E+03  0.72956088180E+03 -0.11620655169E+02  0.82654498198E+03  0.00000000000E+00 0. -1.
          3    1    5    5  503    0  0.41274313037E+02 -0.48226076652E+02 -0.91546050737E+02  0.11140019206E+03  0.00000000000E+00 0. -1.
         -2    1    5    5    0  503 -0.72607057646E+01 -0.67960614013E+02 -0.20264994202E+02  0.71288378403E+02  0.00000000000E+00 0.  1.
         -3    1    6    6    0  502 -0.19565064840E+03  0.43382697698E+03  0.45898835212E+02  0.47811267003E+03  0.00000000000E+00 0.  1.
<mgrwt>
<rscale>  0 0.27224510E+04</rscale>
<asrwt>0</asrwt>
<pdfrwt beam="1">  1        2 0.16701824E+00 0.27224510E+04</pdfrwt>
<pdfrwt beam="2">  1       -2 0.26258477E+00 0.27224510E+04</pdfrwt>
<totfact> 0.10475850E+00</totfact>
</mgrwt>
</event>
<event>
12    1  0.2019083E-007  0.2120469E+04  0.7818608E-02  0.8552280E-01
          2   -1    0    0  501    0  0.00000000000E+00  0.00000000000E+00  0.26533802911E+04  0.26533802911E+04  0.00000000000E+00 0. -1.
         -2   -1    0    0    0  501 -0.00000000000E+00 -0.00000000000E+00 -0.42364729927E+03  0.42364729927E+03  0.00000000000E+00 0.  1.
         23    2    1    2    0    0 -0.63410648075E+03 -0.56132183131E+03  0.65137607031E+03  0.10723112151E+04  0.91582366363E+02 0.  0.
        254    2    1    2    0    0  0.63410648075E+03  0.56132183131E+03  0.15783569215E+04  0.20047163753E+04  0.90027992665E+03 0.  0.
        -24    2    4    4    0    0  0.67327816563E+03  0.10683266997E+02  0.83372036130E+03  0.10741385591E+04  0.72569848414E+02 0.  0.
         24    2    4    4    0    0 -0.39171684881E+02  0.55063856432E+03  0.74463656022E+03  0.93057781612E+03  0.82184035143E+02 0.  0.
         13    1    3    3    0    0 -0.45960343300E+03 -0.45878400149E+03  0.49581126102E+03  0.81703542286E+03  0.00000000000E+00 0. -1.
        -13    1    3    3    0    0 -0.17450304775E+03 -0.10253782983E+03  0.15556480929E+03  0.25527579225E+03  0.00000000000E+00 0.  1.
          2    1    6    6  502    0  0.15108810131E+01  0.38823822307E+03  0.55901426881E+03  0.68060866388E+03  0.00000000000E+00 0. -1.
          3    1    5    5  503    0  0.28217714393E+03 -0.19641594480E+02  0.30775021365E+03  0.41799512771E+03  0.00000000000E+00 0. -1.
         -4    1    5    5    0  503  0.39110102170E+03  0.30324861477E+02  0.52597014765E+03  0.65614343144E+03  0.00000000000E+00 0.  1.
         -1    1    6    6    0  502 -0.40682565894E+02  0.16240034125E+03  0.18562229141E+03  0.24996915225E+03  0.00000000000E+00 0.  1.
<mgrwt>
<rscale>  0 0.21204692E+04</rscale>
<asrwt>0</asrwt>
<pdfrwt beam="1">  1        2 0.40821234E+00 0.21204692E+04</pdfrwt>
<pdfrwt beam="2">  1       -2 0.65176509E-01 0.21204692E+04</pdfrwt>
<totfact> 0.56550566E+00</totfact>
</mgrwt>
</event>
<event>
12    1  0.2019083E-007  0.1638289E+04  0.7818608E-02  0.8797365E-01
         -1   -1    0    0    0  501 -0.00000000000E+00  0.00000000000E+00  0.40610976774E+03  0.40610976774E+03  0.00000000000E+00 0.  1.
          1   -1    0    0  501    0  0.00000000000E+00 -0.00000000000E+00 -0.16522560935E+04  0.16522560935E+04  0.00000000000E+00 0. -1.
         23    2    1    2    0    0 -0.27413763247E+03  0.26583835355E+03  0.90554480368E+02  0.40219233491E+03  0.87960721876E+02 0.  0.
        254    2    1    2    0    0  0.27413763247E+03 -0.26583835355E+03 -0.13367008062E+04  0.16561735264E+04  0.90017788935E+03 0.  0.
        -24    2    4    4    0    0 -0.48927208746E+02 -0.53759942828E+03 -0.69231644482E+03  0.88166383191E+03  0.81375891342E+02 0.  0.
         24    2    4    4    0    0  0.32306484122E+03  0.27176107473E+03 -0.64438436136E+03  0.77450969446E+03  0.80056781651E+02 0.  0.
         11    1    3    3    0    0 -0.11352857813E+03  0.17067746037E+03  0.41055244077E+02  0.20905756766E+03  0.00000000000E+00 0.  1.
        -11    1    3    3    0    0 -0.16060905434E+03  0.95160893177E+02  0.49499236291E+02  0.19313476725E+03  0.00000000000E+00 0. -1.
          4    1    6    6  502    0  0.24973726531E+03  0.21794122246E+03 -0.44069462492E+03  0.55143343258E+03  0.00000000000E+00 0. -1.
          3    1    5    5  503    0 -0.41346826669E+02 -0.47365136800E+03 -0.64704951016E+03  0.80294971641E+03  0.00000000000E+00 0. -1.
         -4    1    5    5    0  503 -0.75803820773E+01 -0.63948060276E+02 -0.45266934659E+02  0.78714115499E+02  0.00000000000E+00 0.  1.
         -3    1    6    6    0  502  0.73327575902E+02  0.53819852270E+02 -0.20368973644E+03  0.22307626188E+03  0.00000000000E+00 0.  1.
<mgrwt>
<rscale>  0 0.16382885E+04</rscale>
<asrwt>0</asrwt>
<pdfrwt beam="1">  1        1 0.25419325E+00 0.16382885E+04</pdfrwt>
<pdfrwt beam="2">  1       -1 0.62478424E-01 0.16382885E+04</pdfrwt>
<totfact> 0.12769661E+01</totfact>
</mgrwt>
</event>
<event>
12    1  0.2019083E-007  0.1996014E+04  0.7818608E-02  0.8608487E-01
         -2   -1    0    0    0  501 -0.00000000000E+00  0.00000000000E+00  0.70844313511E+03  0.70844313511E+03  0.00000000000E+00 0.  1.
          2   -1    0    0  501    0  0.00000000000E+00 -0.00000000000E+00 -0.14059246939E+04  0.14059246939E+04  0.00000000000E+00 0. -1.
         23    2    1    2    0    0  0.58285040905E+03 -0.41150095812E+02 -0.84455699106E+03  0.10309432506E+04  0.90330200109E+02 0.  0.
        254    2    1    2    0    0 -0.58285040905E+03  0.41150095812E+02  0.14707543229E+03  0.10834245784E+04  0.90042751214E+03 0.  0.
        -24    2    4    4    0    0 -0.80798214587E+03  0.41353321385E-01  0.26709487846E+02  0.81276724371E+03  0.83916899037E+02 0.  0.
         24    2    4    4    0    0  0.22513173682E+03  0.41108742490E+02  0.12036594445E+03  0.27065733471E+03  0.79957517578E+02 0.  0.
         11    1    3    3    0    0  0.21498051750E+03 -0.10128607163E+02 -0.38912009805E+03  0.44467253377E+03  0.00000000000E+00 0. -1.
        -11    1    3    3    0    0  0.36786989156E+03 -0.31021488649E+02 -0.45543689302E+03  0.58627071681E+03  0.00000000000E+00 0.  1.
          4    1    6    6  502    0  0.14902305024E+03  0.61420157828E+02  0.62336807578E+02  0.17281835224E+03  0.00000000000E+00 0. -1.
          1    1    5    5  503    0 -0.39158776540E+03 -0.38059292675E+02  0.30532195264E+02  0.39461589264E+03  0.00000000000E+00 0. -1.
         -2    1    5    5    0  503 -0.41639438047E+03  0.38100645997E+02 -0.38227074186E+01  0.41815135107E+03  0.00000000000E+00 0.  1.
         -3    1    6    6    0  502  0.76108686577E+02 -0.20311415337E+02  0.58029136870E+02  0.97838982473E+02  0.00000000000E+00 0.  1.
<mgrwt>
<rscale>  0 0.19960137E+04</rscale>
<asrwt>0</asrwt>
<pdfrwt beam="1">  1        2 0.21629610E+00 0.19960137E+04</pdfrwt>
<pdfrwt beam="2">  1       -2 0.10899125E+00 0.19960137E+04</pdfrwt>
<totfact> 0.89663479E+00</totfact>
</mgrwt>
</event>
<event>
12    1  0.2019083E-007  0.2271269E+04  0.7818608E-02  0.8489336E-01
         -1   -1    0    0    0  501 -0.00000000000E+00  0.00000000000E+00  0.23143025187E+04  0.23143025187E+04  0.00000000000E+00 0.  1.
          1   -1    0    0  501    0  0.00000000000E+00 -0.00000000000E+00 -0.55725910063E+03  0.55725910063E+03  0.00000000000E+00 0. -1.
         23    2    1    2    0    0 -0.88847210470E+03 -0.26632821190E+03  0.10259096995E+04  0.13861539913E+04  0.92837377587E+02 0.  0.
        254    2    1    2    0    0  0.88847210470E+03  0.26632821190E+03  0.73113371857E+03  0.14854076281E+04  0.90086952985E+03 0.  0.
        -24    2    4    4    0    0 -0.15469643092E+03  0.11648669734E+03  0.24465365120E+03  0.32196374458E+03  0.79404706293E+02 0.  0.
         24    2    4    4    0    0  0.10431685356E+04  0.14984151456E+03  0.48648006737E+03  0.11634438835E+04  0.79282664532E+02 0.  0.
         11    1    3    3    0    0 -0.21719346272E+03 -0.67628241095E+02  0.19479626313E+03  0.29948649948E+03  0.00000000000E+00 0. -1.
        -11    1    3    3    0    0 -0.67127864198E+03 -0.19869997081E+03  0.83111343638E+03  0.10866674918E+04  0.00000000000E+00 0.  1.
          2    1    6    6  502    0  0.74734629530E+03  0.13943808253E+03  0.33234362363E+03  0.82971184644E+03  0.00000000000E+00 0. -1.
          3    1    5    5  503    0 -0.14983377354E+03  0.10264303788E+03  0.18014885692E+03  0.25581118734E+03  0.00000000000E+00 0. -1.
         -2    1    5    5    0  503 -0.48626573792E+01  0.13843659460E+02  0.64504794284E+02  0.66152557242E+02  0.00000000000E+00 0.  1.
         -1    1    6    6    0  502  0.29582224032E+03  0.10403432033E+02  0.15413644373E+03  0.33373203705E+03  0.00000000000E+00 0.  1.
<mgrwt>
<rscale>  0 0.22712694E+04</rscale>
<asrwt>0</asrwt>
<pdfrwt beam="1">  1        1 0.85732170E-01 0.22712694E+04</pdfrwt>
<pdfrwt beam="2">  1       -1 0.35604654E+00 0.22712694E+04</pdfrwt>
<totfact> 0.48909603E-01</totfact>
</mgrwt>
</event>
<event>
12    1  0.2019083E-007  0.5697003E+04  0.7818608E-02  0.7729148E-01
          2   -1    0    0  501    0  0.00000000000E+00  0.00000000000E+00  0.39265522241E+04  0.39265522241E+04  0.00000000000E+00 0. -1.
         -2   -1    0    0    0  501 -0.00000000000E+00 -0.00000000000E+00 -0.20664342926E+04  0.20664342926E+04  0.00000000000E+00 0.  1.
         23    2    1    2    0    0  0.19440249308E+04 -0.19749287447E+04  0.72501163859E+03  0.28658174259E+04  0.87699282634E+02 0.  0.
        254    2    1    2    0    0 -0.19440249308E+04  0.19749287447E+04  0.11351062929E+04  0.31271690908E+04  0.90063519127E+03 0.  0.
        -24    2    4    4    0    0 -0.14202023522E+04  0.14965864110E+04  0.40137499352E+03  0.21034353948E+04  0.81197091535E+02 0.  0.
         24    2    4    4    0    0 -0.52382257862E+03  0.47834233369E+03  0.73373129934E+03  0.10237336960E+04  0.80421257220E+02 0.  0.
         13    1    3    3    0    0  0.15409011053E+04 -0.15785199563E+04  0.61217803115E+03  0.22892932121E+04  0.00000000000E+00 0. -1.
        -13    1    3    3    0    0  0.40312382547E+03 -0.39640878839E+03  0.11283360744E+03  0.57652421384E+03  0.00000000000E+00 0.  1.
          4    1    6    6  502    0 -0.21939348501E+03  0.23890910136E+03  0.29423352291E+03  0.43793198786E+03  0.00000000000E+00 0. -1.
          1    1    5    5  503    0 -0.33129960232E+02  0.33579238723E+02 -0.29531223181E+01  0.47263944711E+02  0.00000000000E+00 0. -1.
         -4    1    5    5    0  503 -0.13870723919E+04  0.14630071723E+04  0.40432811584E+03  0.20561714501E+04  0.00000000000E+00 0.  1.
         -3    1    6    6    0  502 -0.30442909361E+03  0.23943323232E+03  0.43949777642E+03  0.58580170814E+03  0.00000000000E+00 0.  1.
<mgrwt>
<rscale>  0 0.56970035E+04</rscale>
<asrwt>0</asrwt>
<pdfrwt beam="1">  1        2 0.60408496E+00 0.56970035E+04</pdfrwt>
<pdfrwt beam="2">  1       -2 0.31791297E+00 0.56970035E+04</pdfrwt>
<totfact> 0.66266401E-03</totfact>
</mgrwt>
</event>
<event>
12    1  0.2019083E-007  0.1498871E+04  0.7818608E-02  0.8885204E-01
         -2   -1    0    0    0  501 -0.00000000000E+00  0.00000000000E+00  0.34591729136E+03  0.34591729136E+03  0.00000000000E+00 0.  1.
          2   -1    0    0  501    0  0.00000000000E+00 -0.00000000000E+00 -0.16236646984E+04  0.16236646984E+04  0.00000000000E+00 0. -1.
         23    2    1    2    0    0  0.74244924401E+02 -0.39108869913E+03 -0.69371556772E+02  0.41417816590E+03  0.90931077357E+02 0.  0.
        254    2    1    2    0    0 -0.74244924401E+02  0.39108869913E+03 -0.12083758503E+04  0.15554038239E+04  0.89478834390E+03 0.  0.
        -24    2    4    4    0    0  0.37611223956E+02  0.55621934076E+03 -0.12167616910E+04  0.13408431520E+04  0.80973985854E+02 0.  0.
         24    2    4    4    0    0 -0.11185614836E+03 -0.16513064163E+03  0.83858406930E+01  0.21456067189E+03  0.78651337361E+02 0.  0.
         11    1    3    3    0    0  0.48604244040E+02 -0.76369599082E+02 -0.32896869708E+02  0.96316624937E+02  0.00000000000E+00 0. -1.
        -11    1    3    3    0    0  0.25640680361E+02 -0.31471910005E+03 -0.36474687064E+02  0.31786154096E+03  0.00000000000E+00 0.  1.
          2    1    6    6  502    0  0.17630453664E+01 -0.25361159077E+02  0.22411987438E+02  0.33890911756E+02  0.00000000000E+00 0. -1.
          3    1    5    5  503    0 -0.22572636518E+02  0.92669676913E+02 -0.18531855090E+03  0.20842302715E+03  0.00000000000E+00 0. -1.
         -4    1    5    5    0  503  0.60183860474E+02  0.46354966385E+03 -0.10314431401E+04  0.11324201248E+04  0.00000000000E+00 0.  1.
         -1    1    6    6    0  502 -0.11361919372E+03 -0.13976948255E+03 -0.14026146745E+02  0.18066976014E+03  0.00000000000E+00 0.  1.
<mgrwt>
<rscale>  0 0.14988712E+04</rscale>
<asrwt>0</asrwt>
<pdfrwt beam="1">  1        2 0.24979457E+00 0.14988712E+04</pdfrwt>
<pdfrwt beam="2">  1       -2 0.53218045E-01 0.14988712E+04</pdfrwt>
<totfact> 0.34788574E+01</totfact>
</mgrwt>
</event>
<event>
12    1  0.2019083E-007  0.1391837E+04  0.7818608E-02  0.8959749E-01
         -2   -1    0    0    0  501 -0.00000000000E+00  0.00000000000E+00  0.68894144728E+03  0.68894144728E+03  0.00000000000E+00 0.  1.
          2   -1    0    0  501    0  0.00000000000E+00 -0.00000000000E+00 -0.70296607260E+03  0.70296607260E+03  0.00000000000E+00 0. -1.
         23    2    1    2    0    0 -0.23005653213E+03  0.20170482738E+01 -0.32722873519E+03  0.41117496169E+03  0.95163688095E+02 0.  0.
        254    2    1    2    0    0  0.23005653213E+03 -0.20170482738E+01  0.31320410987E+03  0.98073255819E+03  0.90044958759E+03 0.  0.
        -24    2    4    4    0    0  0.35211556672E+03  0.11735700402E+03  0.55582463170E+03  0.67305978400E+03  0.79438107453E+02 0.  0.
         24    2    4    4    0    0 -0.12205903459E+03 -0.11937405230E+03 -0.24262052183E+03  0.30767277419E+03  0.81542909429E+02 0.  0.
         11    1    3    3    0    0 -0.99746245381E+02 -0.11199469193E+02 -0.22031104695E+03  0.24209853157E+03  0.00000000000E+00 0. -1.
        -11    1    3    3    0    0 -0.13031028675E+03  0.13216517466E+02 -0.10691768824E+03  0.16907643013E+03  0.00000000000E+00 0.  1.
          4    1    6    6  502    0 -0.61331245750E+02 -0.11159551744E+03 -0.15170472921E+03  0.19806414639E+03  0.00000000000E+00 0. -1.
          1    1    5    5  503    0  0.10538997731E+03  0.72068811369E+02  0.21152929313E+03  0.24707408351E+03  0.00000000000E+00 0. -1.
         -2    1    5    5    0  503  0.24672558941E+03  0.45288192655E+02  0.34429533857E+03  0.42598570049E+03  0.00000000000E+00 0.  1.
         -3    1    6    6    0  502 -0.60727788838E+02 -0.77785348556E+01 -0.90915792620E+02  0.10960862781E+03  0.00000000000E+00 0.  1.
<mgrwt>
<rscale>  0 0.13918369E+04</rscale>
<asrwt>0</asrwt>
<pdfrwt beam="1">  1        2 0.10814863E+00 0.13918369E+04</pdfrwt>
<pdfrwt beam="2">  1       -2 0.10599099E+00 0.13918369E+04</pdfrwt>
<totfact> 0.28526977E+01</totfact>
</mgrwt>
</event>
<event>
12    1  0.2019083E-007  0.1417906E+04  0.7818608E-02  0.8940958E-01
          2   -1    0    0  501    0  0.00000000000E+00  0.00000000000E+00  0.95086719541E+03  0.95086719541E+03  0.00000000000E+00 0. -1.
         -2   -1    0    0    0  501 -0.00000000000E+00 -0.00000000000E+00 -0.52858515417E+03  0.52858515417E+03  0.00000000000E+00 0.  1.
         23    2    1    2    0    0  0.31280057039E+03  0.21886414883E+03 -0.49081859651E+02  0.39558966022E+03  0.91304095441E+02 0.  0.
        254    2    1    2    0    0 -0.31280057039E+03 -0.21886414883E+03  0.47136390089E+03  0.10838626894E+04  0.89823643315E+03 0.  0.
        -24    2    4    4    0    0 -0.51233139520E+03  0.10375466411E+03  0.83359787562E+02  0.53534057961E+03  0.79951192376E+02 0.  0.
         24    2    4    4    0    0  0.19953082481E+03 -0.32261881294E+03  0.38800411333E+03  0.54852210975E+03  0.80211373336E+02 0.  0.
         13    1    3    3    0    0  0.69384174721E+02  0.23701094117E+02  0.20083074808E+02  0.76021282927E+02  0.00000000000E+00 0. -1.
        -13    1    3    3    0    0  0.24341639567E+03  0.19516305471E+03 -0.69164934459E+02  0.31956837729E+03  0.00000000000E+00 0.  1.
          4    1    6    6  502    0  0.40478921331E+02 -0.13516079133E+03  0.15854103720E+03  0.21223157885E+03  0.00000000000E+00 0. -1.
          3    1    5    5  503    0 -0.39006062647E+03  0.10399256070E+03  0.40226167746E+02  0.40568447046E+03  0.00000000000E+00 0. -1.
         -4    1    5    5    0  503 -0.12227076873E+03 -0.23789659135E+00  0.43133619816E+02  0.12965610915E+03  0.00000000000E+00 0.  1.
         -3    1    6    6    0  502  0.15905190348E+03 -0.18745802161E+03  0.22946307613E+03  0.33629053090E+03  0.00000000000E+00 0.  1.
<mgrwt>
<rscale>  0 0.14179059E+04</rscale>
<asrwt>0</asrwt>
<pdfrwt beam="1">  1        2 0.14628726E+00 0.14179059E+04</pdfrwt>
<pdfrwt beam="2">  1       -2 0.81320793E-01 0.14179059E+04</pdfrwt>
<totfact> 0.35121617E+01</totfact>
</mgrwt>
</event>
<event>
12    1  0.2019083E-007  0.3064062E+04  0.7818608E-02  0.8225670E-01
          1   -1    0    0  501    0  0.00000000000E+00  0.00000000000E+00  0.39488382100E+04  0.39488382100E+04  0.00000000000E+00 0. -1.
         -1   -1    0    0    0  501 -0.00000000000E+00 -0.00000000000E+00 -0.59438225995E+03  0.59438225995E+03  0.00000000000E+00 0.  1.
         23    2    1    2    0    0 -0.31058431392E+03  0.13632380708E+04  0.15056351033E+04  0.20568179668E+04  0.93179560872E+02 0.  0.
        254    2    1    2    0    0  0.31058431392E+03 -0.13632380708E+04  0.18488208468E+04  0.24864025032E+04  0.89954334554E+03 0.  0.
        -24    2    4    4    0    0  0.47612873002E+03 -0.75341179041E+03  0.57902418746E+03  0.10658271912E+04  0.79941843961E+02 0.  0.
         24    2    4    4    0    0 -0.16554441611E+03 -0.60982628039E+03  0.12697966593E+04  0.14205753119E+04  0.79734653069E+02 0.  0.
         13    1    3    3    0    0 -0.51492026169E+02  0.40554078206E+03  0.46040048089E+03  0.61569745612E+03  0.00000000000E+00 0. -1.
        -13    1    3    3    0    0 -0.25909228775E+03  0.95769728874E+03  0.10452346224E+04  0.14411205106E+04  0.00000000000E+00 0.  1.
          4    1    6    6  502    0 -0.10074299995E+03 -0.44322850867E+03  0.97637850807E+03  0.10769938040E+04  0.00000000000E+00 0. -1.
          1    1    5    5  503    0  0.41627878193E+03 -0.68226586555E+03  0.49230787914E+03  0.93869152731E+03  0.00000000000E+00 0. -1.
         -4    1    5    5    0  503  0.59849948096E+02 -0.71145924854E+02  0.86716308325E+02  0.12713566392E+03  0.00000000000E+00 0.  1.
         -3    1    6    6    0  502 -0.64801416162E+02 -0.16659777172E+03  0.29341815124E+03  0.34358150788E+03  0.00000000000E+00 0.  1.
<mgrwt>
<rscale>  0 0.30640623E+04</rscale>
<asrwt>0</asrwt>
<pdfrwt beam="1">  1        1 0.60751356E+00 0.30640623E+04</pdfrwt>
<pdfrwt beam="2">  1       -1 0.91443427E-01 0.30640623E+04</pdfrwt>
<totfact> 0.10487715E-01</totfact>
</mgrwt>
</event>
<event>
12    1  0.2019083E-007  0.2507887E+04  0.7818608E-02  0.8400181E-01
          2   -1    0    0  501    0  0.00000000000E+00  0.00000000000E+00  0.24784870459E+04  0.24784870459E+04  0.00000000000E+00 0. -1.
         -2   -1    0    0    0  501 -0.00000000000E+00 -0.00000000000E+00 -0.63440889366E+03  0.63440889366E+03  0.00000000000E+00 0.  1.
         23    2    1    2    0    0 -0.60007666092E+03 -0.62160722312E+03  0.16303100118E+04  0.18473880151E+04  0.91892355369E+02 0.  0.
        254    2    1    2    0    0  0.60007666092E+03  0.62160722312E+03  0.21376814049E+03  0.12655079245E+04  0.89962544998E+03 0.  0.
        -24    2    4    4    0    0  0.34339703126E+02  0.38667255002E+03 -0.27054300964E+03  0.48005363262E+03  0.81012924795E+02 0.  0.
         24    2    4    4    0    0  0.56573695780E+03  0.23493467310E+03  0.48431115012E+03  0.78545429187E+03  0.84430731579E+02 0.  0.
         11    1    3    3    0    0 -0.54528791364E+03 -0.55757316075E+03  0.15217533546E+04  0.17099590670E+04  0.00000000000E+00 0.  1.
        -11    1    3    3    0    0 -0.54788747288E+02 -0.64034062370E+02  0.10855665713E+03  0.13742894812E+03  0.00000000000E+00 0. -1.
          4    1    6    6  502    0  0.47517436340E+03  0.16606500615E+03  0.37511991893E+03  0.62776047620E+03  0.00000000000E+00 0. -1.
          3    1    5    5  503    0  0.51224688730E+02  0.25085924827E+03 -0.20659293471E+03  0.32899083855E+03  0.00000000000E+00 0. -1.
         -4    1    5    5    0  503 -0.16884985604E+02  0.13581330174E+03 -0.63950074932E+02  0.15106279407E+03  0.00000000000E+00 0.  1.
         -3    1    6    6    0  502  0.90562594395E+02  0.68869666953E+02  0.10919123119E+03  0.15769381566E+03  0.00000000000E+00 0.  1.
<mgrwt>
<rscale>  0 0.25078869E+04</rscale>
<asrwt>0</asrwt>
<pdfrwt beam="1">  1        2 0.38130569E+00 0.25078869E+04</pdfrwt>
<pdfrwt beam="2">  1       -2 0.97601370E-01 0.25078869E+04</pdfrwt>
<totfact> 0.27926549E+00</totfact>
</mgrwt>
</event>
<event>
12    1  0.2019083E-007  0.5767290E+04  0.7818608E-02  0.7719944E-01
          1   -1    0    0  501    0  0.00000000000E+00  0.00000000000E+00  0.33651830665E+04  0.33651830665E+04  0.00000000000E+00 0. -1.
         -1   -1    0    0    0  501 -0.00000000000E+00 -0.00000000000E+00 -0.24710121906E+04  0.24710121906E+04  0.00000000000E+00 0.  1.
         23    2    1    2    0    0  0.28098933504E+03  0.27599712328E+04  0.89952371847E+03  0.29181097704E+04  0.99123657472E+02 0.  0.
        254    2    1    2    0    0 -0.28098933504E+03 -0.27599712328E+04 -0.53528426008E+01  0.29180854867E+04  0.90487460030E+03 0.  0.
        -24    2    4    4    0    0 -0.56562302302E+03 -0.17256106064E+04 -0.18646013750E+03  0.18271385366E+04  0.77501483388E+02 0.  0.
         24    2    4    4    0    0  0.28463368798E+03 -0.10343606264E+04  0.18110729490E+03  0.10909469501E+04  0.80294170551E+02 0.  0.
         13    1    3    3    0    0  0.21200568925E+03  0.21529436995E+04  0.65859381423E+03  0.22613842658E+04  0.00000000000E+00 0.  1.
        -13    1    3    3    0    0  0.68983645786E+02  0.60702753330E+03  0.24092990424E+03  0.65672550455E+03  0.00000000000E+00 0. -1.
          4    1    6    6  502    0  0.11609270928E+03 -0.51670293288E+03  0.57585995420E+02  0.53270590842E+03  0.00000000000E+00 0. -1.
          1    1    5    5  503    0 -0.50563105261E+03 -0.14575750642E+04 -0.16658002091E+03  0.15517527936E+04  0.00000000000E+00 0. -1.
         -2    1    5    5    0  503 -0.59991970412E+02 -0.26803554220E+03 -0.19880116594E+02  0.27538574297E+03  0.00000000000E+00 0.  1.
         -3    1    6    6    0  502  0.16854097870E+03 -0.51765769354E+03  0.12352129948E+03  0.55824104167E+03  0.00000000000E+00 0.  1.
<mgrwt>
<rscale>  0 0.57672900E+04</rscale>
<asrwt>0</asrwt>
<pdfrwt beam="1">  1        1 0.51772047E+00 0.57672900E+04</pdfrwt>
<pdfrwt beam="2">  1       -1 0.38015572E+00 0.57672900E+04</pdfrwt>
<totfact> 0.21118398E-03</totfact>
</mgrwt>
</event>
<event>
12    1  0.2019083E-007  0.2999338E+04  0.7818608E-02  0.8243920E-01
          2   -1    0    0  501    0  0.00000000000E+00  0.00000000000E+00  0.22359293440E+04  0.22359293440E+04  0.00000000000E+00 0. -1.
         -2   -1    0    0    0  501 -0.00000000000E+00 -0.00000000000E+00 -0.10058488491E+04  0.10058488491E+04  0.00000000000E+00 0.  1.
         23    2    1    2    0    0  0.42270443331E+02 -0.13622494210E+04  0.51546821726E+03  0.14599369934E+04  0.90544277267E+02 0.  0.
        254    2    1    2    0    0 -0.42270443331E+02  0.13622494210E+04  0.71461227763E+03  0.17818411998E+04  0.89820770335E+03 0.  0.
        -24    2    4    4    0    0 -0.22728131290E+03  0.10348618035E+04  0.86397218760E+03  0.13695627707E+04  0.81599597841E+02 0.  0.
         24    2    4    4    0    0  0.18501086957E+03  0.32738761751E+03 -0.14935990997E+03  0.41227842906E+03  0.79078735489E+02 0.  0.
         13    1    3    3    0    0  0.68527188086E+01 -0.16666230510E+02 -0.13733229981E+01  0.18072327203E+02  0.00000000000E+00 0.  1.
        -13    1    3    3    0    0  0.35417724522E+02 -0.13455831905E+04  0.51684154026E+03  0.14418646662E+04  0.00000000000E+00 0. -1.
          2    1    6    6  502    0  0.57451673410E+02  0.41947688358E+02 -0.19703876834E+02  0.73814267581E+02  0.00000000000E+00 0. -1.
          1    1    5    5  503    0 -0.79396957829E+02  0.38125157571E+03  0.26779032833E+03  0.47261855745E+03  0.00000000000E+00 0. -1.
         -2    1    5    5    0  503 -0.14788435507E+03  0.65361022780E+03  0.59618185927E+03  0.89694421325E+03  0.00000000000E+00 0.  1.
         -1    1    6    6    0  502  0.12755919616E+03  0.28543992915E+03 -0.12965603313E+03  0.33846416148E+03  0.00000000000E+00 0.  1.
<mgrwt>
<rscale>  0 0.29993379E+04</rscale>
<asrwt>0</asrwt>
<pdfrwt beam="1">  1        2 0.34398913E+00 0.29993379E+04</pdfrwt>
<pdfrwt beam="2">  1       -2 0.15474598E+00 0.29993379E+04</pdfrwt>
<totfact> 0.11633113E+00</totfact>
</mgrwt>
</event>
<event>
12    1  0.2019083E-007  0.4241212E+04  0.7818608E-02  0.7957579E-01
          1   -1    0    0  501    0  0.00000000000E+00  0.00000000000E+00  0.34381855433E+04  0.34381855433E+04  0.00000000000E+00 0. -1.
         -1   -1    0    0    0  501 -0.00000000000E+00 -0.00000000000E+00 -0.13079486807E+04  0.13079486807E+04  0.00000000000E+00 0.  1.
         23    2    1    2    0    0  0.30549163909E+02 -0.16168966559E+04 -0.34415267941E+03  0.16559787049E+04  0.92392408522E+02 0.  0.
        254    2    1    2    0    0 -0.30549163909E+02  0.16168966559E+04  0.24743895420E+04  0.30901555192E+04  0.90064947665E+03 0.  0.
        -24    2    4    4    0    0  0.13777472917E+02  0.15036583247E+04  0.25216845626E+04  0.29370627638E+04  0.79161033030E+02 0.  0.
         24    2    4    4    0    0 -0.44326636826E+02  0.11323833121E+03 -0.47295020580E+02  0.15309275537E+03  0.80079974945E+02 0.  0.
         13    1    3    3    0    0 -0.13901312982E+02 -0.84698592009E+03 -0.21606622722E+03  0.87422137349E+03  0.00000000000E+00 0. -1.
        -13    1    3    3    0    0  0.44450476891E+02 -0.76991073580E+03 -0.12808645219E+03  0.78175733142E+03  0.00000000000E+00 0.  1.
          2    1    6    6  502    0 -0.28889586000E+00  0.52101034984E+01 -0.35451743254E+02  0.35833709535E+02  0.00000000000E+00 0. -1.
          3    1    5    5  503    0  0.67450908338E+00  0.13767649566E+03  0.18908699203E+03  0.23389989947E+03  0.00000000000E+00 0. -1.
         -4    1    5    5    0  503  0.13102963833E+02  0.13659818290E+04  0.23325975706E+04  0.27031628643E+04  0.00000000000E+00 0.  1.
         -1    1    6    6    0  502 -0.44037740966E+02  0.10802822772E+03 -0.11843277326E+02  0.11725904584E+03  0.00000000000E+00 0.  1.
<mgrwt>
<rscale>  0 0.42412122E+04</rscale>
<asrwt>0</asrwt>
<pdfrwt beam="1">  1        1 0.52895162E+00 0.42412122E+04</pdfrwt>
<pdfrwt beam="2">  1       -1 0.20122288E+00 0.42412122E+04</pdfrwt>
<totfact> 0.31610416E-02</totfact>
</mgrwt>
</event>
<event>
12    1  0.2019083E-007  0.4999154E+04  0.7818608E-02  0.7828638E-01
          1   -1    0    0  501    0  0.00000000000E+00  0.00000000000E+00  0.33909296885E+04  0.33909296885E+04  0.00000000000E+00 0. -1.
         -1   -1    0    0    0  501 -0.00000000000E+00 -0.00000000000E+00 -0.18425289956E+04  0.18425289956E+04  0.00000000000E+00 0.  1.
         23    2    1    2    0    0  0.21069152212E+03 -0.16432007353E+04  0.25929502237E+04  0.30787439421E+04  0.10379703713E+03 0.  0.
        254    2    1    2    0    0 -0.21069152212E+03  0.16432007353E+04 -0.10445495307E+04  0.21547147420E+04  0.89844995591E+03 0.  0.
        -24    2    4    4    0    0 -0.44233806558E+03  0.37961188213E+03 -0.42672911386E+03  0.72694944487E+03  0.81176434077E+02 0.  0.
         24    2    4    4    0    0  0.23164654347E+03  0.12635888531E+04 -0.61782041687E+03  0.14277652971E+04  0.80590106573E+02 0.  0.
         11    1    3    3    0    0  0.39691444421E+02 -0.20711100089E+03  0.39277027937E+03  0.44580137932E+03  0.00000000000E+00 0. -1.
        -11    1    3    3    0    0  0.17100007769E+03 -0.14360897344E+04  0.22001799443E+04  0.26329425628E+04  0.00000000000E+00 0.  1.
          2    1    6    6  502    0  0.23418878486E+03  0.11836938912E+04 -0.58970779523E+03  0.13430304906E+04  0.00000000000E+00 0. -1.
          1    1    5    5  503    0 -0.36917506919E+03  0.28166966862E+03 -0.36081203492E+03  0.58805897533E+03  0.00000000000E+00 0. -1.
         -2    1    5    5    0  503 -0.73162996399E+02  0.97942213514E+02 -0.65917078944E+02  0.13889046953E+03  0.00000000000E+00 0.  1.
         -3    1    6    6    0  502 -0.25422413946E+01  0.79894961937E+02 -0.28112621646E+02  0.84734806485E+02  0.00000000000E+00 0.  1.
<mgrwt>
<rscale>  0 0.49991544E+04</rscale>
<asrwt>0</asrwt>
<pdfrwt beam="1">  1        1 0.52168149E+00 0.49991544E+04</pdfrwt>
<pdfrwt beam="2">  1       -1 0.28346600E+00 0.49991544E+04</pdfrwt>
<totfact> 0.92716600E-03</totfact>
</mgrwt>
</event>
<event>
12    1  0.2019083E-007  0.1271836E+04  0.7818608E-02  0.9052202E-01
          2   -1    0    0  501    0  0.00000000000E+00  0.00000000000E+00  0.18336048726E+04  0.18336048726E+04  0.00000000000E+00 0. -1.
         -2   -1    0    0    0  501 -0.00000000000E+00 -0.00000000000E+00 -0.22054464226E+03  0.22054464226E+03  0.00000000000E+00 0.  1.
         23    2    1    2    0    0 -0.11489218812E+03  0.91701362556E+02  0.85184346671E+03  0.86896602607E+03  0.88630174822E+02 0.  0.
        254    2    1    2    0    0  0.11489218812E+03 -0.91701362556E+02  0.76121676358E+03  0.11851834887E+04  0.89643716236E+03 0.  0.
        -24    2    4    4    0    0  0.11266734343E+03 -0.17736007997E+03 -0.14734653059E+03  0.26912676466E+03  0.81041268141E+02 0.  0.
         24    2    4    4    0    0  0.22248446855E+01  0.85658717410E+02  0.90856329417E+03  0.91605672408E+03  0.79563159994E+02 0.  0.
         11    1    3    3    0    0 -0.73117450364E+02  0.88618080415E+02  0.75148611713E+03  0.76021754121E+03  0.00000000000E+00 0. -1.
        -11    1    3    3    0    0 -0.41774737752E+02  0.30832821415E+01  0.10035734958E+03  0.10874848486E+03  0.00000000000E+00 0.  1.
          2    1    6    6  502    0  0.29579891221E+02  0.69462835511E+02  0.77901490874E+03  0.78266486029E+03  0.00000000000E+00 0. -1.
          3    1    5    5  503    0  0.68911546450E+02 -0.16328079461E+03 -0.10163580916E+03  0.20430187670E+03  0.00000000000E+00 0. -1.
         -4    1    5    5    0  503  0.43755796980E+02 -0.14079285359E+02 -0.45710721428E+02  0.64824887960E+02  0.00000000000E+00 0.  1.
         -1    1    6    6    0  502 -0.27355046535E+02  0.16195881900E+02  0.12954838542E+03  0.13339186380E+03  0.00000000000E+00 0.  1.
<mgrwt>
<rscale>  0 0.12718360E+04</rscale>
<asrwt>0</asrwt>
<pdfrwt beam="1">  1        2 0.28209305E+00 0.12718360E+04</pdfrwt>
<pdfrwt beam="2">  1       -2 0.33929946E-01 0.12718360E+04</pdfrwt>
<totfact> 0.66004046E+01</totfact>
</mgrwt>
</event>
<event>
12    1  0.2019083E-007  0.1896054E+04  0.7818608E-02  0.8656823E-01
          2   -1    0    0  501    0  0.00000000000E+00  0.00000000000E+00  0.80492192668E+03  0.80492192668E+03  0.00000000000E+00 0. -1.
         -2   -1    0    0    0  501 -0.00000000000E+00 -0.00000000000E+00 -0.11165744326E+04  0.11165744326E+04  0.00000000000E+00 0.  1.
         23    2    1    2    0    0 -0.58650855887E+03  0.43397150637E+03 -0.71979392481E+02  0.73871033951E+03  0.90489639140E+02 0.  0.
        254    2    1    2    0    0  0.58650855887E+03 -0.43397150637E+03 -0.23967311341E+03  0.11827860197E+04  0.89956434413E+03 0.  0.
        -24    2    4    4    0    0 -0.78125571503E+02  0.11006359439E+03 -0.27823037574E+03  0.31949517108E+03  0.80295844380E+02 0.  0.
         24    2    4    4    0    0  0.66463413037E+03 -0.54403510077E+03  0.38557262331E+02  0.86329084865E+03  0.77921170243E+02 0.  0.
         11    1    3    3    0    0 -0.25908042944E+03  0.18541252650E+03  0.13317158977E+02  0.31886959815E+03  0.00000000000E+00 0. -1.
        -11    1    3    3    0    0 -0.32742812943E+03  0.24855897987E+03 -0.85296551458E+02  0.41984074136E+03  0.00000000000E+00 0.  1.
          2    1    6    6  502    0  0.28018341572E+03 -0.19998287351E+03 -0.15262046138E+02  0.34457049525E+03  0.00000000000E+00 0. -1.
          3    1    5    5  503    0 -0.60722733651E+02  0.18488501929E+02 -0.10218939353E+03  0.12029857537E+03  0.00000000000E+00 0. -1.
         -4    1    5    5    0  503 -0.17402837852E+02  0.91575092464E+02 -0.17604098222E+03  0.19919659572E+03  0.00000000000E+00 0.  1.
         -1    1    6    6    0  502  0.38445071464E+03 -0.34405222725E+03  0.53819308469E+02  0.51872035340E+03  0.00000000000E+00 0.  1.
<mgrwt>
<rscale>  0 0.18960541E+04</rscale>
<asrwt>0</asrwt>
<pdfrwt beam="1">  1        2 0.12383414E+00 0.18960541E+04</pdfrwt>
<pdfrwt beam="2">  1       -2 0.17178068E+00 0.18960541E+04</pdfrwt>
<totfact> 0.66230097E+00</totfact>
</mgrwt>
</event>
<event>
12    1  0.2019083E-007  0.1378130E+04  0.7818608E-02  0.8969803E-01
          2   -1    0    0  501    0  0.00000000000E+00  0.00000000000E+00  0.19174121397E+04  0.19174121397E+04  0.00000000000E+00 0. -1.
         -2   -1    0    0    0  501 -0.00000000000E+00 -0.00000000000E+00 -0.24763110884E+03  0.24763110884E+03  0.00000000000E+00 0.  1.
         23    2    1    2    0    0 -0.86207231858E+02  0.16310739198E+03 -0.54039099901E+02  0.21324722071E+03  0.92295420679E+02 0.  0.
        254    2    1    2    0    0  0.86207231858E+02 -0.16310739198E+03  0.17238201308E+04  0.19517960278E+04  0.89661373115E+03 0.  0.
        -24    2    4    4    0    0  0.14406822077E+03 -0.10831011183E+03  0.18000034650E+04  0.18107652339E+04  0.79821836785E+02 0.  0.
         24    2    4    4    0    0 -0.57860988915E+02 -0.54797280156E+02 -0.76183334251E+02  0.14103079394E+03  0.87949692849E+02 0.  0.
         13    1    3    3    0    0 -0.34636282050E+02  0.14878232817E+03 -0.40455018221E+02  0.15802677529E+03  0.00000000000E+00 0.  1.
        -13    1    3    3    0    0 -0.51570949808E+02  0.14325063816E+02 -0.13584081680E+02  0.55220445421E+02  0.00000000000E+00 0. -1.
          4    1    6    6  502    0 -0.19525729397E+02 -0.71648864694E+02 -0.34286546256E+02  0.81794750288E+02  0.00000000000E+00 0. -1.
          3    1    5    5  503    0  0.83844869601E+02 -0.37776569816E+02  0.12128966095E+04  0.12163779087E+04  0.00000000000E+00 0. -1.
         -4    1    5    5    0  503  0.60223351171E+02 -0.70533542011E+02  0.58710685547E+03  0.59438732516E+03  0.00000000000E+00 0.  1.
         -1    1    6    6    0  502 -0.38335259518E+02  0.16851584539E+02 -0.41896787995E+02  0.59236043657E+02  0.00000000000E+00 0.  1.
<mgrwt>
<rscale>  0 0.13781305E+04</rscale>
<asrwt>0</asrwt>
<pdfrwt beam="1">  1        2 0.29498647E+00 0.13781305E+04</pdfrwt>
<pdfrwt beam="2">  1       -2 0.38097095E-01 0.13781305E+04</pdfrwt>
<totfact> 0.47106455E+01</totfact>
</mgrwt>
</event>
<event>
12    1  0.2019083E-007  0.3098447E+04  0.7818608E-02  0.8216164E-01
          1   -1    0    0  501    0  0.00000000000E+00  0.00000000000E+00  0.19766295558E+04  0.19766295558E+04  0.00000000000E+00 0. -1.
         -1   -1    0    0    0  501 -0.00000000000E+00 -0.00000000000E+00 -0.12142350937E+04  0.12142350937E+04  0.00000000000E+00 0.  1.
         23    2    1    2    0    0 -0.81913052064E+02 -0.13892972145E+04  0.62090681454E+03  0.15268026690E+04  0.93512670221E+02 0.  0.
        254    2    1    2    0    0  0.81913052064E+02  0.13892972145E+04  0.14148764756E+03  0.16640619806E+04  0.90123638552E+03 0.  0.
        -24    2    4    4    0    0 -0.24531782535E+03  0.28603914836E+03 -0.23443366153E+03  0.45084997657E+03  0.79418699835E+02 0.  0.
         24    2    4    4    0    0  0.32723087741E+03  0.11032580661E+04  0.37592130909E+03  0.12132120040E+04  0.79423727526E+02 0.  0.
         11    1    3    3    0    0 -0.23078341561E+02 -0.72631759814E+03  0.37038231480E+03  0.81563038341E+03  0.00000000000E+00 0. -1.
        -11    1    3    3    0    0 -0.58834710503E+02 -0.66297961633E+03  0.25052449974E+03  0.71117228559E+03  0.00000000000E+00 0.  1.
          4    1    6    6  502    0  0.18171103742E+03  0.51266753552E+03  0.20656032685E+03  0.58181962129E+03  0.00000000000E+00 0. -1.
          1    1    5    5  503    0 -0.10836324194E+03  0.14772017726E+03 -0.70278466406E+02  0.19622157326E+03  0.00000000000E+00 0. -1.
         -2    1    5    5    0  503 -0.13695458341E+03  0.13831897110E+03 -0.16415519512E+03  0.25462840331E+03  0.00000000000E+00 0.  1.
         -3    1    6    6    0  502  0.14551984000E+03  0.59059053059E+03  0.16936098224E+03  0.63139238272E+03  0.00000000000E+00 0.  1.
<mgrwt>
<rscale>  0 0.30984467E+04</rscale>
<asrwt>0</asrwt>
<pdfrwt beam="1">  1        1 0.30409685E+00 0.30984467E+04</pdfrwt>
<pdfrwt beam="2">  1       -1 0.18680540E+00 0.30984467E+04</pdfrwt>
<totfact> 0.48546207E-01</totfact>
</mgrwt>
</event>
<event>
12    1  0.2019083E-007  0.1243319E+04  0.7818608E-02  0.9075762E-01
          2   -1    0    0  501    0  0.00000000000E+00  0.00000000000E+00  0.75371670323E+03  0.75371670323E+03  0.00000000000E+00 0. -1.
         -2   -1    0    0    0  501 -0.00000000000E+00 -0.00000000000E+00 -0.51274011676E+03  0.51274011676E+03  0.00000000000E+00 0.  1.
         23    2    1    2    0    0 -0.19769195585E+03 -0.10195312640E+03  0.23955492784E+03  0.33975607783E+03  0.92580125154E+02 0.  0.
        254    2    1    2    0    0  0.19769195585E+03  0.10195312640E+03  0.14216586256E+01  0.92670074216E+03  0.89960863436E+03 0.  0.
        -24    2    4    4    0    0  0.33287562358E+03  0.80431687665E+02  0.37930552699E+03  0.51721507521E+03  0.79770383378E+02 0.  0.
         24    2    4    4    0    0 -0.13518366773E+03  0.21521438738E+02 -0.37788386837E+03  0.40948566695E+03  0.78386842776E+02 0.  0.
         13    1    3    3    0    0 -0.46250770719E+02 -0.59646665797E+02  0.39146824717E+02  0.85025480994E+02  0.00000000000E+00 0. -1.
        -13    1    3    3    0    0 -0.15144118513E+03 -0.42306460606E+02  0.20040810313E+03  0.25473059683E+03  0.00000000000E+00 0.  1.
          4    1    6    6  502    0 -0.57093854457E+02  0.42756080514E+02 -0.23127922326E+03  0.24202865481E+03  0.00000000000E+00 0. -1.
          1    1    5    5  503    0  0.10666572323E+03  0.36258888264E+02  0.74445933229E+02  0.13503510827E+03  0.00000000000E+00 0. -1.
         -2    1    5    5    0  503  0.22620990034E+03  0.44172799402E+02  0.30485959377E+03  0.38217996694E+03  0.00000000000E+00 0.  1.
         -3    1    6    6    0  502 -0.78089813271E+02 -0.21234641776E+02 -0.14660464511E+03  0.16745701214E+03  0.00000000000E+00 0.  1.
<mgrwt>
<rscale>  0 0.12433194E+04</rscale>
<asrwt>0</asrwt>
<pdfrwt beam="1">  1        2 0.11595642E+00 0.12433194E+04</pdfrwt>
<pdfrwt beam="2">  1       -2 0.78883095E-01 0.12433194E+04</pdfrwt>
<totfact> 0.52328318E+01</totfact>
</mgrwt>
</event>
<event>
12    1  0.2019083E-007  0.1865057E+04  0.7818608E-02  0.8672448E-01
         -1   -1    0    0    0  501 -0.00000000000E+00  0.00000000000E+00  0.57209654218E+03  0.57209654218E+03  0.00000000000E+00 0.  1.
          1   -1    0    0  501    0  0.00000000000E+00 -0.00000000000E+00 -0.15200400499E+04  0.15200400499E+04  0.00000000000E+00 0. -1.
         23    2    1    2    0    0 -0.16412698350E+03  0.62931527048E+03 -0.69561143107E+03  0.95611459693E+03  0.85466268527E+02 0.  0.
        254    2    1    2    0    0  0.16412698350E+03 -0.62931527048E+03 -0.25233207666E+03  0.11360219952E+04  0.89660421604E+03 0.  0.
        -24    2    4    4    0    0 -0.10123484850E+02 -0.44010166653E+02  0.29763582015E+03  0.31042701611E+03  0.75752697474E+02 0.  0.
         24    2    4    4    0    0  0.17425046835E+03 -0.58530510383E+03 -0.54996789682E+03  0.82559497906E+03  0.78721608424E+02 0.  0.
         11    1    3    3    0    0 -0.12436476667E+03  0.50914894248E+03 -0.50881684332E+03  0.73047506519E+03  0.00000000000E+00 0. -1.
        -11    1    3    3    0    0 -0.39762216835E+02  0.12016632801E+03 -0.18679458775E+03  0.22563953174E+03  0.00000000000E+00 0.  1.
          2    1    6    6  502    0  0.85849693219E+02 -0.20832016728E+03 -0.16239641214E+03  0.27774098833E+03  0.00000000000E+00 0. -1.
          1    1    5    5  503    0 -0.16675569984E+02  0.28125329019E+01  0.21144840995E+03  0.21212358437E+03  0.00000000000E+00 0. -1.
         -2    1    5    5    0  503  0.65520851339E+01 -0.46822699555E+02  0.86187410208E+02  0.98303431739E+02  0.00000000000E+00 0.  1.
         -1    1    6    6    0  502  0.88400775135E+02 -0.37698493656E+03 -0.38757148467E+03  0.54785399074E+03  0.00000000000E+00 0.  1.
<mgrwt>
<rscale>  0 0.18650573E+04</rscale>
<asrwt>0</asrwt>
<pdfrwt beam="1">  1        1 0.23385232E+00 0.18650573E+04</pdfrwt>
<pdfrwt beam="2">  1       -1 0.88014852E-01 0.18650573E+04</pdfrwt>
<totfact> 0.75429860E+00</totfact>
</mgrwt>
</event>
<event>
12    1  0.2019083E-007  0.4272998E+04  0.7818608E-02  0.7951630E-01
          1   -1    0    0  501    0  0.00000000000E+00  0.00000000000E+00  0.26970905779E+04  0.26970905779E+04  0.00000000000E+00 0. -1.
         -1   -1    0    0    0  501 -0.00000000000E+00 -0.00000000000E+00 -0.16924266736E+04  0.16924266736E+04  0.00000000000E+00 0.  1.
         23    2    1    2    0    0  0.18025134895E+04  0.46016393626E+03  0.13419415089E+04  0.22955941414E+04  0.90220398900E+02 0.  0.
        254    2    1    2    0    0 -0.18025134895E+04 -0.46016393626E+03 -0.33727760464E+03  0.20939231101E+04  0.89997337763E+03 0.  0.
        -24    2    4    4    0    0 -0.15086531920E+03 -0.40982456108E+02 -0.34584983103E+03  0.38798554779E+03  0.80503250982E+02 0.  0.
         24    2    4    4    0    0 -0.16516481703E+04 -0.41918148015E+03  0.85722263910E+01  0.17059375623E+04  0.80589650374E+02 0.  0.
         13    1    3    3    0    0  0.10762200974E+04  0.22933344355E+03  0.78594018805E+03  0.13522372224E+04  0.00000000000E+00 0. -1.
        -13    1    3    3    0    0  0.72629339208E+03  0.23083049271E+03  0.55600132088E+03  0.94335691897E+03  0.00000000000E+00 0.  1.
          4    1    6    6  502    0 -0.74711273543E+03 -0.15632866488E+03  0.27606625784E+02  0.76379199832E+03  0.00000000000E+00 0. -1.
          1    1    5    5  503    0 -0.63151583712E+02 -0.13580679326E+02 -0.23643649116E+03  0.24510155391E+03  0.00000000000E+00 0. -1.
         -2    1    5    5    0  503 -0.87713735485E+02 -0.27401776782E+02 -0.10941333987E+03  0.14288399387E+03  0.00000000000E+00 0.  1.
         -3    1    6    6    0  502 -0.90453543489E+03 -0.26285281527E+03 -0.19034399393E+02  0.94214556403E+03  0.00000000000E+00 0.  1.
<mgrwt>
<rscale>  0 0.42729980E+04</rscale>
<asrwt>0</asrwt>
<pdfrwt beam="1">  1        1 0.41493701E+00 0.42729980E+04</pdfrwt>
<pdfrwt beam="2">  1       -1 0.26037333E+00 0.42729980E+04</pdfrwt>
<totfact> 0.45031339E-02</totfact>
</mgrwt>
</event>
<event>
12    1  0.2019083E-007  0.1109965E+04  0.7818608E-02  0.9195533E-01
         -2   -1    0    0    0  501 -0.00000000000E+00  0.00000000000E+00  0.32249131015E+03  0.32249131015E+03  0.00000000000E+00 0. -1.
          2   -1    0    0  501    0  0.00000000000E+00 -0.00000000000E+00 -0.95508242861E+03  0.95508242861E+03  0.00000000000E+00 0.  1.
         23    2    1    2    0    0  0.42156148094E+02 -0.59559606936E+01 -0.30297595510E+03  0.31882000831E+03  0.89661329707E+02 0.  0.
        254    2    1    2    0    0 -0.42156148094E+02  0.59559606936E+01 -0.32961516336E+03  0.95875373044E+03  0.89930525709E+03 0.  0.
        -24    2    4    4    0    0 -0.24399172608E+03  0.33821839827E+03 -0.36499992783E+03  0.56029110535E+03  0.82325743818E+02 0.  0.
         24    2    4    4    0    0  0.20183557799E+03 -0.33226243757E+03  0.35384764470E+02  0.39846262509E+03  0.79902778883E+02 0.  0.
         13    1    3    3    0    0  0.25600830968E+02  0.77340626781E+01 -0.16256382379E+02  0.31296776828E+02  0.00000000000E+00 0. -1.
        -13    1    3    3    0    0  0.16555317126E+02 -0.13690023372E+02 -0.28671957272E+03  0.28752323149E+03  0.00000000000E+00 0.  1.
          4    1    6    6  502    0  0.14569933852E+03 -0.23547396681E+03 -0.11508244707E+02  0.27714387236E+03  0.00000000000E+00 0. -1.
          1    1    5    5  503    0 -0.23189520497E+03  0.27085464428E+03 -0.30205945574E+03  0.46730882639E+03  0.00000000000E+00 0. -1.
         -4    1    5    5    0  503 -0.12096521110E+02  0.67363753986E+02 -0.62940472092E+02  0.92982278963E+02  0.00000000000E+00 0.  1.
         -3    1    6    6    0  502  0.56136239469E+02 -0.96788470760E+02  0.46893009177E+02  0.12131875273E+03  0.00000000000E+00 0.  1.
<mgrwt>
<rscale>  0 0.11099654E+04</rscale>
<asrwt>0</asrwt>
<pdfrwt beam="1">  1        2 0.14693575E+00 0.11099654E+04</pdfrwt>
<pdfrwt beam="2">  1       -2 0.49614049E-01 0.11099654E+04</pdfrwt>
<totfact> 0.10276082E+02</totfact>
</mgrwt>
</event>
<event>
12    1  0.2019083E-007  0.2181051E+04  0.7818608E-02  0.8526357E-01
         -1   -1    0    0    0  501 -0.00000000000E+00  0.00000000000E+00  0.43722845455E+03  0.43722845455E+03  0.00000000000E+00 0.  1.
          1   -1    0    0  501    0  0.00000000000E+00 -0.00000000000E+00 -0.27199638587E+04  0.27199638587E+04  0.00000000000E+00 0. -1.
         23    2    1    2    0    0  0.77484437167E+03 -0.22259061302E+03 -0.36386534979E+03  0.88904192403E+03  0.89817418052E+02 0.  0.
        254    2    1    2    0    0 -0.77484437167E+03  0.22259061302E+03 -0.19188700543E+04  0.22681503892E+04  0.90139531907E+03 0.  0.
        -24    2    4    4    0    0 -0.82374021930E+03  0.32900525105E+03 -0.19292011787E+04  0.21248122370E+04  0.78850813086E+02 0.  0.
         24    2    4    4    0    0  0.48895847625E+02 -0.10641463803E+03  0.10331124356E+02  0.14333815215E+03  0.82001308700E+02 0.  0.
         11    1    3    3    0    0  0.76190214179E+02  0.50009228488E+01 -0.36374081056E+02  0.84575597773E+02  0.00000000000E+00 0. -1.
        -11    1    3    3    0    0  0.69865415749E+03 -0.22759153587E+03 -0.32749126873E+03  0.80446632626E+03  0.00000000000E+00 0.  1.
          4    1    6    6  502    0  0.21806084006E+02 -0.65013359439E+02  0.45800121685E+02  0.82461465859E+02  0.00000000000E+00 0. -1.
          1    1    5    5  503    0 -0.82081771317E+03  0.33217227608E+03 -0.19244798779E+04  0.21184199158E+04  0.00000000000E+00 0. -1.
         -2    1    5    5    0  503 -0.29225061290E+01 -0.31670250291E+01 -0.47213007764E+01  0.63923212239E+01  0.00000000000E+00 0.  1.
         -3    1    6    6    0  502  0.27089763619E+02 -0.41401278590E+02 -0.35468997329E+02  0.60876686287E+02  0.00000000000E+00 0.  1.
<mgrwt>
<rscale>  0 0.21810508E+04</rscale>
<asrwt>0</asrwt>
<pdfrwt beam="1">  1        1 0.41845598E+00 0.21810508E+04</pdfrwt>
<pdfrwt beam="2">  1       -1 0.67265916E-01 0.21810508E+04</pdfrwt>
<totfact> 0.19428341E+00</totfact>
</mgrwt>
</event>
<event>
12    1  0.2019083E-007  0.2022246E+04  0.7818608E-02  0.8596290E-01
          1   -1    0    0  501    0  0.00000000000E+00  0.00000000000E+00  0.37133056150E+04  0.37133056150E+04  0.00000000000E+00 0. -1.
         -1   -1    0    0    0  501 -0.00000000000E+00 -0.00000000000E+00 -0.27532604497E+03  0.27532604497E+03  0.00000000000E+00 0.  1.
         23    2    1    2    0    0 -0.31639914714E+03  0.71345147020E+03  0.17839269218E+04  0.19492591393E+04  0.89969491291E+02 0.  0.
        254    2    1    2    0    0  0.31639914714E+03 -0.71345147020E+03  0.16540526482E+04  0.20393725206E+04  0.90223538728E+03 0.  0.
        -24    2    4    4    0    0  0.41331074451E+03 -0.86977596612E+03  0.11833158645E+04  0.15277052189E+04  0.79440529863E+02 0.  0.
         24    2    4    4    0    0 -0.96911597376E+02  0.15632449592E+03  0.47073678369E+03  0.51166730171E+03  0.79881802668E+02 0.  0.
         13    1    3    3    0    0 -0.23624362937E+03  0.47734518097E+03  0.11241344004E+04  0.12439242840E+04  0.00000000000E+00 0.  1.
        -13    1    3    3    0    0 -0.80155517770E+02  0.23610628923E+03  0.65979252140E+03  0.70533485533E+03  0.00000000000E+00 0. -1.
          2    1    6    6  502    0  0.13350006611E+02  0.27911054049E+02  0.62670038047E+02  0.69891224653E+02  0.00000000000E+00 0. -1.
          3    1    5    5  503    0  0.96575015071E+01 -0.65644273782E+02  0.74713354851E+02  0.99922587081E+02  0.00000000000E+00 0. -1.
         -4    1    5    5    0  503  0.40365324301E+03 -0.80413169234E+03  0.11086025097E+04  0.14277826318E+04  0.00000000000E+00 0.  1.
         -1    1    6    6    0  502 -0.11026160399E+03  0.12841344187E+03  0.40806674564E+03  0.44177607706E+03  0.00000000000E+00 0.  1.
<mgrwt>
<rscale>  0 0.20222460E+04</rscale>
<asrwt>0</asrwt>
<pdfrwt beam="1">  1        1 0.57127775E+00 0.20222460E+04</pdfrwt>
<pdfrwt beam="2">  1       -1 0.42357856E-01 0.20222460E+04</pdfrwt>
<totfact> 0.85860403E-01</totfact>
</mgrwt>
</event>
<event>
12    1  0.2019083E-007  0.1223370E+04  0.7818608E-02  0.9092644E-01
          1   -1    0    0  501    0  0.00000000000E+00  0.00000000000E+00  0.15717264899E+04  0.15717264899E+04  0.00000000000E+00 0. -1.
         -1   -1    0    0    0  501 -0.00000000000E+00 -0.00000000000E+00 -0.23805556958E+03  0.23805556958E+03  0.00000000000E+00 0.  1.
         23    2    1    2    0    0  0.12372983029E+03  0.21727629701E+03  0.16629233962E+03  0.31405110937E+03  0.91961388256E+02 0.  0.
        254    2    1    2    0    0 -0.12372983029E+03 -0.21727629701E+03  0.11673785807E+04  0.14957309501E+04  0.90106618197E+03 0.  0.
        -24    2    4    4    0    0 -0.18202405106E+03  0.29419109527E+03  0.23106927993E+03  0.42429992830E+03  0.83404204512E+02 0.  0.
         24    2    4    4    0    0  0.58294220762E+02 -0.51146739228E+03  0.93630930073E+03  0.10714310218E+04  0.79323503790E+02 0.  0.
         13    1    3    3    0    0  0.63291524407E+02  0.18679554967E+03  0.13786361102E+03  0.24063409916E+03  0.00000000000E+00 0. -1.
        -13    1    3    3    0    0  0.60438305887E+02  0.30480747344E+02  0.28428728606E+02  0.73417010204E+02  0.00000000000E+00 0.  1.
          2    1    6    6  502    0  0.25431043320E+02 -0.43857343240E+03  0.82039209455E+03  0.93061086517E+03  0.00000000000E+00 0. -1.
          1    1    5    5  503    0 -0.99943421154E+02  0.20299228805E+03  0.10872336714E+03  0.25102853822E+03  0.00000000000E+00 0. -1.
         -2    1    5    5    0  503 -0.82080629902E+02  0.91198807216E+02  0.12234591279E+03  0.17327139008E+03  0.00000000000E+00 0.  1.
         -1    1    6    6    0  502  0.32863177442E+02 -0.72893959874E+02  0.11591720618E+03  0.14082015660E+03  0.00000000000E+00 0.  1.
<mgrwt>
<rscale>  0 0.12233695E+04</rscale>
<asrwt>0</asrwt>
<pdfrwt beam="1">  1        1 0.24180407E+00 0.12233695E+04</pdfrwt>
<pdfrwt beam="2">  1       -1 0.36623935E-01 0.12233695E+04</pdfrwt>
<totfact> 0.41231292E+01</totfact>
</mgrwt>
</event>
<event>
12    1  0.2019083E-007  0.2637014E+04  0.7818608E-02  0.8355736E-01
         -1   -1    0    0    0  501 -0.00000000000E+00  0.00000000000E+00  0.32190006916E+04  0.32190006916E+04  0.00000000000E+00 0.  1.
          1   -1    0    0  501    0  0.00000000000E+00 -0.00000000000E+00 -0.54006242531E+03  0.54006242531E+03  0.00000000000E+00 0. -1.
         23    2    1    2    0    0 -0.71410950190E+03 -0.79184625496E+03  0.52323735473E+03  0.11911443510E+04  0.89859130156E+02 0.  0.
        254    2    1    2    0    0  0.71410950190E+03  0.79184625496E+03  0.21557009115E+04  0.25679187659E+04  0.90010415848E+03 0.  0.
        -24    2    4    4    0    0  0.36515125919E+03  0.25226184093E+03  0.17378649303E+03  0.48321407114E+03  0.79514872282E+02 0.  0.
         24    2    4    4    0    0  0.34895824271E+03  0.53958441404E+03  0.19819144185E+04  0.20847046948E+04  0.71314143595E+02 0.  0.
         11    1    3    3    0    0 -0.42198384566E+03 -0.50334921847E+03  0.36255474402E+03  0.75025112072E+03  0.00000000000E+00 0.  1.
        -11    1    3    3    0    0 -0.29212565624E+03 -0.28849703649E+03  0.16068261071E+03  0.44089323026E+03  0.00000000000E+00 0. -1.
          2    1    6    6  502    0  0.24231072741E+03  0.43009652417E+03  0.15041102539E+04  0.15830493248E+04  0.00000000000E+00 0. -1.
          3    1    5    5  503    0  0.34398020837E+03  0.23100917998E+03  0.18131423209E+03  0.45228583412E+03  0.00000000000E+00 0. -1.
         -4    1    5    5    0  503  0.21171050825E+02  0.21252660944E+02 -0.75277390590E+01  0.30928237027E+02  0.00000000000E+00 0.  1.
         -1    1    6    6    0  502  0.10664751530E+03  0.10948788987E+03  0.47780416459E+03  0.50165537000E+03  0.00000000000E+00 0.  1.
<mgrwt>
<rscale>  0 0.26370145E+04</rscale>
<asrwt>0</asrwt>
<pdfrwt beam="1">  1        1 0.83086529E-01 0.26370145E+04</pdfrwt>
<pdfrwt beam="2">  1       -1 0.49523087E+00 0.26370145E+04</pdfrwt>
<totfact> 0.55734481E-02</totfact>
</mgrwt>
</event>
<event>
12    1  0.2019083E-007  0.1306078E+04  0.7818608E-02  0.9024759E-01
         -1   -1    0    0    0  501 -0.00000000000E+00  0.00000000000E+00  0.48151861573E+03  0.48151861573E+03  0.00000000000E+00 0.  1.
          1   -1    0    0  501    0  0.00000000000E+00 -0.00000000000E+00 -0.88565579059E+03  0.88565579059E+03  0.00000000000E+00 0. -1.
         23    2    1    2    0    0 -0.27664764439E+03 -0.16119849413E+03 -0.29778763352E+01  0.33288325826E+03  0.91013857356E+02 0.  0.
        254    2    1    2    0    0  0.27664764439E+03  0.16119849413E+03 -0.40115929853E+03  0.10342911481E+04  0.89794795088E+03 0.  0.
        -24    2    4    4    0    0  0.15498714339E+03  0.65509597369E+02 -0.68014380963E+03  0.70513049810E+03  0.79378180932E+02 0.  0.
         24    2    4    4    0    0  0.12166050099E+03  0.95688896756E+02  0.27898451111E+03  0.32916064995E+03  0.80973659745E+02 0.  0.
         11    1    3    3    0    0 -0.22077698589E+03 -0.11735292716E+03 -0.39324642717E+02  0.25310198446E+03  0.00000000000E+00 0. -1.
        -11    1    3    3    0    0 -0.55870658496E+02 -0.43845566967E+02  0.36346766382E+02  0.79781273804E+02  0.00000000000E+00 0.  1.
          4    1    6    6  502    0  0.13353228405E+02 -0.14015825186E+02  0.44628763147E+02  0.48646465078E+02  0.00000000000E+00 0. -1.
          1    1    5    5  503    0  0.14096801775E+03  0.72770219349E+02 -0.66345061230E+03  0.68215408950E+03  0.00000000000E+00 0. -1.
         -2    1    5    5    0  503  0.14019125641E+02 -0.72606219800E+01 -0.16693197329E+02  0.22976408604E+02  0.00000000000E+00 0.  1.
         -1    1    6    6    0  502  0.10830727259E+03  0.10970472194E+03  0.23435574796E+03  0.28051418487E+03  0.00000000000E+00 0.  1.
<mgrwt>
<rscale>  0 0.13060777E+04</rscale>
<asrwt>0</asrwt>
<pdfrwt beam="1">  1        1 0.13625474E+00 0.13060777E+04</pdfrwt>
<pdfrwt beam="2">  1       -1 0.74079788E-01 0.13060777E+04</pdfrwt>
<totfact> 0.33701681E+01</totfact>
</mgrwt>
</event>
<event>
12    1  0.2019083E-007  0.2642662E+04  0.7818608E-02  0.8353853E-01
         -2   -1    0    0    0  501 -0.00000000000E+00  0.00000000000E+00  0.34738251496E+03  0.34738251496E+03  0.00000000000E+00 0.  1.
          2   -1    0    0  501    0  0.00000000000E+00 -0.00000000000E+00 -0.50259163334E+04  0.50259163334E+04  0.00000000000E+00 0. -1.
         23    2    1    2    0    0  0.13454171799E+03 -0.98819584178E+03 -0.33006172838E+04  0.34492366150E+04  0.92337839741E+02 0.  0.
        254    2    1    2    0    0 -0.13454171799E+03  0.98819584178E+03 -0.13779165346E+04  0.19240622333E+04  0.89929361489E+03 0.  0.
        -24    2    4    4    0    0 -0.31258535935E+03  0.81319993739E+03 -0.50046696116E+03  0.10080250115E+04  0.81507665988E+02 0.  0.
         24    2    4    4    0    0  0.17804364135E+03  0.17499590439E+03 -0.87744957346E+03  0.91603722180E+03  0.82965854331E+02 0.  0.
         13    1    3    3    0    0  0.12061245348E+03 -0.54713273394E+03 -0.18586782969E+04  0.19412847817E+04  0.00000000000E+00 0.  1.
        -13    1    3    3    0    0  0.13929264510E+02 -0.44106310783E+03 -0.14419389869E+04  0.15079518333E+04  0.00000000000E+00 0. -1.
          4    1    6    6  502    0  0.16639945644E+03  0.13940782020E+03 -0.64396498287E+03  0.67956914189E+03  0.00000000000E+00 0. -1.
          3    1    5    5  503    0 -0.25979725460E+03  0.58091701209E+03 -0.37831966695E+03  0.74032760238E+03  0.00000000000E+00 0. -1.
         -4    1    5    5    0  503 -0.52788104746E+02  0.23228292529E+03 -0.12214729421E+03  0.26769740915E+03  0.00000000000E+00 0.  1.
         -3    1    6    6    0  502  0.11644184912E+02  0.35588084192E+02 -0.23348459058E+03  0.23646807991E+03  0.00000000000E+00 0.  1.
<mgrwt>
<rscale>  0 0.26426619E+04</rscale>
<asrwt>0</asrwt>
<pdfrwt beam="1">  1        2 0.77321791E+00 0.26426619E+04</pdfrwt>
<pdfrwt beam="2">  1       -2 0.53443463E-01 0.26426619E+04</pdfrwt>
<totfact> 0.93139042E-02</totfact>
</mgrwt>
</event>
<event>
12    1  0.2019083E-007  0.2338128E+04  0.7818608E-02  0.8463038E-01
          1   -1    0    0  501    0  0.00000000000E+00  0.00000000000E+00  0.12144090653E+04  0.12144090653E+04  0.00000000000E+00 0.  1.
         -1   -1    0    0    0  501 -0.00000000000E+00 -0.00000000000E+00 -0.11254119718E+04  0.11254119718E+04  0.00000000000E+00 0. -1.
         23    2    1    2    0    0 -0.45799624875E+02  0.88962810636E+03 -0.40389770178E+03  0.98239739306E+03  0.91845038627E+02 0.  0.
        254    2    1    2    0    0  0.45799624875E+02 -0.88962810636E+03  0.49289479530E+03  0.13574236441E+04  0.89784068577E+03 0.  0.
        -24    2    4    4    0    0  0.19375492454E+03 -0.11971678384E+03  0.51583762565E+03  0.56919502693E+03  0.77597960820E+02 0.  0.
         24    2    4    4    0    0 -0.14795529966E+03 -0.76991132252E+03 -0.22942830350E+02  0.78822861716E+03  0.78254483601E+02 0.  0.
         11    1    3    3    0    0 -0.18421622065E+02  0.90589041832E+02 -0.16219887447E+02  0.93855289719E+02  0.00000000000E+00 0.  1.
        -11    1    3    3    0    0 -0.27378002810E+02  0.79903906453E+03 -0.38767781434E+03  0.88854210334E+03  0.00000000000E+00 0. -1.
          4    1    6    6  502    0 -0.10079338295E+01 -0.14779490901E+03  0.10069673626E+02  0.14814097808E+03  0.00000000000E+00 0. -1.
          1    1    5    5  503    0  0.75827846006E+02 -0.79735734505E+02  0.17943831655E+03  0.21048933235E+03  0.00000000000E+00 0. -1.
         -2    1    5    5    0  503  0.11792707853E+03 -0.39981049335E+02  0.33639930910E+03  0.35870569457E+03  0.00000000000E+00 0.  1.
         -3    1    6    6    0  502 -0.14694736583E+03 -0.62211641351E+03 -0.33012503976E+02  0.64008763908E+03  0.00000000000E+00 0.  1.
<mgrwt>
<rscale>  0 0.23381279E+04</rscale>
<asrwt>0</asrwt>
<pdfrwt beam="1">  1        1 0.18683216E+00 0.23381279E+04</pdfrwt>
<pdfrwt beam="2">  1       -1 0.17314030E+00 0.23381279E+04</pdfrwt>
<totfact> 0.21928925E+00</totfact>
</mgrwt>
</event>
<event>
12    1  0.2097619E-007  0.3228122E+04  0.7818608E-02  0.8181430E-01
          2   -1    0    0  501    0  0.00000000000E+00  0.00000000000E+00  0.18387700975E+04  0.18387700975E+04  0.00000000000E+00 0. -1.
         -2   -1    0    0    0  501 -0.00000000000E+00 -0.00000000000E+00 -0.14168125575E+04  0.14168125575E+04  0.00000000000E+00 0.  1.
         23    2    1    2    0    0  0.35258717757E+03  0.14440035299E+04  0.26509782577E+03  0.15126476976E+04  0.91445544575E+02 0.  0.
        254    2    1    2    0    0 -0.35258717757E+03 -0.14440035299E+04  0.15685971421E+03  0.17429349574E+04  0.89652294095E+03 0.  0.
        -24    2    4    4    0    0  0.11889965445E+03 -0.11240571108E+04  0.25012620096E+03  0.11600987966E+04  0.74997235171E+02 0.  0.
         24    2    4    4    0    0 -0.47148683202E+03 -0.31994641916E+03 -0.93266486745E+02  0.58283616087E+03  0.79585230810E+02 0.  0.
         11    1    3    3    0    0  0.15105462923E+03  0.52057456852E+03  0.13467106810E+03  0.55852634583E+03  0.00000000000E+00 0. -1.
        -11    1    3    3    0    0  0.20153254835E+03  0.92342896140E+03  0.13042675767E+03  0.95412135178E+03  0.00000000000E+00 0.  1.
          4    1    6    6  502    0 -0.18426012187E+03 -0.13996774068E+03 -0.75560037552E+02  0.24341750187E+03  0.00000000000E+00 0. -1.
          1    1    5    5  503    0 -0.10167123199E+01 -0.16685281153E+03  0.56581767615E+02  0.17618850940E+03  0.00000000000E+00 0. -1.
         -2    1    5    5    0  503  0.11991636677E+03 -0.95720429923E+03  0.19354443334E+03  0.98391028715E+03  0.00000000000E+00 0.  1.
         -3    1    6    6    0  502 -0.28722671015E+03 -0.17997867847E+03 -0.17706449193E+02  0.33941865899E+03  0.00000000000E+00 0.  1.
<mgrwt>
<rscale>  0 0.32281218E+04</rscale>
<asrwt>0</asrwt>
<pdfrwt beam="1">  1        2 0.28288771E+00 0.32281218E+04</pdfrwt>
<pdfrwt beam="2">  1       -2 0.21797116E+00 0.32281218E+04</pdfrwt>
<totfact> 0.70242166E-01</totfact>
</mgrwt>
</event>
<event>
12    1  0.2019083E-007  0.1622366E+04  0.7818608E-02  0.8806925E-01
         -2   -1    0    0    0  501 -0.00000000000E+00  0.00000000000E+00  0.55490258978E+03  0.55490258978E+03  0.00000000000E+00 0.  1.
          2   -1    0    0  501    0  0.00000000000E+00 -0.00000000000E+00 -0.11858252312E+04  0.11858252312E+04  0.00000000000E+00 0. -1.
         23    2    1    2    0    0 -0.37721083393E+03  0.15876554550E+03 -0.62780459075E+03  0.75455913992E+03  0.87899828175E+02 0.  0.
        254    2    1    2    0    0  0.37721083393E+03 -0.15876554550E+03 -0.31180506970E+01  0.98616868108E+03  0.89723153847E+03 0.  0.
        -24    2    4    4    0    0  0.38018534130E+03 -0.17757972546E+03 -0.39747389257E+03  0.58353279934E+03  0.80309277152E+02 0.  0.
         24    2    4    4    0    0 -0.29745073631E+01  0.18814179963E+02  0.39435584187E+03  0.40263588174E+03  0.78970261404E+02 0.  0.
         11    1    3    3    0    0 -0.32006255756E+03  0.14817246056E+03 -0.58212345975E+03  0.68063414638E+03  0.00000000000E+00 0. -1.
        -11    1    3    3    0    0 -0.57148276372E+02  0.10593084940E+02 -0.45681130998E+02  0.73924993541E+02  0.00000000000E+00 0.  1.
          4    1    6    6  502    0 -0.20540765393E+01  0.27511283841E+02  0.42484834341E+02  0.50656205128E+02  0.00000000000E+00 0. -1.
          1    1    5    5  503    0  0.42191055268E+01 -0.37849528550E+01  0.38118230324E+01  0.68305720398E+01  0.00000000000E+00 0. -1.
         -2    1    5    5    0  503  0.37596623577E+03 -0.17379477261E+03 -0.40128571560E+03  0.57670222730E+03  0.00000000000E+00 0.  1.
         -1    1    6    6    0  502 -0.92043082383E+00 -0.86971038773E+01  0.35187100753E+03  0.35197967661E+03  0.00000000000E+00 0.  1.
<mgrwt>
<rscale>  0 0.16223655E+04</rscale>
<asrwt>0</asrwt>
<pdfrwt beam="1">  1        2 0.18243465E+00 0.16223655E+04</pdfrwt>
<pdfrwt beam="2">  1       -2 0.85369629E-01 0.16223655E+04</pdfrwt>
<totfact> 0.22063196E+01</totfact>
</mgrwt>
</event>
<event>
12    1  0.2245043E-007  0.3640618E+04  0.7818608E-02  0.8081250E-01
         -1   -1    0    0    0  501 -0.00000000000E+00  0.00000000000E+00  0.17404449669E+04  0.17404449669E+04  0.00000000000E+00 0.  1.
          1   -1    0    0  501    0  0.00000000000E+00 -0.00000000000E+00 -0.19038379145E+04  0.19038379145E+04  0.00000000000E+00 0. -1.
         23    2    1    2    0    0  0.16562953786E+04 -0.31500650617E+03  0.19454709897E+03  0.16995874814E+04  0.90584508157E+02 0.  0.
        254    2    1    2    0    0 -0.16562953786E+04  0.31500650617E+03 -0.35794004656E+03  0.19446954001E+04  0.90065289771E+03 0.  0.
        -24    2    4    4    0    0 -0.34372755819E+03 -0.28743375473E+03 -0.17063301938E+03  0.48616327190E+03  0.80450618555E+02 0.  0.
         24    2    4    4    0    0 -0.13125678204E+04  0.60244026090E+03 -0.18730702718E+03  0.14585321282E+04  0.80395867134E+02 0.  0.
         13    1    3    3    0    0  0.13019328671E+04 -0.23571975354E+03  0.11689635590E+03  0.13282536470E+04  0.00000000000E+00 0. -1.
        -13    1    3    3    0    0  0.35436251144E+03 -0.79286752636E+02  0.77650743070E+02  0.37133383438E+03  0.00000000000E+00 0.  1.
          2    1    6    6  502    0 -0.24244278465E+02  0.18608800776E+02 -0.13652481398E+02  0.33473314042E+02  0.00000000000E+00 0. -1.
          3    1    5    5  503    0 -0.11516496471E+02 -0.19279457403E+01 -0.19606574140E+02  0.22820263259E+02  0.00000000000E+00 0. -1.
         -4    1    5    5    0  503 -0.33221106172E+03 -0.28550580899E+03 -0.15102644524E+03  0.46334300864E+03  0.00000000000E+00 0.  1.
         -1    1    6    6    0  502 -0.12883235419E+04  0.58383146012E+03 -0.17365454578E+03  0.14250588141E+04  0.00000000000E+00 0.  1.
<mgrwt>
<rscale>  0 0.36406181E+04</rscale>
<asrwt>0</asrwt>
<pdfrwt beam="1">  1        1 0.29289814E+00 0.36406181E+04</pdfrwt>
<pdfrwt beam="2">  1       -1 0.26776077E+00 0.36406181E+04</pdfrwt>
<totfact> 0.14919928E-01</totfact>
</mgrwt>
</event>
<event>
12    1  0.2019083E-007  0.1281331E+04  0.7818608E-02  0.9044503E-01
         -1   -1    0    0    0  501 -0.00000000000E+00  0.00000000000E+00  0.64882663436E+03  0.64882663436E+03  0.00000000000E+00 0.  1.
          1   -1    0    0  501    0  0.00000000000E+00 -0.00000000000E+00 -0.63260652865E+03  0.63260652865E+03  0.00000000000E+00 0. -1.
         23    2    1    2    0    0 -0.35311480189E+01  0.11690456812E+03 -0.28665155167E+03  0.32184054210E+03  0.87937906557E+02 0.  0.
        254    2    1    2    0    0  0.35311480189E+01 -0.11690456812E+03  0.30287165738E+03  0.95959262091E+03  0.90299923046E+03 0.  0.
        -24    2    4    4    0    0  0.21313507313E+03  0.60402668264E+02 -0.24627728549E+03  0.34047972142E+03  0.78733078287E+02 0.  0.
         24    2    4    4    0    0 -0.20960392511E+03 -0.17730723639E+03  0.54914894287E+03  0.61911289950E+03  0.79778188585E+02 0.  0.
         13    1    3    3    0    0  0.58973055498E+01  0.43675602813E+02 -0.21315044337E+03  0.21765901774E+03  0.00000000000E+00 0. -1.
        -13    1    3    3    0    0 -0.94284535687E+01  0.73228965309E+02 -0.73501108301E+02  0.10418152436E+03  0.00000000000E+00 0.  1.
          2    1    6    6  502    0 -0.11308695024E+03 -0.13589768600E+03  0.39292799188E+03  0.43087033569E+03  0.00000000000E+00 0. -1.
          3    1    5    5  503    0  0.16593691013E+03  0.78109680093E+02 -0.20710932095E+03  0.27664137632E+03  0.00000000000E+00 0. -1.
         -4    1    5    5    0  503  0.47198163001E+02 -0.17707011829E+02 -0.39167964535E+02  0.63838345094E+02  0.00000000000E+00 0.  1.
         -1    1    6    6    0  502 -0.96516974866E+02 -0.41409550384E+02  0.15622095098E+03  0.18824256380E+03  0.00000000000E+00 0.  1.
<mgrwt>
<rscale>  0 0.12813305E+04</rscale>
<asrwt>0</asrwt>
<pdfrwt beam="1">  1        1 0.97324081E-01 0.12813305E+04</pdfrwt>
<pdfrwt beam="2">  1       -1 0.99819482E-01 0.12813305E+04</pdfrwt>
<totfact> 0.29868267E+01</totfact>
</mgrwt>
</event>
<event>
12    1  0.2019083E-007  0.1326588E+04  0.7818608E-02  0.9008742E-01
         -2   -1    0    0    0  501 -0.00000000000E+00  0.00000000000E+00  0.60720673388E+03  0.60720673388E+03  0.00000000000E+00 0.  1.
          2   -1    0    0  501    0  0.00000000000E+00 -0.00000000000E+00 -0.72456191287E+03  0.72456191287E+03  0.00000000000E+00 0. -1.
         23    2    1    2    0    0  0.24508376220E+03 -0.18552265138E+03  0.13189354278E+03  0.34808559421E+03  0.96348168644E+02 0.  0.
        254    2    1    2    0    0 -0.24508376220E+03  0.18552265138E+03 -0.24924872177E+03  0.98368305253E+03  0.90056799736E+03 0.  0.
        -24    2    4    4    0    0 -0.10205447837E+03  0.33411454193E+02  0.33373112626E+03  0.35944698826E+03  0.79336189154E+02 0.  0.
         24    2    4    4    0    0 -0.14302928383E+03  0.15211119719E+03 -0.58297984803E+03  0.62423606427E+03  0.78803352621E+02 0.  0.
         11    1    3    3    0    0  0.35247649675E+02 -0.78127804911E+02  0.25175815135E+02  0.89331810547E+02  0.00000000000E+00 0.  1.
        -11    1    3    3    0    0  0.20983611252E+03 -0.10739484647E+03  0.10671772764E+03  0.25875378366E+03  0.00000000000E+00 0. -1.
          4    1    6    6  502    0 -0.12879804154E+03  0.14203831125E+03 -0.57281574862E+03  0.60405438433E+03  0.00000000000E+00 0. -1.
          3    1    5    5  503    0 -0.84447221285E+02  0.45925804101E+02  0.31933069100E+03  0.33348553624E+03  0.00000000000E+00 0. -1.
         -4    1    5    5    0  503 -0.17607257081E+02 -0.12514349908E+02  0.14400435261E+02  0.25961452025E+02  0.00000000000E+00 0.  1.
         -3    1    6    6    0  502 -0.14231242290E+02  0.10072885944E+02 -0.10164099414E+02  0.20181679941E+02  0.00000000000E+00 0.  1.
<mgrwt>
<rscale>  0 0.13265879E+04</rscale>
<asrwt>0</asrwt>
<pdfrwt beam="1">  1        2 0.11147106E+00 0.13265879E+04</pdfrwt>
<pdfrwt beam="2">  1       -2 0.93416420E-01 0.13265879E+04</pdfrwt>
<totfact> 0.37196265E+01</totfact>
</mgrwt>
</event>
<event>
12    1  0.2019083E-007  0.1623824E+04  0.7818608E-02  0.8806044E-01
          1   -1    0    0  501    0  0.00000000000E+00  0.00000000000E+00  0.15355404482E+04  0.15355404482E+04  0.00000000000E+00 0. -1.
         -1   -1    0    0    0  501 -0.00000000000E+00 -0.00000000000E+00 -0.42929597080E+03  0.42929597080E+03  0.00000000000E+00 0.  1.
         23    2    1    2    0    0  0.33284213723E+02 -0.53753476395E+03  0.45034071754E+03  0.70787634303E+03  0.90723171266E+02 0.  0.
        254    2    1    2    0    0 -0.33284213723E+02  0.53753476395E+03  0.65590375986E+03  0.12569600760E+04  0.92719330727E+03 0.  0.
        -24    2    4    4    0    0 -0.19965364931E+03 -0.81521626268E+02  0.55811785728E+03  0.60354096298E+03  0.79112553645E+02 0.  0.
         24    2    4    4    0    0  0.16636943558E+03  0.61905639022E+03  0.97785902575E+02  0.65341911299E+03  0.80528573261E+02 0.  0.
         11    1    3    3    0    0  0.41114016659E+02 -0.15620190253E+03  0.17015814140E+03  0.23461285089E+03  0.00000000000E+00 0. -1.
        -11    1    3    3    0    0 -0.78298029355E+01 -0.38133286143E+03  0.28018257614E+03  0.47326349214E+03  0.00000000000E+00 0.  1.
          2    1    6    6  502    0  0.38766249242E+02  0.29806488903E+03  0.41024458009E+02  0.30336200538E+03  0.00000000000E+00 0. -1.
          3    1    5    5  503    0 -0.45045668171E+02 -0.57227971010E+02  0.16153679973E+03  0.17719562792E+03  0.00000000000E+00 0. -1.
         -4    1    5    5    0  503 -0.15460798114E+03 -0.24293655259E+02  0.39658105755E+03  0.42634533506E+03  0.00000000000E+00 0.  1.
         -1    1    6    6    0  502  0.12760318634E+03  0.32099150119E+03  0.56761444566E+02  0.35005710761E+03  0.00000000000E+00 0.  1.
<mgrwt>
<rscale>  0 0.16238243E+04</rscale>
<asrwt>0</asrwt>
<pdfrwt beam="1">  1        1 0.23623699E+00 0.16238243E+04</pdfrwt>
<pdfrwt beam="2">  1       -1 0.66045535E-01 0.16238243E+04</pdfrwt>
<totfact> 0.13752784E+01</totfact>
</mgrwt>
</event>
<event>
12    1  0.2019083E-007  0.5089092E+04  0.7818608E-02  0.7814909E-01
         -2   -1    0    0    0  501 -0.00000000000E+00  0.00000000000E+00  0.16950462578E+04  0.16950462578E+04  0.00000000000E+00 0.  1.
          2   -1    0    0  501    0  0.00000000000E+00 -0.00000000000E+00 -0.38197867460E+04  0.38197867460E+04  0.00000000000E+00 0. -1.
         23    2    1    2    0    0 -0.95307068998E+03  0.40817952814E+03  0.13929310779E+04  0.17389090604E+04  0.92700944682E+02 0.  0.
        254    2    1    2    0    0  0.95307068998E+03 -0.40817952814E+03 -0.35176715661E+04  0.37759239434E+04  0.89924085346E+03 0.  0.
        -24    2    4    4    0    0  0.56008486542E+03 -0.30819120898E+03 -0.31717823337E+04  0.32365595223E+04  0.80233977458E+02 0.  0.
         24    2    4    4    0    0  0.39298582456E+03 -0.99988319161E+02 -0.34588923233E+03  0.53936442111E+03  0.82698823700E+02 0.  0.
         13    1    3    3    0    0 -0.41130912656E+03  0.14446483005E+03  0.64419692908E+03  0.77783993736E+03  0.00000000000E+00 0.  1.
        -13    1    3    3    0    0 -0.54176156342E+03  0.26371469809E+03  0.74873414886E+03  0.96106912304E+03  0.00000000000E+00 0. -1.
          2    1    6    6  502    0  0.17310354397E+03 -0.21906660915E+01 -0.15014066623E+03  0.22915465435E+03  0.00000000000E+00 0. -1.
          1    1    5    5  503    0  0.47924051259E+03 -0.29393429127E+03 -0.27702442606E+04  0.28267157799E+04  0.00000000000E+00 0. -1.
         -2    1    5    5    0  503  0.80844352831E+02 -0.14256917709E+02 -0.40153807308E+03  0.40984374245E+03  0.00000000000E+00 0.  1.
         -1    1    6    6    0  502  0.21988228058E+03 -0.97797653069E+02 -0.19574856610E+03  0.31020976675E+03  0.00000000000E+00 0.  1.
<mgrwt>
<rscale>  0 0.50890923E+04</rscale>
<asrwt>0</asrwt>
<pdfrwt beam="1">  1        2 0.58765950E+00 0.50890923E+04</pdfrwt>
<pdfrwt beam="2">  1       -2 0.26077635E+00 0.50890923E+04</pdfrwt>
<totfact> 0.18855694E-02</totfact>
</mgrwt>
</event>
<event>
12    1  0.2019083E-007  0.1550105E+04  0.7818608E-02  0.8851801E-01
         -1   -1    0    0    0  501 -0.00000000000E+00  0.00000000000E+00  0.37597896943E+03  0.37597896943E+03  0.00000000000E+00 0.  1.
          1   -1    0    0  501    0  0.00000000000E+00 -0.00000000000E+00 -0.15977120407E+04  0.15977120407E+04  0.00000000000E+00 0. -1.
         23    2    1    2    0    0  0.29376130691E+03  0.41252509975E+03 -0.35448326182E+03  0.62514025292E+03  0.93109019716E+02 0.  0.
        254    2    1    2    0    0 -0.29376130691E+03 -0.41252509975E+03 -0.86724980943E+03  0.13485507572E+04  0.89999680521E+03 0.  0.
        -24    2    4    4    0    0  0.11738728967E+03  0.80977730613E+02  0.94704096232E+02  0.18890731072E+03  0.79874511383E+02 0.  0.
         24    2    4    4    0    0 -0.41114859657E+03 -0.49350283037E+03 -0.96195390567E+03  0.11596434465E+04  0.82640149303E+02 0.  0.
         11    1    3    3    0    0  0.10420222336E+03  0.20701268789E+03 -0.19750157441E+03  0.30449832216E+03  0.00000000000E+00 0. -1.
        -11    1    3    3    0    0  0.18955908355E+03  0.20551241186E+03 -0.15698168741E+03  0.32064193077E+03  0.00000000000E+00 0.  1.
          2    1    6    6  502    0 -0.63097055314E+02 -0.12845327947E+03 -0.20311211984E+03  0.24846733512E+03  0.00000000000E+00 0. -1.
          1    1    5    5  503    0  0.38599795645E+02 -0.10301947460E+02  0.39880976824E+02  0.56449682531E+02  0.00000000000E+00 0. -1.
         -2    1    5    5    0  503  0.78787494020E+02  0.91279678072E+02  0.54823119408E+02  0.13245762819E+03  0.00000000000E+00 0.  1.
         -1    1    6    6    0  502 -0.34805154126E+03 -0.36504955089E+03 -0.75884178583E+03  0.91117611135E+03  0.00000000000E+00 0.  1.
<mgrwt>
<rscale>  0 0.15501047E+04</rscale>
<asrwt>0</asrwt>
<pdfrwt beam="1">  1        1 0.24580185E+00 0.15501047E+04</pdfrwt>
<pdfrwt beam="2">  1       -1 0.57842918E-01 0.15501047E+04</pdfrwt>
<totfact> 0.16335689E+01</totfact>
</mgrwt>
</event>
<event>
12    1  0.2019083E-007  0.2334445E+04  0.7818608E-02  0.8464462E-01
         -2   -1    0    0    0  501 -0.00000000000E+00  0.00000000000E+00  0.12967515724E+04  0.12967515724E+04  0.00000000000E+00 0. -1.
          2   -1    0    0  501    0  0.00000000000E+00 -0.00000000000E+00 -0.10506316865E+04  0.10506316865E+04  0.00000000000E+00 0.  1.
         23    2    1    2    0    0 -0.72793467974E+02 -0.95061541021E+03  0.37860134001E+03  0.10309215667E+04  0.10242926773E+03 0.  0.
        254    2    1    2    0    0  0.72793467974E+02  0.95061541021E+03 -0.13248145404E+03  0.13164616922E+04  0.89808212558E+03 0.  0.
        -24    2    4    4    0    0 -0.17234141291E+03 -0.10549633894E+03 -0.66604856096E+02  0.22725358346E+03  0.79855771288E+02 0.  0.
         24    2    4    4    0    0  0.24513488088E+03  0.10561117492E+04 -0.65876597941E+02  0.10892081088E+04  0.81064428040E+02 0.  0.
         13    1    3    3    0    0 -0.82705817724E+02 -0.55903978490E+03  0.25667141809E+03  0.62068184301E+03  0.00000000000E+00 0.  1.
        -13    1    3    3    0    0  0.99123497494E+01 -0.39157562532E+03  0.12192992192E+03  0.41023972367E+03  0.00000000000E+00 0. -1.
          2    1    6    6  502    0  0.24548039593E+03  0.10344398257E+04 -0.54106867938E+02  0.10645440014E+04  0.00000000000E+00 0. -1.
          1    1    5    5  503    0 -0.14768194148E+03 -0.98044983338E+02 -0.25992561691E+02  0.17916022958E+03  0.00000000000E+00 0. -1.
         -2    1    5    5    0  503 -0.24659471424E+02 -0.74513555985E+01 -0.40612294404E+02  0.48093353886E+02  0.00000000000E+00 0.  1.
         -1    1    6    6    0  502 -0.34551504579E+00  0.21671923470E+02 -0.11769730003E+02  0.24664107360E+02  0.00000000000E+00 0.  1.
<mgrwt>
<rscale>  0 0.23344449E+04</rscale>
<asrwt>0</asrwt>
<pdfrwt beam="1">  1        2 0.16163564E+00 0.23344449E+04</pdfrwt>
<pdfrwt beam="2">  1       -2 0.19950024E+00 0.23344449E+04</pdfrwt>
<totfact> 0.28329450E+00</totfact>
</mgrwt>
</event>
<event>
12    1  0.2019083E-007  0.3097214E+04  0.7818608E-02  0.8216503E-01
         -2   -1    0    0    0  501 -0.00000000000E+00  0.00000000000E+00  0.14045395227E+04  0.14045395227E+04  0.00000000000E+00 0.  1.
          2   -1    0    0  501    0  0.00000000000E+00 -0.00000000000E+00 -0.17074517374E+04  0.17074517374E+04  0.00000000000E+00 0. -1.
         23    2    1    2    0    0 -0.84810701961E+03  0.47688281426E+03  0.89520450681E+03  0.13253689197E+04  0.92243856849E+02 0.  0.
        254    2    1    2    0    0  0.84810701961E+03 -0.47688281426E+03 -0.11981167216E+04  0.17866223404E+04  0.89990720262E+03 0.  0.
        -24    2    4    4    0    0  0.46694767000E+03 -0.32424172664E+03 -0.63268038277E+02  0.57735848172E+03  0.78531190887E+02 0.  0.
         24    2    4    4    0    0  0.38115934961E+03 -0.15264108763E+03 -0.11348486833E+04  0.12092638586E+04  0.76523162519E+02 0.  0.
         11    1    3    3    0    0 -0.30654055636E+03  0.18422996332E+03  0.27129746745E+03  0.44889877246E+03  0.00000000000E+00 0. -1.
        -11    1    3    3    0    0 -0.54156646325E+03  0.29265285095E+03  0.62390703936E+03  0.87647014727E+03  0.00000000000E+00 0.  1.
          2    1    6    6  502    0  0.34386586263E+03 -0.16036107387E+03 -0.10215514612E+04  0.10897370294E+04  0.00000000000E+00 0. -1.
          1    1    5    5  503    0  0.46228537316E+03 -0.30739883707E+03 -0.67853802383E+02  0.55929057722E+03  0.00000000000E+00 0. -1.
         -2    1    5    5    0  503  0.46622968383E+01 -0.16842889564E+02  0.45857641056E+01  0.18067904502E+02  0.00000000000E+00 0.  1.
         -1    1    6    6    0  502  0.37293486985E+02  0.77199862432E+01 -0.11329722213E+03  0.11952682921E+03  0.00000000000E+00 0.  1.
<mgrwt>
<rscale>  0 0.30972139E+04</rscale>
<asrwt>0</asrwt>
<pdfrwt beam="1">  1        2 0.26268488E+00 0.30972139E+04</pdfrwt>
<pdfrwt beam="2">  1       -2 0.21608300E+00 0.30972139E+04</pdfrwt>
<totfact> 0.86350242E-01</totfact>
</mgrwt>
</event>
<event>
12    1  0.2019083E-007  0.2394987E+04  0.7818608E-02  0.8441383E-01
          1   -1    0    0  501    0  0.00000000000E+00  0.00000000000E+00  0.21660263724E+04  0.21660263724E+04  0.00000000000E+00 0. -1.
         -1   -1    0    0    0  501 -0.00000000000E+00 -0.00000000000E+00 -0.66203734718E+03  0.66203734718E+03  0.00000000000E+00 0.  1.
         23    2    1    2    0    0  0.20709916709E+03  0.32573517490E+03 -0.47525532441E+03  0.61917685869E+03  0.92297831919E+02 0.  0.
        254    2    1    2    0    0 -0.20709916709E+03 -0.32573517490E+03  0.19792443496E+04  0.22088868609E+04  0.90154284398E+03 0.  0.
        -24    2    4    4    0    0  0.30373875973E+02  0.25629513963E+03  0.10528548777E+04  0.10867827758E+04  0.77353974310E+02 0.  0.
         24    2    4    4    0    0 -0.23747304307E+03 -0.58203031453E+03  0.92638947189E+03  0.11221040851E+04  0.75943339754E+02 0.  0.
         11    1    3    3    0    0  0.18036543680E+03  0.31534207953E+03 -0.40936068555E+03  0.54731023085E+03  0.00000000000E+00 0. -1.
        -11    1    3    3    0    0  0.26733730295E+02  0.10393095367E+02 -0.65894638859E+02  0.71866627840E+02  0.00000000000E+00 0.  1.
          4    1    6    6  502    0 -0.23864294412E+03 -0.57370889762E+03  0.89458552852E+03  0.10892087136E+04  0.00000000000E+00 0. -1.
          3    1    5    5  503    0 -0.20360877756E+02  0.14626068778E+03  0.61395171909E+03  0.63146137452E+03  0.00000000000E+00 0. -1.
         -4    1    5    5    0  503  0.50734753729E+02  0.11003445185E+03  0.43890315865E+03  0.45532140132E+03  0.00000000000E+00 0.  1.
         -3    1    6    6    0  502  0.11699010589E+01 -0.83214169111E+01  0.31803943377E+02  0.32895371441E+02  0.00000000000E+00 0.  1.
<mgrwt>
<rscale>  0 0.23949867E+04</rscale>
<asrwt>0</asrwt>
<pdfrwt beam="1">  1        1 0.33323482E+00 0.23949867E+04</pdfrwt>
<pdfrwt beam="2">  1       -1 0.10185190E+00 0.23949867E+04</pdfrwt>
<totfact> 0.18818441E+00</totfact>
</mgrwt>
</event>
<event>
12    1  0.2019083E-007  0.1646920E+04  0.7818608E-02  0.8792231E-01
         -2   -1    0    0    0  501 -0.00000000000E+00  0.00000000000E+00  0.24339069739E+03  0.24339069739E+03  0.00000000000E+00 0.  1.
          2   -1    0    0  501    0  0.00000000000E+00 -0.00000000000E+00 -0.27859983396E+04  0.27859983396E+04  0.00000000000E+00 0. -1.
         23    2    1    2    0    0 -0.40199435381E+03  0.40182890059E+03 -0.78139406152E+03  0.97082082206E+03  0.94076901084E+02 0.  0.
        254    2    1    2    0    0  0.40199435381E+03 -0.40182890059E+03 -0.17612135806E+04  0.20585682149E+04  0.90153418838E+03 0.  0.
        -24    2    4    4    0    0  0.41092110207E+03 -0.56979321629E+03 -0.17311834213E+04  0.18700170512E+04  0.80294907647E+02 0.  0.
         24    2    4    4    0    0 -0.89267482564E+01  0.16796431569E+03 -0.30030159316E+02  0.18855116364E+03  0.79737272720E+02 0.  0.
         13    1    3    3    0    0 -0.73055128467E+02  0.29882572465E+02 -0.12380496618E+03  0.14682537105E+03  0.00000000000E+00 0. -1.
        -13    1    3    3    0    0 -0.32893922534E+03  0.37194632813E+03 -0.65758909534E+03  0.82399545102E+03  0.00000000000E+00 0.  1.
          4    1    6    6  502    0 -0.19024922725E+02  0.15405924993E+03 -0.49167705289E+02  0.16283016740E+03  0.00000000000E+00 0. -1.
          1    1    5    5  503    0  0.24882461428E+03 -0.40910672367E+03 -0.11758808074E+04  0.12696368273E+04  0.00000000000E+00 0. -1.
         -2    1    5    5    0  503  0.16209648779E+03 -0.16068649261E+03 -0.55530261396E+03  0.60038022397E+03  0.00000000000E+00 0.  1.
         -3    1    6    6    0  502  0.10098174469E+02  0.13905065765E+02  0.19137545974E+02  0.25720996237E+02  0.00000000000E+00 0.  1.
<mgrwt>
<rscale>  0 0.16469196E+04</rscale>
<asrwt>0</asrwt>
<pdfrwt beam="1">  1        2 0.42861510E+00 0.16469196E+04</pdfrwt>
<pdfrwt beam="2">  1       -2 0.37444726E-01 0.16469196E+04</pdfrwt>
<totfact> 0.15210349E+01</totfact>
</mgrwt>
</event>
<event>
12    1  0.2019083E-007  0.3231297E+04  0.7818608E-02  0.8180600E-01
          1   -1    0    0  501    0  0.00000000000E+00  0.00000000000E+00  0.36615262095E+04  0.36615262095E+04  0.00000000000E+00 0. -1.
         -1   -1    0    0    0  501 -0.00000000000E+00 -0.00000000000E+00 -0.71290485144E+03  0.71290485144E+03  0.00000000000E+00 0.  1.
         23    2    1    2    0    0 -0.85103002642E+03 -0.65949951273E+03 -0.30790603776E+02  0.10812149249E+04  0.94265260870E+02 0.  0.
        254    2    1    2    0    0  0.85103002642E+03  0.65949951273E+03  0.29794119618E+04  0.32932161360E+04  0.89954720117E+03 0.  0.
        -24    2    4    4    0    0  0.16876746409E+02  0.31356696842E+03  0.16692428614E+04  0.16999735559E+04  0.70208918576E+02 0.  0.
         24    2    4    4    0    0  0.83415328001E+03  0.34593254430E+03  0.13101691004E+04  0.15932425801E+04  0.79986421153E+02 0.  0.
         11    1    3    3    0    0 -0.32296971389E+03 -0.30719330698E+03 -0.24085134247E+02  0.44638241188E+03  0.00000000000E+00 0.  1.
        -11    1    3    3    0    0 -0.52806031253E+03 -0.35230620575E+03 -0.67054695296E+01  0.63483251303E+03  0.00000000000E+00 0. -1.
          4    1    6    6  502    0  0.70432218503E+03  0.32158534557E+03  0.11312671134E+04  0.13708581826E+04  0.00000000000E+00 0. -1.
          1    1    5    5  503    0 -0.11766845119E+02  0.24366542933E+03  0.11822375751E+04  0.12071441439E+04  0.00000000000E+00 0. -1.
         -2    1    5    5    0  503  0.28643591528E+02  0.69901539093E+02  0.48700528630E+03  0.49282941205E+03  0.00000000000E+00 0.  1.
         -3    1    6    6    0  502  0.12983109498E+03  0.24347198730E+02  0.17890198701E+03  0.22238439753E+03  0.00000000000E+00 0.  1.
<mgrwt>
<rscale>  0 0.32312968E+04</rscale>
<asrwt>0</asrwt>
<pdfrwt beam="1">  1        1 0.56331171E+00 0.32312968E+04</pdfrwt>
<pdfrwt beam="2">  1       -1 0.10967767E+00 0.32312968E+04</pdfrwt>
<totfact> 0.11876963E-01</totfact>
</mgrwt>
</event>
<event>
12    1  0.2019083E-007  0.2778396E+04  0.7818608E-02  0.8310007E-01
          2   -1    0    0  501    0  0.00000000000E+00  0.00000000000E+00  0.22382209505E+04  0.22382209505E+04  0.00000000000E+00 0. -1.
         -2   -1    0    0    0  501 -0.00000000000E+00 -0.00000000000E+00 -0.86223426226E+03  0.86223426226E+03  0.00000000000E+00 0.  1.
         23    2    1    2    0    0  0.84109846029E+03 -0.72090176381E+03  0.12462051227E+04  0.16698662247E+04  0.90994657590E+02 0.  0.
        254    2    1    2    0    0 -0.84109846029E+03  0.72090176381E+03  0.12978156556E+03  0.14305889880E+04  0.89587701443E+03 0.  0.
        -24    2    4    4    0    0 -0.86578917617E+03  0.36986348930E+03 -0.17185890065E+03  0.96032355086E+03  0.79346974139E+02 0.  0.
         24    2    4    4    0    0  0.24690715883E+02  0.35103827450E+03  0.30164046621E+03  0.47026543719E+03  0.79530553487E+02 0.  0.
         13    1    3    3    0    0  0.55850640351E+03 -0.43573133573E+03  0.83863123456E+03  0.10977675288E+04  0.00000000000E+00 0. -1.
        -13    1    3    3    0    0  0.28259205678E+03 -0.28517042807E+03  0.40757388816E+03  0.57209869595E+03  0.00000000000E+00 0.  1.
          4    1    6    6  502    0  0.52961564359E+02  0.26131781725E+03  0.21857343973E+03  0.34476989061E+03  0.00000000000E+00 0. -1.
          1    1    5    5  503    0 -0.54106353409E+03  0.19408136852E+03 -0.85935466730E+02  0.58120756186E+03  0.00000000000E+00 0. -1.
         -2    1    5    5    0  503 -0.32472564208E+03  0.17578212079E+03 -0.85923433920E+02  0.37911598899E+03  0.00000000000E+00 0.  1.
         -1    1    6    6    0  502 -0.28270848476E+02  0.89720457248E+02  0.83067026485E+02  0.12549554658E+03  0.00000000000E+00 0.  1.
<mgrwt>
<rscale>  0 0.27783958E+04</rscale>
<asrwt>0</asrwt>
<pdfrwt beam="1">  1        2 0.34434168E+00 0.27783958E+04</pdfrwt>
<pdfrwt beam="2">  1       -2 0.13265143E+00 0.27783958E+04</pdfrwt>
<totfact> 0.17671223E+00</totfact>
</mgrwt>
</event>
<event>
12    1  0.2019083E-007  0.2058533E+04  0.7818608E-02  0.8579733E-01
         -1   -1    0    0    0  501 -0.00000000000E+00  0.00000000000E+00  0.85820611294E+03  0.85820611294E+03  0.00000000000E+00 0.  1.
          1   -1    0    0  501    0  0.00000000000E+00 -0.00000000000E+00 -0.12344235214E+04  0.12344235214E+04  0.00000000000E+00 0. -1.
         23    2    1    2    0    0  0.51875192537E+03  0.60878927716E+03 -0.38158770015E+03  0.89083534620E+03  0.90832246888E+02 0.  0.
        254    2    1    2    0    0 -0.51875192537E+03 -0.60878927716E+03  0.53702916521E+01  0.12017942882E+04  0.89696863211E+03 0.  0.
        -24    2    4    4    0    0 -0.17178810134E+02 -0.50434633726E+03  0.31319849225E+03  0.59916490527E+03  0.79024988081E+02 0.  0.
         24    2    4    4    0    0 -0.50157311524E+03 -0.10444293990E+03 -0.30782820059E+03  0.60262938290E+03  0.76941889965E+02 0.  0.
         11    1    3    3    0    0  0.28086680162E+03  0.36218361223E+03 -0.17417521124E+03  0.49030616295E+03  0.00000000000E+00 0.  1.
        -11    1    3    3    0    0  0.23788512376E+03  0.24660566493E+03 -0.20741248891E+03  0.40052918325E+03  0.00000000000E+00 0. -1.
          2    1    6    6  502    0 -0.45578938196E+03 -0.11515678042E+03 -0.28987745175E+03  0.55229881569E+03  0.00000000000E+00 0. -1.
          3    1    5    5  503    0  0.24558960301E+02 -0.27221075037E+03  0.19178403115E+03  0.33389062544E+03  0.00000000000E+00 0. -1.
         -4    1    5    5    0  503 -0.41737770435E+02 -0.23213558688E+03  0.12141446109E+03  0.26527427983E+03  0.00000000000E+00 0.  1.
         -1    1    6    6    0  502 -0.45783733285E+02  0.10713840514E+02 -0.17950748843E+02  0.50330567214E+02  0.00000000000E+00 0.  1.
<mgrwt>
<rscale>  0 0.20585333E+04</rscale>
<asrwt>0</asrwt>
<pdfrwt beam="1">  1        1 0.18991131E+00 0.20585333E+04</pdfrwt>
<pdfrwt beam="2">  1       -1 0.13203171E+00 0.20585333E+04</pdfrwt>
<totfact> 0.45391598E+00</totfact>
</mgrwt>
</event>
<event>
12    1  0.2019083E-007  0.1345135E+04  0.7818608E-02  0.8994519E-01
          2   -1    0    0  501    0  0.00000000000E+00  0.00000000000E+00  0.11922582741E+04  0.11922582741E+04  0.00000000000E+00 0.  1.
         -2   -1    0    0    0  501 -0.00000000000E+00 -0.00000000000E+00 -0.37940358043E+03  0.37940358043E+03  0.00000000000E+00 0. -1.
         23    2    1    2    0    0  0.10452500021E+03  0.26235297891E+03  0.49315753804E+03  0.57561366732E+03  0.91499592725E+02 0.  0.
        254    2    1    2    0    0 -0.10452500021E+03 -0.26235297891E+03  0.31969715561E+03  0.99604818719E+03  0.90008397313E+03 0.  0.
        -24    2    4    4    0    0 -0.18152561270E+03 -0.57930268315E+02  0.59868376049E+03  0.63317686759E+03  0.78633558495E+02 0.  0.
         24    2    4    4    0    0  0.77000612488E+02 -0.20442271059E+03 -0.27898660488E+03  0.36287131960E+03  0.78258098338E+02 0.  0.
         13    1    3    3    0    0  0.87855291959E+02  0.21442845346E+03  0.45979307816E+03  0.51488619005E+03  0.00000000000E+00 0.  1.
        -13    1    3    3    0    0  0.16669708251E+02  0.47924525449E+02  0.33364459879E+02  0.60727477271E+02  0.00000000000E+00 0. -1.
          2    1    6    6  502    0 -0.13187919213E+02 -0.26326904871E+02 -0.58140497955E+02  0.65171655156E+02  0.00000000000E+00 0. -1.
          1    1    5    5  503    0 -0.40260534521E+02  0.11014314206E+01  0.23738450557E+03  0.24077692430E+03  0.00000000000E+00 0. -1.
         -2    1    5    5    0  503 -0.14126507818E+03 -0.59031699736E+02  0.36129925493E+03  0.39239994329E+03  0.00000000000E+00 0.  1.
         -1    1    6    6    0  502  0.90188531701E+02 -0.17809580572E+03 -0.22084610693E+03  0.29769966444E+03  0.00000000000E+00 0.  1.
<mgrwt>
<rscale>  0 0.13451350E+04</rscale>
<asrwt>0</asrwt>
<pdfrwt beam="1">  1        2 0.18342435E+00 0.13451350E+04</pdfrwt>
<pdfrwt beam="2">  1       -2 0.58369782E-01 0.13451350E+04</pdfrwt>
<totfact> 0.51346741E+01</totfact>
</mgrwt>
</event>
<event>
12    1  0.2019083E-007  0.2133023E+04  0.7818608E-02  0.8546834E-01
         -2   -1    0    0    0  501 -0.00000000000E+00  0.00000000000E+00  0.94256577079E+03  0.94256577079E+03  0.00000000000E+00 0.  1.
          2   -1    0    0  501    0  0.00000000000E+00 -0.00000000000E+00 -0.12067564137E+04  0.12067564137E+04  0.00000000000E+00 0. -1.
         23    2    1    2    0    0  0.71013213193E+03  0.11777898617E+03 -0.60717302184E+03  0.94632970912E+03  0.93387930245E+02 0.  0.
        254    2    1    2    0    0 -0.71013213193E+03 -0.11777898617E+03  0.34298237892E+03  0.12029924754E+04  0.90077436088E+03 0.  0.
        -24    2    4    4    0    0 -0.63633859838E+02 -0.31853745965E+03 -0.14512377333E+03  0.36464423059E+03  0.79931996060E+02 0.  0.
         24    2    4    4    0    0 -0.64649827210E+03  0.20075847348E+03  0.48810615225E+03  0.83834824481E+03  0.79474418595E+02 0.  0.
         11    1    3    3    0    0  0.37104417198E+03  0.88944872035E+02 -0.37025398119E+03  0.53166999013E+03  0.00000000000E+00 0. -1.
        -11    1    3    3    0    0  0.33908795996E+03  0.28834114139E+02 -0.23691904066E+03  0.41465971899E+03  0.00000000000E+00 0.  1.
          4    1    6    6  502    0 -0.41509280809E+03  0.14269878488E+03  0.27155271889E+03  0.51614519437E+03  0.00000000000E+00 0. -1.
          1    1    5    5  503    0 -0.48854379746E+02 -0.29252612694E+03 -0.10504539822E+03  0.31463124614E+03  0.00000000000E+00 0. -1.
         -2    1    5    5    0  503 -0.14779480091E+02 -0.26011332716E+02 -0.40078375114E+02  0.50012984446E+02  0.00000000000E+00 0.  1.
         -3    1    6    6    0  502 -0.23140546400E+03  0.58059688605E+02  0.21655343336E+03  0.32220305043E+03  0.00000000000E+00 0.  1.
<mgrwt>
<rscale>  0 0.21330235E+04</rscale>
<asrwt>0</asrwt>
<pdfrwt beam="1">  1        2 0.18565483E+00 0.21330235E+04</pdfrwt>
<pdfrwt beam="2">  1       -2 0.14501012E+00 0.21330235E+04</pdfrwt>
<totfact> 0.56508937E+00</totfact>
</mgrwt>
</event>
<event>
12    1  0.2019083E-007  0.4102119E+04  0.7818608E-02  0.7984257E-01
          2   -1    0    0  501    0  0.00000000000E+00  0.00000000000E+00  0.20254116879E+04  0.20254116879E+04  0.00000000000E+00 0.  1.
         -2   -1    0    0    0  501 -0.00000000000E+00 -0.00000000000E+00 -0.20770316745E+04  0.20770316745E+04  0.00000000000E+00 0. -1.
         23    2    1    2    0    0  0.18510385431E+04  0.36164210689E+03 -0.52438221375E+03  0.19597911089E+04  0.93143882926E+02 0.  0.
        254    2    1    2    0    0 -0.18510385431E+04 -0.36164210689E+03  0.47276222713E+03  0.21426522535E+04  0.90018101210E+03 0.  0.
        -24    2    4    4    0    0 -0.18710000625E+03  0.11931281916E+03 -0.17267337130E+03  0.29250365422E+03  0.80624645260E+02 0.  0.
         24    2    4    4    0    0 -0.16639385368E+04 -0.48095492606E+03  0.64543559843E+03  0.18501485993E+04  0.80334503264E+02 0.  0.
         11    1    3    3    0    0  0.13748765366E+04  0.25074931862E+03 -0.34996870661E+03  0.14407077453E+04  0.00000000000E+00 0.  1.
        -11    1    3    3    0    0  0.47616200644E+03  0.11089278828E+03 -0.17441350714E+03  0.51908336358E+03  0.00000000000E+00 0. -1.
          2    1    6    6  502    0 -0.10073063310E+04 -0.31927184651E+03  0.42378439680E+03  0.11385050599E+04  0.00000000000E+00 0. -1.
          1    1    5    5  503    0 -0.11103389650E+03  0.25665182701E+02 -0.67516380669E+02  0.13246014281E+03  0.00000000000E+00 0. -1.
         -2    1    5    5    0  503 -0.76066109756E+02  0.93647636463E+02 -0.10515699063E+03  0.16004351142E+03  0.00000000000E+00 0.  1.
         -1    1    6    6    0  502 -0.65663220581E+03 -0.16168307955E+03  0.22165120163E+03  0.71164353935E+03  0.00000000000E+00 0.  1.
<mgrwt>
<rscale>  0 0.41021186E+04</rscale>
<asrwt>0</asrwt>
<pdfrwt beam="1">  1        2 0.31160180E+00 0.41021186E+04</pdfrwt>
<pdfrwt beam="2">  1       -2 0.31954333E+00 0.41021186E+04</pdfrwt>
<totfact> 0.12194034E-01</totfact>
</mgrwt>
</event>
<event>
12    1  0.2019083E-007  0.2141574E+04  0.7818608E-02  0.8543148E-01
         -2   -1    0    0    0  501 -0.00000000000E+00  0.00000000000E+00  0.84306516164E+03  0.84306516164E+03  0.00000000000E+00 0.  1.
          2   -1    0    0  501    0  0.00000000000E+00 -0.00000000000E+00 -0.13600191811E+04  0.13600191811E+04  0.00000000000E+00 0. -1.
         23    2    1    2    0    0  0.15003451234E+03 -0.80893736550E+03 -0.53073137937E+03  0.98337011884E+03  0.91929197736E+02 0.  0.
        254    2    1    2    0    0 -0.15003451234E+03  0.80893736550E+03  0.13777359916E+02  0.12197142239E+04  0.90034602023E+03 0.  0.
        -24    2    4    4    0    0 -0.14742742770E+03  0.14953827680E+03 -0.38449965642E+03  0.44510302283E+03  0.78614072993E+02 0.  0.
         24    2    4    4    0    0 -0.26070846398E+01  0.65939908870E+03  0.39827701634E+03  0.77461120107E+03  0.81141703299E+02 0.  0.
         11    1    3    3    0    0 -0.79515583645E+01 -0.74277007620E+01 -0.81101833777E+01  0.13571038776E+02  0.00000000000E+00 0. -1.
        -11    1    3    3    0    0  0.15798607071E+03 -0.80150966474E+03 -0.52262119599E+03  0.96979908007E+03  0.00000000000E+00 0.  1.
          4    1    6    6  502    0  0.37643662976E+02  0.27168357403E+03  0.15307657740E+03  0.31410419977E+03  0.00000000000E+00 0. -1.
          1    1    5    5  503    0 -0.24941791234E+01 -0.35600778420E+01  0.20465897592E+01  0.48045409128E+01  0.00000000000E+00 0. -1.
         -2    1    5    5    0  503 -0.14493324858E+03  0.15309835464E+03 -0.38654624618E+03  0.44029848192E+03  0.00000000000E+00 0.  1.
         -3    1    6    6    0  502 -0.40250747616E+02  0.38771551466E+03  0.24520043894E+03  0.46050700130E+03  0.00000000000E+00 0.  1.
<mgrwt>
<rscale>  0 0.21415740E+04</rscale>
<asrwt>0</asrwt>
<pdfrwt beam="1">  1        2 0.20923372E+00 0.21415740E+04</pdfrwt>
<pdfrwt beam="2">  1       -2 0.12970233E+00 0.21415740E+04</pdfrwt>
<totfact> 0.61222729E+00</totfact>
</mgrwt>
</event>
<event>
12    1  0.2019083E-007  0.3634354E+04  0.7818608E-02  0.8082668E-01
         -1   -1    0    0    0  501 -0.00000000000E+00  0.00000000000E+00  0.13470196062E+04  0.13470196062E+04  0.00000000000E+00 0.  1.
          1   -1    0    0  501    0  0.00000000000E+00 -0.00000000000E+00 -0.24514359795E+04  0.24514359795E+04  0.00000000000E+00 0. -1.
         23    2    1    2    0    0 -0.10186046330E+04 -0.11105420244E+04 -0.13481008910E+04  0.20241901075E+04  0.95449424013E+02 0.  0.
        254    2    1    2    0    0  0.10186046330E+04  0.11105420244E+04  0.24368451774E+03  0.17742654781E+04  0.90431015485E+03 0.  0.
        -24    2    4    4    0    0  0.10363272020E+04  0.64352610491E+03 -0.38251880328E+02  0.12231035632E+04  0.80119927566E+02 0.  0.
         24    2    4    4    0    0 -0.17722568944E+02  0.46701591953E+03  0.28193639806E+03  0.55116191488E+03  0.76637884338E+02 0.  0.
         11    1    3    3    0    0 -0.81231887595E+03 -0.92865546951E+03 -0.11320500412E+04  0.16744552048E+04  0.00000000000E+00 0. -1.
        -11    1    3    3    0    0 -0.20628575709E+03 -0.18188655493E+03 -0.21605084985E+03  0.34973490269E+03  0.00000000000E+00 0.  1.
          2    1    6    6  502    0  0.16161045219E+02  0.37781635435E+03  0.22681737884E+03  0.44096768627E+03  0.00000000000E+00 0. -1.
          1    1    5    5  503    0  0.44590378294E+03  0.24845915288E+03 -0.47295807039E+02  0.51263927634E+03  0.00000000000E+00 0. -1.
         -2    1    5    5    0  503  0.59042341904E+03  0.39506695204E+03  0.90439267106E+01  0.71046428689E+03  0.00000000000E+00 0.  1.
         -1    1    6    6    0  502 -0.33883614163E+02  0.89199565185E+02  0.55119019225E+02  0.11019422861E+03  0.00000000000E+00 0.  1.
<mgrwt>
<rscale>  0 0.36343540E+04</rscale>
<asrwt>0</asrwt>
<pdfrwt beam="1">  1        1 0.37714400E+00 0.36343540E+04</pdfrwt>
<pdfrwt beam="2">  1       -1 0.20723379E+00 0.36343540E+04</pdfrwt>
<totfact> 0.15854140E-01</totfact>
</mgrwt>
</event>
<event>
12    1  0.2019083E-007  0.4635324E+04  0.7818608E-02  0.7887365E-01
          2   -1    0    0  501    0  0.00000000000E+00  0.00000000000E+00  0.26258032762E+04  0.26258032762E+04  0.00000000000E+00 0. -1.
         -2   -1    0    0    0  501 -0.00000000000E+00 -0.00000000000E+00 -0.20456812261E+04  0.20456812261E+04  0.00000000000E+00 0.  1.
         23    2    1    2    0    0 -0.85281849500E+03 -0.19786916915E+04 -0.29815420131E+03  0.21770598973E+04  0.90408367821E+02 0.  0.
        254    2    1    2    0    0  0.85281849500E+03  0.19786916915E+04  0.87827625141E+03  0.24944246049E+04  0.89903544998E+03 0.  0.
        -24    2    4    4    0    0  0.28148927090E+03  0.96611479420E+03 -0.40124477096E+02  0.10105299725E+04  0.83347743945E+02 0.  0.
         24    2    4    4    0    0  0.57132922410E+03  0.10125768974E+04  0.91840072850E+03  0.14838946325E+04  0.82184711267E+02 0.  0.
         11    1    3    3    0    0 -0.46410737139E+03 -0.10197057756E+04 -0.19446777109E+03  0.11371073982E+04  0.00000000000E+00 0.  1.
        -11    1    3    3    0    0 -0.38871112362E+03 -0.95898591593E+03 -0.10368643022E+03  0.10399524991E+04  0.00000000000E+00 0. -1.
          2    1    6    6  502    0  0.48649798875E+03  0.79668104895E+03  0.74324064874E+03  0.11932257325E+04  0.00000000000E+00 0. -1.
          1    1    5    5  503    0  0.97097564566E+02  0.41185088908E+03  0.17928106509E+02  0.42352155658E+03  0.00000000000E+00 0. -1.
         -2    1    5    5    0  503  0.18439170634E+03  0.55426390511E+03 -0.58052583605E+02  0.58700841590E+03  0.00000000000E+00 0.  1.
         -3    1    6    6    0  502  0.84831235351E+02  0.21589584840E+03  0.17516007976E+03  0.29066889994E+03  0.00000000000E+00 0.  1.
<mgrwt>
<rscale>  0 0.46353237E+04</rscale>
<asrwt>0</asrwt>
<pdfrwt beam="1">  1        2 0.40396974E+00 0.46353237E+04</pdfrwt>
<pdfrwt beam="2">  1       -2 0.31472019E+00 0.46353237E+04</pdfrwt>
<totfact> 0.56840471E-02</totfact>
</mgrwt>
</event>
<event>
12    1  0.2019083E-007  0.2364505E+04  0.7818608E-02  0.8452913E-01
          1   -1    0    0  501    0  0.00000000000E+00  0.00000000000E+00  0.85963920871E+03  0.85963920871E+03  0.00000000000E+00 0. -1.
         -1   -1    0    0    0  501 -0.00000000000E+00 -0.00000000000E+00 -0.16259384371E+04  0.16259384371E+04  0.00000000000E+00 0.  1.
         23    2    1    2    0    0  0.85652373201E+03  0.29820061269E+03 -0.78990606957E+03  0.12057663154E+04  0.85815498785E+02 0.  0.
        254    2    1    2    0    0 -0.85652373201E+03 -0.29820061269E+03  0.23606841219E+02  0.12798113303E+04  0.90266452759E+03 0.  0.
        -24    2    4    4    0    0 -0.73849476601E+03 -0.37972773528E+02 -0.33375381782E+03  0.81534659844E+03  0.81129610659E+02 0.  0.
         24    2    4    4    0    0 -0.11802896600E+03 -0.26022783916E+03  0.35736065904E+03  0.46446473188E+03  0.79821560022E+02 0.  0.
         11    1    3    3    0    0  0.64105897993E+03  0.24147084344E+03 -0.63790223878E+03  0.93604703419E+03  0.00000000000E+00 0.  1.
        -11    1    3    3    0    0  0.21546475208E+03  0.56729769241E+02 -0.15200383079E+03  0.26971928126E+03  0.00000000000E+00 0. -1.
          2    1    6    6  502    0 -0.63340649880E+02 -0.93243167587E+02  0.88657871557E+02  0.14341040554E+03  0.00000000000E+00 0. -1.
          3    1    5    5  503    0 -0.14425013714E+03  0.24042326755E+02 -0.73116357331E+02  0.16349965520E+03  0.00000000000E+00 0. -1.
         -4    1    5    5    0  503 -0.59424462887E+03 -0.62015100283E+02 -0.26063746049E+03  0.65184694324E+03  0.00000000000E+00 0.  1.
         -1    1    6    6    0  502 -0.54688316120E+02 -0.16698467157E+03  0.26870278748E+03  0.32105432634E+03  0.00000000000E+00 0.  1.
<mgrwt>
<rscale>  0 0.23645045E+04</rscale>
<asrwt>0</asrwt>
<pdfrwt beam="1">  1        1 0.13225219E+00 0.23645045E+04</pdfrwt>
<pdfrwt beam="2">  1       -1 0.25014437E+00 0.23645045E+04</pdfrwt>
<totfact> 0.12291220E+00</totfact>
</mgrwt>
</event>
<event>
12    1  0.2019083E-007  0.2567232E+04  0.7818608E-02  0.8379418E-01
         -1   -1    0    0    0  501 -0.00000000000E+00  0.00000000000E+00  0.10835116523E+04  0.10835116523E+04  0.00000000000E+00 0.  1.
          1   -1    0    0  501    0  0.00000000000E+00 -0.00000000000E+00 -0.15206760252E+04  0.15206760252E+04  0.00000000000E+00 0. -1.
         23    2    1    2    0    0  0.73395544853E+03  0.65964436795E+03 -0.73782143086E+03  0.12355370651E+04  0.91378787598E+02 0.  0.
        254    2    1    2    0    0 -0.73395544853E+03 -0.65964436795E+03  0.30065705796E+03  0.13686506124E+04  0.89943790212E+03 0.  0.
        -24    2    4    4    0    0 -0.59503836679E+03 -0.54518481310E+03  0.60136071067E+03  0.10096570371E+04  0.80470428572E+02 0.  0.
         24    2    4    4    0    0 -0.13891708174E+03 -0.11445955485E+03 -0.30070365271E+03  0.35899357530E+03  0.77812306594E+02 0.  0.
         11    1    3    3    0    0  0.20982695508E+03  0.13611735752E+03 -0.17756315812E+03  0.30673108942E+03  0.00000000000E+00 0.  1.
        -11    1    3    3    0    0  0.52412849346E+03  0.52352701043E+03 -0.56025827275E+03  0.92880597569E+03  0.00000000000E+00 0. -1.
          4    1    6    6  502    0 -0.11014309174E+03 -0.97954880285E+02 -0.28789512992E+03  0.32343510178E+03  0.00000000000E+00 0. -1.
          3    1    5    5  503    0 -0.59407593028E+03 -0.53095125377E+03  0.59086436481E+03  0.99194563481E+03  0.00000000000E+00 0. -1.
         -4    1    5    5    0  503 -0.96243651237E+00 -0.14233559333E+02  0.10496345859E+02  0.17711402309E+02  0.00000000000E+00 0.  1.
         -3    1    6    6    0  502 -0.28773990004E+02 -0.16504674560E+02 -0.12808522788E+02  0.35558473521E+02  0.00000000000E+00 0.  1.
<mgrwt>
<rscale>  0 0.25672321E+04</rscale>
<asrwt>0</asrwt>
<pdfrwt beam="1">  1        1 0.23395015E+00 0.25672321E+04</pdfrwt>
<pdfrwt beam="2">  1       -1 0.16669410E+00 0.25672321E+04</pdfrwt>
<totfact> 0.14552998E+00</totfact>
</mgrwt>
</event>
<event>
12    1  0.2019083E-007  0.1116885E+04  0.7818608E-02  0.9188889E-01
          2   -1    0    0  501    0  0.00000000000E+00  0.00000000000E+00  0.13380814931E+04  0.13380814931E+04  0.00000000000E+00 0.  1.
         -2   -1    0    0    0  501 -0.00000000000E+00 -0.00000000000E+00 -0.23306366914E+03  0.23306366914E+03  0.00000000000E+00 0. -1.
         23    2    1    2    0    0 -0.79069839671E+02  0.15576149913E+03  0.15663115862E+03  0.25149074804E+03  0.90557121991E+02 0.  0.
        254    2    1    2    0    0  0.79069839671E+02 -0.15576149913E+03  0.94838666539E+03  0.13196544142E+04  0.90085338529E+03 0.  0.
        -24    2    4    4    0    0 -0.39387321652E+03 -0.97692620389E+02  0.30019772602E+03  0.51106417433E+03  0.79924694586E+02 0.  0.
         24    2    4    4    0    0  0.47294305619E+03 -0.58068878741E+02  0.64818893937E+03  0.80859023992E+03  0.81376568443E+02 0.  0.
         13    1    3    3    0    0 -0.43381304540E+02  0.38744439317E+02  0.75706127215E+01  0.58654781037E+02  0.00000000000E+00 0. -1.
        -13    1    3    3    0    0 -0.35688535132E+02  0.11701705981E+03  0.14906054590E+03  0.19283596701E+03  0.00000000000E+00 0.  1.
          4    1    6    6  502    0  0.43360145024E+03 -0.31927010763E+02  0.56491293827E+03  0.71285074139E+03  0.00000000000E+00 0. -1.
          1    1    5    5  503    0 -0.18671370284E+03 -0.69130307586E+02  0.10542679519E+03  0.22529051333E+03  0.00000000000E+00 0. -1.
         -2    1    5    5    0  503 -0.20715951368E+03 -0.28562312803E+02  0.19477093083E+03  0.28577366099E+03  0.00000000000E+00 0.  1.
         -3    1    6    6    0  502  0.39341605945E+02 -0.26141867978E+02  0.83276001100E+02  0.95739498530E+02  0.00000000000E+00 0.  1.
<mgrwt>
<rscale>  0 0.11168853E+04</rscale>
<asrwt>0</asrwt>
<pdfrwt beam="1">  1        2 0.20585869E+00 0.11168853E+04</pdfrwt>
<pdfrwt beam="2">  1       -2 0.35855950E-01 0.11168853E+04</pdfrwt>
<totfact> 0.11385770E+02</totfact>
</mgrwt>
</event>
<event>
12    1  0.2019083E-007  0.1378178E+04  0.7818608E-02  0.8969768E-01
         -2   -1    0    0    0  501 -0.00000000000E+00  0.00000000000E+00  0.26582022061E+03  0.26582022061E+03  0.00000000000E+00 0.  1.
          2   -1    0    0  501    0  0.00000000000E+00 -0.00000000000E+00 -0.17863332232E+04  0.17863332232E+04  0.00000000000E+00 0. -1.
         23    2    1    2    0    0 -0.37928521696E+03  0.46845049284E+02 -0.34614787787E+03  0.52366077396E+03  0.91381170841E+02 0.  0.
        254    2    1    2    0    0  0.37928521696E+03 -0.46845049284E+02 -0.11743651247E+04  0.15284926699E+04  0.90061349157E+03 0.  0.
        -24    2    4    4    0    0 -0.23940837514E+03 -0.97316497637E+02 -0.67748601186E+03  0.72928562278E+03  0.77995849386E+02 0.  0.
         24    2    4    4    0    0  0.61869359210E+03  0.50471448353E+02 -0.49687911286E+03  0.79920704708E+03  0.80708879878E+02 0.  0.
         13    1    3    3    0    0 -0.30811820814E+03  0.39879776076E+02 -0.32379087908E+03  0.44874019221E+03  0.00000000000E+00 0. -1.
        -13    1    3    3    0    0 -0.71167008823E+02  0.69652732077E+01 -0.22356998791E+02  0.74920581756E+02  0.00000000000E+00 0.  1.
          2    1    6    6  502    0  0.33115495124E+03 -0.31449433624E+01 -0.29795802682E+03  0.44548005359E+03  0.00000000000E+00 0. -1.
          1    1    5    5  503    0 -0.21882904563E+03 -0.65708823383E+02 -0.53196880220E+03  0.57895993575E+03  0.00000000000E+00 0. -1.
         -2    1    5    5    0  503 -0.20579329515E+02 -0.31607674254E+02 -0.14551720966E+03  0.15032568703E+03  0.00000000000E+00 0.  1.
         -1    1    6    6    0  502  0.28753864086E+03  0.53616391716E+02 -0.19892108604E+03  0.35372699349E+03  0.00000000000E+00 0.  1.
<mgrwt>
<rscale>  0 0.13781778E+04</rscale>
<asrwt>0</asrwt>
<pdfrwt beam="1">  1        2 0.27482049E+00 0.13781778E+04</pdfrwt>
<pdfrwt beam="2">  1       -2 0.40895419E-01 0.13781778E+04</pdfrwt>
<totfact> 0.48471723E+01</totfact>
</mgrwt>
</event>
<event>
12    1  0.2019083E-007  0.2110459E+04  0.7818608E-02  0.8556650E-01
         -1   -1    0    0    0  501 -0.00000000000E+00  0.00000000000E+00  0.69523761103E+03  0.69523761103E+03  0.00000000000E+00 0.  1.
          1   -1    0    0  501    0  0.00000000000E+00 -0.00000000000E+00 -0.16016234611E+04  0.16016234611E+04  0.00000000000E+00 0. -1.
         23    2    1    2    0    0 -0.13028806347E+03 -0.45930085595E+03  0.40510026972E+03  0.63274867705E+03  0.91282002686E+02 0.  0.
        254    2    1    2    0    0  0.13028806347E+03  0.45930085595E+03 -0.13114861198E+04  0.16641123951E+04  0.90627918726E+03 0.  0.
        -24    2    4    4    0    0  0.42110163078E+03  0.52302763559E+03 -0.66598839541E+03  0.94891028085E+03  0.77496369189E+02 0.  0.
         24    2    4    4    0    0 -0.29081356732E+03 -0.63726779641E+02 -0.64549772437E+03  0.71520211421E+03  0.78823338105E+02 0.  0.
         11    1    3    3    0    0 -0.91253503110E+02 -0.29021488395E+03  0.31219792199E+03  0.43591217371E+03  0.00000000000E+00 0.  1.
        -11    1    3    3    0    0 -0.39034560359E+02 -0.16908597200E+03  0.92902347730E+02  0.19683650333E+03  0.00000000000E+00 0. -1.
          2    1    6    6  502    0  0.32051610684E+01 -0.60817387194E+01 -0.28315371534E+02  0.29137962668E+02  0.00000000000E+00 0. -1.
          3    1    5    5  503    0  0.51524646013E+02  0.96750457397E+02 -0.13769402392E+03  0.17599739878E+03  0.00000000000E+00 0. -1.
         -4    1    5    5    0  503  0.36957698477E+03  0.42627717819E+03 -0.52829437149E+03  0.77291288207E+03  0.00000000000E+00 0.  1.
         -1    1    6    6    0  502 -0.29401872838E+03 -0.57645040921E+02 -0.61718235283E+03  0.68606415154E+03  0.00000000000E+00 0.  1.
<mgrwt>
<rscale>  0 0.21104586E+04</rscale>
<asrwt>0</asrwt>
<pdfrwt beam="1">  1        1 0.24640361E+00 0.21104586E+04</pdfrwt>
<pdfrwt beam="2">  1       -1 0.10695963E+00 0.21104586E+04</pdfrwt>
<totfact> 0.41693210E+00</totfact>
</mgrwt>
</event>
<event>
12    1  0.2603248E-007  0.2178095E+04  0.7818608E-02  0.8527601E-01
         -2   -1    0    0    0  501 -0.00000000000E+00  0.00000000000E+00  0.66885480461E+03  0.66885480461E+03  0.00000000000E+00 0.  1.
          2   -1    0    0  501    0  0.00000000000E+00 -0.00000000000E+00 -0.17732163120E+04  0.17732163120E+04  0.00000000000E+00 0. -1.
         23    2    1    2    0    0 -0.32196217161E+03 -0.68336100920E+03  0.90942426601E+02  0.76547516731E+03  0.83903503923E+02 0.  0.
        254    2    1    2    0    0  0.32196217161E+03  0.68336100920E+03 -0.11953039340E+04  0.16765959493E+04  0.90087766855E+03 0.  0.
        -24    2    4    4    0    0  0.27449601609E+03  0.27188051984E+03  0.15160354286E+02  0.39454605291E+03  0.78547257122E+02 0.  0.
         24    2    4    4    0    0  0.47466155522E+02  0.41148048936E+03 -0.12104642882E+04  0.12820498964E+04  0.82818564223E+02 0.  0.
         11    1    3    3    0    0 -0.17366547733E+03 -0.36091716831E+03  0.61379990659E+01  0.40057280915E+03  0.00000000000E+00 0. -1.
        -11    1    3    3    0    0 -0.14829669428E+03 -0.32244384089E+03  0.84804427535E+02  0.36490235816E+03  0.00000000000E+00 0.  1.
          4    1    6    6  502    0  0.71490805101E+01  0.60599476026E+01 -0.76187623098E+01  0.12077990570E+02  0.00000000000E+00 0. -1.
          3    1    5    5  503    0  0.44358795184E+02  0.23285451233E+02  0.24246301410E+02  0.55657866302E+02  0.00000000000E+00 0. -1.
         -4    1    5    5    0  503  0.23013722091E+03  0.24859506861E+03 -0.90859471242E+01  0.33888818660E+03  0.00000000000E+00 0.  1.
         -3    1    6    6    0  502  0.40317075012E+02  0.40542054176E+03 -0.12028455259E+04  0.12699719058E+04  0.00000000000E+00 0.  1.
<mgrwt>
<rscale>  0 0.21780948E+04</rscale>
<asrwt>0</asrwt>
<pdfrwt beam="1">  1        2 0.27280250E+00 0.21780948E+04</pdfrwt>
<pdfrwt beam="2">  1       -2 0.10290074E+00 0.21780948E+04</pdfrwt>
<totfact> 0.63088269E+00</totfact>
</mgrwt>
</event>
<event>
12    1  0.2019083E-007  0.2714291E+04  0.7818608E-02  0.8330383E-01
         -1   -1    0    0    0  501 -0.00000000000E+00  0.00000000000E+00  0.19748109848E+04  0.19748109848E+04  0.00000000000E+00 0.  1.
          1   -1    0    0  501    0  0.00000000000E+00 -0.00000000000E+00 -0.93266828198E+03  0.93266828198E+03  0.00000000000E+00 0. -1.
         23    2    1    2    0    0  0.55205242719E+03  0.95797536825E+03  0.97997869857E+03  0.14802480040E+04  0.91089050146E+02 0.  0.
        254    2    1    2    0    0 -0.55205242719E+03 -0.95797536825E+03  0.62164004239E+02  0.14272312628E+04  0.90035883155E+03 0.  0.
        -24    2    4    4    0    0  0.38230082051E+01  0.38001047474E+02 -0.23033471999E+03  0.24717021901E+03  0.81119288267E+02 0.  0.
         24    2    4    4    0    0 -0.55587543539E+03 -0.99597641573E+03  0.29249872423E+03  0.11800610438E+04  0.77601823689E+02 0.  0.
         13    1    3    3    0    0  0.46764530961E+02  0.10431664296E+03  0.69654550691E+02  0.13386799388E+03  0.00000000000E+00 0. -1.
        -13    1    3    3    0    0  0.50528789623E+03  0.85365872529E+03  0.91032414788E+03  0.13463800101E+04  0.00000000000E+00 0.  1.
          2    1    6    6  502    0 -0.11505931806E+03 -0.17110660307E+03  0.78421650108E+02  0.22060387915E+03  0.00000000000E+00 0. -1.
          3    1    5    5  503    0  0.75909710134E+01 -0.25194724191E+02 -0.64339944310E+02  0.69512771501E+02  0.00000000000E+00 0. -1.
         -4    1    5    5    0  503 -0.37679628084E+01  0.63195771666E+02 -0.16599477569E+03  0.17765744751E+03  0.00000000000E+00 0.  1.
         -1    1    6    6    0  502 -0.44081611733E+03 -0.82486981265E+03  0.21407707413E+03  0.95945716465E+03  0.00000000000E+00 0.  1.
<mgrwt>
<rscale>  0 0.27142907E+04</rscale>
<asrwt>0</asrwt>
<pdfrwt beam="1">  1        1 0.14348743E+00 0.27142907E+04</pdfrwt>
<pdfrwt beam="2">  1       -1 0.30381707E+00 0.27142907E+04</pdfrwt>
<totfact> 0.46558775E-01</totfact>
</mgrwt>
</event>
<event>
12    1  0.2019083E-007  0.3073827E+04  0.7818608E-02  0.8222958E-01
         -1   -1    0    0    0  501 -0.00000000000E+00  0.00000000000E+00  0.16434709474E+04  0.16434709474E+04  0.00000000000E+00 0.  1.
          1   -1    0    0  501    0  0.00000000000E+00 -0.00000000000E+00 -0.14372650035E+04  0.14372650035E+04  0.00000000000E+00 0. -1.
         23    2    1    2    0    0  0.18883355658E+03  0.10694803683E+04  0.98520808066E+03  0.14691268173E+04  0.90842020777E+02 0.  0.
        254    2    1    2    0    0 -0.18883355658E+03 -0.10694803683E+04 -0.77900213681E+03  0.16116091336E+04  0.90055166431E+03 0.  0.
        -24    2    4    4    0    0  0.21521009883E+02 -0.11177943780E+04 -0.80940098392E+03  0.13825594811E+04  0.80083335029E+02 0.  0.
         24    2    4    4    0    0 -0.21035456647E+03  0.48314009717E+02  0.30398847106E+02  0.22904965253E+03  0.70401464832E+02 0.  0.
         13    1    3    3    0    0  0.85741085331E+02  0.26300845439E+03  0.23957305193E+03  0.36595112789E+03  0.00000000000E+00 0.  1.
        -13    1    3    3    0    0  0.10309247125E+03  0.80647191391E+03  0.74563502873E+03  0.11031756894E+04  0.00000000000E+00 0. -1.
          4    1    6    6  502    0 -0.15797570689E+03  0.19664138572E+02  0.48917822580E+02  0.16654115311E+03  0.00000000000E+00 0. -1.
          1    1    5    5  503    0 -0.10401214223E+01 -0.74149846646E+03 -0.57874870535E+03  0.94062273073E+03  0.00000000000E+00 0. -1.
         -2    1    5    5    0  503  0.22561131305E+02 -0.37629591155E+03 -0.23065227857E+03  0.44193675034E+03  0.00000000000E+00 0.  1.
         -3    1    6    6    0  502 -0.52378859577E+02  0.28649871145E+02 -0.18518975474E+02  0.62508499420E+02  0.00000000000E+00 0.  1.
<mgrwt>
<rscale>  0 0.30738271E+04</rscale>
<asrwt>0</asrwt>
<pdfrwt beam="1">  1        1 0.22111769E+00 0.30738271E+04</pdfrwt>
<pdfrwt beam="2">  1       -1 0.25284169E+00 0.30738271E+04</pdfrwt>
<totfact> 0.40869079E-01</totfact>
</mgrwt>
</event>
<event>
12    1  0.2019083E-007  0.1814635E+04  0.7818608E-02  0.8698555E-01
          1   -1    0    0  501    0  0.00000000000E+00  0.00000000000E+00  0.50618584646E+03  0.50618584646E+03  0.00000000000E+00 0. -1.
         -1   -1    0    0    0  501 -0.00000000000E+00 -0.00000000000E+00 -0.16263293396E+04  0.16263293396E+04  0.00000000000E+00 0.  1.
         23    2    1    2    0    0 -0.51828539189E+03 -0.43185029537E+03 -0.32292653933E+03  0.75333854310E+03  0.90127607657E+02 0.  0.
        254    2    1    2    0    0  0.51828539189E+03  0.43185029537E+03 -0.79721695384E+03  0.13791766430E+04  0.90081014427E+03 0.  0.
        -24    2    4    4    0    0  0.78983820888E+02  0.62555371184E+03 -0.40119244042E+03  0.75159369814E+03  0.79886309687E+02 0.  0.
         24    2    4    4    0    0  0.43930157100E+03 -0.19370341647E+03 -0.39602451341E+03  0.62758294484E+03  0.80734463504E+02 0.  0.
         11    1    3    3    0    0 -0.27096810724E+03 -0.23986416298E+03 -0.22122951054E+03  0.42414741324E+03  0.00000000000E+00 0.  1.
        -11    1    3    3    0    0 -0.24731728465E+03 -0.19198613239E+03 -0.10169702880E+03  0.32919112987E+03  0.00000000000E+00 0. -1.
          2    1    6    6  502    0  0.42681294698E+03 -0.19827621319E+03 -0.39468877201E+03  0.61421655398E+03  0.00000000000E+00 0. -1.
          3    1    5    5  503    0  0.73109246549E+02  0.51640064672E+03 -0.29502616702E+03  0.59921200679E+03  0.00000000000E+00 0. -1.
         -4    1    5    5    0  503  0.58745743397E+01  0.10915306512E+03 -0.10616627341E+03  0.15238169135E+03  0.00000000000E+00 0.  1.
         -1    1    6    6    0  502  0.12488624018E+02  0.45727967148E+01 -0.13357413996E+01  0.13366390865E+02  0.00000000000E+00 0.  1.
<mgrwt>
<rscale>  0 0.18146348E+04</rscale>
<asrwt>0</asrwt>
<pdfrwt beam="1">  1        1 0.77874746E-01 0.18146348E+04</pdfrwt>
<pdfrwt beam="2">  1       -1 0.25020451E+00 0.18146348E+04</pdfrwt>
<totfact> 0.28545200E+00</totfact>
</mgrwt>
</event>
<event>
12    1  0.2019083E-007  0.3788866E+04  0.7818608E-02  0.8048548E-01
         -1   -1    0    0    0  501 -0.00000000000E+00  0.00000000000E+00  0.13252299207E+04  0.13252299207E+04  0.00000000000E+00 0.  1.
          1   -1    0    0  501    0  0.00000000000E+00 -0.00000000000E+00 -0.27081156818E+04  0.27081156818E+04  0.00000000000E+00 0. -1.
         23    2    1    2    0    0 -0.63814092213E+03  0.95479613345E+03  0.80316510266E+03  0.14043865036E+04  0.91475551376E+02 0.  0.
        254    2    1    2    0    0  0.63814092213E+03 -0.95479613345E+03 -0.21860508637E+04  0.26289590989E+04  0.90207985905E+03 0.  0.
        -24    2    4    4    0    0  0.62207140731E+03 -0.99214763953E+03 -0.22369521337E+04  0.25264751269E+04  0.88271988494E+02 0.  0.
         24    2    4    4    0    0  0.16069514822E+02  0.37351506078E+02  0.50901269937E+02  0.10248397206E+03  0.79111699110E+02 0.  0.
         11    1    3    3    0    0 -0.23657571806E+03  0.32141123294E+03  0.32790629501E+03  0.51652278686E+03  0.00000000000E+00 0.  1.
        -11    1    3    3    0    0 -0.40156520407E+03  0.63338490051E+03  0.47525880766E+03  0.88786371677E+03  0.00000000000E+00 0. -1.
          4    1    6    6  502    0  0.18867809438E+02  0.39962700996E+02  0.70121875613E+02  0.82886000889E+02  0.00000000000E+00 0. -1.
          3    1    5    5  503    0  0.57157687776E+03 -0.93569617228E+03 -0.21267021509E+04  0.23927159240E+04  0.00000000000E+00 0. -1.
         -4    1    5    5    0  503  0.50494529547E+02 -0.56451467249E+02 -0.11024998275E+03  0.13375920291E+03  0.00000000000E+00 0.  1.
         -3    1    6    6    0  502 -0.27982946161E+01 -0.26111949184E+01 -0.19220605676E+02  0.19597971176E+02  0.00000000000E+00 0.  1.
<mgrwt>
<rscale>  0 0.37888658E+04</rscale>
<asrwt>0</asrwt>
<pdfrwt beam="1">  1        1 0.41663318E+00 0.37888658E+04</pdfrwt>
<pdfrwt beam="2">  1       -1 0.20388153E+00 0.37888658E+04</pdfrwt>
<totfact> 0.10913917E-01</totfact>
</mgrwt>
</event>
<event>
12    1  0.2019083E-007  0.1746416E+04  0.7818608E-02  0.8735326E-01
         -2   -1    0    0    0  501 -0.00000000000E+00  0.00000000000E+00  0.54648886933E+03  0.54648886933E+03  0.00000000000E+00 0.  1.
          2   -1    0    0  501    0  0.00000000000E+00 -0.00000000000E+00 -0.13952566619E+04  0.13952566619E+04  0.00000000000E+00 0. -1.
         23    2    1    2    0    0 -0.15969500217E+03 -0.25174179426E+03 -0.93669129307E+03  0.98712052187E+03  0.90221513423E+02 0.  0.
        254    2    1    2    0    0  0.15969500217E+03  0.25174179426E+03  0.87923500496E+02  0.95462500936E+03  0.90260841003E+03 0.  0.
        -24    2    4    4    0    0  0.77658879277E+02  0.57716822290E+03  0.14681074285E+03  0.60578488217E+03  0.79169881831E+02 0.  0.
         24    2    4    4    0    0  0.82036122893E+02 -0.32542642864E+03 -0.58887242357E+02  0.34884012719E+03  0.74762564929E+02 0.  0.
         13    1    3    3    0    0 -0.25362256126E+02 -0.11978506599E+03 -0.33650908086E+03  0.35809226125E+03  0.00000000000E+00 0.  1.
        -13    1    3    3    0    0 -0.13433274604E+03 -0.13195672827E+03 -0.60018221221E+03  0.62902826061E+03  0.00000000000E+00 0. -1.
          2    1    6    6  502    0  0.47978852805E+02 -0.19250684944E+03  0.27588425006E+01  0.19841489009E+03  0.00000000000E+00 0. -1.
          1    1    5    5  503    0  0.51618542374E+02  0.27526978206E+03  0.32609382234E+02  0.28195974650E+03  0.00000000000E+00 0. -1.
         -2    1    5    5    0  503  0.26040336902E+02  0.30189844084E+03  0.11420136062E+03  0.32382513567E+03  0.00000000000E+00 0.  1.
         -1    1    6    6    0  502  0.34057270089E+02 -0.13291957919E+03 -0.61646084857E+02  0.15042523710E+03  0.00000000000E+00 0.  1.
<mgrwt>
<rscale>  0 0.17464160E+04</rscale>
<asrwt>0</asrwt>
<pdfrwt beam="1">  1        2 0.21465487E+00 0.17464160E+04</pdfrwt>
<pdfrwt beam="2">  1       -2 0.84075213E-01 0.17464160E+04</pdfrwt>
<totfact> 0.17054945E+01</totfact>
</mgrwt>
</event>
<event>
12    1  0.2019083E-007  0.1604600E+04  0.7818608E-02  0.8817727E-01
         -1   -1    0    0    0  501 -0.00000000000E+00  0.00000000000E+00  0.72534777111E+03  0.72534777111E+03  0.00000000000E+00 0.  1.
          1   -1    0    0  501    0  0.00000000000E+00 -0.00000000000E+00 -0.88741625834E+03  0.88741625834E+03  0.00000000000E+00 0. -1.
         23    2    1    2    0    0  0.41380460506E+03 -0.22862054452E+03  0.21620062194E+03  0.52819077266E+03  0.93494271732E+02 0.  0.
        254    2    1    2    0    0 -0.41380460506E+03  0.22862054452E+03 -0.37826910917E+03  0.10845732568E+04  0.89983888883E+03 0.  0.
        -24    2    4    4    0    0 -0.32877509477E+03  0.20559350467E+03 -0.66443797188E+03  0.77337177128E+03  0.79147495417E+02 0.  0.
         24    2    4    4    0    0 -0.85029510287E+02  0.23027039851E+02  0.28616886271E+03  0.31120148551E+03  0.84814411573E+02 0.  0.
         11    1    3    3    0    0  0.55450152258E+02 -0.86876926651E+01  0.16466451726E+01  0.56150750926E+02  0.00000000000E+00 0. -1.
        -11    1    3    3    0    0  0.35835445280E+03 -0.21993285186E+03  0.21455397677E+03  0.47204002173E+03  0.00000000000E+00 0.  1.
          4    1    6    6  502    0 -0.99753952301E+02  0.77128504738E+01  0.24965252143E+03  0.26895486706E+03  0.00000000000E+00 0. -1.
          1    1    5    5  503    0 -0.15001286609E+03  0.13256919505E+03 -0.29508012965E+03  0.35658201634E+03  0.00000000000E+00 0. -1.
         -2    1    5    5    0  503 -0.17876222869E+03  0.73024309622E+02 -0.36935784224E+03  0.41678975494E+03  0.00000000000E+00 0.  1.
         -3    1    6    6    0  502  0.14724442014E+02  0.15314189377E+02  0.36516341287E+02  0.42246618443E+02  0.00000000000E+00 0.  1.
<mgrwt>
<rscale>  0 0.16046001E+04</rscale>
<asrwt>0</asrwt>
<pdfrwt beam="1">  1        1 0.13652558E+00 0.16046001E+04</pdfrwt>
<pdfrwt beam="2">  1       -1 0.11159196E+00 0.16046001E+04</pdfrwt>
<totfact> 0.13188408E+01</totfact>
</mgrwt>
</event>
<event>
12    1  0.2019083E-007  0.2436067E+04  0.7818608E-02  0.8426123E-01
          2   -1    0    0  501    0  0.00000000000E+00  0.00000000000E+00  0.19918190679E+04  0.19918190679E+04  0.00000000000E+00 0.  1.
         -2   -1    0    0    0  501 -0.00000000000E+00 -0.00000000000E+00 -0.74484968147E+03  0.74484968147E+03  0.00000000000E+00 0. -1.
         23    2    1    2    0    0  0.93133023555E+03  0.40397380189E+02 -0.31813914118E+01  0.93661906851E+03  0.90759034127E+02 0.  0.
        254    2    1    2    0    0 -0.93133023555E+03 -0.40397380189E+02  0.12501507778E+04  0.18000496808E+04  0.89905168384E+03 0.  0.
        -24    2    4    4    0    0 -0.64313693742E+03  0.28156477475E+03  0.11494895321E+04  0.13491512182E+04  0.77323882066E+02 0.  0.
         24    2    4    4    0    0 -0.28819329813E+03 -0.32196215494E+03  0.10066124577E+03  0.45089846259E+03  0.80384892014E+02 0.  0.
         11    1    3    3    0    0  0.56899157487E+03  0.27063075698E+02 -0.46133662466E+02  0.57149990127E+03  0.00000000000E+00 0. -1.
        -11    1    3    3    0    0  0.36233866068E+03  0.13334304491E+02  0.42952271054E+02  0.36511916725E+03  0.00000000000E+00 0.  1.
          4    1    6    6  502    0 -0.21729516023E+03 -0.26323741479E+03  0.10935933417E+03  0.35842793861E+03  0.00000000000E+00 0. -1.
          1    1    5    5  503    0 -0.52991865860E+03  0.21350845279E+03  0.88281959784E+03  0.10515560311E+04  0.00000000000E+00 0. -1.
         -2    1    5    5    0  503 -0.11321827882E+03  0.68056321966E+02  0.26666993421E+03  0.29759518718E+03  0.00000000000E+00 0.  1.
         -3    1    6    6    0  502 -0.70898137897E+02 -0.58724740152E+02 -0.86980884029E+01  0.92470523979E+02  0.00000000000E+00 0.  1.
<mgrwt>
<rscale>  0 0.24360672E+04</rscale>
<asrwt>0</asrwt>
<pdfrwt beam="1">  1        2 0.30643370E+00 0.24360672E+04</pdfrwt>
<pdfrwt beam="2">  1       -2 0.11459226E+00 0.24360672E+04</pdfrwt>
<totfact> 0.36004065E+00</totfact>
</mgrwt>
</event>
<event>
12    1  0.2019083E-007  0.2207322E+04  0.7818608E-02  0.8515387E-01
          2   -1    0    0  501    0  0.00000000000E+00  0.00000000000E+00  0.11221717509E+04  0.11221717509E+04  0.00000000000E+00 0.  1.
         -2   -1    0    0    0  501 -0.00000000000E+00 -0.00000000000E+00 -0.10854551289E+04  0.10854551289E+04  0.00000000000E+00 0. -1.
         23    2    1    2    0    0  0.39140964479E+03 -0.68098576967E+03 -0.45717737499E+03  0.91338166571E+03  0.91168999850E+02 0.  0.
        254    2    1    2    0    0 -0.39140964479E+03  0.68098576967E+03  0.49389399707E+03  0.12942452141E+04  0.90232824701E+03 0.  0.
        -24    2    4    4    0    0 -0.66276930452E+03  0.59254246678E+03  0.30800581313E+03  0.94412989839E+03  0.78383404880E+02 0.  0.
         24    2    4    4    0    0  0.27135965974E+03  0.88443302891E+02  0.18588818394E+03  0.35011531571E+03  0.81043411838E+02 0.  0.
         11    1    3    3    0    0  0.34663148347E+03 -0.55567863084E+03 -0.40743680417E+03  0.77132151240E+03  0.00000000000E+00 0. -1.
        -11    1    3    3    0    0  0.44778161318E+02 -0.12530713883E+03 -0.49740570816E+02  0.14206015331E+03  0.00000000000E+00 0.  1.
          2    1    6    6  502    0  0.14028337589E+03  0.72708577337E+02  0.64137225223E+02  0.17052726007E+03  0.00000000000E+00 0. -1.
          1    1    5    5  503    0 -0.23447592496E+03  0.17865526573E+03  0.13265172775E+03  0.32325399337E+03  0.00000000000E+00 0. -1.
         -2    1    5    5    0  503 -0.42829337957E+03  0.41388720105E+03  0.17535408538E+03  0.62087590502E+03  0.00000000000E+00 0.  1.
         -1    1    6    6    0  502  0.13107628385E+03  0.15734725554E+02  0.12175095872E+03  0.17958805563E+03  0.00000000000E+00 0.  1.
<mgrwt>
<rscale>  0 0.22073215E+04</rscale>
<asrwt>0</asrwt>
<pdfrwt beam="1">  1        2 0.17264181E+00 0.22073215E+04</pdfrwt>
<pdfrwt beam="2">  1       -2 0.16699310E+00 0.22073215E+04</pdfrwt>
<totfact> 0.43192079E+00</totfact>
</mgrwt>
</event>
<event>
12    1  0.2019083E-007  0.2401558E+04  0.7818608E-02  0.8438920E-01
         -1   -1    0    0    0  501 -0.00000000000E+00  0.00000000000E+00  0.10421418160E+04  0.10421418160E+04  0.00000000000E+00 0.  1.
          1   -1    0    0  501    0  0.00000000000E+00 -0.00000000000E+00 -0.13835643342E+04  0.13835643342E+04  0.00000000000E+00 0. -1.
         23    2    1    2    0    0 -0.10195601088E+04 -0.14840258031E+03 -0.14670628013E+03  0.10448120915E+04  0.92646816455E+02 0.  0.
        254    2    1    2    0    0  0.10195601088E+04  0.14840258031E+03 -0.19471623804E+03  0.13808940586E+04  0.89856988961E+03 0.  0.
        -24    2    4    4    0    0  0.86010925450E+03  0.24472247938E+03  0.21550080865E+03  0.92349303832E+03  0.81986411755E+02 0.  0.
         24    2    4    4    0    0  0.15945085431E+03 -0.96319899070E+02 -0.41021704669E+03  0.45740102032E+03  0.78965626027E+02 0.  0.
         11    1    3    3    0    0 -0.38270581864E+03 -0.12670738002E+02 -0.40527957726E+02  0.38505429043E+03  0.00000000000E+00 0. -1.
        -11    1    3    3    0    0 -0.63685429017E+03 -0.13573184230E+03 -0.10617832240E+03  0.65975780106E+03  0.00000000000E+00 0.  1.
          2    1    6    6  502    0  0.30843654684E+02  0.99054221350E+01 -0.10092072044E+03  0.10599264236E+03  0.00000000000E+00 0. -1.
          1    1    5    5  503    0  0.15742809661E+03  0.34806544267E+02  0.70306339761E+02  0.17589224695E+03  0.00000000000E+00 0. -1.
         -2    1    5    5    0  503  0.70268115789E+03  0.20991593511E+03  0.14519446889E+03  0.74760079138E+03  0.00000000000E+00 0.  1.
         -1    1    6    6    0  502  0.12860719962E+03 -0.10622532120E+03 -0.30929632626E+03  0.35140837795E+03  0.00000000000E+00 0.  1.
<mgrwt>
<rscale>  0 0.24015580E+04</rscale>
<asrwt>0</asrwt>
<pdfrwt beam="1">  1        1 0.21285605E+00 0.24015580E+04</pdfrwt>
<pdfrwt beam="2">  1       -1 0.16032951E+00 0.24015580E+04</pdfrwt>
<totfact> 0.20543425E+00</totfact>
</mgrwt>
</event>
<event>
12    1  0.2019083E-007  0.1280861E+04  0.7818608E-02  0.9044882E-01
          1   -1    0    0  501    0  0.00000000000E+00  0.00000000000E+00  0.32675393311E+03  0.32675393311E+03  0.00000000000E+00 0. -1.
         -1   -1    0    0    0  501 -0.00000000000E+00 -0.00000000000E+00 -0.12552297880E+04  0.12552297880E+04  0.00000000000E+00 0.  1.
         23    2    1    2    0    0 -0.29007818741E+02  0.31287951529E+03 -0.27682718063E+03  0.42877374479E+03  0.92079268312E+02 0.  0.
        254    2    1    2    0    0  0.29007818741E+02 -0.31287951529E+03 -0.65164867428E+03  0.11532099763E+04  0.89806024866E+03 0.  0.
        -24    2    4    4    0    0  0.17094766415E+03 -0.57589554880E+03 -0.27234067942E+03  0.66419169456E+03  0.78117696102E+02 0.  0.
         24    2    4    4    0    0 -0.14193984541E+03  0.26301603351E+03 -0.37930799486E+03  0.48901828179E+03  0.77071209647E+02 0.  0.
         13    1    3    3    0    0 -0.50626854754E+02  0.24748922484E+03 -0.24834682161E+03  0.35424587315E+03  0.00000000000E+00 0.  1.
        -13    1    3    3    0    0  0.21619036013E+02  0.65390290443E+02 -0.28480359020E+02  0.74527871647E+02  0.00000000000E+00 0. -1.
          4    1    6    6  502    0 -0.44440830078E+02  0.12703298915E+03 -0.11943293388E+03  0.17993496994E+03  0.00000000000E+00 0. -1.
          3    1    5    5  503    0  0.28133148574E+02 -0.20625507495E+03 -0.11508136977E+03  0.23785783918E+03  0.00000000000E+00 0. -1.
         -4    1    5    5    0  503  0.14281451558E+03 -0.36964047385E+03 -0.15725930964E+03  0.42633385537E+03  0.00000000000E+00 0.  1.
         -3    1    6    6    0  502 -0.97499015336E+02  0.13598304436E+03 -0.25987506098E+03  0.30908331185E+03  0.00000000000E+00 0.  1.
<mgrwt>
<rscale>  0 0.12808611E+04</rscale>
<asrwt>0</asrwt>
<pdfrwt beam="1">  1        1 0.50269835E-01 0.12808611E+04</pdfrwt>
<pdfrwt beam="2">  1       -1 0.19311228E+00 0.12808611E+04</pdfrwt>
<totfact> 0.12961990E+01</totfact>
</mgrwt>
</event>
<event>
12    1  0.2019083E-007  0.1997547E+04  0.7818608E-02  0.8607768E-01
         -1   -1    0    0    0  501 -0.00000000000E+00  0.00000000000E+00  0.36493509093E+03  0.36493509093E+03  0.00000000000E+00 0.  1.
          1   -1    0    0  501    0  0.00000000000E+00 -0.00000000000E+00 -0.27334950226E+04  0.27334950226E+04  0.00000000000E+00 0. -1.
         23    2    1    2    0    0 -0.64773377356E+03  0.21875269660E+03 -0.32533437716E+03  0.76261085247E+03  0.91219908262E+02 0.  0.
        254    2    1    2    0    0  0.64773377356E+03 -0.21875269660E+03 -0.20432255545E+04  0.23358192611E+04  0.90214697809E+03 0.  0.
        -24    2    4    4    0    0  0.42895324423E+03  0.99283540079E+02 -0.18384825892E+04  0.18921764737E+04  0.80345938507E+02 0.  0.
         24    2    4    4    0    0  0.21878052933E+03 -0.31803623668E+03 -0.20474296536E+03  0.44364278739E+03  0.76728567597E+02 0.  0.
         11    1    3    3    0    0 -0.60353737345E+03  0.20980281645E+03 -0.32640228284E+03  0.71750472694E+03  0.00000000000E+00 0. -1.
        -11    1    3    3    0    0 -0.44196400110E+02  0.89498801519E+01  0.10679056855E+01  0.45106125526E+02  0.00000000000E+00 0.  1.
          4    1    6    6  502    0  0.10717726451E+02 -0.43078367696E+02 -0.37944393021E+01  0.44553486881E+02  0.00000000000E+00 0. -1.
          1    1    5    5  503    0  0.18744523771E+03  0.23010391644E+02 -0.64294889326E+03  0.67011079279E+03  0.00000000000E+00 0. -1.
         -2    1    5    5    0  503  0.24150800652E+03  0.76273148435E+02 -0.11955336959E+04  0.12220656809E+04  0.00000000000E+00 0.  1.
         -3    1    6    6    0  502  0.20806280288E+03 -0.27495786899E+03 -0.20094852606E+03  0.39908930051E+03  0.00000000000E+00 0.  1.
<mgrwt>
<rscale>  0 0.19975468E+04</rscale>
<asrwt>0</asrwt>
<pdfrwt beam="1">  1        1 0.42053768E+00 0.19975468E+04</pdfrwt>
<pdfrwt beam="2">  1       -1 0.56143863E-01 0.19975468E+04</pdfrwt>
<totfact> 0.27703753E+00</totfact>
</mgrwt>
</event>
<event>
12    1  0.2019083E-007  0.1291753E+04  0.7818608E-02  0.9036130E-01
         -1   -1    0    0    0  501 -0.00000000000E+00  0.00000000000E+00  0.12471859415E+03  0.12471859415E+03  0.00000000000E+00 0.  1.
          1   -1    0    0  501    0  0.00000000000E+00 -0.00000000000E+00 -0.33447840482E+04  0.33447840482E+04  0.00000000000E+00 0. -1.
         23    2    1    2    0    0  0.19734817298E+03 -0.23763743167E+03 -0.11485010444E+04  0.11927693574E+04  0.90698624911E+02 0.  0.
        254    2    1    2    0    0 -0.19734817298E+03  0.23763743167E+03 -0.20715644096E+04  0.22767332850E+04  0.89259033008E+03 0.  0.
        -24    2    4    4    0    0 -0.22078432138E+03  0.45749752462E+03 -0.61434366987E+03  0.80105360667E+03  0.78860854973E+02 0.  0.
         24    2    4    4    0    0  0.23436148409E+02 -0.21986009295E+03 -0.14572207397E+04  0.14756796783E+04  0.72460437863E+02 0.  0.
         13    1    3    3    0    0  0.82219073392E+02 -0.43540353453E+02 -0.41680248686E+03  0.42705977505E+03  0.00000000000E+00 0.  1.
        -13    1    3    3    0    0  0.11512909958E+03 -0.19409707821E+03 -0.73169855753E+03  0.76570958231E+03  0.00000000000E+00 0. -1.
          2    1    6    6  502    0 -0.12191775610E+01 -0.61371397911E+02 -0.63503436245E+03  0.63799418208E+03  0.00000000000E+00 0. -1.
          3    1    5    5  503    0 -0.12948791038E+03  0.34837738828E+03 -0.43608652655E+03  0.57297939076E+03  0.00000000000E+00 0. -1.
         -4    1    5    5    0  503 -0.91296411009E+02  0.10912013634E+03 -0.17825714332E+03  0.22807421591E+03  0.00000000000E+00 0.  1.
         -1    1    6    6    0  502  0.24655325970E+02 -0.15848869504E+03 -0.82218637729E+03  0.83768549621E+03  0.00000000000E+00 0.  1.
<mgrwt>
<rscale>  0 0.12917535E+04</rscale>
<asrwt>0</asrwt>
<pdfrwt beam="1">  1        1 0.51458221E+00 0.12917535E+04</pdfrwt>
<pdfrwt beam="2">  1       -1 0.19187474E-01 0.12917535E+04</pdfrwt>
<totfact> 0.72247125E+00</totfact>
</mgrwt>
</event>
<event>
12    1  0.2019083E-007  0.1274803E+04  0.7818608E-02  0.9049789E-01
          1   -1    0    0  501    0  0.00000000000E+00  0.00000000000E+00  0.97872190283E+03  0.97872190283E+03  0.00000000000E+00 0. -1.
         -1   -1    0    0    0  501 -0.00000000000E+00 -0.00000000000E+00 -0.41511337482E+03  0.41511337482E+03  0.00000000000E+00 0.  1.
         23    2    1    2    0    0  0.22449675185E+03 -0.22823882323E+02  0.37582331268E+03  0.44765452756E+03  0.90728675181E+02 0.  0.
        254    2    1    2    0    0 -0.22449675185E+03  0.22823882323E+02  0.18778521534E+03  0.94618075010E+03  0.89948596630E+03 0.  0.
        -24    2    4    4    0    0 -0.49862517985E+03 -0.47421757713E+02  0.34557385006E+03  0.61251440438E+03  0.69833492280E+02 0.  0.
         24    2    4    4    0    0  0.27412842801E+03  0.70245640036E+02 -0.15778863472E+03  0.33366634572E+03  0.79719081966E+02 0.  0.
         11    1    3    3    0    0  0.23279541731E+03 -0.20292467212E+02  0.36826703033E+03  0.43614916734E+03  0.00000000000E+00 0. -1.
        -11    1    3    3    0    0 -0.82986654593E+01 -0.25314151106E+01  0.75562823447E+01  0.11505360218E+02  0.00000000000E+00 0.  1.
          4    1    6    6  502    0  0.19321300674E+03  0.45590173236E+02 -0.14981065114E+03  0.24870255541E+03  0.00000000000E+00 0. -1.
          1    1    5    5  503    0 -0.33035982357E+03 -0.44561714405E+01  0.24977225121E+03  0.41417828041E+03  0.00000000000E+00 0. -1.
         -2    1    5    5    0  503 -0.16826535628E+03 -0.42965586273E+02  0.95801598853E+02  0.19833612397E+03  0.00000000000E+00 0.  1.
         -3    1    6    6    0  502  0.80915421266E+02  0.24655466800E+02 -0.79779835811E+01  0.84963790309E+02  0.00000000000E+00 0.  1.
<mgrwt>
<rscale>  0 0.12748028E+04</rscale>
<asrwt>0</asrwt>
<pdfrwt beam="1">  1        1 0.15057260E+00 0.12748028E+04</pdfrwt>
<pdfrwt beam="2">  1       -1 0.63863596E-01 0.12748028E+04</pdfrwt>
<totfact> 0.38493933E+01</totfact>
</mgrwt>
</event>
<event>
12    1  0.2019083E-007  0.1307021E+04  0.7818608E-02  0.9024016E-01
          1   -1    0    0  501    0  0.00000000000E+00  0.00000000000E+00  0.33552954480E+04  0.33552954480E+04  0.00000000000E+00 0. -1.
         -1   -1    0    0    0  501 -0.00000000000E+00 -0.00000000000E+00 -0.12728416668E+03  0.12728416668E+03  0.00000000000E+00 0.  1.
         23    2    1    2    0    0 -0.15109831918E+03  0.66654584551E+02  0.16291318918E+04  0.16400838304E+04  0.92361865142E+02 0.  0.
        254    2    1    2    0    0  0.15109831918E+03 -0.66654584551E+02  0.15988793895E+04  0.18424957843E+04  0.90061194594E+03 0.  0.
        -24    2    4    4    0    0  0.40493588335E+02 -0.29438270891E+03  0.10447243731E+03  0.32467375367E+03  0.78725130450E+02 0.  0.
         24    2    4    4    0    0  0.11060473085E+03  0.22772812436E+03  0.14944069522E+04  0.15178220306E+04  0.80237601408E+02 0.  0.
         13    1    3    3    0    0 -0.60547905915E+02  0.22242140600E+02  0.10690119239E+04  0.10709562340E+04  0.00000000000E+00 0. -1.
        -13    1    3    3    0    0 -0.90550413270E+02  0.44412443951E+02  0.56011996789E+03  0.56912759637E+03  0.00000000000E+00 0.  1.
          4    1    6    6  502    0  0.66422428341E+02  0.18206502347E+03  0.12657584717E+04  0.12805093207E+04  0.00000000000E+00 0. -1.
          1    1    5    5  503    0  0.24198463799E+02 -0.12647730389E+03  0.50697253916E+01  0.12887116111E+03  0.00000000000E+00 0. -1.
         -2    1    5    5    0  503  0.16295124536E+02 -0.16790540502E+03  0.99402711916E+02  0.19580259257E+03  0.00000000000E+00 0.  1.
         -3    1    6    6    0  502  0.44182302510E+02  0.45663100895E+02  0.22864848051E+03  0.23731270990E+03  0.00000000000E+00 0.  1.
<mgrwt>
<rscale>  0 0.13070210E+04</rscale>
<asrwt>0</asrwt>
<pdfrwt beam="1">  1        1 0.51619923E+00 0.13070210E+04</pdfrwt>
<pdfrwt beam="2">  1       -1 0.19582182E-01 0.13070210E+04</pdfrwt>
<totfact> 0.68441390E+00</totfact>
</mgrwt>
</event>
<event>
12    1  0.2019083E-007  0.2007563E+04  0.7818608E-02  0.8603093E-01
         -1   -1    0    0    0  501 -0.00000000000E+00  0.00000000000E+00  0.41683762625E+03  0.41683762625E+03  0.00000000000E+00 0.  1.
          1   -1    0    0  501    0  0.00000000000E+00 -0.00000000000E+00 -0.24171947051E+04  0.24171947051E+04  0.00000000000E+00 0. -1.
         23    2    1    2    0    0 -0.25620057930E+03 -0.41270663817E+03  0.94309300481E+02  0.50301389047E+03  0.90350560735E+02 0.  0.
        254    2    1    2    0    0  0.25620057930E+03  0.41270663817E+03 -0.20946663794E+04  0.23310184409E+04  0.90003012450E+03 0.  0.
        -24    2    4    4    0    0 -0.23518403139E+03  0.45999290109E+03 -0.10606405043E+04  0.11824052945E+04  0.78860658212E+02 0.  0.
         24    2    4    4    0    0  0.49138461069E+03 -0.47286262921E+02 -0.10340258750E+04  0.11486131464E+04  0.80048882191E+02 0.  0.
         13    1    3    3    0    0 -0.87133265932E+02 -0.82027965984E+02  0.47218090512E+02  0.12864812982E+03  0.00000000000E+00 0. -1.
        -13    1    3    3    0    0 -0.16906731337E+03 -0.33067867218E+03  0.47091209969E+02  0.37436576064E+03  0.00000000000E+00 0.  1.
          2    1    6    6  502    0  0.31636123844E+02 -0.10108267864E+01 -0.31158848182E+02  0.44415536951E+02  0.00000000000E+00 0. -1.
          1    1    5    5  503    0 -0.48120254253E+02  0.17658505573E+03 -0.36779563630E+03  0.41081805080E+03  0.00000000000E+00 0. -1.
         -2    1    5    5    0  503 -0.18706377714E+03  0.28340784535E+03 -0.69284486802E+03  0.77158724372E+03  0.00000000000E+00 0.  1.
         -1    1    6    6    0  502  0.45974848685E+03 -0.46275436134E+02 -0.10028670269E+04  0.11041976094E+04  0.00000000000E+00 0.  1.
<mgrwt>
<rscale>  0 0.20075634E+04</rscale>
<asrwt>0</asrwt>
<pdfrwt beam="1">  1        1 0.37187611E+00 0.20075634E+04</pdfrwt>
<pdfrwt beam="2">  1       -1 0.64128866E-01 0.20075634E+04</pdfrwt>
<totfact> 0.35350196E+00</totfact>
</mgrwt>
</event>
<event>
12    1  0.2019083E-007  0.2144190E+04  0.7818608E-02  0.8542023E-01
         -1   -1    0    0    0  501 -0.00000000000E+00  0.00000000000E+00  0.60613269600E+03  0.60613269600E+03  0.00000000000E+00 0.  1.
          1   -1    0    0  501    0  0.00000000000E+00 -0.00000000000E+00 -0.18962636028E+04  0.18962636028E+04  0.00000000000E+00 0. -1.
         23    2    1    2    0    0 -0.42222797769E+03 -0.74412578361E+03 -0.78163276042E+03  0.11624777301E+04  0.91679080276E+02 0.  0.
        254    2    1    2    0    0  0.42222797769E+03  0.74412578361E+03 -0.50849814635E+03  0.13399185687E+04  0.89711301345E+03 0.  0.
        -24    2    4    4    0    0  0.54006802486E+03  0.60818917441E+03 -0.69125248754E+03  0.10702761159E+04  0.78060356837E+02 0.  0.
         24    2    4    4    0    0 -0.11784004717E+03  0.13593660920E+03  0.18275434120E+03  0.26964245283E+03  0.83323854324E+02 0.  0.
         11    1    3    3    0    0 -0.37772533914E+02 -0.12359969403E+03 -0.95914552710E+02  0.16094486666E+03  0.00000000000E+00 0.  1.
        -11    1    3    3    0    0 -0.38445544378E+03 -0.62052608958E+03 -0.68571820771E+03  0.10015328634E+04  0.00000000000E+00 0. -1.
          2    1    6    6  502    0  0.83838438980E+01 -0.44052631027E+01  0.98715799596E+01  0.13680031886E+02  0.00000000000E+00 0. -1.
          1    1    5    5  503    0  0.28539565649E+03  0.30080768415E+03 -0.30427028627E+03  0.51431153078E+03  0.00000000000E+00 0. -1.
         -2    1    5    5    0  503  0.25467236838E+03  0.30738149026E+03 -0.38698220127E+03  0.55596458509E+03  0.00000000000E+00 0.  1.
         -1    1    6    6    0  502 -0.12622389107E+03  0.14034187231E+03  0.17288276124E+03  0.25596242094E+03  0.00000000000E+00 0.  1.
<mgrwt>
<rscale>  0 0.21441897E+04</rscale>
<asrwt>0</asrwt>
<pdfrwt beam="1">  1        1 0.29173286E+00 0.21441897E+04</pdfrwt>
<pdfrwt beam="2">  1       -1 0.93251185E-01 0.21441897E+04</pdfrwt>
<totfact> 0.35836200E+00</totfact>
</mgrwt>
</event>
<event>
12    1  0.2019083E-007  0.1426487E+04  0.7818608E-02  0.8934866E-01
         -1   -1    0    0    0  501 -0.00000000000E+00  0.00000000000E+00  0.53631103838E+03  0.53631103838E+03  0.00000000000E+00 0.  1.
          1   -1    0    0  501    0  0.00000000000E+00 -0.00000000000E+00 -0.94854684583E+03  0.94854684583E+03  0.00000000000E+00 0. -1.
         23    2    1    2    0    0 -0.15139324640E+03  0.38466448996E+03 -0.36650793730E+02  0.42489190340E+03  0.91121698893E+02 0.  0.
        254    2    1    2    0    0  0.15139324640E+03 -0.38466448996E+03 -0.37558501372E+03  0.10599659808E+04  0.90087573674E+03 0.  0.
        -24    2    4    4    0    0  0.33629219306E+03 -0.56553811813E+03 -0.94191702198E+02  0.66950233405E+03  0.80221545522E+02 0.  0.
         24    2    4    4    0    0 -0.18489894666E+03  0.18087362817E+03 -0.28139331152E+03  0.39046364676E+03  0.79854704496E+02 0.  0.
         11    1    3    3    0    0 -0.63579249374E+02  0.90775334394E+02 -0.40905113489E+02  0.11813429051E+03  0.00000000000E+00 0. -1.
        -11    1    3    3    0    0 -0.87813997024E+02  0.29388915556E+03  0.42543197593E+01  0.30675761289E+03  0.00000000000E+00 0.  1.
          4    1    6    6  502    0  0.47377505758E+00  0.28152574328E+01  0.49272197164E+01  0.56945264378E+01  0.00000000000E+00 0. -1.
          3    1    5    5  503    0  0.18965873360E+03 -0.26597786139E+03 -0.16720187190E+02  0.32709971361E+03  0.00000000000E+00 0. -1.
         -4    1    5    5    0  503  0.14663345946E+03 -0.29956025673E+03 -0.77471515008E+02  0.34240262044E+03  0.00000000000E+00 0.  1.
         -3    1    6    6    0  502 -0.18537272172E+03  0.17805837074E+03 -0.28632053124E+03  0.38476912032E+03  0.00000000000E+00 0.  1.
<mgrwt>
<rscale>  0 0.14264868E+04</rscale>
<asrwt>0</asrwt>
<pdfrwt beam="1">  1        1 0.14593028E+00 0.14264868E+04</pdfrwt>
<pdfrwt beam="2">  1       -1 0.82509391E-01 0.14264868E+04</pdfrwt>
<totfact> 0.23616843E+01</totfact>
</mgrwt>
</event>
<event>
12    1  0.2130231E-007  0.2963129E+04  0.7818608E-02  0.8254339E-01
         -2   -1    0    0    0  501 -0.00000000000E+00  0.00000000000E+00  0.10488308364E+04  0.10488308364E+04  0.00000000000E+00 0. -1.
          2   -1    0    0  501    0  0.00000000000E+00 -0.00000000000E+00 -0.20928377521E+04  0.20928377521E+04  0.00000000000E+00 0.  1.
         23    2    1    2    0    0  0.11738854102E+04 -0.60129906407E+03 -0.74502624927E+03  0.15175135991E+04  0.90641549877E+02 0.  0.
        254    2    1    2    0    0 -0.11738854102E+04  0.60129906407E+03 -0.29898066643E+03  0.16241549893E+04  0.89940117280E+03 0.  0.
        -24    2    4    4    0    0 -0.42788295427E+03  0.67455149661E+03  0.25580561929E+02  0.80331486619E+03  0.80974471025E+02 0.  0.
         24    2    4    4    0    0 -0.74600245595E+03 -0.73252432536E+02 -0.32456122836E+03  0.82084012313E+03  0.80950192254E+02 0.  0.
         11    1    3    3    0    0  0.25884542148E+03 -0.92606342838E+02 -0.14448269986E+03  0.31056744439E+03  0.00000000000E+00 0.  1.
        -11    1    3    3    0    0  0.91503998873E+03 -0.50869272124E+03 -0.60054354941E+03  0.12069461547E+04  0.00000000000E+00 0. -1.
          2    1    6    6  502    0 -0.89682812565E+02  0.38392262731E+01 -0.14670076390E+02  0.90955800635E+02  0.00000000000E+00 0. -1.
          1    1    5    5  503    0 -0.40116625806E+02  0.94844512631E+02 -0.17885935203E+02  0.10452144240E+03  0.00000000000E+00 0. -1.
         -2    1    5    5    0  503 -0.38776632846E+03  0.57970698398E+03  0.43466497133E+02  0.69879342379E+03  0.00000000000E+00 0.  1.
         -1    1    6    6    0  502 -0.65631964338E+03 -0.77091658809E+02 -0.30989115197E+03  0.72988432249E+03  0.00000000000E+00 0.  1.
<mgrwt>
<rscale>  0 0.29631286E+04</rscale>
<asrwt>0</asrwt>
<pdfrwt beam="1">  1        2 0.32197504E+00 0.29631286E+04</pdfrwt>
<pdfrwt beam="2">  1       -2 0.16135859E+00 0.29631286E+04</pdfrwt>
<totfact> 0.12533679E+00</totfact>
</mgrwt>
</event>
<event>
12    1  0.2019083E-007  0.1801694E+04  0.7818608E-02  0.8705399E-01
         -1   -1    0    0    0  501 -0.00000000000E+00  0.00000000000E+00  0.87765839673E+03  0.87765839673E+03  0.00000000000E+00 0.  1.
          1   -1    0    0  501    0  0.00000000000E+00 -0.00000000000E+00 -0.92464776068E+03  0.92464776068E+03  0.00000000000E+00 0. -1.
         23    2    1    2    0    0  0.28002951167E+03  0.39589102124E+03  0.44641651846E+03  0.66541478077E+03  0.91339446082E+02 0.  0.
        254    2    1    2    0    0 -0.28002951167E+03 -0.39589102124E+03 -0.49340588241E+03  0.11368913766E+04  0.90217870147E+03 0.  0.
        -24    2    4    4    0    0  0.24805828853E+01 -0.51446648231E+03 -0.60786611174E+03  0.80030596326E+03  0.79413539951E+02 0.  0.
         24    2    4    4    0    0 -0.28251009455E+03  0.11857546106E+03  0.11446022933E+03  0.33658541338E+03  0.79476429889E+02 0.  0.
         11    1    3    3    0    0 -0.42054613792E+01  0.18954567280E+02  0.30974484787E+02  0.36556534765E+02  0.00000000000E+00 0. -1.
        -11    1    3    3    0    0  0.28423497305E+03  0.37693645396E+03  0.41544203367E+03  0.62885824600E+03  0.00000000000E+00 0.  1.
          4    1    6    6  502    0 -0.15849030612E+03  0.23965401518E+02  0.51364500342E+02  0.16832061520E+03  0.00000000000E+00 0. -1.
          3    1    5    5  503    0  0.36229586221E+02 -0.35247791581E+03 -0.39385210477E+03  0.52978556463E+03  0.00000000000E+00 0. -1.
         -4    1    5    5    0  503 -0.33749003336E+02 -0.16198856649E+03 -0.21401400697E+03  0.27052039864E+03  0.00000000000E+00 0.  1.
         -3    1    6    6    0  502 -0.12401978843E+03  0.94610059546E+02  0.63095728988E+02  0.16826479818E+03  0.00000000000E+00 0.  1.
<mgrwt>
<rscale>  0 0.18016935E+04</rscale>
<asrwt>0</asrwt>
<pdfrwt beam="1">  1        1 0.14225350E+00 0.18016935E+04</pdfrwt>
<pdfrwt beam="2">  1       -1 0.13502437E+00 0.18016935E+04</pdfrwt>
<totfact> 0.75479577E+00</totfact>
</mgrwt>
</event>
<event>
12    1  0.2019083E-007  0.2341456E+04  0.7818608E-02  0.8461753E-01
         -3   -1    0    0    0  501 -0.00000000000E+00  0.00000000000E+00  0.62467214078E+03  0.62467214078E+03  0.00000000000E+00 0.  1.
          3   -1    0    0  501    0  0.00000000000E+00 -0.00000000000E+00 -0.21941179979E+04  0.21941179979E+04  0.00000000000E+00 0. -1.
         23    2    1    2    0    0 -0.30509661639E+03  0.83243149031E+03 -0.12402636943E+03  0.89913134896E+03  0.83836215116E+02 0.  0.
        254    2    1    2    0    0  0.30509661639E+03 -0.83243149031E+03 -0.14454194877E+04  0.19196587898E+04  0.89990346269E+03 0.  0.
        -24    2    4    4    0    0  0.38690510190E+03 -0.75386615279E+03 -0.55047322251E+03  0.10136522969E+04  0.80377086757E+02 0.  0.
         24    2    4    4    0    0 -0.81808485516E+02 -0.78565337523E+02 -0.89494626521E+03  0.90600649287E+03  0.83986944995E+02 0.  0.
         11    1    3    3    0    0 -0.22124947715E+03  0.55547476980E+03 -0.47426973018E+02  0.59979402197E+03  0.00000000000E+00 0.  1.
        -11    1    3    3    0    0 -0.83847139240E+02  0.27695672051E+03 -0.76599396407E+02  0.29933732699E+03  0.00000000000E+00 0. -1.
          2    1    6    6  502    0 -0.55393864550E+02 -0.77890515023E+02 -0.83553826382E+03  0.84098727866E+03  0.00000000000E+00 0. -1.
          3    1    5    5  503    0  0.23400307021E+03 -0.41647063705E+03 -0.35215474550E+03  0.59347973274E+03  0.00000000000E+00 0. -1.
         -4    1    5    5    0  503  0.15290203169E+03 -0.33739551574E+03 -0.19831847702E+03  0.42017256415E+03  0.00000000000E+00 0.  1.
         -1    1    6    6    0  502 -0.26414620966E+02 -0.67482250048E+00 -0.59408001395E+02  0.65019214206E+02  0.00000000000E+00 0.  1.
<mgrwt>
<rscale>  0 0.23414563E+04</rscale>
<asrwt>0</asrwt>
<pdfrwt beam="1">  1        3 0.33755663E+00 0.23414563E+04</pdfrwt>
<pdfrwt beam="2">  1       -3 0.96103403E-01 0.23414563E+04</pdfrwt>
<totfact> 0.54457090E-02</totfact>
</mgrwt>
</event>
<event>
12    1  0.2019083E-007  0.2028330E+04  0.7818608E-02  0.8593489E-01
         -2   -1    0    0    0  501 -0.00000000000E+00  0.00000000000E+00  0.10901633147E+04  0.10901633147E+04  0.00000000000E+00 0. -1.
          2   -1    0    0  501    0  0.00000000000E+00 -0.00000000000E+00 -0.94346504870E+03  0.94346504870E+03  0.00000000000E+00 0.  1.
         23    2    1    2    0    0  0.74123851007E+03  0.30931431739E+03 -0.56220892027E+02  0.81046517646E+03  0.92645225470E+02 0.  0.
        254    2    1    2    0    0 -0.74123851007E+03 -0.30931431739E+03  0.20291915808E+03  0.12231631870E+04  0.89991228546E+03 0.  0.
        -24    2    4    4    0    0 -0.56561984396E+03 -0.40178579047E+03  0.49899260772E+03  0.85838538395E+03  0.80462509994E+02 0.  0.
         24    2    4    4    0    0 -0.17561866611E+03  0.92471473077E+02 -0.29607344964E+03  0.36477780304E+03  0.77527213180E+02 0.  0.
         11    1    3    3    0    0  0.57208900944E+03  0.26712523778E+03 -0.16148068453E+02  0.63158727623E+03  0.00000000000E+00 0. -1.
        -11    1    3    3    0    0  0.16914950063E+03  0.42189079609E+02 -0.40072823573E+02  0.17887790023E+03  0.00000000000E+00 0.  1.
          4    1    6    6  502    0 -0.11120767916E+03  0.21030428590E+02 -0.12584818629E+03  0.16925481625E+03  0.00000000000E+00 0. -1.
          3    1    5    5  503    0 -0.24551162186E+02 -0.35822160860E+02  0.47297262150E+02  0.64210729480E+02  0.00000000000E+00 0. -1.
         -4    1    5    5    0  503 -0.54106868177E+03 -0.36596362961E+03  0.45169534557E+03  0.79417465447E+03  0.00000000000E+00 0.  1.
         -3    1    6    6    0  502 -0.64410986947E+02  0.71441044487E+02 -0.17022526336E+03  0.19552298679E+03  0.00000000000E+00 0.  1.
<mgrwt>
<rscale>  0 0.20283303E+04</rscale>
<asrwt>0</asrwt>
<pdfrwt beam="1">  1        2 0.14514847E+00 0.20283303E+04</pdfrwt>
<pdfrwt beam="2">  1       -2 0.16771743E+00 0.20283303E+04</pdfrwt>
<totfact> 0.56233457E+00</totfact>
</mgrwt>
</event>
<event>
12    1  0.2019083E-007  0.1774809E+04  0.7818608E-02  0.8719811E-01
         -1   -1    0    0    0  501 -0.00000000000E+00  0.00000000000E+00  0.19243145670E+04  0.19243145670E+04  0.00000000000E+00 0.  1.
          1   -1    0    0  501    0  0.00000000000E+00 -0.00000000000E+00 -0.40922991906E+03  0.40922991906E+03  0.00000000000E+00 0. -1.
         23    2    1    2    0    0  0.17150155895E+03 -0.26688904306E+03  0.13173232838E+04  0.13578790809E+04  0.88613873130E+02 0.  0.
        254    2    1    2    0    0 -0.17150155895E+03  0.26688904306E+03  0.19776136419E+03  0.97566540512E+03  0.90120523720E+03 0.  0.
        -24    2    4    4    0    0 -0.15358159378E+03  0.37972880447E+03  0.49512259693E+03  0.64752676627E+03  0.79770020457E+02 0.  0.
         24    2    4    4    0    0 -0.17919965178E+02 -0.11283976141E+03 -0.29736123274E+03  0.32813863885E+03  0.78723101194E+02 0.  0.
         13    1    3    3    0    0  0.55768876377E+01 -0.75165815256E+02  0.27265997764E+03  0.28288595735E+03  0.00000000000E+00 0. -1.
        -13    1    3    3    0    0  0.16592467132E+03 -0.19172322780E+03  0.10446633061E+04  0.10749931236E+04  0.00000000000E+00 0.  1.
          4    1    6    6  502    0  0.33361416999E+01 -0.22367005909E+02 -0.76301238301E+01  0.23866955911E+02  0.00000000000E+00 0. -1.
          3    1    5    5  503    0 -0.11673079470E+02  0.11146108213E+03  0.10818627583E+03  0.15576939331E+03  0.00000000000E+00 0. -1.
         -4    1    5    5    0  503 -0.14190851431E+03  0.26826772234E+03  0.38693632110E+03  0.49175737297E+03  0.00000000000E+00 0.  1.
         -3    1    6    6    0  502 -0.21256106878E+02 -0.90472755499E+02 -0.28973110891E+03  0.30427168293E+03  0.00000000000E+00 0.  1.
<mgrwt>
<rscale>  0 0.17748094E+04</rscale>
<asrwt>0</asrwt>
<pdfrwt beam="1">  1        1 0.62958450E-01 0.17748094E+04</pdfrwt>
<pdfrwt beam="2">  1       -1 0.29604839E+00 0.17748094E+04</pdfrwt>
<totfact> 0.19300072E+00</totfact>
</mgrwt>
</event>
<event>
12    1  0.3135060E-007  0.1895806E+04  0.7818608E-02  0.8656947E-01
         -2   -1    0    0    0  501 -0.00000000000E+00  0.00000000000E+00  0.46059307946E+03  0.46059307946E+03  0.00000000000E+00 0. -1.
          2   -1    0    0  501    0  0.00000000000E+00 -0.00000000000E+00 -0.19507899916E+04  0.19507899916E+04  0.00000000000E+00 0.  1.
         23    2    1    2    0    0  0.26838153576E+03 -0.67404262579E+03 -0.47475667176E+03  0.87126518097E+03  0.85714689978E+02 0.  0.
        254    2    1    2    0    0 -0.26838153576E+03  0.67404262579E+03 -0.10154402404E+04  0.15401178901E+04  0.90248663342E+03 0.  0.
        -24    2    4    4    0    0 -0.34805476118E+03  0.68184825464E+03 -0.31702337427E+03  0.83241146888E+03  0.79660997738E+02 0.  0.
         24    2    4    4    0    0  0.79673225421E+02 -0.78056288494E+01 -0.69841686615E+03  0.70770642124E+03  0.81569044694E+02 0.  0.
         11    1    3    3    0    0  0.14515051379E+03 -0.39667912164E+03 -0.32416145312E+03  0.53245060324E+03  0.00000000000E+00 0.  1.
        -11    1    3    3    0    0  0.12323102196E+03 -0.27736350414E+03 -0.15059521864E+03  0.33881457773E+03  0.00000000000E+00 0. -1.
          2    1    6    6  502    0  0.35876575520E+02  0.35372545710E+02 -0.24406231761E+03  0.24920826739E+03  0.00000000000E+00 0. -1.
          3    1    5    5  503    0 -0.96023385876E+02  0.14183044367E+03 -0.43579509501E+02  0.17673578877E+03  0.00000000000E+00 0. -1.
         -4    1    5    5    0  503 -0.25203137530E+03  0.54001781097E+03 -0.27344386477E+03  0.65567568010E+03  0.00000000000E+00 0.  1.
         -1    1    6    6    0  502  0.43796649902E+02 -0.43178174560E+02 -0.45435454854E+03  0.45849815385E+03  0.00000000000E+00 0.  1.
<mgrwt>
<rscale>  0 0.18958063E+04</rscale>
<asrwt>0</asrwt>
<pdfrwt beam="1">  1        2 0.30012155E+00 0.18958063E+04</pdfrwt>
<pdfrwt beam="2">  1       -2 0.70860472E-01 0.18958063E+04</pdfrwt>
<totfact> 0.12064686E+01</totfact>
</mgrwt>
</event>
<event>
12    1  0.2019083E-007  0.1297052E+04  0.7818608E-02  0.9031906E-01
         -2   -1    0    0    0  501 -0.00000000000E+00  0.00000000000E+00  0.30534748329E+03  0.30534748329E+03  0.00000000000E+00 0.  1.
          2   -1    0    0  501    0  0.00000000000E+00 -0.00000000000E+00 -0.13774021630E+04  0.13774021630E+04  0.00000000000E+00 0. -1.
         23    2    1    2    0    0 -0.12922923861E+03 -0.29082275414E+03 -0.34201679637E+03  0.47601195218E+03  0.91289753975E+02 0.  0.
        254    2    1    2    0    0  0.12922923861E+03  0.29082275414E+03 -0.73003788338E+03  0.12067376941E+04  0.90663249492E+03 0.  0.
        -24    2    4    4    0    0  0.26471504417E+03 -0.11632926667E+03 -0.70896787590E+03  0.76980430984E+03  0.79728749478E+02 0.  0.
         24    2    4    4    0    0 -0.13548580555E+03  0.40715202081E+03 -0.21070007475E+02  0.43693338430E+03  0.79609456409E+02 0.  0.
         11    1    3    3    0    0 -0.89601275304E+02 -0.17098635018E+03 -0.26601635796E+03  0.32867829740E+03  0.00000000000E+00 0. -1.
        -11    1    3    3    0    0 -0.39627963309E+02 -0.11983640396E+03 -0.76000438411E+02  0.14733365478E+03  0.00000000000E+00 0.  1.
          2    1    6    6  502    0 -0.98223479453E+01  0.55825011397E+02 -0.29113475515E+02  0.63722090936E+02  0.00000000000E+00 0. -1.
          3    1    5    5  503    0  0.12421927398E+02 -0.26718601950E+02 -0.43932612112E+02  0.52898604683E+02  0.00000000000E+00 0. -1.
         -4    1    5    5    0  503  0.25229311677E+03 -0.89610664717E+02 -0.66503526379E+03  0.71690570515E+03  0.00000000000E+00 0.  1.
         -1    1    6    6    0  502 -0.12566345761E+03  0.35132700941E+03  0.80434680394E+01  0.37321129337E+03  0.00000000000E+00 0.  1.
<mgrwt>
<rscale>  0 0.12970525E+04</rscale>
<asrwt>0</asrwt>
<pdfrwt beam="1">  1        2 0.21190802E+00 0.12970525E+04</pdfrwt>
<pdfrwt beam="2">  1       -2 0.46976536E-01 0.12970525E+04</pdfrwt>
<totfact> 0.62762636E+01</totfact>
</mgrwt>
</event>
<event>
12    1  0.2019083E-007  0.1483611E+04  0.7818608E-02  0.8895425E-01
         -2   -1    0    0    0  501 -0.00000000000E+00  0.00000000000E+00  0.51359324744E+03  0.51359324744E+03  0.00000000000E+00 0.  1.
          2   -1    0    0  501    0  0.00000000000E+00 -0.00000000000E+00 -0.10714227209E+04  0.10714227209E+04  0.00000000000E+00 0. -1.
         23    2    1    2    0    0  0.38361080489E+03  0.10537759931E+03  0.73871713547E+02  0.41430237184E+03  0.89037841312E+02 0.  0.
        254    2    1    2    0    0 -0.38361080489E+03 -0.10537759931E+03 -0.63170118698E+03  0.11707135965E+04  0.90181053845E+03 0.  0.
        -24    2    4    4    0    0 -0.26973635039E+03  0.77928774881E+02 -0.82006145537E+03  0.87058965574E+03  0.81209392509E+02 0.  0.
         24    2    4    4    0    0 -0.11387445450E+03 -0.18330637419E+03  0.18836026839E+03  0.30012394073E+03  0.89588899330E+02 0.  0.
         13    1    3    3    0    0  0.23002529728E+03  0.98258285920E+02  0.18240026693E+02  0.25079678370E+03  0.00000000000E+00 0. -1.
        -13    1    3    3    0    0  0.15358550761E+03  0.71193133919E+01  0.55631686853E+02  0.16350558814E+03  0.00000000000E+00 0.  1.
          4    1    6    6  502    0 -0.11463545561E+01 -0.59223829160E+02  0.19966174434E+02  0.62509392820E+02  0.00000000000E+00 0. -1.
          1    1    5    5  503    0 -0.14034285027E+02  0.26790080614E+02 -0.63142946858E+02  0.70012151184E+02  0.00000000000E+00 0. -1.
         -2    1    5    5    0  503 -0.25570206536E+03  0.51138694267E+02 -0.75691850851E+03  0.80057750456E+03  0.00000000000E+00 0.  1.
         -3    1    6    6    0  502 -0.11272809995E+03 -0.12408254503E+03  0.16839409395E+03  0.23761454791E+03  0.00000000000E+00 0.  1.
<mgrwt>
<rscale>  0 0.14836111E+04</rscale>
<asrwt>0</asrwt>
<pdfrwt beam="1">  1        2 0.16483426E+00 0.14836111E+04</pdfrwt>
<pdfrwt beam="2">  1       -2 0.79014347E-01 0.14836111E+04</pdfrwt>
<totfact> 0.31212169E+01</totfact>
</mgrwt>
</event>
<event>
12    1  0.2019083E-007  0.2920847E+04  0.7818608E-02  0.8266702E-01
          2   -1    0    0  501    0  0.00000000000E+00  0.00000000000E+00  0.95184174440E+03  0.95184174440E+03  0.00000000000E+00 0. -1.
         -2   -1    0    0    0  501 -0.00000000000E+00 -0.00000000000E+00 -0.22407470634E+04  0.22407470634E+04  0.00000000000E+00 0.  1.
         23    2    1    2    0    0 -0.12735652357E+04 -0.33055291130E+03 -0.69773872574E+03  0.14921504816E+04  0.91869981577E+02 0.  0.
        254    2    1    2    0    0  0.12735652357E+04  0.33055291130E+03 -0.59116659330E+03  0.17004383263E+04  0.90043263142E+03 0.  0.
        -24    2    4    4    0    0  0.56955087682E+03  0.25540707771E+03 -0.74127823477E+03  0.97228884753E+03  0.78937982350E+02 0.  0.
         24    2    4    4    0    0  0.70401435886E+03  0.75145833597E+02  0.15011164147E+03  0.72814947875E+03  0.79906474706E+02 0.  0.
         13    1    3    3    0    0 -0.60420737824E+03 -0.18125208216E+03 -0.37884683999E+03  0.73582864947E+03  0.00000000000E+00 0.  1.
        -13    1    3    3    0    0 -0.66935785744E+03 -0.14930082914E+03 -0.31889188574E+03  0.75632183209E+03  0.00000000000E+00 0. -1.
          2    1    6    6  502    0  0.68118932783E+02 -0.10708576813E+02 -0.87006828285E+00  0.68961000861E+02  0.00000000000E+00 0. -1.
          3    1    5    5  503    0  0.22589982262E+02  0.27410656591E+02 -0.29862337572E+02  0.46404855334E+02  0.00000000000E+00 0. -1.
         -4    1    5    5    0  503  0.54696089456E+03  0.22799642112E+03 -0.71141589720E+03  0.92588399220E+03  0.00000000000E+00 0.  1.
         -1    1    6    6    0  502  0.63589542608E+03  0.85854410410E+02  0.15098170975E+03  0.65918847789E+03  0.00000000000E+00 0.  1.
<mgrwt>
<rscale>  0 0.29208469E+04</rscale>
<asrwt>0</asrwt>
<pdfrwt beam="1">  1        2 0.14643719E+00 0.29208469E+04</pdfrwt>
<pdfrwt beam="2">  1       -2 0.34473032E+00 0.29208469E+04</pdfrwt>
<totfact> 0.39167057E-01</totfact>
</mgrwt>
</event>
<event>
12    1  0.2019083E-007  0.2432543E+04  0.7818608E-02  0.8427419E-01
          2   -1    0    0  501    0  0.00000000000E+00  0.00000000000E+00  0.27313826043E+04  0.27313826043E+04  0.00000000000E+00 0.  1.
         -2   -1    0    0    0  501 -0.00000000000E+00 -0.00000000000E+00 -0.54159999332E+03  0.54159999332E+03  0.00000000000E+00 0. -1.
         23    2    1    2    0    0 -0.10854359272E+03  0.10419235335E+04  0.92499636733E+03  0.14003935282E+04  0.89985517113E+02 0.  0.
        254    2    1    2    0    0  0.10854359272E+03 -0.10419235335E+04  0.12647862436E+04  0.18725890694E+04  0.89973286009E+03 0.  0.
        -24    2    4    4    0    0  0.21329695614E+03 -0.42291327390E+03  0.25598308951E+02  0.48082577883E+03  0.78657024007E+02 0.  0.
         24    2    4    4    0    0 -0.10475336342E+03 -0.61901025956E+03  0.12391879347E+04  0.13917632905E+04  0.85272216048E+02 0.  0.
         13    1    3    3    0    0 -0.87324420401E+02  0.41317734614E+03  0.36835587969E+03  0.56038123440E+03  0.00000000000E+00 0. -1.
        -13    1    3    3    0    0 -0.21219172317E+02  0.62874618731E+03  0.55664048764E+03  0.84001229385E+03  0.00000000000E+00 0.  1.
          2    1    6    6  502    0 -0.11837301570E+03 -0.50276540201E+03  0.10056080013E+04  0.11305010715E+04  0.00000000000E+00 0. -1.
          3    1    5    5  503    0  0.21699505330E+03 -0.42088735044E+03  0.30311532480E+02  0.47450163743E+03  0.00000000000E+00 0. -1.
         -4    1    5    5    0  503 -0.36980971574E+01 -0.20259234560E+01 -0.47132235293E+01  0.63241414020E+01  0.00000000000E+00 0.  1.
         -1    1    6    6    0  502  0.13619652273E+02 -0.11624485754E+03  0.23357993340E+03  0.26126221908E+03  0.00000000000E+00 0.  1.
<mgrwt>
<rscale>  0 0.24325434E+04</rscale>
<asrwt>0</asrwt>
<pdfrwt beam="1">  1        2 0.42021270E+00 0.24325434E+04</pdfrwt>
<pdfrwt beam="2">  1       -2 0.83323077E-01 0.24325434E+04</pdfrwt>
<totfact> 0.28757070E+00</totfact>
</mgrwt>
</event>
<event>
12    1  0.2019083E-007  0.1740123E+04  0.7818608E-02  0.8738806E-01
          1   -1    0    0  501    0  0.00000000000E+00  0.00000000000E+00  0.13068753537E+04  0.13068753537E+04  0.00000000000E+00 0. -1.
         -1   -1    0    0    0  501 -0.00000000000E+00 -0.00000000000E+00 -0.57924939686E+03  0.57924939686E+03  0.00000000000E+00 0.  1.
         23    2    1    2    0    0 -0.12032713036E+03  0.24114898886E+03  0.88849741549E+03  0.93299926072E+03  0.91806917253E+02 0.  0.
        254    2    1    2    0    0  0.12032713036E+03 -0.24114898886E+03 -0.16087145865E+03  0.95312548984E+03  0.89996506601E+03 0.  0.
        -24    2    4    4    0    0 -0.34936896823E+03 -0.18382087222E+02  0.92247520867E+02  0.36916130835E+03  0.73306816784E+02 0.  0.
         24    2    4    4    0    0  0.46969609859E+03 -0.22276690164E+03 -0.25311897952E+03  0.58396418148E+03  0.81886689809E+02 0.  0.
         11    1    3    3    0    0 -0.18613976011E+02  0.42525816546E+02  0.65478366505E+02  0.80264199093E+02  0.00000000000E+00 0.  1.
        -11    1    3    3    0    0 -0.10171315434E+03  0.19862317231E+03  0.82301904898E+03  0.85273506163E+03  0.00000000000E+00 0. -1.
          4    1    6    6  502    0  0.13008077192E+03 -0.10286769868E+03 -0.71368518877E+02  0.18054427751E+03  0.00000000000E+00 0. -1.
          1    1    5    5  503    0 -0.45452407548E+02 -0.27898439467E+02  0.16039824107E+02  0.55691294060E+02  0.00000000000E+00 0. -1.
         -2    1    5    5    0  503 -0.30391656068E+03  0.95163522448E+01  0.76207696760E+02  0.31347001430E+03  0.00000000000E+00 0.  1.
         -3    1    6    6    0  502  0.33961532666E+03 -0.11989920296E+03 -0.18175046064E+03  0.40341990397E+03  0.00000000000E+00 0.  1.
<mgrwt>
<rscale>  0 0.17401227E+04</rscale>
<asrwt>0</asrwt>
<pdfrwt beam="1">  1        1 0.20105775E+00 0.17401227E+04</pdfrwt>
<pdfrwt beam="2">  1       -1 0.89115292E-01 0.17401227E+04</pdfrwt>
<totfact> 0.10472536E+01</totfact>
</mgrwt>
</event>
<event>
12    1  0.2019083E-007  0.1482995E+04  0.7818608E-02  0.8895841E-01
         -2   -1    0    0    0  501 -0.00000000000E+00  0.00000000000E+00  0.47419007532E+03  0.47419007532E+03  0.00000000000E+00 0.  1.
          2   -1    0    0  501    0  0.00000000000E+00 -0.00000000000E+00 -0.11594892060E+04  0.11594892060E+04  0.00000000000E+00 0. -1.
         23    2    1    2    0    0  0.15964197161E+03  0.35937965475E+03 -0.48442753872E+03  0.63056430518E+03  0.91115351878E+02 0.  0.
        254    2    1    2    0    0 -0.15964197161E+03 -0.35937965475E+03 -0.20087159199E+03  0.10031149762E+04  0.90069471166E+03 0.  0.
        -24    2    4    4    0    0  0.89532205655E+02 -0.58747578932E+03 -0.25687097196E+03  0.65216194965E+03  0.78668249293E+02 0.  0.
         24    2    4    4    0    0 -0.24917417726E+03  0.22809613457E+03  0.55999379974E+02  0.35095302652E+03  0.76918652111E+02 0.  0.
         11    1    3    3    0    0  0.11286497208E+03  0.26020306876E+03 -0.40801936224E+03  0.49691441807E+03  0.00000000000E+00 0. -1.
        -11    1    3    3    0    0  0.46776999522E+02  0.99176585990E+02 -0.76408176480E+02  0.13364988711E+03  0.00000000000E+00 0.  1.
          2    1    6    6  502    0 -0.15365313260E+03  0.89144027803E+02  0.34669695657E+02  0.18099152093E+03  0.00000000000E+00 0. -1.
          3    1    5    5  503    0  0.87600449854E+02 -0.55585738307E+03 -0.22166621846E+03  0.60480342388E+03  0.00000000000E+00 0. -1.
         -4    1    5    5    0  503  0.19317558014E+01 -0.31618406251E+02 -0.35204753498E+02  0.47358525771E+02  0.00000000000E+00 0.  1.
         -1    1    6    6    0  502 -0.95521044663E+02  0.13895210677E+03  0.21329684317E+02  0.16996150559E+03  0.00000000000E+00 0.  1.
<mgrwt>
<rscale>  0 0.14829946E+04</rscale>
<asrwt>0</asrwt>
<pdfrwt beam="1">  1        2 0.17838295E+00 0.14829946E+04</pdfrwt>
<pdfrwt beam="2">  1       -2 0.72952320E-01 0.14829946E+04</pdfrwt>
<totfact> 0.32909184E+01</totfact>
</mgrwt>
</event>
<event>
12    1  0.2019083E-007  0.1728277E+04  0.7818608E-02  0.8745399E-01
          2   -1    0    0  501    0  0.00000000000E+00  0.00000000000E+00  0.27577171590E+04  0.27577171590E+04  0.00000000000E+00 0. -1.
         -2   -1    0    0    0  501 -0.00000000000E+00 -0.00000000000E+00 -0.27078025847E+03  0.27078025847E+03  0.00000000000E+00 0.  1.
         23    2    1    2    0    0 -0.94449564172E+02 -0.30564304911E+03  0.18450949888E+04  0.18748154669E+04  0.90659381359E+02 0.  0.
        254    2    1    2    0    0  0.94449564172E+02  0.30564304911E+03  0.64184191172E+03  0.11536819506E+04  0.90370493518E+03 0.  0.
        -24    2    4    4    0    0 -0.23593364346E+03 -0.20500325489E+03  0.34497069740E+03  0.47210266556E+03  0.78645572875E+02 0.  0.
         24    2    4    4    0    0  0.33038320763E+03  0.51064630400E+03  0.29687121431E+03  0.68157928504E+03  0.80654151976E+02 0.  0.
         13    1    3    3    0    0  0.14846382979E+02 -0.70353410677E+02  0.33934617621E+03  0.34688015912E+03  0.00000000000E+00 0.  1.
        -13    1    3    3    0    0 -0.10929594715E+03 -0.23528963843E+03  0.15057488126E+04  0.15279353078E+04  0.00000000000E+00 0. -1.
          4    1    6    6  502    0  0.27058434166E+03  0.46595221504E+03  0.25779572905E+03  0.59731565404E+03  0.00000000000E+00 0. -1.
          1    1    5    5  503    0 -0.97651196686E+02 -0.12593818342E+03  0.13711613452E+03  0.21023086501E+03  0.00000000000E+00 0. -1.
         -2    1    5    5    0  503 -0.13828244677E+03 -0.79065071466E+02  0.20785456289E+03  0.26187180055E+03  0.00000000000E+00 0.  1.
         -3    1    6    6    0  502  0.59798865970E+02  0.44694088961E+02  0.39075485264E+02  0.84263630992E+02  0.00000000000E+00 0.  1.
<mgrwt>
<rscale>  0 0.17282770E+04</rscale>
<asrwt>0</asrwt>
<pdfrwt beam="1">  1        2 0.42426416E+00 0.17282770E+04</pdfrwt>
<pdfrwt beam="2">  1       -2 0.41658503E-01 0.17282770E+04</pdfrwt>
<totfact> 0.12749151E+01</totfact>
</mgrwt>
</event>
<event>
12    1  0.2019083E-007  0.2345498E+04  0.7818608E-02  0.8460195E-01
         -2   -1    0    0    0  501 -0.00000000000E+00  0.00000000000E+00  0.51724045727E+03  0.51724045727E+03  0.00000000000E+00 0.  1.
          2   -1    0    0  501    0  0.00000000000E+00 -0.00000000000E+00 -0.26589960163E+04  0.26589960163E+04  0.00000000000E+00 0. -1.
         23    2    1    2    0    0 -0.99176012757E+03  0.34702277828E+02 -0.10565311139E+04  0.14524242132E+04  0.92117867726E+02 0.  0.
        254    2    1    2    0    0  0.99176012757E+03 -0.34702277828E+02 -0.10852244450E+04  0.17238122604E+04  0.89945773338E+03 0.  0.
        -24    2    4    4    0    0 -0.11559390813E+03 -0.51493437141E+02  0.27037164115E+02  0.15214648953E+03  0.80025123348E+02 0.  0.
         24    2    4    4    0    0  0.11073540357E+04  0.16791159314E+02 -0.11122616092E+04  0.15716657708E+04  0.80576079555E+02 0.  0.
         11    1    3    3    0    0 -0.44887195942E+03  0.56405395077E+02 -0.44922830860E+03  0.63755288235E+03  0.00000000000E+00 0. -1.
        -11    1    3    3    0    0 -0.54288816815E+03 -0.21703117249E+02 -0.60730280534E+03  0.81487133082E+03  0.00000000000E+00 0.  1.
          4    1    6    6  502    0  0.97647271015E+03  0.40595159966E+02 -0.97347052268E+03  0.13794171882E+04  0.00000000000E+00 0. -1.
          1    1    5    5  503    0 -0.27184766186E+02 -0.51756053228E+02  0.25350518016E+02  0.63720870380E+02  0.00000000000E+00 0. -1.
         -2    1    5    5    0  503 -0.88409141945E+02  0.26261608659E+00  0.16866460994E+01  0.88425619149E+02  0.00000000000E+00 0.  1.
         -3    1    6    6    0  502  0.13088132555E+03 -0.23804000652E+02 -0.13879108648E+03  0.19224858259E+03  0.00000000000E+00 0.  1.
<mgrwt>
<rscale>  0 0.23454981E+04</rscale>
<asrwt>0</asrwt>
<pdfrwt beam="1">  1        2 0.40907631E+00 0.23454981E+04</pdfrwt>
<pdfrwt beam="2">  1       -2 0.79575455E-01 0.23454981E+04</pdfrwt>
<totfact> 0.35494321E+00</totfact>
</mgrwt>
</event>
<event>
12    1  0.2019083E-007  0.1489526E+04  0.7818608E-02  0.8891448E-01
          2   -1    0    0  501    0  0.00000000000E+00  0.00000000000E+00  0.53342135349E+03  0.53342135349E+03  0.00000000000E+00 0. -1.
         -2   -1    0    0    0  501 -0.00000000000E+00 -0.00000000000E+00 -0.10398387511E+04  0.10398387511E+04  0.00000000000E+00 0.  1.
         23    2    1    2    0    0 -0.35054565949E+03  0.30792809823E+03 -0.14145694683E+03  0.49557171910E+03  0.88765353019E+02 0.  0.
        254    2    1    2    0    0  0.35054565949E+03 -0.30792809823E+03 -0.36496045082E+03  0.10776883855E+04  0.90028559501E+03 0.  0.
        -24    2    4    4    0    0  0.60638833073E+03 -0.28473566597E+03 -0.68878062127E+02  0.67760191712E+03  0.74959746008E+02 0.  0.
         24    2    4    4    0    0 -0.25584267124E+03 -0.23192432264E+02 -0.29608238870E+03  0.40008646842E+03  0.80068970106E+02 0.  0.
         11    1    3    3    0    0 -0.21490838719E+03  0.13319345644E+03 -0.90788952738E+02  0.26864241226E+03  0.00000000000E+00 0.  1.
        -11    1    3    3    0    0 -0.13563727230E+03  0.17473464179E+03 -0.50667994093E+02  0.22692930685E+03  0.00000000000E+00 0. -1.
          2    1    6    6  502    0 -0.11695041453E+03 -0.21727925384E+02 -0.80495566444E+02  0.14362812544E+03  0.00000000000E+00 0. -1.
          3    1    5    5  503    0  0.26526684720E+03 -0.12439621778E+03 -0.67558725945E+02  0.30067440974E+03  0.00000000000E+00 0. -1.
         -4    1    5    5    0  503  0.34112148353E+03 -0.16033944818E+03 -0.13193361819E+01  0.37692750737E+03  0.00000000000E+00 0.  1.
         -1    1    6    6    0  502 -0.13889225671E+03 -0.14645068806E+01 -0.21558682225E+03  0.25645834298E+03  0.00000000000E+00 0.  1.
<mgrwt>
<rscale>  0 0.14895264E+04</rscale>
<asrwt>0</asrwt>
<pdfrwt beam="1">  1        2 0.82064823E-01 0.14895264E+04</pdfrwt>
<pdfrwt beam="2">  1       -2 0.15997519E+00 0.14895264E+04</pdfrwt>
<totfact> 0.13895993E+01</totfact>
</mgrwt>
</event>
<event>
12    1  0.2019083E-007  0.1999006E+04  0.7818608E-02  0.8607085E-01
          3   -1    0    0  501    0  0.00000000000E+00  0.00000000000E+00  0.60903435967E+03  0.60903435967E+03  0.00000000000E+00 0. -1.
         -3   -1    0    0    0  501 -0.00000000000E+00 -0.00000000000E+00 -0.16403123649E+04  0.16403123649E+04  0.00000000000E+00 0.  1.
         23    2    1    2    0    0 -0.65928850819E+03 -0.43160238694E+02 -0.90546146279E+03  0.11247782247E+04  0.93495727121E+02 0.  0.
        254    2    1    2    0    0  0.65928850819E+03  0.43160238694E+02 -0.12581654242E+03  0.11245684998E+04  0.90127707462E+03 0.  0.
        -24    2    4    4    0    0  0.69429196426E+02 -0.10450378580E+03  0.32920685304E+03  0.36090308891E+03  0.78309852093E+02 0.  0.
         24    2    4    4    0    0  0.58985931176E+03  0.14766402449E+03 -0.45502339545E+03  0.76366541092E+03  0.79999360148E+02 0.  0.
         11    1    3    3    0    0 -0.34502940303E+03 -0.10954435710E+02 -0.54867696633E+03  0.64823738090E+03  0.00000000000E+00 0.  1.
        -11    1    3    3    0    0 -0.31425910515E+03 -0.32205802984E+02 -0.35678449646E+03  0.47654084383E+03  0.00000000000E+00 0. -1.
          4    1    6    6  502    0  0.47905792671E+03  0.97668781677E+02 -0.39249712973E+03  0.62696864747E+03  0.00000000000E+00 0. -1.
          3    1    5    5  503    0  0.65679352816E+02 -0.39273773346E+02  0.22742155203E+03  0.23995159717E+03  0.00000000000E+00 0. -1.
         -4    1    5    5    0  503  0.37498436099E+01 -0.65230012452E+02  0.10178530101E+03  0.12095149174E+03  0.00000000000E+00 0.  1.
         -3    1    6    6    0  502  0.11080138505E+03  0.49995242814E+02 -0.62526265720E+02  0.13669676345E+03  0.00000000000E+00 0.  1.
<mgrwt>
<rscale>  0 0.19990063E+04</rscale>
<asrwt>0</asrwt>
<pdfrwt beam="1">  1        3 0.93697594E-01 0.19990063E+04</pdfrwt>
<pdfrwt beam="2">  1       -3 0.25235575E+00 0.19990063E+04</pdfrwt>
<totfact> 0.17507295E-01</totfact>
</mgrwt>
</event>
<event>
12    1  0.2019083E-007  0.2678141E+04  0.7818608E-02  0.8342133E-01
         -2   -1    0    0    0  501 -0.00000000000E+00  0.00000000000E+00  0.40126574538E+03  0.40126574538E+03  0.00000000000E+00 0.  1.
          2   -1    0    0  501    0  0.00000000000E+00 -0.00000000000E+00 -0.44686327055E+04  0.44686327055E+04  0.00000000000E+00 0. -1.
         23    2    1    2    0    0 -0.87505175144E+02  0.10862229473E+04 -0.95659419561E+03  0.14528283836E+04  0.90002279642E+02 0.  0.
        254    2    1    2    0    0  0.87505175144E+02 -0.10862229473E+04 -0.31107727645E+04  0.34170700672E+04  0.90106781392E+03 0.  0.
        -24    2    4    4    0    0 -0.11297536988E+03  0.27583930756E+02 -0.10958182422E+04  0.11046421354E+04  0.76761448590E+02 0.  0.
         24    2    4    4    0    0  0.20048054502E+03 -0.11138068780E+04 -0.20149545223E+04  0.23124279318E+04  0.80765106836E+02 0.  0.
         13    1    3    3    0    0 -0.18361262911E+02  0.17933917878E+03 -0.20462978558E+03  0.27271418402E+03  0.00000000000E+00 0.  1.
        -13    1    3    3    0    0 -0.69143912234E+02  0.90688376848E+03 -0.75196441002E+03  0.11801141996E+04  0.00000000000E+00 0. -1.
          4    1    6    6  502    0  0.20837177654E+02 -0.89095273043E+02 -0.12289942241E+03  0.15322018040E+03  0.00000000000E+00 0. -1.
          1    1    5    5  503    0 -0.63254365844E+02  0.47877117071E+01 -0.28469251431E+03  0.29167424412E+03  0.00000000000E+00 0. -1.
         -4    1    5    5    0  503 -0.49721004037E+02  0.22796219049E+02 -0.81112572786E+03  0.81296789127E+03  0.00000000000E+00 0.  1.
         -3    1    6    6    0  502  0.17964336737E+03 -0.10247116050E+04 -0.18920550999E+04  0.21592077515E+04  0.00000000000E+00 0.  1.
<mgrwt>
<rscale>  0 0.26781406E+04</rscale>
<asrwt>0</asrwt>
<pdfrwt beam="1">  1        2 0.68748196E+00 0.26781406E+04</pdfrwt>
<pdfrwt beam="2">  1       -2 0.61733191E-01 0.26781406E+04</pdfrwt>
<totfact> 0.28373993E-01</totfact>
</mgrwt>
</event>
<event>
12    1  0.2019083E-007  0.1199729E+04  0.7818608E-02  0.9113094E-01
          2   -1    0    0  501    0  0.00000000000E+00  0.00000000000E+00  0.18277967854E+04  0.18277967854E+04  0.00000000000E+00 0. -1.
         -2   -1    0    0    0  501 -0.00000000000E+00 -0.00000000000E+00 -0.19686943039E+03  0.19686943039E+03  0.00000000000E+00 0.  1.
         23    2    1    2    0    0  0.27419396019E+02  0.15319058405E+03  0.68911016513E+03  0.71222156362E+03  0.90374541074E+02 0.  0.
        254    2    1    2    0    0 -0.27419396019E+02 -0.15319058405E+03  0.94181718986E+03  0.13124446521E+04  0.90070648245E+03 0.  0.
        -24    2    4    4    0    0  0.17362933575E+03 -0.41448155029E+03  0.20333061009E+03  0.49958339504E+03  0.79360757544E+02 0.  0.
         24    2    4    4    0    0 -0.20104873176E+03  0.26129096624E+03  0.73848657977E+03  0.81286125711E+03  0.81776727968E+02 0.  0.
         13    1    3    3    0    0 -0.26597197125E+02  0.25566187283E+02  0.89518100731E+02  0.96822162677E+02  0.00000000000E+00 0.  1.
        -13    1    3    3    0    0  0.54016593143E+02  0.12762439676E+03  0.59959206440E+03  0.61539940094E+03  0.00000000000E+00 0. -1.
          2    1    6    6  502    0 -0.10903037166E+02  0.66610130817E+02  0.15233091816E+03  0.16661480839E+03  0.00000000000E+00 0. -1.
          3    1    5    5  503    0  0.25695477079E+02 -0.10109593358E+03  0.81042095860E+02  0.13209264412E+03  0.00000000000E+00 0. -1.
         -4    1    5    5    0  503  0.14793385867E+03 -0.31338561671E+03  0.12228851423E+03  0.36749075092E+03  0.00000000000E+00 0.  1.
         -1    1    6    6    0  502 -0.19014569460E+03  0.19468083542E+03  0.58615566160E+03  0.64624644872E+03  0.00000000000E+00 0.  1.
<mgrwt>
<rscale>  0 0.11997288E+04</rscale>
<asrwt>0</asrwt>
<pdfrwt beam="1">  1        2 0.28119949E+00 0.11997288E+04</pdfrwt>
<pdfrwt beam="2">  1       -2 0.30287606E-01 0.11997288E+04</pdfrwt>
<totfact> 0.82804334E+01</totfact>
</mgrwt>
</event>
<event>
12    1  0.2019083E-007  0.2241937E+04  0.7818608E-02  0.8501173E-01
         -2   -1    0    0    0  501 -0.00000000000E+00  0.00000000000E+00  0.15005651476E+04  0.15005651476E+04  0.00000000000E+00 0.  1.
          2   -1    0    0  501    0  0.00000000000E+00 -0.00000000000E+00 -0.83739779393E+03  0.83739779393E+03  0.00000000000E+00 0. -1.
         23    2    1    2    0    0 -0.66093267626E+03  0.43600158169E+03 -0.24548628287E+03  0.83369585251E+03  0.88633388874E+02 0.  0.
        254    2    1    2    0    0  0.66093267626E+03 -0.43600158169E+03  0.90865363653E+03  0.15042670890E+04  0.90013258030E+03 0.  0.
        -24    2    4    4    0    0 -0.11586205048E+03  0.16186011616E+03  0.18637329812E+03  0.28389359616E+03  0.78980097132E+02 0.  0.
         24    2    4    4    0    0  0.77679472674E+03 -0.59786169785E+03  0.72228033842E+03  0.12203734929E+04  0.82303812435E+02 0.  0.
         13    1    3    3    0    0 -0.24404284990E+03  0.16906918927E+03 -0.13676035875E+03  0.32687107409E+03  0.00000000000E+00 0. -1.
        -13    1    3    3    0    0 -0.41688982636E+03  0.26693239242E+03 -0.10872592412E+03  0.50682477842E+03  0.00000000000E+00 0.  1.
          4    1    6    6  502    0  0.26165067299E+03 -0.24428144369E+03  0.23806656060E+03  0.42989555206E+03  0.00000000000E+00 0. -1.
          3    1    5    5  503    0 -0.11742804246E+03  0.16889290561E+03  0.17333350893E+03  0.26899565803E+03  0.00000000000E+00 0. -1.
         -4    1    5    5    0  503  0.15659919751E+01 -0.70327894525E+01  0.13039789190E+02  0.14897938128E+02  0.00000000000E+00 0.  1.
         -3    1    6    6    0  502  0.51514405375E+03 -0.35358025417E+03  0.48421377782E+03  0.79047794079E+03  0.00000000000E+00 0.  1.
<mgrwt>
<rscale>  0 0.22419366E+04</rscale>
<asrwt>0</asrwt>
<pdfrwt beam="1">  1        2 0.12883043E+00 0.22419366E+04</pdfrwt>
<pdfrwt beam="2">  1       -2 0.23085618E+00 0.22419366E+04</pdfrwt>
<totfact> 0.24910232E+00</totfact>
</mgrwt>
</event>
<event>
12    1  0.2019083E-007  0.2153729E+04  0.7818608E-02  0.8537938E-01
          2   -1    0    0  501    0  0.00000000000E+00  0.00000000000E+00  0.19911317438E+04  0.19911317438E+04  0.00000000000E+00 0. -1.
         -2   -1    0    0    0  501 -0.00000000000E+00 -0.00000000000E+00 -0.58240126407E+03  0.58240126407E+03  0.00000000000E+00 0.  1.
         23    2    1    2    0    0  0.51488958225E+01 -0.64939183626E+03  0.13033655200E+04  0.14589823401E+04  0.90174950639E+02 0.  0.
        254    2    1    2    0    0 -0.51488958225E+01  0.64939183626E+03  0.10536495970E+03  0.11145506678E+04  0.89965835082E+03 0.  0.
        -24    2    4    4    0    0 -0.37471683627E+03  0.14886427206E+03  0.23610784520E+03  0.47380414752E+03  0.78550472733E+02 0.  0.
         24    2    4    4    0    0  0.36956794045E+03  0.50052756420E+03 -0.13074288550E+03  0.64074652026E+03  0.79712583678E+02 0.  0.
         13    1    3    3    0    0 -0.25227255689E+02 -0.19681035456E+03  0.46998868282E+03  0.51015692887E+03  0.00000000000E+00 0.  1.
        -13    1    3    3    0    0  0.30376151512E+02 -0.45258148170E+03  0.83337683719E+03  0.94882541119E+03  0.00000000000E+00 0. -1.
          4    1    6    6  502    0  0.18595707953E+03  0.24541385593E+03 -0.24186025569E+02  0.30885750751E+03  0.00000000000E+00 0. -1.
          3    1    5    5  503    0 -0.35143180964E+03  0.14076778054E+03  0.19493805450E+03  0.42581771917E+03  0.00000000000E+00 0. -1.
         -4    1    5    5    0  503 -0.23285026627E+02  0.80964915238E+01  0.41169790702E+02  0.47986428357E+02  0.00000000000E+00 0.  1.
         -3    1    6    6    0  502  0.18361086091E+03  0.25511370826E+03 -0.10655685993E+03  0.33188901276E+03  0.00000000000E+00 0.  1.
<mgrwt>
<rscale>  0 0.21537295E+04</rscale>
<asrwt>0</asrwt>
<pdfrwt beam="1">  1        2 0.30632796E+00 0.21537295E+04</pdfrwt>
<pdfrwt beam="2">  1       -2 0.89600195E-01 0.21537295E+04</pdfrwt>
<totfact> 0.66195174E+00</totfact>
</mgrwt>
</event>
<event>
12    1  0.2019083E-007  0.2182430E+04  0.7818608E-02  0.8525777E-01
         -1   -1    0    0    0  501 -0.00000000000E+00  0.00000000000E+00  0.93458695058E+03  0.93458695058E+03  0.00000000000E+00 0.  1.
          1   -1    0    0  501    0  0.00000000000E+00 -0.00000000000E+00 -0.12740919716E+04  0.12740919716E+04  0.00000000000E+00 0. -1.
         23    2    1    2    0    0  0.77830996207E+03  0.38774227250E+03  0.12067205156E+03  0.88212189499E+03  0.86410801626E+02 0.  0.
        254    2    1    2    0    0 -0.77830996207E+03 -0.38774227250E+03 -0.46017707254E+03  0.13265570272E+04  0.88987647528E+03 0.  0.
        -24    2    4    4    0    0 -0.88193529634E+03 -0.53720947910E+03 -0.44338756533E+03  0.11267259977E+04  0.80715855595E+02 0.  0.
         24    2    4    4    0    0  0.10362533426E+03  0.14946720660E+03 -0.16789507206E+02  0.19983102950E+03  0.81067237824E+02 0.  0.
         13    1    3    3    0    0  0.72697555210E+03  0.33954731925E+03  0.12264160665E+03  0.81168146403E+03  0.00000000000E+00 0.  1.
        -13    1    3    3    0    0  0.51334409972E+02  0.48194953257E+02 -0.19695550944E+01  0.70440430961E+02  0.00000000000E+00 0. -1.
          4    1    6    6  502    0  0.80903573820E+02  0.14172856167E+03 -0.38267873489E+02  0.16762101178E+03  0.00000000000E+00 0. -1.
          1    1    5    5  503    0 -0.52759135253E+03 -0.36159847922E+03 -0.29447552967E+03  0.70414624405E+03  0.00000000000E+00 0. -1.
         -2    1    5    5    0  503 -0.35434394380E+03 -0.17561099988E+03 -0.14891203566E+03  0.42257975360E+03  0.00000000000E+00 0.  1.
         -3    1    6    6    0  502  0.22721760441E+02  0.77386449282E+01  0.21478366283E+02  0.32210017713E+02  0.00000000000E+00 0.  1.
<mgrwt>
<rscale>  0 0.21824296E+04</rscale>
<asrwt>0</asrwt>
<pdfrwt beam="1">  1        1 0.19601415E+00 0.21824296E+04</pdfrwt>
<pdfrwt beam="2">  1       -1 0.14378261E+00 0.21824296E+04</pdfrwt>
<totfact> 0.33687437E+00</totfact>
</mgrwt>
</event>
<event>
12    1  0.2019083E-007  0.1811545E+04  0.7818608E-02  0.8700184E-01
         -1   -1    0    0    0  501 -0.00000000000E+00  0.00000000000E+00  0.61972270849E+03  0.61972270849E+03  0.00000000000E+00 0.  1.
          1   -1    0    0  501    0  0.00000000000E+00 -0.00000000000E+00 -0.13238558232E+04  0.13238558232E+04  0.00000000000E+00 0. -1.
         23    2    1    2    0    0  0.20884527232E+03 -0.60533375969E+03 -0.26013306241E+02  0.64754764032E+03  0.92714324638E+02 0.  0.
        254    2    1    2    0    0 -0.20884527232E+03  0.60533375969E+03 -0.67811980851E+03  0.12960308914E+04  0.89989126477E+03 0.  0.
        -24    2    4    4    0    0 -0.50499337155E+03  0.44464202007E+03 -0.20002991466E+03  0.70646270816E+03  0.79704202827E+02 0.  0.
         24    2    4    4    0    0  0.29614809923E+03  0.16069173962E+03 -0.47808989385E+03  0.58956818325E+03  0.74129375013E+02 0.  0.
         11    1    3    3    0    0  0.51274273210E+02 -0.19180725869E+03 -0.48729747984E+02  0.20443498702E+03  0.00000000000E+00 0. -1.
        -11    1    3    3    0    0  0.15757099911E+03 -0.41352650100E+03  0.22716441744E+02  0.44311265330E+03  0.00000000000E+00 0.  1.
          2    1    6    6  502    0  0.10444352507E+03  0.98194395956E+02 -0.20010930486E+03  0.24615914206E+03  0.00000000000E+00 0. -1.
          3    1    5    5  503    0 -0.22935149814E+03  0.15000720492E+03 -0.84227174413E+02  0.28670278711E+03  0.00000000000E+00 0. -1.
         -4    1    5    5    0  503 -0.27564187340E+03  0.29463481514E+03 -0.11580274024E+03  0.41975992104E+03  0.00000000000E+00 0.  1.
         -1    1    6    6    0  502  0.19170457416E+03  0.62497343664E+02 -0.27798058899E+03  0.34340904119E+03  0.00000000000E+00 0.  1.
<mgrwt>
<rscale>  0 0.18115447E+04</rscale>
<asrwt>0</asrwt>
<pdfrwt beam="1">  1        1 0.20367012E+00 0.18115447E+04</pdfrwt>
<pdfrwt beam="2">  1       -1 0.95341957E-01 0.18115447E+04</pdfrwt>
<totfact> 0.87089666E+00</totfact>
</mgrwt>
</event>
<event>
12    1  0.2019083E-007  0.4059393E+04  0.7818608E-02  0.7992671E-01
          2   -1    0    0  501    0  0.00000000000E+00  0.00000000000E+00  0.31122215519E+04  0.31122215519E+04  0.00000000000E+00 0. -1.
         -2   -1    0    0    0  501 -0.00000000000E+00 -0.00000000000E+00 -0.13237065103E+04  0.13237065103E+04  0.00000000000E+00 0.  1.
         23    2    1    2    0    0  0.19088415086E+04  0.73667788388E+02  0.11427009536E+04  0.22278365082E+04  0.91581600086E+02 0.  0.
        254    2    1    2    0    0 -0.19088415086E+04 -0.73667788388E+02  0.64581408791E+03  0.22080915540E+04  0.89971641461E+03 0.  0.
        -24    2    4    4    0    0 -0.14001778407E+04 -0.13057920713E+02  0.86233276093E+03  0.16463543500E+04  0.78716963393E+02 0.  0.
         24    2    4    4    0    0 -0.50866366791E+03 -0.60609867675E+02 -0.21651867302E+03  0.56173720401E+03  0.79095306340E+02 0.  0.
         13    1    3    3    0    0  0.12718469910E+04  0.29237896282E+02  0.80519275516E+03  0.15055846028E+04  0.00000000000E+00 0. -1.
        -13    1    3    3    0    0  0.63699451760E+03  0.44429892106E+02  0.33750819848E+03  0.72225190536E+03  0.00000000000E+00 0.  1.
          2    1    6    6  502    0 -0.90445501209E+02  0.25523643784E+01 -0.99447677486E+01  0.91026378915E+02  0.00000000000E+00 0. -1.
          3    1    5    5  503    0 -0.54945514870E+03 -0.43554655746E+02  0.33763980794E+03  0.64637342797E+03  0.00000000000E+00 0. -1.
         -4    1    5    5    0  503 -0.85072269203E+03  0.30496735033E+02  0.52469295299E+03  0.99998092207E+03  0.00000000000E+00 0.  1.
         -1    1    6    6    0  502 -0.41821816670E+03 -0.63162232053E+02 -0.20657390528E+03  0.47071082509E+03  0.00000000000E+00 0.  1.
<mgrwt>
<rscale>  0 0.40593930E+04</rscale>
<asrwt>0</asrwt>
<pdfrwt beam="1">  1        2 0.47880331E+00 0.40593930E+04</pdfrwt>
<pdfrwt beam="2">  1       -2 0.20364716E+00 0.40593930E+04</pdfrwt>
<totfact> 0.14595761E-01</totfact>
</mgrwt>
</event>
<event>
12    1  0.2019083E-007  0.1991036E+04  0.7818608E-02  0.8610823E-01
         -2   -1    0    0    0  501 -0.00000000000E+00  0.00000000000E+00  0.67286395576E+03  0.67286395576E+03  0.00000000000E+00 0.  1.
          2   -1    0    0  501    0  0.00000000000E+00 -0.00000000000E+00 -0.14728917513E+04  0.14728917513E+04  0.00000000000E+00 0. -1.
         23    2    1    2    0    0  0.39110750642E+03 -0.68504240658E+03 -0.30839412332E+03  0.85218277975E+03  0.94129561857E+02 0.  0.
        254    2    1    2    0    0 -0.39110750642E+03  0.68504240658E+03 -0.49163367217E+03  0.12935729273E+04  0.89965497284E+03 0.  0.
        -24    2    4    4    0    0 -0.51206115232E+03  0.42877676347E+03 -0.66984831417E+03  0.94937208236E+03  0.80959558728E+02 0.  0.
         24    2    4    4    0    0  0.12095364590E+03  0.25626564311E+03  0.17821464200E+03  0.34420084491E+03  0.80074332448E+02 0.  0.
         11    1    3    3    0    0  0.28917423983E+03 -0.44887370196E+03 -0.24372357972E+03  0.58695018920E+03  0.00000000000E+00 0. -1.
        -11    1    3    3    0    0  0.10193326658E+03 -0.23616870463E+03 -0.64670543600E+02  0.26523259055E+03  0.00000000000E+00 0.  1.
          2    1    6    6  502    0  0.11873347578E+03  0.17193989769E+03  0.11280438184E+03  0.23745693346E+03  0.00000000000E+00 0. -1.
          3    1    5    5  503    0 -0.43051267244E+03  0.33458968240E+03 -0.50886806111E+03  0.74581373031E+03  0.00000000000E+00 0. -1.
         -4    1    5    5    0  503 -0.81548479875E+02  0.94187081068E+02 -0.16098025307E+03  0.20355835205E+03  0.00000000000E+00 0.  1.
         -1    1    6    6    0  502  0.22201701240E+01  0.84325745423E+02  0.65410260164E+02  0.10674391145E+03  0.00000000000E+00 0.  1.
<mgrwt>
<rscale>  0 0.19910357E+04</rscale>
<asrwt>0</asrwt>
<pdfrwt beam="1">  1        2 0.22659873E+00 0.19910357E+04</pdfrwt>
<pdfrwt beam="2">  1       -2 0.10351753E+00 0.19910357E+04</pdfrwt>
<totfact> 0.93005459E+00</totfact>
</mgrwt>
</event>
<event>
12    1  0.2019083E-007  0.2080288E+04  0.7818608E-02  0.8569977E-01
          1   -1    0    0  501    0  0.00000000000E+00  0.00000000000E+00  0.16670816228E+04  0.16670816228E+04  0.00000000000E+00 0. -1.
         -1   -1    0    0    0  501 -0.00000000000E+00 -0.00000000000E+00 -0.64897810778E+03  0.64897810778E+03  0.00000000000E+00 0.  1.
         23    2    1    2    0    0 -0.12539482451E+02 -0.56589052105E+03  0.11098399102E+04  0.12487711769E+04  0.85413732296E+02 0.  0.
        254    2    1    2    0    0  0.12539482451E+02  0.56589052105E+03 -0.91736395186E+02  0.10672885536E+04  0.90016663460E+03 0.  0.
        -24    2    4    4    0    0 -0.39165449882E+03  0.16835621923E+03 -0.21033628084E+03  0.48204041290E+03  0.79903351861E+02 0.  0.
         24    2    4    4    0    0  0.40419398127E+03  0.39753430182E+03  0.11859988565E+03  0.58524814072E+03  0.83923523042E+02 0.  0.
         11    1    3    3    0    0 -0.22671663314E+02 -0.69044003008E+02  0.18717909705E+03  0.20079116773E+03  0.00000000000E+00 0. -1.
        -11    1    3    3    0    0  0.10132180863E+02 -0.49684651805E+03  0.92266081315E+03  0.10479800092E+04  0.00000000000E+00 0.  1.
          2    1    6    6  502    0  0.32828815473E+02  0.18555907669E+02  0.27999512680E+02  0.46968346203E+02  0.00000000000E+00 0. -1.
          1    1    5    5  503    0 -0.26380913693E+03  0.13962880675E+03 -0.11445554177E+03  0.31967410819E+03  0.00000000000E+00 0. -1.
         -2    1    5    5    0  503 -0.12784536189E+03  0.28727412483E+02 -0.95880739069E+02  0.16236630472E+03  0.00000000000E+00 0.  1.
         -1    1    6    6    0  502  0.37136516579E+03  0.37897839415E+03  0.90600372973E+02  0.53827979451E+03  0.00000000000E+00 0.  1.
<mgrwt>
<rscale>  0 0.20802879E+04</rscale>
<asrwt>0</asrwt>
<pdfrwt beam="1">  1        1 0.25647409E+00 0.20802879E+04</pdfrwt>
<pdfrwt beam="2">  1       -1 0.99842787E-01 0.20802879E+04</pdfrwt>
<totfact> 0.44228730E+00</totfact>
</mgrwt>
</event>
<event>
12    1  0.2019083E-007  0.3112213E+04  0.7818608E-02  0.8212394E-01
          2   -1    0    0  501    0  0.00000000000E+00  0.00000000000E+00  0.37889886279E+04  0.37889886279E+04  0.00000000000E+00 0. -1.
         -2   -1    0    0    0  501 -0.00000000000E+00 -0.00000000000E+00 -0.63908028590E+03  0.63908028590E+03  0.00000000000E+00 0.  1.
         23    2    1    2    0    0  0.95445348732E+03  0.54888191102E+03  0.15802347577E+03  0.11159786934E+04  0.90466642689E+02 0.  0.
        254    2    1    2    0    0 -0.95445348732E+03 -0.54888191102E+03  0.29918848662E+04  0.33120902204E+04  0.89794975571E+03 0.  0.
        -24    2    4    4    0    0  0.13670205049E+03 -0.23006731119E+03  0.52089946850E+03  0.59099751749E+03  0.79519752890E+02 0.  0.
         24    2    4    4    0    0 -0.10911555378E+04 -0.31881459983E+03  0.24709853977E+04  0.27210927029E+04  0.79457570339E+02 0.  0.
         13    1    3    3    0    0  0.52641464130E+03  0.25774134628E+03  0.60927114197E+02  0.58928353905E+03  0.00000000000E+00 0.  1.
        -13    1    3    3    0    0  0.42803884602E+03  0.29114056474E+03  0.97096361572E+02  0.52669515431E+03  0.00000000000E+00 0. -1.
          4    1    6    6  502    0 -0.12025956802E+02  0.43297076088E+01  0.21783531541E+02  0.25256528886E+02  0.00000000000E+00 0. -1.
          3    1    5    5  503    0  0.37615809341E+02 -0.10117602427E+03  0.28268747911E+03  0.30259502283E+03  0.00000000000E+00 0. -1.
         -4    1    5    5    0  503  0.99086241145E+02 -0.12889128693E+03  0.23821198939E+03  0.28840249465E+03  0.00000000000E+00 0.  1.
         -3    1    6    6    0  502 -0.10791295810E+04 -0.32314430744E+03  0.24492018662E+04  0.26958361741E+04  0.00000000000E+00 0.  1.
<mgrwt>
<rscale>  0 0.31122133E+04</rscale>
<asrwt>0</asrwt>
<pdfrwt beam="1">  1        2 0.58292131E+00 0.31122133E+04</pdfrwt>
<pdfrwt beam="2">  1       -2 0.98320046E-01 0.31122133E+04</pdfrwt>
<totfact> 0.36466813E-01</totfact>
</mgrwt>
</event>
<event>
12    1  0.2019083E-007  0.1864932E+04  0.7818608E-02  0.8672512E-01
         -2   -1    0    0    0  501 -0.00000000000E+00  0.00000000000E+00  0.68211891958E+03  0.68211891958E+03  0.00000000000E+00 0.  1.
          2   -1    0    0  501    0  0.00000000000E+00 -0.00000000000E+00 -0.12746934872E+04  0.12746934872E+04  0.00000000000E+00 0. -1.
         23    2    1    2    0    0 -0.12841895689E+03  0.27329694576E+03  0.44804614285E+03  0.54802723987E+03  0.91683479824E+02 0.  0.
        254    2    1    2    0    0  0.12841895689E+03 -0.27329694576E+03 -0.10406207105E+04  0.14087851669E+04  0.90033412375E+03 0.  0.
        -24    2    4    4    0    0  0.36292176140E+02 -0.59068391458E+03 -0.76503764238E+03  0.97058120415E+03  0.80750669409E+02 0.  0.
         24    2    4    4    0    0  0.92126780745E+02  0.31738696881E+03 -0.27558306807E+03  0.43820396274E+03  0.82794044785E+02 0.  0.
         13    1    3    3    0    0 -0.51403346463E+02  0.13946153974E+03  0.29651788450E+03  0.33168461062E+03  0.00000000000E+00 0.  1.
        -13    1    3    3    0    0 -0.77015610422E+02  0.13383540602E+03  0.15152825835E+03  0.21634262925E+03  0.00000000000E+00 0. -1.
          2    1    6    6  502    0  0.50460790527E+02  0.27535317751E+03 -0.21062379818E+03  0.35032563153E+03  0.00000000000E+00 0. -1.
          3    1    5    5  503    0  0.45872646218E+02 -0.54303258980E+03 -0.66839170779E+03  0.86240139627E+03  0.00000000000E+00 0. -1.
         -4    1    5    5    0  503 -0.95804700779E+01 -0.47651324780E+02 -0.96645934591E+02  0.10817980788E+03  0.00000000000E+00 0.  1.
         -1    1    6    6    0  502  0.41665990218E+02  0.42033791301E+02 -0.64959269884E+02  0.87878331208E+02  0.00000000000E+00 0.  1.
<mgrwt>
<rscale>  0 0.18649317E+04</rscale>
<asrwt>0</asrwt>
<pdfrwt beam="1">  1        2 0.19610669E+00 0.18649317E+04</pdfrwt>
<pdfrwt beam="2">  1       -2 0.10494137E+00 0.18649317E+04</pdfrwt>
<totfact> 0.11827047E+01</totfact>
</mgrwt>
</event>
<event>
12    1  0.2019083E-007  0.2173467E+04  0.7818608E-02  0.8529553E-01
         -1   -1    0    0    0  501 -0.00000000000E+00  0.00000000000E+00  0.76694074937E+03  0.76694074937E+03  0.00000000000E+00 0.  1.
          1   -1    0    0  501    0  0.00000000000E+00 -0.00000000000E+00 -0.15398710429E+04  0.15398710429E+04  0.00000000000E+00 0. -1.
         23    2    1    2    0    0  0.79136812496E+02  0.84127428025E+03  0.17809428152E+01  0.85097788867E+03  0.10077274209E+03 0.  0.
        254    2    1    2    0    0 -0.79136812496E+02 -0.84127428025E+03 -0.77471123637E+03  0.14558339036E+04  0.89736826636E+03 0.  0.
        -24    2    4    4    0    0  0.40833556950E+02 -0.43458042375E+03 -0.90258443694E+03  0.10056918689E+04  0.78930003005E+02 0.  0.
         24    2    4    4    0    0 -0.11997036945E+03 -0.40669385650E+03  0.12787320058E+03  0.45014203467E+03  0.80520267595E+02 0.  0.
         13    1    3    3    0    0  0.11094527338E+01  0.17707313806E+03  0.38456562209E+02  0.18120439919E+03  0.00000000000E+00 0.  1.
        -13    1    3    3    0    0  0.78027359763E+02  0.66420114219E+03 -0.36675619394E+02  0.66977348948E+03  0.00000000000E+00 0. -1.
          2    1    6    6  502    0 -0.98166798218E+02 -0.23167859636E+03  0.46382141069E+02  0.25585737295E+03  0.00000000000E+00 0. -1.
          1    1    5    5  503    0  0.64744655223E+02 -0.32653751465E+03 -0.67304723727E+03  0.75087362615E+03  0.00000000000E+00 0. -1.
         -2    1    5    5    0  503 -0.23911098273E+02 -0.10804290910E+03 -0.22953719968E+03  0.25481824280E+03  0.00000000000E+00 0.  1.
         -1    1    6    6    0  502 -0.21803571229E+02 -0.17501526014E+03  0.81491059509E+02  0.19428466172E+03  0.00000000000E+00 0.  1.
<mgrwt>
<rscale>  0 0.21734671E+04</rscale>
<asrwt>0</asrwt>
<pdfrwt beam="1">  1        1 0.23690323E+00 0.21734671E+04</pdfrwt>
<pdfrwt beam="2">  1       -1 0.11799089E+00 0.21734671E+04</pdfrwt>
<totfact> 0.36191270E+00</totfact>
</mgrwt>
</event>
<event>
12    1  0.2019083E-007  0.3483726E+04  0.7818608E-02  0.8117658E-01
          2   -1    0    0  501    0  0.00000000000E+00  0.00000000000E+00  0.32411446720E+04  0.32411446720E+04  0.00000000000E+00 0.  1.
         -2   -1    0    0    0  501 -0.00000000000E+00 -0.00000000000E+00 -0.93611580218E+03  0.93611580218E+03  0.00000000000E+00 0. -1.
         23    2    1    2    0    0  0.15135550829E+04  0.36704926897E+03  0.16294826357E+04  0.22559497299E+04  0.92311259837E+02 0.  0.
        254    2    1    2    0    0 -0.15135550829E+04 -0.36704926897E+03  0.67554623408E+03  0.19213107443E+04  0.89972112722E+03 0.  0.
        -24    2    4    4    0    0 -0.10020463887E+04 -0.58172552429E+03  0.18439343590E+03  0.11761077022E+04  0.82017297709E+02 0.  0.
         24    2    4    4    0    0 -0.51150869423E+03  0.21467625532E+03  0.49115279819E+03  0.74520304213E+03  0.79808921554E+02 0.  0.
         11    1    3    3    0    0  0.76080878256E+03  0.23073250195E+03  0.84566158245E+03  0.11606941902E+04  0.00000000000E+00 0. -1.
        -11    1    3    3    0    0  0.75274630038E+03  0.13631676702E+03  0.78382105329E+03  0.10952555397E+04  0.00000000000E+00 0.  1.
          4    1    6    6  502    0 -0.35261122469E+03  0.14200992984E+03  0.38350446610E+03  0.53997886206E+03  0.00000000000E+00 0. -1.
          1    1    5    5  503    0 -0.61040505782E+03 -0.39224132376E+03  0.92525923353E+02  0.73144284614E+03  0.00000000000E+00 0. -1.
         -2    1    5    5    0  503 -0.39164133089E+03 -0.18948420053E+03  0.91867512542E+02  0.44466485601E+03  0.00000000000E+00 0.  1.
         -3    1    6    6    0  502 -0.15889746954E+03  0.72666325478E+02  0.10764833209E+03  0.20522418007E+03  0.00000000000E+00 0.  1.
<mgrwt>
<rscale>  0 0.34837260E+04</rscale>
<asrwt>0</asrwt>
<pdfrwt beam="1">  1        2 0.49863764E+00 0.34837260E+04</pdfrwt>
<pdfrwt beam="2">  1       -2 0.14401782E+00 0.34837260E+04</pdfrwt>
<totfact> 0.33409888E-01</totfact>
</mgrwt>
</event>
<event>
12    1  0.2019083E-007  0.1334015E+04  0.7818608E-02  0.9003017E-01
         -2   -1    0    0    0  501 -0.00000000000E+00  0.00000000000E+00  0.25525133799E+03  0.25525133799E+03  0.00000000000E+00 0.  1.
          2   -1    0    0  501    0  0.00000000000E+00 -0.00000000000E+00 -0.17429844634E+04  0.17429844634E+04  0.00000000000E+00 0. -1.
         23    2    1    2    0    0 -0.71885215740E+02  0.34191695808E+03 -0.48845748836E+03  0.60748649332E+03  0.91511918207E+02 0.  0.
        254    2    1    2    0    0  0.71885215740E+02 -0.34191695808E+03 -0.99927563707E+03  0.13907493081E+04  0.90197402880E+03 0.  0.
        -24    2    4    4    0    0  0.26275506810E+03 -0.41970140842E+03 -0.16534587649E+03  0.52800474607E+03  0.79121772941E+02 0.  0.
         24    2    4    4    0    0 -0.19086985236E+03  0.77784450348E+02 -0.83392976058E+03  0.86274456201E+03  0.80047563658E+02 0.  0.
         13    1    3    3    0    0 -0.83018987978E+02  0.17470274380E+03 -0.25245393894E+03  0.31803489170E+03  0.00000000000E+00 0.  1.
        -13    1    3    3    0    0  0.11133772238E+02  0.16721421428E+03 -0.23600354942E+03  0.28945160162E+03  0.00000000000E+00 0. -1.
          2    1    6    6  502    0 -0.18424466233E+03  0.49780267130E+02 -0.75445912916E+03  0.77822409894E+03  0.00000000000E+00 0. -1.
          3    1    5    5  503    0  0.16789844280E+03 -0.21790028669E+03 -0.12164873956E+03  0.30078038146E+03  0.00000000000E+00 0. -1.
         -4    1    5    5    0  503  0.94856625302E+02 -0.20180112173E+03 -0.43697136932E+02  0.22722436461E+03  0.00000000000E+00 0.  1.
         -3    1    6    6    0  502 -0.66251900364E+01  0.28004183218E+02 -0.79470631413E+02  0.84520463072E+02  0.00000000000E+00 0.  1.
<mgrwt>
<rscale>  0 0.13340152E+04</rscale>
<asrwt>0</asrwt>
<pdfrwt beam="1">  1        2 0.26815147E+00 0.13340152E+04</pdfrwt>
<pdfrwt beam="2">  1       -2 0.39269435E-01 0.13340152E+04</pdfrwt>
<totfact> 0.55647493E+01</totfact>
</mgrwt>
</event>
<event>
12    1  0.2019083E-007  0.1977467E+04  0.7818608E-02  0.8617228E-01
         -2   -1    0    0    0  501 -0.00000000000E+00  0.00000000000E+00  0.10631517125E+04  0.10631517125E+04  0.00000000000E+00 0.  1.
          2   -1    0    0  501    0  0.00000000000E+00 -0.00000000000E+00 -0.91952462956E+03  0.91952462956E+03  0.00000000000E+00 0. -1.
         23    2    1    2    0    0 -0.40626341023E+03 -0.61830638863E+03  0.30373770491E+03  0.80542354998E+03  0.95382140723E+02 0.  0.
        254    2    1    2    0    0  0.40626341023E+03  0.61830638863E+03 -0.16011062202E+03  0.11772527920E+04  0.90162962260E+03 0.  0.
        -24    2    4    4    0    0  0.68951320136E+03  0.41792495379E+03 -0.10685579124E+03  0.81716918541E+03  0.79104965855E+02 0.  0.
         24    2    4    4    0    0 -0.28324979113E+03  0.20038143484E+03 -0.53254830780E+02  0.36008360662E+03  0.80255611337E+02 0.  0.
         11    1    3    3    0    0 -0.11284670473E+03 -0.24942535388E+03  0.13017184005E+03  0.30313708758E+03  0.00000000000E+00 0. -1.
        -11    1    3    3    0    0 -0.29341670550E+03 -0.36888103475E+03  0.17356586486E+03  0.50228646240E+03  0.00000000000E+00 0.  1.
          2    1    6    6  502    0 -0.82813384479E+02  0.89203951445E+02  0.10516277274E+02  0.12217198406E+03  0.00000000000E+00 0. -1.
          3    1    5    5  503    0  0.34745051067E+03  0.16548117168E+03 -0.59332760867E+02  0.38939215715E+03  0.00000000000E+00 0. -1.
         -4    1    5    5    0  503  0.34206269069E+03  0.25244378211E+03 -0.47523030369E+02  0.42777702826E+03  0.00000000000E+00 0.  1.
         -1    1    6    6    0  502 -0.20043640665E+03  0.11117748340E+03 -0.63771108054E+02  0.23791162256E+03  0.00000000000E+00 0.  1.
<mgrwt>
<rscale>  0 0.19774673E+04</rscale>
<asrwt>0</asrwt>
<pdfrwt beam="1">  1        2 0.14146533E+00 0.19774673E+04</pdfrwt>
<pdfrwt beam="2">  1       -2 0.16356180E+00 0.19774673E+04</pdfrwt>
<totfact> 0.62775425E+00</totfact>
</mgrwt>
</event>
<event>
12    1  0.2019083E-007  0.1841988E+04  0.7818608E-02  0.8684284E-01
         -2   -1    0    0    0  501 -0.00000000000E+00  0.00000000000E+00  0.67431575934E+03  0.67431575934E+03  0.00000000000E+00 0. -1.
          2   -1    0    0  501    0  0.00000000000E+00 -0.00000000000E+00 -0.12579121667E+04  0.12579121667E+04  0.00000000000E+00 0.  1.
         23    2    1    2    0    0  0.44901658095E+03 -0.81554851764E+01  0.33734269412E+03  0.56886541355E+03  0.90140798489E+02 0.  0.
        254    2    1    2    0    0 -0.44901658095E+03  0.81554851764E+01 -0.92093910148E+03  0.13633625125E+04  0.89941431493E+03 0.  0.
        -24    2    4    4    0    0 -0.67499340963E+03  0.10166844944E+03 -0.85641232393E+03  0.10980909176E+04  0.80056343018E+02 0.  0.
         24    2    4    4    0    0  0.22597682867E+03 -0.93512964265E+02 -0.64526777557E+02  0.26527159490E+03  0.79969447014E+02 0.  0.
         11    1    3    3    0    0  0.25622866733E+03 -0.19683664957E+02  0.24396563482E+03  0.35434419369E+03  0.00000000000E+00 0. -1.
        -11    1    3    3    0    0  0.19278791362E+03  0.11528179780E+02  0.93377059294E+02  0.21452121986E+03  0.00000000000E+00 0.  1.
          4    1    6    6  502    0  0.53528389597E+02  0.48503615111E+01  0.71042579015E+01  0.54215172969E+02  0.00000000000E+00 0. -1.
          1    1    5    5  503    0 -0.14056021988E+03  0.88604207980E+01 -0.22754930831E+03  0.26760861380E+03  0.00000000000E+00 0. -1.
         -2    1    5    5    0  503 -0.53443318975E+03  0.92808028643E+02 -0.62886301562E+03  0.83048230378E+03  0.00000000000E+00 0.  1.
         -3    1    6    6    0  502  0.17244843908E+03 -0.98363325776E+02 -0.71631035458E+02  0.21105642193E+03  0.00000000000E+00 0.  1.
<mgrwt>
<rscale>  0 0.18419881E+04</rscale>
<asrwt>0</asrwt>
<pdfrwt beam="1">  1        2 0.19352495E+00 0.18419881E+04</pdfrwt>
<pdfrwt beam="2">  1       -2 0.10374089E+00 0.18419881E+04</pdfrwt>
<totfact> 0.12460437E+01</totfact>
</mgrwt>
</event>
<event>
12    1  0.2019083E-007  0.2456272E+04  0.7818608E-02  0.8418732E-01
         -2   -1    0    0    0  501 -0.00000000000E+00  0.00000000000E+00  0.53874583936E+03  0.53874583936E+03  0.00000000000E+00 0.  1.
          2   -1    0    0  501    0  0.00000000000E+00 -0.00000000000E+00 -0.27996833765E+04  0.27996833765E+04  0.00000000000E+00 0. -1.
         23    2    1    2    0    0  0.33865700374E+03 -0.88422574960E+03 -0.16311014550E+04  0.18882359603E+04  0.91647929445E+02 0.  0.
        254    2    1    2    0    0 -0.33865700374E+03  0.88422574960E+03 -0.62983608221E+03  0.14501932556E+04  0.89990179779E+03 0.  0.
        -24    2    4    4    0    0  0.70535598732E+02  0.44079941092E+03  0.13367255739E+03  0.47372436378E+03  0.85246870172E+02 0.  0.
         24    2    4    4    0    0 -0.40919260247E+03  0.44342633867E+03 -0.76350863960E+03  0.97646889181E+03  0.80501864501E+02 0.  0.
         13    1    3    3    0    0  0.22053414373E+03 -0.46187802817E+03 -0.91931453036E+03  0.10521909652E+04  0.00000000000E+00 0.  1.
        -13    1    3    3    0    0  0.11812286001E+03 -0.42234772142E+03 -0.71178692459E+03  0.83604499512E+03  0.00000000000E+00 0. -1.
          4    1    6    6  502    0 -0.38032229584E+03  0.43047746785E+03 -0.74132190021E+03  0.93782410866E+03  0.00000000000E+00 0. -1.
          1    1    5    5  503    0  0.52094302510E+02  0.42221097042E+03  0.11246105831E+03  0.44002660094E+03  0.00000000000E+00 0. -1.
         -2    1    5    5    0  503  0.18441296222E+02  0.18588440504E+02  0.21211499087E+02  0.33697762838E+02  0.00000000000E+00 0.  1.
         -3    1    6    6    0  502 -0.28870306635E+02  0.12948870824E+02 -0.22186739387E+02  0.38644783159E+02  0.00000000000E+00 0.  1.
<mgrwt>
<rscale>  0 0.24562718E+04</rscale>
<asrwt>0</asrwt>
<pdfrwt beam="1">  1        2 0.43072052E+00 0.24562718E+04</pdfrwt>
<pdfrwt beam="2">  1       -2 0.82883976E-01 0.24562718E+04</pdfrwt>
<totfact> 0.26422792E+00</totfact>
</mgrwt>
</event>
<event>
12    1  0.2019083E-007  0.1628324E+04  0.7818608E-02  0.8803334E-01
          1   -1    0    0  501    0  0.00000000000E+00  0.00000000000E+00  0.37852601990E+03  0.37852601990E+03  0.00000000000E+00 0. -1.
         -1   -1    0    0    0  501 -0.00000000000E+00 -0.00000000000E+00 -0.17511610484E+04  0.17511610484E+04  0.00000000000E+00 0.  1.
         23    2    1    2    0    0  0.11437635171E+03 -0.41810846686E+03 -0.16210382121E+02  0.44360707986E+03  0.92886085750E+02 0.  0.
        254    2    1    2    0    0 -0.11437635171E+03  0.41810846686E+03 -0.13564246464E+04  0.16860799885E+04  0.90281851235E+03 0.  0.
        -24    2    4    4    0    0  0.34900754915E+03 -0.16583393851E+02 -0.42946385324E+03  0.55939252169E+03  0.79996961036E+02 0.  0.
         24    2    4    4    0    0 -0.46338390086E+03  0.43469186071E+03 -0.92696079317E+03  0.11266874668E+04  0.80539942705E+02 0.  0.
         11    1    3    3    0    0  0.11182711917E+03 -0.32392512010E+03  0.18537950238E+02  0.34318572758E+03  0.00000000000E+00 0. -1.
        -11    1    3    3    0    0  0.25492325440E+01 -0.94183346753E+02 -0.34748332359E+02  0.10042135228E+03  0.00000000000E+00 0.  1.
          2    1    6    6  502    0 -0.33429096914E+03  0.31888691939E+03 -0.60779915684E+03  0.76345211668E+03  0.00000000000E+00 0. -1.
          3    1    5    5  503    0  0.14672871883E+03 -0.26537845750E+02 -0.23699388250E+03  0.27999941880E+03  0.00000000000E+00 0. -1.
         -4    1    5    5    0  503  0.20227883032E+03  0.99544518991E+01 -0.19246997074E+03  0.27939310289E+03  0.00000000000E+00 0.  1.
         -1    1    6    6    0  502 -0.12909293171E+03  0.11580494132E+03 -0.31916163634E+03  0.36323535010E+03  0.00000000000E+00 0.  1.
<mgrwt>
<rscale>  0 0.16283243E+04</rscale>
<asrwt>0</asrwt>
<pdfrwt beam="1">  1        1 0.58234771E-01 0.16283243E+04</pdfrwt>
<pdfrwt beam="2">  1       -1 0.26940940E+00 0.16283243E+04</pdfrwt>
<totfact> 0.32246925E+00</totfact>
</mgrwt>
</event>
<event>
12    1  0.2019083E-007  0.4394116E+04  0.7818608E-02  0.7929441E-01
         -2   -1    0    0    0  501 -0.00000000000E+00  0.00000000000E+00  0.33633965531E+04  0.33633965531E+04  0.00000000000E+00 0.  1.
          2   -1    0    0  501    0  0.00000000000E+00 -0.00000000000E+00 -0.14351753994E+04  0.14351753994E+04  0.00000000000E+00 0. -1.
         23    2    1    2    0    0  0.15872629287E+04 -0.13312460521E+04  0.52293566508E+03  0.21385586768E+04  0.91388447874E+02 0.  0.
        254    2    1    2    0    0 -0.15872629287E+04  0.13312460521E+04  0.14052854885E+04  0.26600132756E+04  0.89956860002E+03 0.  0.
        -24    2    4    4    0    0 -0.12402343674E+04  0.13616734743E+04  0.92764111211E+03  0.20637215716E+04  0.78056106721E+02 0.  0.
         24    2    4    4    0    0 -0.34702856137E+03 -0.30427422212E+02  0.47764437643E+03  0.59629170399E+03  0.77878080933E+02 0.  0.
         11    1    3    3    0    0  0.80843550694E+03 -0.73367443355E+03  0.25855487194E+03  0.11219165589E+04  0.00000000000E+00 0. -1.
        -11    1    3    3    0    0  0.77882742180E+03 -0.59757161852E+03  0.26438079314E+03  0.10166421179E+04  0.00000000000E+00 0.  1.
          2    1    6    6  502    0 -0.34279779024E+03 -0.37080563971E+02  0.44632879548E+03  0.56399883590E+03  0.00000000000E+00 0. -1.
          1    1    5    5  503    0 -0.90082201427E+03  0.10121931013E+04  0.71637150567E+03  0.15327110980E+04  0.00000000000E+00 0. -1.
         -2    1    5    5    0  503 -0.33941235310E+03  0.34948037299E+03  0.21126960644E+03  0.53101047367E+03  0.00000000000E+00 0.  1.
         -1    1    6    6    0  502 -0.42307711221E+01  0.66531417590E+01  0.31315580949E+02  0.32292868094E+02  0.00000000000E+00 0.  1.
<mgrwt>
<rscale>  0 0.43941161E+04</rscale>
<asrwt>0</asrwt>
<pdfrwt beam="1">  1        2 0.22079622E+00 0.43941161E+04</pdfrwt>
<pdfrwt beam="2">  1       -2 0.51744562E+00 0.43941161E+04</pdfrwt>
<totfact> 0.13709406E-02</totfact>
</mgrwt>
</event>
<event>
12    1  0.2019083E-007  0.1698484E+04  0.7818608E-02  0.8762229E-01
         -2   -1    0    0    0  501 -0.00000000000E+00  0.00000000000E+00  0.70337521339E+03  0.70337521339E+03  0.00000000000E+00 0. -1.
          2   -1    0    0  501    0  0.00000000000E+00 -0.00000000000E+00 -0.10253588579E+04  0.10253588579E+04  0.00000000000E+00 0.  1.
         23    2    1    2    0    0 -0.39792755881E+03  0.43016438294E+03  0.44415557962E+02  0.59359631833E+03  0.83642745875E+02 0.  0.
        254    2    1    2    0    0  0.39792755881E+03 -0.43016438294E+03 -0.36639920250E+03  0.11351377530E+04  0.90050075195E+03 0.  0.
        -24    2    4    4    0    0  0.50140725720E+03 -0.39413804744E+01  0.68485544549E+02  0.51231679375E+03  0.79708564708E+02 0.  0.
         24    2    4    4    0    0 -0.10347969840E+03 -0.42622300247E+03 -0.43488474705E+03  0.62282095924E+03  0.80044414186E+02 0.  0.
         13    1    3    3    0    0 -0.14116329362E+03  0.13584330577E+03  0.52893957015E+02  0.20292424665E+03  0.00000000000E+00 0. -1.
        -13    1    3    3    0    0 -0.25676426519E+03  0.29432107717E+03 -0.84783990529E+01  0.39067207168E+03  0.00000000000E+00 0.  1.
          2    1    6    6  502    0 -0.10057119368E+03 -0.25565465843E+03 -0.28293626857E+03  0.39436886470E+03  0.00000000000E+00 0. -1.
          1    1    5    5  503    0  0.48235603079E+03 -0.19873335233E+02  0.67509506856E+02  0.48746263796E+03  0.00000000000E+00 0. -1.
         -2    1    5    5    0  503  0.19051226415E+02  0.15931954759E+02  0.97603769294E+00  0.24854155788E+02  0.00000000000E+00 0.  1.
         -1    1    6    6    0  502 -0.29085047234E+01 -0.17056834404E+03 -0.15194847848E+03  0.22845209454E+03  0.00000000000E+00 0.  1.
<mgrwt>
<rscale>  0 0.16984840E+04</rscale>
<asrwt>0</asrwt>
<pdfrwt beam="1">  1        2 0.15774752E+00 0.16984840E+04</pdfrwt>
<pdfrwt beam="2">  1       -2 0.10821157E+00 0.16984840E+04</pdfrwt>
<totfact> 0.15788024E+01</totfact>
</mgrwt>
</event>
<event>
12    1  0.2019083E-007  0.1936990E+04  0.7818608E-02  0.8636660E-01
         -1   -1    0    0    0  501 -0.00000000000E+00  0.00000000000E+00  0.26346950220E+03  0.26346950220E+03  0.00000000000E+00 0.  1.
          1   -1    0    0  501    0  0.00000000000E+00 -0.00000000000E+00 -0.35601164958E+04  0.35601164958E+04  0.00000000000E+00 0. -1.
         23    2    1    2    0    0 -0.50144402624E+03 -0.56320741956E+03 -0.12256290935E+04  0.14418720819E+04  0.90441787701E+02 0.  0.
        254    2    1    2    0    0  0.50144402624E+03  0.56320741956E+03 -0.20710179001E+04  0.23817139160E+04  0.90266124677E+03 0.  0.
        -24    2    4    4    0    0  0.65246904562E+03  0.39058617847E+03 -0.87884319587E+03  0.11646888304E+04  0.76559065206E+02 0.  0.
         24    2    4    4    0    0 -0.15102501938E+03  0.17262124110E+03 -0.11921747042E+04  0.12170250856E+04  0.85222557410E+02 0.  0.
         13    1    3    3    0    0 -0.48460694476E+03 -0.51233513103E+03 -0.11223516385E+04  0.13255204177E+04  0.00000000000E+00 0. -1.
        -13    1    3    3    0    0 -0.16837081486E+02 -0.50872288527E+02 -0.10327745499E+03  0.11635166420E+03  0.00000000000E+00 0.  1.
          4    1    6    6  502    0  0.56867364810E+01  0.97825642687E+01 -0.15994841630E+03  0.16034816311E+03  0.00000000000E+00 0. -1.
          3    1    5    5  503    0  0.14478299844E+03  0.11679078880E+03 -0.24609743957E+03  0.30849012099E+03  0.00000000000E+00 0. -1.
         -4    1    5    5    0  503  0.50768604718E+03  0.27379538967E+03 -0.63274575629E+03  0.85619870942E+03  0.00000000000E+00 0.  1.
         -1    1    6    6    0  502 -0.15671175586E+03  0.16283867683E+03 -0.10322262879E+04  0.10566769225E+04  0.00000000000E+00 0.  1.
<mgrwt>
<rscale>  0 0.19369895E+04</rscale>
<asrwt>0</asrwt>
<pdfrwt beam="1">  1        1 0.54771025E+00 0.19369895E+04</pdfrwt>
<pdfrwt beam="2">  1       -1 0.40533768E-01 0.19369895E+04</pdfrwt>
<totfact> 0.12481585E+00</totfact>
</mgrwt>
</event>
<event>
12    1  0.2019083E-007  0.3740657E+04  0.7818608E-02  0.8059011E-01
          1   -1    0    0  501    0  0.00000000000E+00  0.00000000000E+00  0.17333141080E+04  0.17333141080E+04  0.00000000000E+00 0. -1.
         -1   -1    0    0    0  501 -0.00000000000E+00 -0.00000000000E+00 -0.20181737702E+04  0.20181737702E+04  0.00000000000E+00 0.  1.
         23    2    1    2    0    0  0.11263773671E+04  0.12446945537E+04 -0.66752798438E+03  0.18088260219E+04  0.90925586406E+02 0.  0.
        254    2    1    2    0    0 -0.11263773671E+04 -0.12446945537E+04  0.38266832217E+03  0.19426618563E+04  0.89972747980E+03 0.  0.
        -24    2    4    4    0    0 -0.11486452478E+04 -0.72630067253E+03  0.15704722585E+03  0.13705009840E+04  0.81917908645E+02 0.  0.
         24    2    4    4    0    0  0.22267880704E+02 -0.51839388115E+03  0.22562109631E+03  0.57216087225E+03  0.85059450468E+02 0.  0.
         13    1    3    3    0    0  0.81478709601E+03  0.94963482099E+03 -0.52046392230E+03  0.13551999851E+04  0.00000000000E+00 0. -1.
        -13    1    3    3    0    0  0.31159027113E+03  0.29505973269E+03 -0.14706406208E+03  0.45362603681E+03  0.00000000000E+00 0.  1.
          4    1    6    6  502    0 -0.26140733192E+02 -0.33836197565E+03  0.14610466414E+03  0.36948442103E+03  0.00000000000E+00 0. -1.
          3    1    5    5  503    0 -0.10734024385E+04 -0.68796718401E+03  0.16545425536E+03  0.12856386552E+04  0.00000000000E+00 0. -1.
         -4    1    5    5    0  503 -0.75242809370E+02 -0.38333488518E+02 -0.84070295099E+01  0.84862328798E+02  0.00000000000E+00 0.  1.
         -3    1    6    6    0  502  0.48408613897E+02 -0.18003190550E+03  0.79516432171E+02  0.20267645122E+03  0.00000000000E+00 0.  1.
<mgrwt>
<rscale>  0 0.37406572E+04</rscale>
<asrwt>0</asrwt>
<pdfrwt beam="1">  1        1 0.26666371E+00 0.37406572E+04</pdfrwt>
<pdfrwt beam="2">  1       -1 0.31048827E+00 0.37406572E+04</pdfrwt>
<totfact> 0.10208108E-01</totfact>
</mgrwt>
</event>
<event>
12    1  0.2019083E-007  0.2584241E+04  0.7818608E-02  0.8373574E-01
         -2   -1    0    0    0  501 -0.00000000000E+00  0.00000000000E+00  0.50496522079E+03  0.50496522079E+03  0.00000000000E+00 0.  1.
          2   -1    0    0  501    0  0.00000000000E+00 -0.00000000000E+00 -0.33063180765E+04  0.33063180765E+04  0.00000000000E+00 0. -1.
         23    2    1    2    0    0  0.75965069674E+03  0.81995452963E+03 -0.15074877145E+04  0.18788633954E+04  0.90630225305E+02 0.  0.
        254    2    1    2    0    0 -0.75965069674E+03 -0.81995452963E+03 -0.12938651412E+04  0.19324199019E+04  0.90042493393E+03 0.  0.
        -24    2    4    4    0    0 -0.73007855889E+03 -0.74810364473E+03 -0.55681624145E+03  0.11870563943E+04  0.79904887918E+02 0.  0.
         24    2    4    4    0    0 -0.29572137843E+02 -0.71850884904E+02 -0.73704889979E+03  0.74536350755E+03  0.79300798841E+02 0.  0.
         13    1    3    3    0    0  0.40105260787E+03  0.40217129969E+03 -0.69802649215E+03  0.89990329054E+03  0.00000000000E+00 0.  1.
        -13    1    3    3    0    0  0.35859808887E+03  0.41778322994E+03 -0.80946122231E+03  0.97896010490E+03  0.00000000000E+00 0. -1.
          4    1    6    6  502    0  0.43473266995E+01 -0.39830508895E+02 -0.11914861713E+03  0.12570505818E+03  0.00000000000E+00 0. -1.
          1    1    5    5  503    0 -0.37410101053E+02 -0.17329759476E+02 -0.27013202260E+02  0.49290458718E+02  0.00000000000E+00 0. -1.
         -2    1    5    5    0  503 -0.69266845784E+03 -0.73077388525E+03 -0.52980303919E+03  0.11377659356E+04  0.00000000000E+00 0.  1.
         -3    1    6    6    0  502 -0.33919464543E+02 -0.32020376010E+02 -0.61790028266E+03  0.61965844936E+03  0.00000000000E+00 0.  1.
<mgrwt>
<rscale>  0 0.25842412E+04</rscale>
<asrwt>0</asrwt>
<pdfrwt beam="1">  1        2 0.50866430E+00 0.25842412E+04</pdfrwt>
<pdfrwt beam="2">  1       -2 0.77686960E-01 0.25842412E+04</pdfrwt>
<totfact> 0.14429660E+00</totfact>
</mgrwt>
</event>
<event>
12    1  0.2019083E-007  0.2840467E+04  0.7818608E-02  0.8290814E-01
         -2   -1    0    0    0  501 -0.00000000000E+00  0.00000000000E+00  0.10380495917E+04  0.10380495917E+04  0.00000000000E+00 0.  1.
          2   -1    0    0  501    0  0.00000000000E+00 -0.00000000000E+00 -0.19431279143E+04  0.19431279143E+04  0.00000000000E+00 0. -1.
         23    2    1    2    0    0 -0.79094016062E+03 -0.45327450886E+03  0.52705792388E+03  0.10570334687E+04  0.92117212522E+02 0.  0.
        254    2    1    2    0    0  0.79094016062E+03  0.45327450886E+03 -0.14321362464E+04  0.19241440373E+04  0.90568864948E+03 0.  0.
        -24    2    4    4    0    0  0.62597185328E+03 -0.15259653290E+03 -0.66073566705E+03  0.92637289465E+03  0.80427950829E+02 0.  0.
         24    2    4    4    0    0  0.16496830734E+03  0.60587104176E+03 -0.77140057935E+03  0.99777114262E+03  0.78702843260E+02 0.  0.
         13    1    3    3    0    0 -0.24398545514E+03 -0.11002175876E+03  0.11703340309E+03  0.29211385992E+03  0.00000000000E+00 0. -1.
        -13    1    3    3    0    0 -0.54695470548E+03 -0.34325275010E+03  0.41002452080E+03  0.76491960882E+03  0.00000000000E+00 0.  1.
          4    1    6    6  502    0  0.40754279994E+02  0.28319276317E+03 -0.37689922015E+03  0.47319348538E+03  0.00000000000E+00 0. -1.
          3    1    5    5  503    0  0.38202993530E+03 -0.78539356621E+02 -0.34629367848E+03  0.52156937579E+03  0.00000000000E+00 0. -1.
         -4    1    5    5    0  503  0.24394191798E+03 -0.74057176281E+02 -0.31444198857E+03  0.40480351886E+03  0.00000000000E+00 0.  1.
         -3    1    6    6    0  502  0.12421402735E+03  0.32267827859E+03 -0.39450135920E+03  0.52457765724E+03  0.00000000000E+00 0.  1.
<mgrwt>
<rscale>  0 0.28404670E+04</rscale>
<asrwt>0</asrwt>
<pdfrwt beam="1">  1        2 0.29894275E+00 0.28404670E+04</pdfrwt>
<pdfrwt beam="2">  1       -2 0.15969994E+00 0.28404670E+04</pdfrwt>
<totfact> 0.15780560E+00</totfact>
</mgrwt>
</event>
<event>
12    1  0.2019083E-007  0.4088764E+04  0.7818608E-02  0.7986876E-01
         -2   -1    0    0    0  501 -0.00000000000E+00  0.00000000000E+00  0.15530205620E+04  0.15530205620E+04  0.00000000000E+00 0.  1.
          2   -1    0    0  501    0  0.00000000000E+00 -0.00000000000E+00 -0.26912052906E+04  0.26912052906E+04  0.00000000000E+00 0. -1.
         23    2    1    2    0    0  0.15543021128E+04  0.70719689295E+03  0.42266730305E+03  0.17615323756E+04  0.91466705165E+02 0.  0.
        254    2    1    2    0    0 -0.15543021128E+04 -0.70719689295E+03 -0.15608520317E+04  0.24826934769E+04  0.90084700830E+03 0.  0.
        -24    2    4    4    0    0 -0.94149061194E+03 -0.17915847086E+03 -0.13231926264E+04  0.16358161098E+04  0.80952384036E+02 0.  0.
         24    2    4    4    0    0 -0.61281150085E+03 -0.52803842208E+03 -0.23765940529E+03  0.84687736713E+03  0.79729362616E+02 0.  0.
         13    1    3    3    0    0  0.12839199113E+04  0.54688500776E+03  0.35529828611E+03  0.14400591732E+04  0.00000000000E+00 0.  1.
        -13    1    3    3    0    0  0.27038220152E+03  0.16031188519E+03  0.67369016938E+02  0.32147320242E+03  0.00000000000E+00 0. -1.
          4    1    6    6  502    0 -0.32013582316E+03 -0.23685048430E+03 -0.88821364445E+02  0.40801266153E+03  0.00000000000E+00 0. -1.
          3    1    5    5  503    0 -0.31011563702E+03 -0.89816124621E+02 -0.40558325297E+03  0.51839793562E+03  0.00000000000E+00 0. -1.
         -4    1    5    5    0  503 -0.63137497492E+03 -0.89342346243E+02 -0.91760937344E+03  0.11174181742E+04  0.00000000000E+00 0.  1.
         -3    1    6    6    0  502 -0.29267567768E+03 -0.29118793779E+03 -0.14883804084E+03  0.43886470560E+03  0.00000000000E+00 0.  1.
<mgrwt>
<rscale>  0 0.40887637E+04</rscale>
<asrwt>0</asrwt>
<pdfrwt beam="1">  1        2 0.41403158E+00 0.40887637E+04</pdfrwt>
<pdfrwt beam="2">  1       -2 0.23892624E+00 0.40887637E+04</pdfrwt>
<totfact> 0.15832975E-01</totfact>
</mgrwt>
</event>
<event>
12    1  0.2019083E-007  0.1953044E+04  0.7818608E-02  0.8628894E-01
          1   -1    0    0  501    0  0.00000000000E+00  0.00000000000E+00  0.99975035341E+03  0.99975035341E+03  0.00000000000E+00 0. -1.
         -1   -1    0    0    0  501 -0.00000000000E+00 -0.00000000000E+00 -0.95383320837E+03  0.95383320837E+03  0.00000000000E+00 0.  1.
         23    2    1    2    0    0  0.53250005497E+03  0.35722309374E+03 -0.40088083418E+03  0.76170680942E+03  0.91253345490E+02 0.  0.
        254    2    1    2    0    0 -0.53250005497E+03 -0.35722309374E+03  0.44679797922E+03  0.11918767524E+04  0.89987616443E+03 0.  0.
        -24    2    4    4    0    0 -0.23524318868E+03 -0.43575018030E+03  0.64519074895E+03  0.81707669427E+03  0.78266495606E+02 0.  0.
         24    2    4    4    0    0 -0.29725686629E+03  0.78527086555E+02 -0.19839276973E+03  0.37480005808E+03  0.81161841908E+02 0.  0.
         11    1    3    3    0    0  0.52970472741E+03  0.34953761308E+03 -0.40468813697E+03  0.75268594341E+03  0.00000000000E+00 0.  1.
        -11    1    3    3    0    0  0.27953275584E+01  0.76854806648E+01  0.38073027867E+01  0.90208660181E+01  0.00000000000E+00 0. -1.
          4    1    6    6  502    0 -0.17153538935E+03  0.45804665603E+01 -0.96393712537E+02  0.19681747456E+03  0.00000000000E+00 0. -1.
          1    1    5    5  503    0 -0.11750237662E+02 -0.56571647359E+02  0.10904654845E+03  0.12340814033E+03  0.00000000000E+00 0. -1.
         -2    1    5    5    0  503 -0.22349295102E+03 -0.37917853294E+03  0.53614420050E+03  0.69366855394E+03  0.00000000000E+00 0.  1.
         -3    1    6    6    0  502 -0.12572147694E+03  0.73946619995E+02 -0.10199905719E+03  0.17798258353E+03  0.00000000000E+00 0.  1.
<mgrwt>
<rscale>  0 0.19530439E+04</rscale>
<asrwt>0</asrwt>
<pdfrwt beam="1">  1        1 0.15380775E+00 0.19530439E+04</pdfrwt>
<pdfrwt beam="2">  1       -1 0.14674357E+00 0.19530439E+04</pdfrwt>
<totfact> 0.52185249E+00</totfact>
</mgrwt>
</event>
<event>
12    1  0.2019083E-007  0.2411326E+04  0.7818608E-02  0.8435275E-01
         -1   -1    0    0    0  501 -0.00000000000E+00  0.00000000000E+00  0.60094360718E+03  0.60094360718E+03  0.00000000000E+00 0.  1.
          1   -1    0    0  501    0  0.00000000000E+00 -0.00000000000E+00 -0.24189009055E+04  0.24189009055E+04  0.00000000000E+00 0. -1.
         23    2    1    2    0    0 -0.95784561633E+02  0.68473175322E+03  0.18240860230E+03  0.72073518069E+03  0.90299758447E+02 0.  0.
        254    2    1    2    0    0  0.95784561633E+02 -0.68473175322E+03 -0.20003659006E+04  0.22991093320E+04  0.89800207570E+03 0.  0.
        -24    2    4    4    0    0 -0.15265343630E+03  0.12308999277E+03 -0.13935632918E+03  0.25363671761E+03  0.80356580951E+02 0.  0.
         24    2    4    4    0    0  0.24843799793E+03 -0.80782174599E+03 -0.18610095715E+04  0.20454726144E+04  0.79398860688E+02 0.  0.
         13    1    3    3    0    0 -0.25914316104E+01  0.32346312148E+03  0.10084548325E+03  0.33882874430E+03  0.00000000000E+00 0. -1.
        -13    1    3    3    0    0 -0.93193130022E+02  0.36126863174E+03  0.81563119050E+02  0.38190643639E+03  0.00000000000E+00 0.  1.
          2    1    6    6  502    0  0.58548133587E+02 -0.30014555173E+03 -0.72080036376E+03  0.78298684572E+03  0.00000000000E+00 0. -1.
          3    1    5    5  503    0 -0.12149859155E+03  0.10793563074E+03 -0.71711397108E+02  0.17763595528E+03  0.00000000000E+00 0. -1.
         -4    1    5    5    0  503 -0.31154844752E+02  0.15154362029E+02 -0.67644932072E+02  0.76000762332E+02  0.00000000000E+00 0.  1.
         -3    1    6    6    0  502  0.18988986435E+03 -0.50767619426E+03 -0.11402092077E+04  0.12624857687E+04  0.00000000000E+00 0.  1.
<mgrwt>
<rscale>  0 0.24113258E+04</rscale>
<asrwt>0</asrwt>
<pdfrwt beam="1">  1        1 0.37213860E+00 0.24113258E+04</pdfrwt>
<pdfrwt beam="2">  1       -1 0.92452862E-01 0.24113258E+04</pdfrwt>
<totfact> 0.15701998E+00</totfact>
</mgrwt>
</event>
<event>
12    1  0.2019083E-007  0.2054097E+04  0.7818608E-02  0.8581738E-01
          1   -1    0    0  501    0  0.00000000000E+00  0.00000000000E+00  0.67075067288E+03  0.67075067288E+03  0.00000000000E+00 0. -1.
         -1   -1    0    0    0  501 -0.00000000000E+00 -0.00000000000E+00 -0.15726091228E+04  0.15726091228E+04  0.00000000000E+00 0.  1.
         23    2    1    2    0    0  0.49504601915E+03 -0.55560853430E+03 -0.75917978250E+03  0.10668648446E+04  0.89862395429E+02 0.  0.
        254    2    1    2    0    0 -0.49504601915E+03  0.55560853430E+03 -0.14267866743E+03  0.11764949510E+04  0.90000653510E+03 0.  0.
        -24    2    4    4    0    0 -0.96697989586E+02  0.71746080751E+03 -0.12198165542E+03  0.73840172609E+03  0.79101664507E+02 0.  0.
         24    2    4    4    0    0 -0.39834802956E+03 -0.16185227321E+03 -0.20697012009E+02  0.43809322495E+03  0.81363360570E+02 0.  0.
         11    1    3    3    0    0  0.36226809543E+02 -0.47749839843E+02 -0.30832380648E+02  0.67402259837E+02  0.00000000000E+00 0. -1.
        -11    1    3    3    0    0  0.45881920961E+03 -0.50785869446E+03 -0.72834740185E+03  0.99946258481E+03  0.00000000000E+00 0.  1.
          2    1    6    6  502    0 -0.45398932316E+02 -0.31737065316E+02  0.21807852863E+02  0.59530553641E+02  0.00000000000E+00 0. -1.
          3    1    5    5  503    0 -0.94559860686E+02  0.52337035327E+03 -0.11522022539E+03  0.54418176584E+03  0.00000000000E+00 0. -1.
         -4    1    5    5    0  503 -0.21381288996E+01  0.19409045425E+03 -0.67614300317E+01  0.19421996025E+03  0.00000000000E+00 0.  1.
         -1    1    6    6    0  502 -0.35294909725E+03 -0.13011520789E+03 -0.42504864872E+02  0.37856267131E+03  0.00000000000E+00 0.  1.
<mgrwt>
<rscale>  0 0.20540970E+04</rscale>
<asrwt>0</asrwt>
<pdfrwt beam="1">  1        1 0.10319241E+00 0.20540970E+04</pdfrwt>
<pdfrwt beam="2">  1       -1 0.24193986E+00 0.20540970E+04</pdfrwt>
<totfact> 0.21123662E+00</totfact>
</mgrwt>
</event>
<event>
12    1  0.2019083E-007  0.1784101E+04  0.7818608E-02  0.8714800E-01
         -2   -1    0    0    0  501 -0.00000000000E+00  0.00000000000E+00  0.10053726658E+04  0.10053726658E+04  0.00000000000E+00 0. -1.
          2   -1    0    0  501    0  0.00000000000E+00 -0.00000000000E+00 -0.79150158658E+03  0.79150158658E+03  0.00000000000E+00 0.  1.
         23    2    1    2    0    0  0.32971154618E+03 -0.49004719749E+03 -0.21985571733E+03  0.63692314708E+03  0.92079310315E+02 0.  0.
        254    2    1    2    0    0 -0.32971154618E+03  0.49004719749E+03  0.43372679657E+03  0.11599511053E+04  0.89917277162E+03 0.  0.
        -24    2    4    4    0    0  0.25444945313E+03  0.11579538968E+03 -0.68753763437E+02  0.29886573426E+03  0.80253041426E+02 0.  0.
         24    2    4    4    0    0 -0.58416099930E+03  0.37425180782E+03  0.50248056000E+03  0.86108537107E+03  0.87594602136E+02 0.  0.
         11    1    3    3    0    0  0.77697875597E+02 -0.13715045731E+03 -0.10126890808E+03  0.18735687753E+03  0.00000000000E+00 0.  1.
        -11    1    3    3    0    0  0.25201367058E+03 -0.35289674018E+03 -0.11858680925E+03  0.44956626955E+03  0.00000000000E+00 0. -1.
          2    1    6    6  502    0 -0.51530339499E+03  0.32227441818E+03  0.47218634900E+03  0.76964819085E+03  0.00000000000E+00 0. -1.
          3    1    5    5  503    0  0.11669871291E+03  0.33244494920E+02  0.65001879821E+01  0.12151558946E+03  0.00000000000E+00 0. -1.
         -4    1    5    5    0  503  0.13775074022E+03  0.82550894759E+02 -0.75253951419E+02  0.17735014480E+03  0.00000000000E+00 0.  1.
         -1    1    6    6    0  502 -0.68857604315E+02  0.51977389640E+02  0.30294211007E+02  0.91437180219E+02  0.00000000000E+00 0.  1.
<mgrwt>
<rscale>  0 0.17841010E+04</rscale>
<asrwt>0</asrwt>
<pdfrwt beam="1">  1        2 0.12176948E+00 0.17841010E+04</pdfrwt>
<pdfrwt beam="2">  1       -2 0.15467272E+00 0.17841010E+04</pdfrwt>
<totfact> 0.91141201E+00</totfact>
</mgrwt>
</event>
<event>
12    1  0.2019083E-007  0.1366068E+04  0.7818608E-02  0.8978753E-01
          2   -1    0    0  501    0  0.00000000000E+00  0.00000000000E+00  0.10772841510E+04  0.10772841510E+04  0.00000000000E+00 0. -1.
         -2   -1    0    0    0  501 -0.00000000000E+00 -0.00000000000E+00 -0.43306625922E+03  0.43306625922E+03  0.00000000000E+00 0.  1.
         23    2    1    2    0    0  0.32891268612E+03 -0.14535792600E+03  0.31368581311E+03  0.48585013050E+03  0.91318553532E+02 0.  0.
        254    2    1    2    0    0 -0.32891268612E+03  0.14535792600E+03  0.33053207871E+03  0.10245002798E+04  0.90057586378E+03 0.  0.
        -24    2    4    4    0    0  0.13651499743E+03  0.40065205138E+03  0.18257842352E+03  0.46783167412E+03  0.79832222686E+02 0.  0.
         24    2    4    4    0    0 -0.46542768355E+03 -0.25529412538E+03  0.14795365520E+03  0.55666860564E+03  0.78686932542E+02 0.  0.
         11    1    3    3    0    0  0.29097870771E+03 -0.14240875914E+03  0.24086719083E+03  0.40369031031E+03  0.00000000000E+00 0.  1.
        -11    1    3    3    0    0  0.37933978417E+02 -0.29491668564E+01  0.72818622274E+02  0.82159820189E+02  0.00000000000E+00 0. -1.
          2    1    6    6  502    0 -0.23807793076E+02  0.44020057126E+01  0.42917837334E+01  0.24588779414E+02  0.00000000000E+00 0. -1.
          3    1    5    5  503    0  0.75953823048E+02  0.11433868859E+03  0.44979764830E+02  0.14444894665E+03  0.00000000000E+00 0. -1.
         -4    1    5    5    0  503  0.60561174380E+02  0.28631336278E+03  0.13759865869E+03  0.32338272746E+03  0.00000000000E+00 0.  1.
         -1    1    6    6    0  502 -0.44161989048E+03 -0.25969613109E+03  0.14366187146E+03  0.53207982623E+03  0.00000000000E+00 0.  1.
<mgrwt>
<rscale>  0 0.13660680E+04</rscale>
<asrwt>0</asrwt>
<pdfrwt beam="1">  1        2 0.16573602E+00 0.13660680E+04</pdfrwt>
<pdfrwt beam="2">  1       -2 0.66625579E-01 0.13660680E+04</pdfrwt>
<totfact> 0.45454504E+01</totfact>
</mgrwt>
</event>
<event>
12    1  0.2019083E-007  0.4454722E+04  0.7818608E-02  0.7918612E-01
          2   -1    0    0  501    0  0.00000000000E+00  0.00000000000E+00  0.17090879559E+04  0.17090879559E+04  0.00000000000E+00 0. -1.
         -2   -1    0    0    0  501 -0.00000000000E+00 -0.00000000000E+00 -0.29027975376E+04  0.29027975376E+04  0.00000000000E+00 0.  1.
         23    2    1    2    0    0 -0.19256872809E+04 -0.15202674990E+03  0.37067316550E+03  0.19689920869E+04  0.90264092022E+02 0.  0.
        254    2    1    2    0    0  0.19256872809E+04  0.15202674990E+03 -0.15643827472E+04  0.26428934066E+04  0.89789116405E+03 0.  0.
        -24    2    4    4    0    0  0.11956230888E+04 -0.23316402342E+03 -0.12727056384E+04  0.17634808488E+04  0.78772012582E+02 0.  0.
         24    2    4    4    0    0  0.73006419206E+03  0.38519077331E+03 -0.29167710881E+03  0.87941255774E+03  0.83218114183E+02 0.  0.
         11    1    3    3    0    0 -0.44454065696E+03 -0.59947445690E+02  0.11564601306E+03  0.46323222284E+03  0.00000000000E+00 0. -1.
        -11    1    3    3    0    0 -0.14811466239E+04 -0.92079304206E+02  0.25502715243E+03  0.15057598641E+04  0.00000000000E+00 0.  1.
          2    1    6    6  502    0  0.50033893829E+03  0.22568502353E+03 -0.17189626249E+03  0.57517050348E+03  0.00000000000E+00 0. -1.
          3    1    5    5  503    0  0.11094555208E+04 -0.22664518501E+03 -0.11553591350E+04  0.16177497715E+04  0.00000000000E+00 0. -1.
         -4    1    5    5    0  503  0.86167567963E+02 -0.65188384045E+01 -0.11734650345E+03  0.14573107731E+03  0.00000000000E+00 0.  1.
         -1    1    6    6    0  502  0.22972525377E+03  0.15950574978E+03 -0.11978084633E+03  0.30424205426E+03  0.00000000000E+00 0.  1.
<mgrwt>
<rscale>  0 0.44547217E+04</rscale>
<asrwt>0</asrwt>
<pdfrwt beam="1">  1        2 0.26293661E+00 0.44547217E+04</pdfrwt>
<pdfrwt beam="2">  1       -2 0.44658424E+00 0.44547217E+04</pdfrwt>
<totfact> 0.26981113E-02</totfact>
</mgrwt>
</event>
<event>
12    1  0.2019083E-007  0.1710732E+04  0.7818608E-02  0.8755267E-01
          1   -1    0    0  501    0  0.00000000000E+00  0.00000000000E+00  0.61992946129E+03  0.61992946129E+03  0.00000000000E+00 0. -1.
         -1   -1    0    0    0  501 -0.00000000000E+00 -0.00000000000E+00 -0.11802161297E+04  0.11802161297E+04  0.00000000000E+00 0.  1.
         23    2    1    2    0    0 -0.22607655232E+03  0.44556591801E+03 -0.57735186519E+03  0.76879577302E+03  0.89845253492E+02 0.  0.
        254    2    1    2    0    0  0.22607655232E+03 -0.44556591801E+03  0.17065196820E+02  0.10313498179E+04  0.90208183176E+03 0.  0.
        -24    2    4    4    0    0  0.56286768291E+03 -0.34045190160E+03 -0.44823503779E+02  0.66422532275E+03  0.80365459822E+02 0.  0.
         24    2    4    4    0    0 -0.33679113059E+03 -0.10511401641E+03  0.61888700600E+02  0.36712449517E+03  0.80454717689E+02 0.  0.
         11    1    3    3    0    0 -0.15643718560E+03  0.34437918033E+03 -0.48531897560E+03  0.61530815122E+03  0.00000000000E+00 0.  1.
        -11    1    3    3    0    0 -0.69639366710E+02  0.10118673768E+03 -0.92032889587E+02  0.15348762179E+03  0.00000000000E+00 0. -1.
          2    1    6    6  502    0 -0.26975658491E+03 -0.50935778325E+02  0.34479382814E+02  0.27668013383E+03  0.00000000000E+00 0. -1.
          1    1    5    5  503    0  0.41890437190E+03 -0.25104464976E+03  0.21309042873E+01  0.48837365789E+03  0.00000000000E+00 0. -1.
         -2    1    5    5    0  503  0.14396331100E+03 -0.89407251841E+02 -0.46954408067E+02  0.17585166486E+03  0.00000000000E+00 0.  1.
         -1    1    6    6    0  502 -0.67034545685E+02 -0.54178238083E+02  0.27409317786E+02  0.90444361341E+02  0.00000000000E+00 0.  1.
<mgrwt>
<rscale>  0 0.17107317E+04</rscale>
<asrwt>0</asrwt>
<pdfrwt beam="1">  1        1 0.95373763E-01 0.17107317E+04</pdfrwt>
<pdfrwt beam="2">  1       -1 0.18157171E+00 0.17107317E+04</pdfrwt>
<totfact> 0.62952912E+00</totfact>
</mgrwt>
</event>
<event>
12    1  0.2019083E-007  0.2520783E+04  0.7818608E-02  0.8395619E-01
          2   -1    0    0  501    0  0.00000000000E+00  0.00000000000E+00  0.18346980455E+04  0.18346980455E+04  0.00000000000E+00 0. -1.
         -2   -1    0    0    0  501 -0.00000000000E+00 -0.00000000000E+00 -0.86585740683E+03  0.86585740683E+03  0.00000000000E+00 0.  1.
         23    2    1    2    0    0  0.53727168592E+03  0.57807815063E+03 -0.39647417866E+03  0.88560693653E+03  0.65365579311E+02 0.  0.
        254    2    1    2    0    0 -0.53727168592E+03 -0.57807815063E+03  0.13653148173E+04  0.18149485158E+04  0.89839765799E+03 0.  0.
        -24    2    4    4    0    0 -0.78212608493E+03 -0.45534474772E+03  0.10772680482E+04  0.14092400171E+04  0.79943268585E+02 0.  0.
         24    2    4    4    0    0  0.24485439901E+03 -0.12273340291E+03  0.28804676915E+03  0.40570849870E+03  0.81309776743E+02 0.  0.
         11    1    3    3    0    0  0.40856234182E+03  0.43717583289E+03 -0.33119190981E+03  0.68391079618E+03  0.00000000000E+00 0.  1.
        -11    1    3    3    0    0  0.12870934410E+03  0.14090231775E+03 -0.65282268848E+02  0.20169614034E+03  0.00000000000E+00 0. -1.
          2    1    6    6  502    0  0.20890060255E+03 -0.86245749923E+02  0.19071329896E+03  0.29571836860E+03  0.00000000000E+00 0. -1.
          1    1    5    5  503    0 -0.39115205712E+03 -0.27355277937E+03  0.57374255732E+03  0.74633208224E+03  0.00000000000E+00 0. -1.
         -2    1    5    5    0  503 -0.39097402780E+03 -0.18179196835E+03  0.50352549088E+03  0.66290793489E+03  0.00000000000E+00 0.  1.
         -1    1    6    6    0  502  0.35953796458E+02 -0.36487652986E+02  0.97333470189E+02  0.10999013010E+03  0.00000000000E+00 0.  1.
<mgrwt>
<rscale>  0 0.25207831E+04</rscale>
<asrwt>0</asrwt>
<pdfrwt beam="1">  1        2 0.28226124E+00 0.25207831E+04</pdfrwt>
<pdfrwt beam="2">  1       -2 0.13320883E+00 0.25207831E+04</pdfrwt>
<totfact> 0.30003382E+00</totfact>
</mgrwt>
</event>
<event>
12    1  0.2019083E-007  0.4143742E+04  0.7818608E-02  0.7976161E-01
         -2   -1    0    0    0  501 -0.00000000000E+00  0.00000000000E+00  0.22357158405E+04  0.22357158405E+04  0.00000000000E+00 0.  1.
          2   -1    0    0  501    0  0.00000000000E+00 -0.00000000000E+00 -0.19200340165E+04  0.19200340165E+04  0.00000000000E+00 0. -1.
         23    2    1    2    0    0 -0.24777746673E+03 -0.19440310414E+04  0.37566885283E+03  0.19975209621E+04  0.91173153826E+02 0.  0.
        254    2    1    2    0    0  0.24777746673E+03  0.19440310414E+04 -0.59987028777E+02  0.21582288949E+04  0.90205496280E+03 0.  0.
        -24    2    4    4    0    0 -0.57018992924E+02  0.84394094388E+03 -0.43452072190E+03  0.95408130172E+03  0.77300648161E+02 0.  0.
         24    2    4    4    0    0  0.30479645965E+03  0.11000900975E+04  0.37453369312E+03  0.12041475931E+04  0.81220897860E+02 0.  0.
         13    1    3    3    0    0 -0.90533372211E+02 -0.84281990674E+03  0.20522384444E+03  0.87215739005E+03  0.00000000000E+00 0.  1.
        -13    1    3    3    0    0 -0.15724409451E+03 -0.11012111347E+04  0.17044500839E+03  0.11253635721E+04  0.00000000000E+00 0. -1.
          2    1    6    6  502    0  0.15717474020E+02  0.50984121661E+02  0.18073856662E+00  0.53352153823E+02  0.00000000000E+00 0. -1.
          1    1    5    5  503    0 -0.39480486836E+02  0.15897537931E+03 -0.72473020838E+02  0.17912068227E+03  0.00000000000E+00 0. -1.
         -2    1    5    5    0  503 -0.17538506088E+02  0.68496556458E+03 -0.36204770106E+03  0.77496061945E+03  0.00000000000E+00 0.  1.
         -1    1    6    6    0  502  0.28907898563E+03  0.10491059759E+04  0.37435295456E+03  0.11507954393E+04  0.00000000000E+00 0.  1.
<mgrwt>
<rscale>  0 0.41437425E+04</rscale>
<asrwt>0</asrwt>
<pdfrwt beam="1">  1        2 0.29538985E+00 0.41437425E+04</pdfrwt>
<pdfrwt beam="2">  1       -2 0.34395628E+00 0.41437425E+04</pdfrwt>
<totfact> 0.98000180E-02</totfact>
</mgrwt>
</event>
<event>
12    1  0.2019083E-007  0.2955620E+04  0.7818608E-02  0.8256519E-01
         -2   -1    0    0    0  501 -0.00000000000E+00  0.00000000000E+00  0.18087340905E+04  0.18087340905E+04  0.00000000000E+00 0.  1.
          2   -1    0    0  501    0  0.00000000000E+00 -0.00000000000E+00 -0.12074314481E+04  0.12074314481E+04  0.00000000000E+00 0. -1.
         23    2    1    2    0    0  0.73151893702E+03  0.11267460722E+04  0.34593823058E+03  0.13901452045E+04  0.90298193471E+02 0.  0.
        254    2    1    2    0    0 -0.73151893702E+03 -0.11267460722E+04  0.25536441181E+03  0.16260203341E+04  0.87980365850E+03 0.  0.
        -24    2    4    4    0    0 -0.30594251137E+03 -0.10070795634E+04 -0.89084234558E+02  0.10595592622E+04  0.83185106303E+02 0.  0.
         24    2    4    4    0    0 -0.42557642566E+03 -0.11966650880E+03  0.34444864637E+03  0.56646107190E+03  0.82449430472E+02 0.  0.
         11    1    3    3    0    0  0.68731289633E+03  0.10125061953E+04  0.30811286640E+03  0.12619434819E+04  0.00000000000E+00 0.  1.
        -11    1    3    3    0    0  0.44206040689E+02  0.11423987690E+03  0.37825364185E+02  0.12820172262E+03  0.00000000000E+00 0. -1.
          4    1    6    6  502    0 -0.39580672646E+03 -0.90081697402E+02  0.29616005516E+03  0.50248229341E+03  0.00000000000E+00 0. -1.
          3    1    5    5  503    0 -0.29609977253E+03 -0.10017723120E+04 -0.88591108947E+02  0.10483659786E+04  0.00000000000E+00 0. -1.
         -4    1    5    5    0  503 -0.98427388329E+01 -0.53072513852E+01 -0.49312561029E+00  0.11193283605E+02  0.00000000000E+00 0.  1.
         -3    1    6    6    0  502 -0.29769699196E+02 -0.29584811398E+02  0.48288591205E+02  0.63978778483E+02  0.00000000000E+00 0.  1.
<mgrwt>
<rscale>  0 0.29556200E+04</rscale>
<asrwt>0</asrwt>
<pdfrwt beam="1">  1        2 0.18575869E+00 0.29556200E+04</pdfrwt>
<pdfrwt beam="2">  1       -2 0.27826678E+00 0.29556200E+04</pdfrwt>
<totfact> 0.69500668E-01</totfact>
</mgrwt>
</event>
<event>
12    1  0.2019083E-007  0.1946029E+04  0.7818608E-02  0.8632278E-01
         -2   -1    0    0    0  501 -0.00000000000E+00  0.00000000000E+00  0.65096600343E+03  0.65096600343E+03  0.00000000000E+00 0. -1.
          2   -1    0    0  501    0  0.00000000000E+00 -0.00000000000E+00 -0.14543883979E+04  0.14543883979E+04  0.00000000000E+00 0.  1.
         23    2    1    2    0    0  0.43404828497E+03 -0.61556647569E+03 -0.43973748834E+03  0.87685486551E+03  0.90473182889E+02 0.  0.
        254    2    1    2    0    0 -0.43404828497E+03  0.61556647569E+03 -0.36368490615E+03  0.12284995359E+04  0.89979130856E+03 0.  0.
        -24    2    4    4    0    0  0.85815157485E+02  0.23544600258E+02 -0.41799805381E+03  0.43487433875E+03  0.80465694960E+02 0.  0.
         24    2    4    4    0    0 -0.51986344246E+03  0.59202187543E+03  0.54313147651E+02  0.79362519711E+03  0.78378158167E+02 0.  0.
         13    1    3    3    0    0  0.47674453369E+02 -0.12746174895E+03 -0.81008965800E+02  0.15837235709E+03  0.00000000000E+00 0.  1.
        -13    1    3    3    0    0  0.38637383161E+03 -0.48810472674E+03 -0.35872852254E+03  0.71848250842E+03  0.00000000000E+00 0. -1.
          4    1    6    6  502    0 -0.21593936007E+03  0.24771311243E+03 -0.16026640241E+02  0.32901131667E+03  0.00000000000E+00 0. -1.
          3    1    5    5  503    0  0.52320018705E+02 -0.12895460601E+02 -0.10533574869E+03  0.11831862581E+03  0.00000000000E+00 0. -1.
         -4    1    5    5    0  503  0.33495138780E+02  0.36440060859E+02 -0.31266230511E+03  0.31655571294E+03  0.00000000000E+00 0.  1.
         -3    1    6    6    0  502 -0.30392408239E+03  0.34430876301E+03  0.70339787892E+02  0.46461388044E+03  0.00000000000E+00 0.  1.
<mgrwt>
<rscale>  0 0.19460292E+04</rscale>
<asrwt>0</asrwt>
<pdfrwt beam="1">  1        2 0.22375206E+00 0.19460292E+04</pdfrwt>
<pdfrwt beam="2">  1       -2 0.10014862E+00 0.19460292E+04</pdfrwt>
<totfact> 0.10348795E+01</totfact>
</mgrwt>
</event>
<event>
12    1  0.2019083E-007  0.1832948E+04  0.7818608E-02  0.8688972E-01
         -2   -1    0    0    0  501 -0.00000000000E+00  0.00000000000E+00  0.81591523312E+03  0.81591523312E+03  0.00000000000E+00 0.  1.
          2   -1    0    0  501    0  0.00000000000E+00 -0.00000000000E+00 -0.10294263752E+04  0.10294263752E+04  0.00000000000E+00 0. -1.
         23    2    1    2    0    0  0.61978764585E+03  0.18632479074E+03 -0.32927722054E+03  0.73174466567E+03  0.90405277434E+02 0.  0.
        254    2    1    2    0    0 -0.61978764585E+03 -0.18632479074E+03  0.11576607849E+03  0.11135969426E+04  0.89880070765E+03 0.  0.
        -24    2    4    4    0    0 -0.46103236901E+03 -0.52169908739E+03  0.19203767457E+03  0.72681085643E+03  0.81576770637E+02 0.  0.
         24    2    4    4    0    0 -0.15875527684E+03  0.33537429666E+03 -0.76271596079E+02  0.38678608618E+03  0.78147062084E+02 0.  0.
         13    1    3    3    0    0  0.37403737929E+03  0.14652226233E+03 -0.23590236949E+03  0.46585691193E+03  0.00000000000E+00 0. -1.
        -13    1    3    3    0    0  0.24575026656E+03  0.39802528408E+02 -0.93374851045E+02  0.26588775374E+03  0.00000000000E+00 0.  1.
          4    1    6    6  502    0 -0.12876949470E+03  0.25260412287E+03 -0.24337782133E+02  0.28457468843E+03  0.00000000000E+00 0. -1.
          1    1    5    5  503    0 -0.35638350556E+03 -0.36509704687E+03  0.11308789737E+03  0.52258389680E+03  0.00000000000E+00 0. -1.
         -2    1    5    5    0  503 -0.10464886345E+03 -0.15660204052E+03  0.78949777205E+02  0.20422695963E+03  0.00000000000E+00 0.  1.
         -1    1    6    6    0  502 -0.29985782141E+02  0.82770173790E+02 -0.51933813946E+02  0.10221139775E+03  0.00000000000E+00 0.  1.
<mgrwt>
<rscale>  0 0.18329481E+04</rscale>
<asrwt>0</asrwt>
<pdfrwt beam="1">  1        2 0.15837329E+00 0.18329481E+04</pdfrwt>
<pdfrwt beam="2">  1       -2 0.12552542E+00 0.18329481E+04</pdfrwt>
<totfact> 0.10776167E+01</totfact>
</mgrwt>
</event>
<event>
12    1  0.2083162E-007  0.2460303E+04  0.7818608E-02  0.8417266E-01
          1   -1    0    0  501    0  0.00000000000E+00  0.00000000000E+00  0.23480909154E+04  0.23480909154E+04  0.00000000000E+00 0. -1.
         -1   -1    0    0    0  501 -0.00000000000E+00 -0.00000000000E+00 -0.64446913962E+03  0.64446913962E+03  0.00000000000E+00 0.  1.
         23    2    1    2    0    0 -0.95644340858E+03 -0.86297108100E+02  0.12942483089E+04  0.16141230940E+04  0.89908246221E+02 0.  0.
        254    2    1    2    0    0  0.95644340858E+03  0.86297108100E+02  0.40937346692E+03  0.13784369611E+04  0.90015034052E+03 0.  0.
        -24    2    4    4    0    0  0.18165869073E+03 -0.33888927604E+03  0.27805782385E+03  0.48116460411E+03  0.79733314899E+02 0.  0.
         24    2    4    4    0    0  0.77478471785E+03  0.42518638414E+03  0.13131564307E+03  0.89727235697E+03  0.82335072596E+02 0.  0.
         11    1    3    3    0    0 -0.30816465113E+03  0.76474248484E+01  0.45258869506E+03  0.54759516270E+03  0.00000000000E+00 0. -1.
        -11    1    3    3    0    0 -0.64827875745E+03 -0.93944532949E+02  0.84165961383E+03  0.10665279313E+04  0.00000000000E+00 0.  1.
          2    1    6    6  502    0  0.69695655830E+03  0.40795839786E+03  0.12641096463E+03  0.81740946320E+03  0.00000000000E+00 0. -1.
          3    1    5    5  503    0  0.17517191902E+03 -0.33175825124E+03  0.28337107355E+03  0.47015731814E+03  0.00000000000E+00 0. -1.
         -4    1    5    5    0  503  0.64867717124E+01 -0.71310248046E+01 -0.53132496958E+01  0.11007285966E+02  0.00000000000E+00 0.  1.
         -1    1    6    6    0  502  0.77828159550E+02  0.17227986283E+02  0.49046784381E+01  0.79862893767E+02  0.00000000000E+00 0.  1.
<mgrwt>
<rscale>  0 0.24603025E+04</rscale>
<asrwt>0</asrwt>
<pdfrwt beam="1">  1        1 0.36124475E+00 0.24603025E+04</pdfrwt>
<pdfrwt beam="2">  1       -1 0.99149100E-01 0.24603025E+04</pdfrwt>
<totfact> 0.14941196E+00</totfact>
</mgrwt>
</event>
<event>
12    1  0.2019083E-007  0.2276436E+04  0.7818608E-02  0.8487270E-01
         -2   -1    0    0    0  501 -0.00000000000E+00  0.00000000000E+00  0.58297465419E+03  0.58297465419E+03  0.00000000000E+00 0.  1.
          2   -1    0    0  501    0  0.00000000000E+00 -0.00000000000E+00 -0.22222933029E+04  0.22222933029E+04  0.00000000000E+00 0. -1.
         23    2    1    2    0    0 -0.87337384255E+03 -0.25414509545E+03 -0.10693145076E+04  0.14068384663E+04  0.91593426441E+02 0.  0.
        254    2    1    2    0    0  0.87337384255E+03  0.25414509545E+03 -0.57000414115E+03  0.13984294908E+04  0.89628607121E+03 0.  0.
        -24    2    4    4    0    0  0.18590347804E+03  0.92242262100E+02 -0.64652566871E+03  0.68368643334E+03  0.79768168940E+02 0.  0.
         24    2    4    4    0    0  0.68747036450E+03  0.16190283335E+03  0.76521527554E+02  0.71474305747E+03  0.78575215570E+02 0.  0.
         13    1    3    3    0    0 -0.40121361629E+03 -0.11186607429E+03 -0.42021771864E+03  0.59166655773E+03  0.00000000000E+00 0.  1.
        -13    1    3    3    0    0 -0.47216022626E+03 -0.14227902116E+03 -0.64909678896E+03  0.81517190859E+03  0.00000000000E+00 0. -1.
          2    1    6    6  502    0  0.53984197909E+03  0.15978080639E+03  0.60632853821E+02  0.56624695270E+03  0.00000000000E+00 0. -1.
          3    1    5    5  503    0  0.17102230707E+03  0.10248775564E+03 -0.62233828697E+03  0.65349622263E+03  0.00000000000E+00 0. -1.
         -4    1    5    5    0  503  0.14881170971E+02 -0.10245493537E+02 -0.24187381739E+02  0.30190210709E+02  0.00000000000E+00 0.  1.
         -1    1    6    6    0  502  0.14762838542E+03  0.21220269562E+01  0.15888673733E+02  0.14849610477E+03  0.00000000000E+00 0.  1.
<mgrwt>
<rscale>  0 0.22764364E+04</rscale>
<asrwt>0</asrwt>
<pdfrwt beam="1">  1        2 0.34189128E+00 0.22764364E+04</pdfrwt>
<pdfrwt beam="2">  1       -2 0.89688407E-01 0.22764364E+04</pdfrwt>
<totfact> 0.48538202E+00</totfact>
</mgrwt>
</event>
<event>
12    1  0.2019083E-007  0.4406983E+04  0.7818608E-02  0.7927127E-01
         -2   -1    0    0    0  501 -0.00000000000E+00  0.00000000000E+00  0.14372949963E+04  0.14372949963E+04  0.00000000000E+00 0.  1.
          2   -1    0    0  501    0  0.00000000000E+00 -0.00000000000E+00 -0.33781340253E+04  0.33781340253E+04  0.00000000000E+00 0. -1.
         23    2    1    2    0    0  0.60069388098E+03 -0.14146331299E+04  0.65072778796E+03  0.16713607859E+04  0.89331919587E+02 0.  0.
        254    2    1    2    0    0 -0.60069388098E+03  0.14146331299E+04 -0.25915668170E+04  0.31440682357E+04  0.89829086233E+03 0.  0.
        -24    2    4    4    0    0 -0.81629076990E+03  0.11996200618E+04 -0.22596863935E+04  0.26866046022E+04  0.79011254068E+02 0.  0.
         24    2    4    4    0    0  0.21559688892E+03  0.21501306811E+03 -0.33188042347E+03  0.45746363348E+03  0.80098205359E+02 0.  0.
         11    1    3    3    0    0  0.47009162573E+03 -0.10045802147E+04  0.46754550606E+03  0.12036471013E+04  0.00000000000E+00 0. -1.
        -11    1    3    3    0    0  0.13060225526E+03 -0.41005291521E+03  0.18318228189E+03  0.46771368459E+03  0.00000000000E+00 0.  1.
          2    1    6    6  502    0  0.14284971162E+03  0.13080109323E+03 -0.15315097772E+03  0.24692142085E+03  0.00000000000E+00 0. -1.
          1    1    5    5  503    0 -0.80674470898E+03  0.11689479574E+04 -0.22211688951E+04  0.26364498124E+04  0.00000000000E+00 0. -1.
         -2    1    5    5    0  503 -0.95460609216E+01  0.30672104352E+02 -0.38517498340E+02  0.50154789830E+02  0.00000000000E+00 0.  1.
         -1    1    6    6    0  502  0.72747177307E+02  0.84211974880E+02 -0.17872944576E+03  0.21054221263E+03  0.00000000000E+00 0.  1.
<mgrwt>
<rscale>  0 0.44069832E+04</rscale>
<asrwt>0</asrwt>
<pdfrwt beam="1">  1        2 0.51971293E+00 0.44069832E+04</pdfrwt>
<pdfrwt beam="2">  1       -2 0.22112231E+00 0.44069832E+04</pdfrwt>
<totfact> 0.73131032E-02</totfact>
</mgrwt>
</event>
<event>
12    1  0.2019083E-007  0.1882731E+04  0.7818608E-02  0.8663500E-01
         -2   -1    0    0    0  501 -0.00000000000E+00  0.00000000000E+00  0.24358543537E+03  0.24358543537E+03  0.00000000000E+00 0.  1.
          2   -1    0    0  501    0  0.00000000000E+00 -0.00000000000E+00 -0.36380199951E+04  0.36380199951E+04  0.00000000000E+00 0. -1.
         23    2    1    2    0    0 -0.57526754975E+03 -0.38291746623E+03 -0.87366803947E+03  0.11179389459E+04  0.94515098513E+02 0.  0.
        254    2    1    2    0    0  0.57526754975E+03  0.38291746623E+03 -0.25207665203E+04  0.27636664846E+04  0.89779176232E+03 0.  0.
        -24    2    4    4    0    0  0.33217412564E+02 -0.20835802260E+03 -0.18222965087E+03  0.29022828577E+03  0.80674346135E+02 0.  0.
         24    2    4    4    0    0  0.54205013719E+03  0.59127548884E+03 -0.23385368694E+04  0.24734381988E+04  0.75609383201E+02 0.  0.
         13    1    3    3    0    0 -0.24583529776E+03 -0.20360294696E+03 -0.34855730686E+03  0.47263236221E+03  0.00000000000E+00 0. -1.
        -13    1    3    3    0    0 -0.32943225199E+03 -0.17931451927E+03 -0.52511073261E+03  0.64530658370E+03  0.00000000000E+00 0.  1.
          4    1    6    6  502    0  0.38721522504E+03  0.39577735791E+03 -0.17016464627E+04  0.17894624979E+04  0.00000000000E+00 0. -1.
          3    1    5    5  503    0  0.51976073375E+02 -0.18328111282E+03 -0.17360800325E+03  0.25774642056E+03  0.00000000000E+00 0. -1.
         -4    1    5    5    0  503 -0.18758660812E+02 -0.25076909787E+02 -0.86216476211E+01  0.32481865211E+02  0.00000000000E+00 0.  1.
         -3    1    6    6    0  502  0.15483491214E+03  0.19549813093E+03 -0.63689040672E+03  0.68397570088E+03  0.00000000000E+00 0.  1.
<mgrwt>
<rscale>  0 0.18827307E+04</rscale>
<asrwt>0</asrwt>
<pdfrwt beam="1">  1        2 0.55969536E+00 0.18827307E+04</pdfrwt>
<pdfrwt beam="2">  1       -2 0.37474684E-01 0.18827307E+04</pdfrwt>
<totfact> 0.41164773E+00</totfact>
</mgrwt>
</event>
<event>
12    1  0.2019083E-007  0.1900558E+04  0.7818608E-02  0.8654579E-01
         -2   -1    0    0    0  501 -0.00000000000E+00  0.00000000000E+00  0.42944442528E+03  0.42944442528E+03  0.00000000000E+00 0.  1.
          2   -1    0    0  501    0  0.00000000000E+00 -0.00000000000E+00 -0.21027861190E+04  0.21027861190E+04  0.00000000000E+00 0. -1.
         23    2    1    2    0    0 -0.10223026836E+03 -0.52096539124E+03  0.23861144396E+02  0.53931216761E+03  0.91827519205E+02 0.  0.
        254    2    1    2    0    0  0.10223026836E+03  0.52096539124E+03 -0.16972028382E+04  0.19929183767E+04  0.89965005179E+03 0.  0.
        -24    2    4    4    0    0 -0.33528050879E+03  0.42177710221E+03 -0.12047381663E+04  0.13220172999E+04  0.77632134376E+02 0.  0.
         24    2    4    4    0    0  0.43751077715E+03  0.99188289029E+02 -0.49246467185E+03  0.67090107682E+03  0.79578923431E+02 0.  0.
         11    1    3    3    0    0 -0.15753794286E+02 -0.13965672503E+03 -0.32575750250E+02  0.14426836931E+03  0.00000000000E+00 0. -1.
        -11    1    3    3    0    0 -0.86476474077E+02 -0.38130866622E+03  0.56436894646E+02  0.39504379830E+03  0.00000000000E+00 0.  1.
          2    1    6    6  502    0  0.92943599281E+01  0.13210835799E+02 -0.34289171253E+02  0.37903279201E+02  0.00000000000E+00 0. -1.
          1    1    5    5  503    0 -0.47318628191E+02  0.51776434728E+02 -0.10245466994E+03  0.12416445208E+03  0.00000000000E+00 0. -1.
         -2    1    5    5    0  503 -0.28796188060E+03  0.37000066749E+03 -0.11022834964E+04  0.11978528478E+04  0.00000000000E+00 0.  1.
         -1    1    6    6    0  502  0.42821641723E+03  0.85977453230E+02 -0.45817550060E+03  0.63299779762E+03  0.00000000000E+00 0.  1.
<mgrwt>
<rscale>  0 0.19005576E+04</rscale>
<asrwt>0</asrwt>
<pdfrwt beam="1">  1        2 0.32350555E+00 0.19005576E+04</pdfrwt>
<pdfrwt beam="2">  1       -2 0.66068374E-01 0.19005576E+04</pdfrwt>
<totfact> 0.11557280E+01</totfact>
</mgrwt>
</event>
<event>
12    1  0.2019083E-007  0.2509079E+04  0.7818608E-02  0.8399758E-01
          2   -1    0    0  501    0  0.00000000000E+00  0.00000000000E+00  0.32546719846E+04  0.32546719846E+04  0.00000000000E+00 0. -1.
         -2   -1    0    0    0  501 -0.00000000000E+00 -0.00000000000E+00 -0.48357236401E+03  0.48357236401E+03  0.00000000000E+00 0.  1.
         23    2    1    2    0    0  0.75869142510E+03 -0.68597788073E+03  0.17686996351E+04  0.20452443599E+04  0.92454103498E+02 0.  0.
        254    2    1    2    0    0 -0.75869142510E+03  0.68597788073E+03  0.10023999855E+04  0.16929999887E+04  0.90292020656E+03 0.  0.
        -24    2    4    4    0    0 -0.85894052086E+03  0.25854619380E+03  0.79395417929E+03  0.12006696918E+04  0.81360416292E+02 0.  0.
         24    2    4    4    0    0  0.10024909576E+03  0.42743168693E+03  0.20844580622E+03  0.49233029688E+03  0.78687603233E+02 0.  0.
         11    1    3    3    0    0  0.23427984593E+03 -0.27074941989E+03  0.60590614973E+03  0.70378587429E+03  0.00000000000E+00 0. -1.
        -11    1    3    3    0    0  0.52441157917E+03 -0.41522846085E+03  0.11627934854E+04  0.13414584857E+04  0.00000000000E+00 0.  1.
          2    1    6    6  502    0  0.75635545815E+02  0.40719851381E+03  0.19374942977E+03  0.45724195670E+03  0.00000000000E+00 0. -1.
          1    1    5    5  503    0 -0.43603285273E+03  0.88771300581E+02  0.39160717147E+03  0.59275725995E+03  0.00000000000E+00 0. -1.
         -4    1    5    5    0  503 -0.42290766813E+03  0.16977489322E+03  0.40234700782E+03  0.60791243187E+03  0.00000000000E+00 0.  1.
         -1    1    6    6    0  502  0.24613549942E+02  0.20233173128E+02  0.14696376459E+02  0.35088340180E+02  0.00000000000E+00 0.  1.
<mgrwt>
<rscale>  0 0.25090791E+04</rscale>
<asrwt>0</asrwt>
<pdfrwt beam="1">  1        2 0.50071875E+00 0.25090791E+04</pdfrwt>
<pdfrwt beam="2">  1       -2 0.74395750E-01 0.25090791E+04</pdfrwt>
<totfact> 0.17307047E+00</totfact>
</mgrwt>
</event>
<event>
12    1  0.2019083E-007  0.1395865E+04  0.7818608E-02  0.8956817E-01
         -2   -1    0    0    0  501 -0.00000000000E+00  0.00000000000E+00  0.10470225978E+04  0.10470225978E+04  0.00000000000E+00 0.  1.
          2   -1    0    0  501    0  0.00000000000E+00 -0.00000000000E+00 -0.46523359656E+03  0.46523359656E+03  0.00000000000E+00 0. -1.
         23    2    1    2    0    0 -0.25181393358E+03  0.30593536421E+03  0.24856501389E+03  0.47684252529E+03  0.92668892121E+02 0.  0.
        254    2    1    2    0    0  0.25181393358E+03 -0.30593536421E+03  0.33322398737E+03  0.10354136691E+04  0.89668084409E+03 0.  0.
        -24    2    4    4    0    0  0.48426360177E+03 -0.46377617542E+03  0.14963096108E+03  0.69176883771E+03  0.80963716712E+02 0.  0.
         24    2    4    4    0    0 -0.23244966819E+03  0.15784081120E+03  0.18359302629E+03  0.34364483138E+03  0.73748226505E+02 0.  0.
         11    1    3    3    0    0 -0.20302743482E+03  0.18550707924E+03  0.19034067787E+03  0.33445865124E+03  0.00000000000E+00 0.  1.
        -11    1    3    3    0    0 -0.48786498766E+02  0.12042828498E+03  0.58224336026E+02  0.14238387405E+03  0.00000000000E+00 0. -1.
          4    1    6    6  502    0 -0.97760711044E+02  0.10875752783E+03  0.10622343117E+03  0.18074505197E+03  0.00000000000E+00 0. -1.
          3    1    5    5  503    0  0.10872551232E+03 -0.13574866723E+03  0.11208977154E+02  0.17428304235E+03  0.00000000000E+00 0. -1.
         -4    1    5    5    0  503  0.37553808945E+03 -0.32802750819E+03  0.13842198393E+03  0.51748579535E+03  0.00000000000E+00 0.  1.
         -3    1    6    6    0  502 -0.13468895714E+03  0.49083283377E+02  0.77369595115E+02  0.16289977941E+03  0.00000000000E+00 0.  1.
<mgrwt>
<rscale>  0 0.13958655E+04</rscale>
<asrwt>0</asrwt>
<pdfrwt beam="1">  1        2 0.71574399E-01 0.13958655E+04</pdfrwt>
<pdfrwt beam="2">  1       -2 0.16108040E+00 0.13958655E+04</pdfrwt>
<totfact> 0.16100281E+01</totfact>
</mgrwt>
</event>
<event>
12    1  0.2019083E-007  0.1327062E+04  0.7818608E-02  0.9008376E-01
          2   -1    0    0  501    0  0.00000000000E+00  0.00000000000E+00  0.34521132011E+03  0.34521132011E+03  0.00000000000E+00 0.  1.
         -2   -1    0    0    0  501 -0.00000000000E+00 -0.00000000000E+00 -0.12753739260E+04  0.12753739260E+04  0.00000000000E+00 0. -1.
         23    2    1    2    0    0  0.30409989798E+03 -0.20640861899E+03 -0.36060002597E+03  0.52267145493E+03  0.89843225255E+02 0.  0.
        254    2    1    2    0    0 -0.30409989798E+03  0.20640861899E+03 -0.56956257993E+03  0.10979137912E+04  0.86367348835E+03 0.  0.
        -24    2    4    4    0    0 -0.30402398875E+03  0.12324920484E+03  0.14932138662E+03  0.36974899779E+03  0.82440843244E+02 0.  0.
         24    2    4    4    0    0 -0.75909235924E-01  0.83159414149E+02 -0.71888396655E+03  0.72816479340E+03  0.80711306900E+02 0.  0.
         13    1    3    3    0    0  0.26818036395E+03 -0.17354129529E+03 -0.34800334625E+03  0.47238079743E+03  0.00000000000E+00 0. -1.
        -13    1    3    3    0    0  0.35919534032E+02 -0.32867323699E+02 -0.12596679727E+02  0.50290657505E+02  0.00000000000E+00 0.  1.
          2    1    6    6  502    0  0.27512749183E+02  0.33580419790E+01 -0.10923883815E+03  0.11270027317E+03  0.00000000000E+00 0. -1.
          1    1    5    5  503    0 -0.10581963715E+03  0.72766239397E+02  0.26362067574E+02  0.13110179179E+03  0.00000000000E+00 0. -1.
         -2    1    5    5    0  503 -0.19820435159E+03  0.50482965444E+02  0.12295931905E+03  0.23864720600E+03  0.00000000000E+00 0.  1.
         -1    1    6    6    0  502 -0.27588658419E+02  0.79801372170E+02 -0.60964512840E+03  0.61546452023E+03  0.00000000000E+00 0.  1.
<mgrwt>
<rscale>  0 0.13270622E+04</rscale>
<asrwt>0</asrwt>
<pdfrwt beam="1">  1        2 0.53109435E-01 0.13270622E+04</pdfrwt>
<pdfrwt beam="2">  1       -2 0.19621137E+00 0.13270622E+04</pdfrwt>
<totfact> 0.12922764E+01</totfact>
</mgrwt>
</event>
<event>
12    1  0.2019083E-007  0.2027626E+04  0.7818608E-02  0.8593812E-01
         -1   -1    0    0    0  501 -0.00000000000E+00  0.00000000000E+00  0.48778056308E+03  0.48778056308E+03  0.00000000000E+00 0.  1.
          1   -1    0    0  501    0  0.00000000000E+00 -0.00000000000E+00 -0.21071293085E+04  0.21071293085E+04  0.00000000000E+00 0. -1.
         23    2    1    2    0    0 -0.40295650012E+03  0.47404087308E+03 -0.13161928651E+04  0.14588184973E+04  0.93268749415E+02 0.  0.
        254    2    1    2    0    0  0.40295650012E+03 -0.47404087308E+03 -0.30315588028E+03  0.11360913742E+04  0.90095029415E+03 0.  0.
        -24    2    4    4    0    0  0.31263167584E+03  0.21795032401E+03 -0.14885981082E+03  0.41701553814E+03  0.80633785065E+02 0.  0.
         24    2    4    4    0    0  0.90324824282E+02 -0.69199119709E+03 -0.15429606946E+03  0.71907583610E+03  0.79072057521E+02 0.  0.
         11    1    3    3    0    0 -0.17237559180E+03  0.13511972757E+03 -0.47478971794E+03  0.52287279685E+03  0.00000000000E+00 0. -1.
        -11    1    3    3    0    0 -0.23058090832E+03  0.33892114551E+03 -0.84140314715E+03  0.93594570045E+03  0.00000000000E+00 0.  1.
          4    1    6    6  502    0  0.13365918380E+02 -0.15987690738E+02 -0.11786322854E+02  0.23940999054E+02  0.00000000000E+00 0. -1.
          3    1    5    5  503    0  0.75232257555E+02  0.93472119615E+02 -0.63154750254E+02  0.13559296516E+03  0.00000000000E+00 0. -1.
         -2    1    5    5    0  503  0.23739941828E+03  0.12447820440E+03 -0.85705060569E+02  0.28142257297E+03  0.00000000000E+00 0.  1.
         -3    1    6    6    0  502  0.76958905902E+02 -0.67600350635E+03 -0.14250974661E+03  0.69513483705E+03  0.00000000000E+00 0.  1.
<mgrwt>
<rscale>  0 0.20276259E+04</rscale>
<asrwt>0</asrwt>
<pdfrwt beam="1">  1        1 0.32417374E+00 0.20276259E+04</pdfrwt>
<pdfrwt beam="2">  1       -1 0.75043163E-01 0.20276259E+04</pdfrwt>
<totfact> 0.41647009E+00</totfact>
</mgrwt>
</event>
<event>
12    1  0.2019083E-007  0.2552920E+04  0.7818608E-02  0.8384371E-01
          1   -1    0    0  501    0  0.00000000000E+00  0.00000000000E+00  0.12766496733E+04  0.12766496733E+04  0.00000000000E+00 0. -1.
         -1   -1    0    0    0  501 -0.00000000000E+00 -0.00000000000E+00 -0.12762704017E+04  0.12762704017E+04  0.00000000000E+00 0.  1.
         23    2    1    2    0    0  0.10826197937E+04  0.26828264644E+03  0.14168456105E+02  0.11192883266E+04  0.92544134197E+02 0.  0.
        254    2    1    2    0    0 -0.10826197937E+04 -0.26828264644E+03 -0.13789184553E+02  0.14336317485E+04  0.90059350012E+03 0.  0.
        -24    2    4    4    0    0 -0.29717975693E+03  0.19556027323E+02  0.39347282001E+03  0.49986376538E+03  0.79653485282E+02 0.  0.
         24    2    4    4    0    0 -0.78544003678E+03 -0.28783867377E+03 -0.40726200457E+03  0.93376798308E+03  0.79329391538E+02 0.  0.
         13    1    3    3    0    0  0.93052318643E+03  0.20378509157E+03  0.32058077980E+02  0.95311567210E+03  0.00000000000E+00 0. -1.
        -13    1    3    3    0    0  0.15209660728E+03  0.64497554870E+02 -0.17889621875E+02  0.16617265449E+03  0.00000000000E+00 0.  1.
          4    1    6    6  502    0 -0.56958900296E+02 -0.12532323223E+02 -0.50603767428E+02  0.77214744228E+02  0.00000000000E+00 0. -1.
          1    1    5    5  503    0 -0.47250817115E+02  0.13525446406E+02  0.26533874260E+02  0.55853593454E+02  0.00000000000E+00 0. -1.
         -2    1    5    5    0  503 -0.24992893981E+03  0.60305809167E+01  0.36693894575E+03  0.44401017193E+03  0.00000000000E+00 0.  1.
         -3    1    6    6    0  502 -0.72848113649E+03 -0.27530635054E+03 -0.35665823714E+03  0.85655323885E+03  0.00000000000E+00 0.  1.
<mgrwt>
<rscale>  0 0.25529200E+04</rscale>
<asrwt>0</asrwt>
<pdfrwt beam="1">  1        1 0.19640764E+00 0.25529200E+04</pdfrwt>
<pdfrwt beam="2">  1       -1 0.19634929E+00 0.25529200E+04</pdfrwt>
<totfact> 0.13263873E+00</totfact>
</mgrwt>
</event>
<event>
12    1  0.2019083E-007  0.3100793E+04  0.7818608E-02  0.8215520E-01
         -2   -1    0    0    0  501 -0.00000000000E+00  0.00000000000E+00  0.31592252660E+04  0.31592252660E+04  0.00000000000E+00 0.  1.
          2   -1    0    0  501    0  0.00000000000E+00 -0.00000000000E+00 -0.76086013992E+03  0.76086013992E+03  0.00000000000E+00 0. -1.
         23    2    1    2    0    0 -0.12261223466E+04  0.50963796826E+03  0.47098347901E+03  0.14118177888E+04  0.91088768362E+02 0.  0.
        254    2    1    2    0    0  0.12261223466E+04 -0.50963796826E+03  0.19273816470E+04  0.25082676171E+04  0.90194210350E+03 0.  0.
        -24    2    4    4    0    0  0.11963741047E+04 -0.48260728748E+03  0.20079313330E+04  0.23876461389E+04  0.69606423318E+02 0.  0.
         24    2    4    4    0    0  0.29748241922E+02 -0.27030680778E+02 -0.80549685995E+02  0.12062147818E+03  0.80284951794E+02 0.  0.
         13    1    3    3    0    0 -0.90291971462E+03  0.33203774611E+03  0.33193152052E+03  0.10176893486E+04  0.00000000000E+00 0. -1.
        -13    1    3    3    0    0 -0.32320263198E+03  0.17760022214E+03  0.13905195850E+03  0.39412844022E+03  0.00000000000E+00 0.  1.
          4    1    6    6  502    0  0.49725622727E+02 -0.41697715812E+02 -0.55619624948E+02  0.85468589194E+02  0.00000000000E+00 0. -1.
          1    1    5    5  503    0  0.10432476647E+04 -0.40464057003E+03  0.17731285963E+04  0.20966842156E+04  0.00000000000E+00 0. -1.
         -2    1    5    5    0  503  0.15312643995E+03 -0.77966717445E+02  0.23480273670E+03  0.29096192329E+03  0.00000000000E+00 0.  1.
         -3    1    6    6    0  502 -0.19977380805E+02  0.14667035033E+02 -0.24930061048E+02  0.35152888990E+02  0.00000000000E+00 0.  1.
<mgrwt>
<rscale>  0 0.31007925E+04</rscale>
<asrwt>0</asrwt>
<pdfrwt beam="1">  1        2 0.11705541E+00 0.31007925E+04</pdfrwt>
<pdfrwt beam="2">  1       -2 0.48603465E+00 0.31007925E+04</pdfrwt>
<totfact> 0.62965523E-02</totfact>
</mgrwt>
</event>
<event>
12    1  0.2019083E-007  0.2505931E+04  0.7818608E-02  0.8400876E-01
          1   -1    0    0  501    0  0.00000000000E+00  0.00000000000E+00  0.16745175899E+04  0.16745175899E+04  0.00000000000E+00 0. -1.
         -1   -1    0    0    0  501 -0.00000000000E+00 -0.00000000000E+00 -0.93753706728E+03  0.93753706728E+03  0.00000000000E+00 0.  1.
         23    2    1    2    0    0 -0.63859917395E+03  0.87488356702E+03  0.15309978335E+03  0.10976123138E+04  0.89905989177E+02 0.  0.
        254    2    1    2    0    0  0.63859917395E+03 -0.87488356702E+03  0.58388073928E+03  0.15144423434E+04  0.88282995702E+03 0.  0.
        -24    2    4    4    0    0  0.33027348830E+03 -0.84024200885E+03  0.69208408377E+02  0.90902370726E+03  0.80293748591E+02 0.  0.
         24    2    4    4    0    0  0.30832568565E+03 -0.34641558167E+02  0.51467233090E+03  0.60541863615E+03  0.73344057818E+02 0.  0.
         13    1    3    3    0    0 -0.45779963528E+03  0.59303589921E+03  0.14236238782E+03  0.76258713160E+03  0.00000000000E+00 0. -1.
        -13    1    3    3    0    0 -0.18079953867E+03  0.28184766781E+03  0.10737395530E+02  0.33502518218E+03  0.00000000000E+00 0.  1.
          2    1    6    6  502    0  0.48689118810E+02 -0.80896648056E+00  0.38773091474E+02  0.62246584964E+02  0.00000000000E+00 0. -1.
          1    1    5    5  503    0  0.81321071931E+02 -0.30550853660E+03  0.36930245659E+02  0.31829612897E+03  0.00000000000E+00 0. -1.
         -2    1    5    5    0  503  0.24895241637E+03 -0.53473347225E+03  0.32278162718E+02  0.59072757829E+03  0.00000000000E+00 0.  1.
         -1    1    6    6    0  502  0.25963656684E+03 -0.33832591687E+02  0.47589923943E+03  0.54317205118E+03  0.00000000000E+00 0.  1.
<mgrwt>
<rscale>  0 0.25059308E+04</rscale>
<asrwt>0</asrwt>
<pdfrwt beam="1">  1        1 0.25761809E+00 0.25059308E+04</pdfrwt>
<pdfrwt beam="2">  1       -1 0.14423647E+00 0.25059308E+04</pdfrwt>
<totfact> 0.17068454E+00</totfact>
</mgrwt>
</event>
<event>
12    1  0.2019083E-007  0.1843568E+04  0.7818608E-02  0.8683468E-01
          1   -1    0    0  501    0  0.00000000000E+00  0.00000000000E+00  0.31490257488E+04  0.31490257488E+04  0.00000000000E+00 0. -1.
         -1   -1    0    0    0  501 -0.00000000000E+00 -0.00000000000E+00 -0.26982493610E+03  0.26982493610E+03  0.00000000000E+00 0.  1.
         23    2    1    2    0    0 -0.43280603011E+03  0.29896007409E+03  0.19513859129E+04  0.20230709231E+04  0.90613427562E+02 0.  0.
        254    2    1    2    0    0  0.43280603011E+03 -0.29896007409E+03  0.92781489983E+03  0.13957797618E+04  0.90036796344E+03 0.  0.
        -24    2    4    4    0    0  0.47994419138E+03 -0.38764298057E+03  0.19413447407E+03  0.65100905586E+03  0.74236713100E+02 0.  0.
         24    2    4    4    0    0 -0.47138161269E+02  0.88682906480E+02  0.73368042575E+03  0.74477070597E+03  0.79434080723E+02 0.  0.
         13    1    3    3    0    0 -0.44248866545E+02  0.14742837660E+02  0.27513797401E+03  0.27906310790E+03  0.00000000000E+00 0.  1.
        -13    1    3    3    0    0 -0.38855716356E+03  0.28421723643E+03  0.16762479389E+04  0.17440078152E+04  0.00000000000E+00 0. -1.
          2    1    6    6  502    0 -0.40194674774E+02  0.10382929394E+03  0.64487412194E+03  0.65441482816E+03  0.00000000000E+00 0. -1.
          3    1    5    5  503    0  0.45116485781E+03 -0.37145114911E+03  0.16571806510E+03  0.60744395807E+03  0.00000000000E+00 0. -1.
         -4    1    5    5    0  503  0.28779333563E+02 -0.16191831458E+02  0.28416408975E+02  0.43565097789E+02  0.00000000000E+00 0.  1.
         -1    1    6    6    0  502 -0.69434864950E+01 -0.15146387463E+02  0.88806303814E+02  0.90355877811E+02  0.00000000000E+00 0.  1.
<mgrwt>
<rscale>  0 0.18435679E+04</rscale>
<asrwt>0</asrwt>
<pdfrwt beam="1">  1        1 0.48446547E+00 0.18435679E+04</pdfrwt>
<pdfrwt beam="2">  1       -1 0.41511531E-01 0.18435679E+04</pdfrwt>
<totfact> 0.24911301E+00</totfact>
</mgrwt>
</event>
<event>
12    1  0.2019083E-007  0.1837919E+04  0.7818608E-02  0.8686390E-01
         -1   -1    0    0    0  501 -0.00000000000E+00  0.00000000000E+00  0.95125727127E+03  0.95125727127E+03  0.00000000000E+00 0.  1.
          1   -1    0    0  501    0  0.00000000000E+00 -0.00000000000E+00 -0.88775876409E+03  0.88775876409E+03  0.00000000000E+00 0. -1.
         23    2    1    2    0    0 -0.80601224795E+02  0.65135055483E+03 -0.20685917678E+03  0.69386422232E+03  0.88897341215E+02 0.  0.
        254    2    1    2    0    0  0.80601224795E+02 -0.65135055483E+03  0.27035768396E+03  0.11451518130E+04  0.89862411215E+03 0.  0.
        -24    2    4    4    0    0  0.83651377960E+02 -0.72731603783E+03  0.50064757681E+03  0.89061898289E+03  0.81043226668E+02 0.  0.
         24    2    4    4    0    0 -0.30501531658E+01  0.75965483000E+02 -0.23028989285E+03  0.25453283016E+03  0.77288219273E+02 0.  0.
         13    1    3    3    0    0 -0.73620249025E+02  0.46490085073E+03 -0.18603938034E+03  0.50612586687E+03  0.00000000000E+00 0. -1.
        -13    1    3    3    0    0 -0.69809757691E+01  0.18644970410E+03 -0.20819796436E+02  0.18773835545E+03  0.00000000000E+00 0.  1.
          2    1    6    6  502    0  0.23059761769E+02 -0.44318037799E+01 -0.41506530566E+02  0.47688421835E+02  0.00000000000E+00 0. -1.
          1    1    5    5  503    0 -0.14187379541E+02 -0.12389520201E+03  0.98312703106E+02  0.15879763982E+03  0.00000000000E+00 0. -1.
         -2    1    5    5    0  503  0.97838757502E+02 -0.60342083582E+03  0.40233487371E+03  0.73182134307E+03  0.00000000000E+00 0.  1.
         -1    1    6    6    0  502 -0.26109914935E+02  0.80397286780E+02 -0.18878336229E+03  0.20684440832E+03  0.00000000000E+00 0.  1.
<mgrwt>
<rscale>  0 0.18379195E+04</rscale>
<asrwt>0</asrwt>
<pdfrwt beam="1">  1        1 0.13657827E+00 0.18379195E+04</pdfrwt>
<pdfrwt beam="2">  1       -1 0.14634727E+00 0.18379195E+04</pdfrwt>
<totfact> 0.65306990E+00</totfact>
</mgrwt>
</event>
<event>
12    1  0.2019083E-007  0.1882942E+04  0.7818608E-02  0.8663394E-01
          2   -1    0    0  501    0  0.00000000000E+00  0.00000000000E+00  0.32657968970E+04  0.32657968970E+04  0.00000000000E+00 0.  1.
         -2   -1    0    0    0  501 -0.00000000000E+00 -0.00000000000E+00 -0.27140924941E+03  0.27140924941E+03  0.00000000000E+00 0. -1.
         23    2    1    2    0    0  0.64638431870E+03 -0.13773687177E+03  0.61082380602E+03  0.90519957732E+03  0.97449574087E+02 0.  0.
        254    2    1    2    0    0 -0.64638431870E+03  0.13773687177E+03  0.23835638416E+04  0.26320065691E+04  0.89960983742E+03 0.  0.
        -24    2    4    4    0    0 -0.36336828556E+03  0.18506655707E+03  0.22782660779E+04  0.23158874701E+04  0.80946345078E+02 0.  0.
         24    2    4    4    0    0 -0.28301603314E+03 -0.47329685302E+02  0.10529776364E+03  0.31611909900E+03  0.80656627759E+02 0.  0.
         13    1    3    3    0    0  0.11348537915E+03  0.34966497842E+01  0.13969672752E+03  0.18001759225E+03  0.00000000000E+00 0. -1.
        -13    1    3    3    0    0  0.53289893955E+03 -0.14123352155E+03  0.47112707850E+03  0.72518198508E+03  0.00000000000E+00 0.  1.
          2    1    6    6  502    0 -0.24157568217E+02  0.16441074240E+02  0.22752130843E+02  0.37034530944E+02  0.00000000000E+00 0. -1.
          3    1    5    5  503    0 -0.13011755567E+03  0.88163379678E+02  0.10720554434E+04  0.10835156822E+04  0.00000000000E+00 0. -1.
         -4    1    5    5    0  503 -0.23325072989E+03  0.96903177392E+02  0.12062106345E+04  0.12323717879E+04  0.00000000000E+00 0.  1.
         -1    1    6    6    0  502 -0.25885846492E+03 -0.63770759542E+02  0.82545632801E+02  0.27908456806E+03  0.00000000000E+00 0.  1.
<mgrwt>
<rscale>  0 0.18829418E+04</rscale>
<asrwt>0</asrwt>
<pdfrwt beam="1">  1        2 0.50243027E+00 0.18829418E+04</pdfrwt>
<pdfrwt beam="2">  1       -2 0.41755271E-01 0.18829418E+04</pdfrwt>
<totfact> 0.60129314E+00</totfact>
</mgrwt>
</event>
<event>
12    1  0.2019083E-007  0.3567706E+04  0.7818608E-02  0.8097929E-01
         -2   -1    0    0    0  501 -0.00000000000E+00  0.00000000000E+00  0.11311702425E+04  0.11311702425E+04  0.00000000000E+00 0.  1.
          2   -1    0    0  501    0  0.00000000000E+00 -0.00000000000E+00 -0.28131328727E+04  0.28131328727E+04  0.00000000000E+00 0. -1.
         23    2    1    2    0    0  0.51461469418E+03  0.44129541099E+03 -0.24744086130E+04  0.25673497497E+04  0.94956989824E+02 0.  0.
        254    2    1    2    0    0 -0.51461469418E+03 -0.44129541099E+03  0.79244598285E+03  0.13769533655E+04  0.89914404403E+03 0.  0.
        -24    2    4    4    0    0 -0.56658397781E+03 -0.24612921649E+03  0.75179179719E+02  0.62741775873E+03  0.80025869461E+02 0.  0.
         24    2    4    4    0    0  0.51969283630E+02 -0.19516619450E+03  0.71726680313E+03  0.74953560682E+03  0.80878359873E+02 0.  0.
         13    1    3    3    0    0  0.32240568697E+03  0.29029027638E+03 -0.14098698642E+04  0.14751091165E+04  0.00000000000E+00 0.  1.
        -13    1    3    3    0    0  0.19220900720E+03  0.15100513461E+03 -0.10645387488E+04  0.10922406332E+04  0.00000000000E+00 0. -1.
          4    1    6    6  502    0 -0.99400678208E+00 -0.39894706111E+02  0.59680612488E+02  0.71793809845E+02  0.00000000000E+00 0. -1.
          3    1    5    5  503    0 -0.55091319229E+02 -0.51613852396E+02  0.42728222627E+01  0.75612831078E+02  0.00000000000E+00 0. -1.
         -4    1    5    5    0  503 -0.51149265858E+03 -0.19451536409E+03  0.70906357456E+02  0.55180492765E+03  0.00000000000E+00 0.  1.
         -1    1    6    6    0  502  0.52963290412E+02 -0.15527148839E+03  0.65758619064E+03  0.67774179697E+03  0.00000000000E+00 0.  1.
<mgrwt>
<rscale>  0 0.35677064E+04</rscale>
<asrwt>0</asrwt>
<pdfrwt beam="1">  1        2 0.43278967E+00 0.35677064E+04</pdfrwt>
<pdfrwt beam="2">  1       -2 0.17402619E+00 0.35677064E+04</pdfrwt>
<totfact> 0.37017675E-01</totfact>
</mgrwt>
</event>
<event>
12    1  0.2019083E-007  0.1517172E+04  0.7818608E-02  0.8873114E-01
          2   -1    0    0  501    0  0.00000000000E+00  0.00000000000E+00  0.16668399741E+04  0.16668399741E+04  0.00000000000E+00 0. -1.
         -2   -1    0    0    0  501 -0.00000000000E+00 -0.00000000000E+00 -0.34523563149E+03  0.34523563149E+03  0.00000000000E+00 0.  1.
         23    2    1    2    0    0  0.46439894222E+03 -0.12959172971E+03  0.43191514326E+03  0.65871695412E+03  0.12205302421E+03 0.  0.
        254    2    1    2    0    0 -0.46439894222E+03  0.12959172971E+03  0.88968919933E+03  0.13533586514E+04  0.89865030690E+03 0.  0.
        -24    2    4    4    0    0 -0.64329010950E+03  0.15584334089E+03  0.93740957793E+03  0.11502238329E+04  0.78541945348E+02 0.  0.
         24    2    4    4    0    0  0.17889116727E+03 -0.26251611173E+02 -0.47720378604E+02  0.20313481851E+03  0.79343072401E+02 0.  0.
         13    1    3    3    0    0  0.10939340722E+03 -0.50197604631E+02  0.47303773420E+02  0.12932271276E+03  0.00000000000E+00 0.  1.
        -13    1    3    3    0    0  0.35500553500E+03 -0.79394125081E+02  0.38461136984E+03  0.52939424136E+03  0.00000000000E+00 0. -1.
          4    1    6    6  502    0  0.11404415858E+03  0.90167336972E+01  0.15047394290E+01  0.11440994639E+03  0.00000000000E+00 0. -1.
          1    1    5    5  503    0 -0.53100312634E+03  0.10652300764E+03  0.72499909356E+03  0.90495036163E+03  0.00000000000E+00 0. -1.
         -2    1    5    5    0  503 -0.11228698315E+03  0.49320333249E+02  0.21241048437E+03  0.24527347131E+03  0.00000000000E+00 0.  1.
         -3    1    6    6    0  502  0.64847008694E+02 -0.35268344870E+02 -0.49225118033E+02  0.88724872115E+02  0.00000000000E+00 0.  1.
<mgrwt>
<rscale>  0 0.15171718E+04</rscale>
<asrwt>0</asrwt>
<pdfrwt beam="1">  1        2 0.25643691E+00 0.15171718E+04</pdfrwt>
<pdfrwt beam="2">  1       -2 0.53113175E-01 0.15171718E+04</pdfrwt>
<totfact> 0.33000190E+01</totfact>
</mgrwt>
</event>
<event>
12    1  0.2019083E-007  0.1264944E+04  0.7818608E-02  0.9057837E-01
          1   -1    0    0  501    0  0.00000000000E+00  0.00000000000E+00  0.48190445477E+03  0.48190445477E+03  0.00000000000E+00 0. -1.
         -1   -1    0    0    0  501 -0.00000000000E+00 -0.00000000000E+00 -0.83008263113E+03  0.83008263113E+03  0.00000000000E+00 0.  1.
         23    2    1    2    0    0  0.22755246528E+03  0.15948065286E+03 -0.21247688330E+03  0.36120385871E+03  0.90042204113E+02 0.  0.
        254    2    1    2    0    0 -0.22755246528E+03 -0.15948065286E+03 -0.13570129306E+03  0.95078322720E+03  0.89908826101E+03 0.  0.
        -24    2    4    4    0    0 -0.30880748303E+03  0.31739450346E+03 -0.74008238546E+02  0.45650737897E+03  0.82585926675E+02 0.  0.
         24    2    4    4    0    0  0.81255017750E+02 -0.47687515631E+03 -0.61693054517E+02  0.49427584822E+03  0.80562327086E+02 0.  0.
         11    1    3    3    0    0  0.12849361846E+03  0.13456271247E+03 -0.16450998163E+03  0.24835713726E+03  0.00000000000E+00 0.  1.
        -11    1    3    3    0    0  0.99058846823E+02  0.24917940385E+02 -0.47966901671E+02  0.11284672145E+03  0.00000000000E+00 0. -1.
          4    1    6    6  502    0  0.81130866433E+02 -0.39805383821E+03 -0.78323071268E+02  0.41371920320E+03  0.00000000000E+00 0. -1.
          3    1    5    5  503    0 -0.27091023594E+03  0.30548897070E+03 -0.80747797336E+02  0.41621637873E+03  0.00000000000E+00 0. -1.
         -4    1    5    5    0  503 -0.37897247093E+02  0.11905532760E+02  0.67395587895E+01  0.40291000238E+02  0.00000000000E+00 0.  1.
         -3    1    6    6    0  502  0.12415131715E+00 -0.78821318097E+02  0.16630016750E+02  0.80556645022E+02  0.00000000000E+00 0.  1.
<mgrwt>
<rscale>  0 0.12649435E+04</rscale>
<asrwt>0</asrwt>
<pdfrwt beam="1">  1        1 0.74139148E-01 0.12649435E+04</pdfrwt>
<pdfrwt beam="2">  1       -1 0.12770502E+00 0.12649435E+04</pdfrwt>
<totfact> 0.24374161E+01</totfact>
</mgrwt>
</event>
<event>
12    1  0.2019083E-007  0.2162346E+04  0.7818608E-02  0.8534266E-01
         -2   -1    0    0    0  501 -0.00000000000E+00  0.00000000000E+00  0.97007643316E+03  0.97007643316E+03  0.00000000000E+00 0.  1.
          2   -1    0    0  501    0  0.00000000000E+00 -0.00000000000E+00 -0.12049928633E+04  0.12049928633E+04  0.00000000000E+00 0. -1.
         23    2    1    2    0    0 -0.74156141469E+03 -0.17002389694E+03 -0.56031471537E+03  0.94936696483E+03  0.92323325164E+02 0.  0.
        254    2    1    2    0    0  0.74156141469E+03  0.17002389694E+03  0.32539828523E+03  0.12257023316E+04  0.90423487240E+03 0.  0.
        -24    2    4    4    0    0  0.85302916014E+03  0.15895114276E+03  0.50020509869E+03  0.10049290430E+04  0.82176802703E+02 0.  0.
         24    2    4    4    0    0 -0.11146774545E+03  0.11072754175E+02 -0.17480681345E+03  0.22077328863E+03  0.75071690944E+02 0.  0.
         13    1    3    3    0    0 -0.60146160942E+03 -0.15564801215E+03 -0.41580166362E+03  0.74757835360E+03  0.00000000000E+00 0.  1.
        -13    1    3    3    0    0 -0.14009980527E+03 -0.14375884789E+02 -0.14451305175E+03  0.20178861123E+03  0.00000000000E+00 0. -1.
          4    1    6    6  502    0 -0.58580326586E+02  0.16854237864E+02 -0.33002820894E+02  0.69317430592E+02  0.00000000000E+00 0. -1.
          3    1    5    5  503    0  0.11765110555E+03  0.47132002767E+02  0.90425133348E+02  0.15569172445E+03  0.00000000000E+00 0. -1.
         -4    1    5    5    0  503  0.73537805458E+03  0.11181913999E+03  0.40977996534E+03  0.84923731855E+03  0.00000000000E+00 0.  1.
         -3    1    6    6    0  502 -0.52887418864E+02 -0.57814836888E+01 -0.14180399256E+03  0.15145585804E+03  0.00000000000E+00 0.  1.
<mgrwt>
<rscale>  0 0.21623461E+04</rscale>
<asrwt>0</asrwt>
<pdfrwt beam="1">  1        2 0.18538352E+00 0.21623461E+04</pdfrwt>
<pdfrwt beam="2">  1       -2 0.14924253E+00 0.21623461E+04</pdfrwt>
<totfact> 0.52378830E+00</totfact>
</mgrwt>
</event>
<event>
12    1  0.2019083E-007  0.4102314E+04  0.7818608E-02  0.7984219E-01
         -1   -1    0    0    0  501 -0.00000000000E+00  0.00000000000E+00  0.13575822192E+04  0.13575822192E+04  0.00000000000E+00 0.  1.
          1   -1    0    0  501    0  0.00000000000E+00 -0.00000000000E+00 -0.30990726689E+04  0.30990726689E+04  0.00000000000E+00 0. -1.
         23    2    1    2    0    0 -0.77105270503E+03  0.14643283112E+04  0.29423063576E+03  0.16832816081E+04  0.89920121951E+02 0.  0.
        254    2    1    2    0    0  0.77105270503E+03 -0.14643283112E+04 -0.20357210855E+04  0.27733732800E+04  0.89925487789E+03 0.  0.
        -24    2    4    4    0    0  0.75357131746E+03 -0.15702521448E+04 -0.18282583478E+04  0.25263488278E+04  0.79676121764E+02 0.  0.
         24    2    4    4    0    0  0.17481387575E+02  0.10592383368E+03 -0.20746273768E+03  0.24702445220E+03  0.80341987832E+02 0.  0.
         11    1    3    3    0    0 -0.39329542437E+03  0.81208904851E+03  0.19371962553E+03  0.92287442637E+03  0.00000000000E+00 0.  1.
        -11    1    3    3    0    0 -0.37775728066E+03  0.65223926266E+03  0.10051101022E+03  0.76040718173E+03  0.00000000000E+00 0. -1.
          2    1    6    6  502    0  0.15911610333E+02  0.10791485033E+03 -0.13078224621E+03  0.17030205574E+03  0.00000000000E+00 0. -1.
          3    1    5    5  503    0  0.57173770701E+03 -0.11147914595E+04 -0.12940700437E+04  0.18011833005E+04  0.00000000000E+00 0. -1.
         -4    1    5    5    0  503  0.18183361045E+03 -0.45546068530E+03 -0.53418830415E+03  0.72516552734E+03  0.00000000000E+00 0.  1.
         -1    1    6    6    0  502  0.15697772423E+01 -0.19910166472E+01 -0.76680491464E+02  0.76722396463E+02  0.00000000000E+00 0.  1.
<mgrwt>
<rscale>  0 0.41023144E+04</rscale>
<asrwt>0</asrwt>
<pdfrwt beam="1">  1        1 0.47678041E+00 0.41023144E+04</pdfrwt>
<pdfrwt beam="2">  1       -1 0.20885880E+00 0.41023144E+04</pdfrwt>
<totfact> 0.51311276E-02</totfact>
</mgrwt>
</event>
<event>
12    1  0.2019083E-007  0.3148744E+04  0.7818608E-02  0.8202486E-01
          1   -1    0    0  501    0  0.00000000000E+00  0.00000000000E+00  0.34009120380E+04  0.34009120380E+04  0.00000000000E+00 0. -1.
         -1   -1    0    0    0  501 -0.00000000000E+00 -0.00000000000E+00 -0.72881855922E+03  0.72881855922E+03  0.00000000000E+00 0.  1.
         23    2    1    2    0    0 -0.28543989924E+03 -0.45213532275E+03  0.29878140525E+04  0.30366405484E+04  0.90833484509E+02 0.  0.
        254    2    1    2    0    0  0.28543989924E+03  0.45213532275E+03 -0.31572057373E+03  0.10930900488E+04  0.89959106705E+03 0.  0.
        -24    2    4    4    0    0  0.19645163686E+03 -0.30494164072E+02 -0.51451983635E+03  0.55747010423E+03  0.80741039365E+02 0.  0.
         24    2    4    4    0    0  0.88988262379E+02  0.48262948682E+03  0.19879926262E+03  0.53561994456E+03  0.80730699211E+02 0.  0.
         11    1    3    3    0    0 -0.79190996609E+02 -0.18606245436E+03  0.95928138245E+03  0.98036280100E+03  0.00000000000E+00 0. -1.
        -11    1    3    3    0    0 -0.20624890263E+03 -0.26607286839E+03  0.20285326700E+04  0.20562777474E+04  0.00000000000E+00 0.  1.
          2    1    6    6  502    0  0.10420631957E+03  0.40836789711E+03  0.17236440916E+03  0.45533810073E+03  0.00000000000E+00 0. -1.
          1    1    5    5  503    0  0.35083390286E+02 -0.16675572451E+02 -0.19959408365E+03  0.20333892205E+03  0.00000000000E+00 0. -1.
         -2    1    5    5    0  503  0.16136824658E+03 -0.13818591622E+02 -0.31492575270E+03  0.35413118218E+03  0.00000000000E+00 0.  1.
         -3    1    6    6    0  502 -0.15218057187E+02  0.74261589711E+02  0.26434853463E+02  0.80281843829E+02  0.00000000000E+00 0.  1.
<mgrwt>
<rscale>  0 0.31487444E+04</rscale>
<asrwt>0</asrwt>
<pdfrwt beam="1">  1        1 0.52321723E+00 0.31487444E+04</pdfrwt>
<pdfrwt beam="2">  1       -1 0.11212593E+00 0.31487444E+04</pdfrwt>
<totfact> 0.18284509E-01</totfact>
</mgrwt>
</event>
<event>
12    1  0.2019083E-007  0.1630539E+04  0.7818608E-02  0.8802004E-01
         -2   -1    0    0    0  501 -0.00000000000E+00  0.00000000000E+00  0.14822123115E+04  0.14822123115E+04  0.00000000000E+00 0.  1.
          2   -1    0    0  501    0  0.00000000000E+00 -0.00000000000E+00 -0.44842699062E+03  0.44842699062E+03  0.00000000000E+00 0. -1.
         23    2    1    2    0    0  0.38234442668E+03 -0.18034416471E+03  0.79992226836E+03  0.90886080212E+03  0.86261485338E+02 0.  0.
        254    2    1    2    0    0 -0.38234442668E+03  0.18034416471E+03  0.23386305253E+03  0.10217785000E+04  0.90034887536E+03 0.  0.
        -24    2    4    4    0    0 -0.18644817082E+03  0.15446425564E+03  0.56966822005E+03  0.62389285674E+03  0.78091542997E+02 0.  0.
         24    2    4    4    0    0 -0.19589625586E+03  0.25879909076E+02 -0.33580516752E+03  0.39788564326E+03  0.80639703764E+02 0.  0.
         13    1    3    3    0    0  0.85347381813E+02 -0.75464775744E+02  0.17098871597E+03  0.20546593136E+03  0.00000000000E+00 0. -1.
        -13    1    3    3    0    0  0.29699704487E+03 -0.10487938897E+03  0.62893355239E+03  0.70339487076E+03  0.00000000000E+00 0.  1.
          4    1    6    6  502    0 -0.11075547774E+03 -0.20306801621E+02 -0.14203204055E+03  0.18125187608E+03  0.00000000000E+00 0. -1.
          1    1    5    5  503    0 -0.48075636015E+02  0.26247394622E+02  0.64317731052E+02  0.84480548237E+02  0.00000000000E+00 0. -1.
         -2    1    5    5    0  503 -0.13837253480E+03  0.12821686102E+03  0.50535048899E+03  0.53941230850E+03  0.00000000000E+00 0.  1.
         -3    1    6    6    0  502 -0.85140778128E+02  0.46186710696E+02 -0.19377312697E+03  0.21663376718E+03  0.00000000000E+00 0.  1.
<mgrwt>
<rscale>  0 0.16305386E+04</rscale>
<asrwt>0</asrwt>
<pdfrwt beam="1">  1        2 0.68988768E-01 0.16305386E+04</pdfrwt>
<pdfrwt beam="2">  1       -2 0.22803266E+00 0.16305386E+04</pdfrwt>
<totfact> 0.58731376E+00</totfact>
</mgrwt>
</event>
<event>
12    1  0.2019083E-007  0.1370873E+04  0.7818608E-02  0.8975176E-01
         -2   -1    0    0    0  501 -0.00000000000E+00  0.00000000000E+00  0.12775113981E+03  0.12775113981E+03  0.00000000000E+00 0.  1.
          2   -1    0    0  501    0  0.00000000000E+00 -0.00000000000E+00 -0.36776448142E+04  0.36776448142E+04  0.00000000000E+00 0. -1.
         23    2    1    2    0    0  0.38021408729E+03 -0.35306041924E+02 -0.10958556047E+04  0.11639893554E+04  0.90346247262E+02 0.  0.
        254    2    1    2    0    0 -0.38021408729E+03  0.35306041924E+02 -0.24540380697E+04  0.26414065986E+04  0.89939796692E+03 0.  0.
        -24    2    4    4    0    0 -0.51135744938E+03 -0.30409953004E+03 -0.16297774507E+04  0.17368407815E+04  0.80488483894E+02 0.  0.
         24    2    4    4    0    0  0.13114336210E+03  0.33940557197E+03 -0.82426061893E+03  0.90456581711E+03  0.80243540943E+02 0.  0.
         11    1    3    3    0    0  0.23580666992E+03 -0.65012172246E+02 -0.65946167669E+03  0.70336410994E+03  0.00000000000E+00 0.  1.
        -11    1    3    3    0    0  0.14440741736E+03  0.29706130322E+02 -0.43639392805E+03  0.46062524551E+03  0.00000000000E+00 0. -1.
          4    1    6    6  502    0  0.10306188745E+03  0.27743499677E+03 -0.73487303153E+03  0.79223121786E+03  0.00000000000E+00 0. -1.
          3    1    5    5  503    0 -0.44061589635E+03 -0.29173757426E+03 -0.14453610193E+04  0.15389352346E+04  0.00000000000E+00 0. -1.
         -4    1    5    5    0  503 -0.70741553038E+02 -0.12361955778E+02 -0.18441643145E+03  0.19790554683E+03  0.00000000000E+00 0.  1.
         -3    1    6    6    0  502  0.28081474648E+02  0.61970575192E+02 -0.89387587401E+02  0.11233459925E+03  0.00000000000E+00 0.  1.
<mgrwt>
<rscale>  0 0.13708732E+04</rscale>
<asrwt>0</asrwt>
<pdfrwt beam="1">  1        2 0.56579145E+00 0.13708732E+04</pdfrwt>
<pdfrwt beam="2">  1       -2 0.19654024E-01 0.13708732E+04</pdfrwt>
<totfact> 0.13321858E+01</totfact>
</mgrwt>
</event>
<event>
12    1  0.2019083E-007  0.1195848E+04  0.7818608E-02  0.9116499E-01
         -2   -1    0    0    0  501 -0.00000000000E+00  0.00000000000E+00  0.42149330301E+03  0.42149330301E+03  0.00000000000E+00 0.  1.
          2   -1    0    0  501    0  0.00000000000E+00 -0.00000000000E+00 -0.84820538482E+03  0.84820538482E+03  0.00000000000E+00 0. -1.
         23    2    1    2    0    0  0.12075357256E+03  0.21301922939E+03 -0.77168525303E+02  0.27232390116E+03  0.90811389524E+02 0.  0.
        254    2    1    2    0    0 -0.12075357256E+03 -0.21301922939E+03 -0.34954355651E+03  0.99737478667E+03  0.90145279955E+03 0.  0.
        -24    2    4    4    0    0 -0.79901917134E+02  0.17229245429E+03  0.22175932218E+03  0.30258749560E+03  0.79454322434E+02 0.  0.
         24    2    4    4    0    0 -0.40851655431E+02 -0.38531168368E+03 -0.57130287869E+03  0.69478729107E+03  0.78793713634E+02 0.  0.
         11    1    3    3    0    0  0.76732128381E+02  0.49200636919E+02 -0.34011236093E+02  0.97289703359E+02  0.00000000000E+00 0. -1.
        -11    1    3    3    0    0  0.44021444184E+02  0.16381859247E+03 -0.43157289210E+02  0.17503419780E+03  0.00000000000E+00 0.  1.
          2    1    6    6  502    0 -0.28768440367E+01 -0.28598461375E+03 -0.37599000222E+03  0.47240232567E+03  0.00000000000E+00 0. -1.
          1    1    5    5  503    0 -0.86346380741E+02  0.17745688480E+03  0.21560692008E+03  0.29228921879E+03  0.00000000000E+00 0. -1.
         -2    1    5    5    0  503  0.64444636078E+01 -0.51644305161E+01  0.61524020975E+01  0.10298276813E+02  0.00000000000E+00 0.  1.
         -1    1    6    6    0  502 -0.37974811395E+02 -0.99327069932E+02 -0.19531287647E+03  0.22238496540E+03  0.00000000000E+00 0.  1.
<mgrwt>
<rscale>  0 0.11958476E+04</rscale>
<asrwt>0</asrwt>
<pdfrwt beam="1">  1        2 0.13049313E+00 0.11958476E+04</pdfrwt>
<pdfrwt beam="2">  1       -2 0.64845124E-01 0.11958476E+04</pdfrwt>
<totfact> 0.68965157E+01</totfact>
</mgrwt>
</event>
<event>
12    1  0.2019083E-007  0.1757885E+04  0.7818608E-02  0.8729022E-01
         -2   -1    0    0    0  501 -0.00000000000E+00  0.00000000000E+00  0.26484785134E+03  0.26484785134E+03  0.00000000000E+00 0.  1.
          2   -1    0    0  501    0  0.00000000000E+00 -0.00000000000E+00 -0.29169182110E+04  0.29169182110E+04  0.00000000000E+00 0. -1.
         23    2    1    2    0    0  0.82601736002E+02 -0.63014896151E+03 -0.11776677990E+04  0.13413449090E+04  0.91618554878E+02 0.  0.
        254    2    1    2    0    0 -0.82601736002E+02  0.63014896151E+03 -0.14744025606E+04  0.18404211533E+04  0.89965346124E+03 0.  0.
        -24    2    4    4    0    0 -0.46745806908E+03  0.31276877435E+03 -0.97792581275E+03  0.11309437373E+04  0.79708777271E+02 0.  0.
         24    2    4    4    0    0  0.38485633308E+03  0.31738018716E+03 -0.49647674787E+03  0.70947741600E+03  0.89579363237E+02 0.  0.
         11    1    3    3    0    0  0.23446796082E+02 -0.46037063781E+03 -0.88526855998E+03  0.99809383311E+03  0.00000000000E+00 0.  1.
        -11    1    3    3    0    0  0.59154939920E+02 -0.16977832370E+03 -0.29239923902E+03  0.34325107589E+03  0.00000000000E+00 0. -1.
          4    1    6    6  502    0  0.37373102910E+02  0.65373612616E+02 -0.51630511745E+02  0.91302616560E+02  0.00000000000E+00 0. -1.
          3    1    5    5  503    0  0.19189934685E+01  0.81197913889E+01 -0.11545898105E+02  0.14245045145E+02  0.00000000000E+00 0. -1.
         -4    1    5    5    0  503 -0.46937706255E+03  0.30464898296E+03 -0.96637991465E+03  0.11166986922E+04  0.00000000000E+00 0.  1.
         -3    1    6    6    0  502  0.34748323017E+03  0.25200657455E+03 -0.44484623612E+03  0.61817479944E+03  0.00000000000E+00 0.  1.
<mgrwt>
<rscale>  0 0.17578845E+04</rscale>
<asrwt>0</asrwt>
<pdfrwt beam="1">  1        2 0.44875662E+00 0.17578845E+04</pdfrwt>
<pdfrwt beam="2">  1       -2 0.40745825E-01 0.17578845E+04</pdfrwt>
<totfact> 0.10635270E+01</totfact>
</mgrwt>
</event>
<event>
12    1  0.2019083E-007  0.1219393E+04  0.7818608E-02  0.9096050E-01
          2   -1    0    0  501    0  0.00000000000E+00  0.00000000000E+00  0.32410157738E+03  0.32410157738E+03  0.00000000000E+00 0. -1.
         -2   -1    0    0    0  501 -0.00000000000E+00 -0.00000000000E+00 -0.11469538748E+04  0.11469538748E+04  0.00000000000E+00 0.  1.
         23    2    1    2    0    0  0.16828199594E+03 -0.16472154598E+03 -0.34089934825E+03  0.42461908761E+03  0.92935386454E+02 0.  0.
        254    2    1    2    0    0 -0.16828199594E+03  0.16472154598E+03 -0.48195294913E+03  0.10464363645E+04  0.89849785863E+03 0.  0.
        -24    2    4    4    0    0 -0.19500632903E+03  0.37188608592E+03 -0.64231303271E+03  0.77158358785E+03  0.80302377178E+02 0.  0.
         24    2    4    4    0    0  0.26724333089E+02 -0.20716453994E+03  0.16036008358E+03  0.27485277669E+03  0.78723286651E+02 0.  0.
         11    1    3    3    0    0  0.90571145417E+02 -0.58812641259E+02 -0.22443253364E+03  0.24906228399E+03  0.00000000000E+00 0.  1.
        -11    1    3    3    0    0  0.77710850524E+02 -0.10590890472E+03 -0.11646681461E+03  0.17555680361E+03  0.00000000000E+00 0. -1.
          4    1    6    6  502    0 -0.63571951646E+01 -0.69347921377E+02  0.13841204813E+02  0.71000894926E+02  0.00000000000E+00 0. -1.
          1    1    5    5  503    0 -0.51810570409E+01  0.46202645086E+02 -0.10892959550E+03  0.11843641560E+03  0.00000000000E+00 0. -1.
         -2    1    5    5    0  503 -0.18982527199E+03  0.32568344083E+03 -0.53338343721E+03  0.65314717225E+03  0.00000000000E+00 0.  1.
         -3    1    6    6    0  502  0.33081528254E+02 -0.13781661856E+03  0.14651887876E+03  0.20385188176E+03  0.00000000000E+00 0.  1.
<mgrwt>
<rscale>  0 0.12193926E+04</rscale>
<asrwt>0</asrwt>
<pdfrwt beam="1">  1        2 0.49861782E-01 0.12193926E+04</pdfrwt>
<pdfrwt beam="2">  1       -2 0.17645444E+00 0.12193926E+04</pdfrwt>
<totfact> 0.19026401E+01</totfact>
</mgrwt>
</event>
<event>
12    1  0.2019083E-007  0.1375228E+04  0.7818608E-02  0.8971947E-01
         -1   -1    0    0    0  501 -0.00000000000E+00  0.00000000000E+00  0.31319532909E+04  0.31319532909E+04  0.00000000000E+00 0.  1.
          1   -1    0    0  501    0  0.00000000000E+00 -0.00000000000E+00 -0.15096432420E+03  0.15096432420E+03  0.00000000000E+00 0. -1.
         23    2    1    2    0    0 -0.15170417177E+03  0.62341977478E+02  0.16877495437E+04  0.16981520307E+04  0.91220168813E+02 0.  0.
        254    2    1    2    0    0  0.15170417177E+03 -0.62341977478E+02  0.12932394230E+04  0.15847655844E+04  0.90117316561E+03 0.  0.
        -24    2    4    4    0    0  0.43815666638E+03  0.23417218685E+02  0.28341547487E+03  0.52845155691E+03  0.80044276372E+02 0.  0.
         24    2    4    4    0    0 -0.28645249461E+03 -0.85759196163E+02  0.10098239481E+04  0.10563140275E+04  0.81518384897E+02 0.  0.
         11    1    3    3    0    0 -0.41583649171E+02 -0.16316146024E+02  0.24245302844E+03  0.24653374515E+03  0.00000000000E+00 0. -1.
        -11    1    3    3    0    0 -0.11012052260E+03  0.78658123502E+02  0.14452965153E+04  0.14516182856E+04  0.00000000000E+00 0.  1.
          4    1    6    6  502    0 -0.16871004954E+03 -0.25025137026E+02  0.45566873194E+03  0.48654221972E+03  0.00000000000E+00 0. -1.
          1    1    5    5  503    0  0.18383232866E+03 -0.24461419014E+02  0.14175270660E+03  0.23342346907E+03  0.00000000000E+00 0. -1.
         -2    1    5    5    0  503  0.25432433771E+03  0.47878637699E+02  0.14166276827E+03  0.29502808784E+03  0.00000000000E+00 0.  1.
         -3    1    6    6    0  502 -0.11774244506E+03 -0.60734059137E+02  0.55415521619E+03  0.56977180778E+03  0.00000000000E+00 0.  1.
<mgrwt>
<rscale>  0 0.13752283E+04</rscale>
<asrwt>0</asrwt>
<pdfrwt beam="1">  1        1 0.23225283E-01 0.13752283E+04</pdfrwt>
<pdfrwt beam="2">  1       -1 0.48183892E+00 0.13752283E+04</pdfrwt>
<totfact> 0.41546872E-01</totfact>
</mgrwt>
</event>
<event>
12    1  0.2019083E-007  0.2263335E+04  0.7818608E-02  0.8492520E-01
         -2   -1    0    0    0  501 -0.00000000000E+00  0.00000000000E+00  0.25898019797E+03  0.25898019797E+03  0.00000000000E+00 0.  1.
          2   -1    0    0  501    0  0.00000000000E+00 -0.00000000000E+00 -0.49450546869E+04  0.49450546869E+04  0.00000000000E+00 0. -1.
         23    2    1    2    0    0  0.43160056942E+02 -0.23060842563E+03  0.14109362803E+03  0.28765380325E+03  0.88285118599E+02 0.  0.
        254    2    1    2    0    0 -0.43160056942E+02  0.23060842563E+03 -0.48271681169E+04  0.49163810816E+04  0.90233467956E+03 0.  0.
        -24    2    4    4    0    0 -0.94030610432E+02  0.52371003373E+03 -0.19558330475E+04  0.20285607890E+04  0.81621134264E+02 0.  0.
         24    2    4    4    0    0  0.50870553490E+02 -0.29310160810E+03 -0.28713350694E+04  0.28878202926E+04  0.80278240912E+02 0.  0.
         11    1    3    3    0    0  0.25143490332E+02 -0.20053772898E+03  0.80296243304E+02  0.21747428018E+03  0.00000000000E+00 0. -1.
        -11    1    3    3    0    0  0.18016566610E+02 -0.30070696655E+02  0.60797384721E+02  0.70179523072E+02  0.00000000000E+00 0.  1.
          4    1    6    6  502    0  0.50665387913E+02 -0.16040068991E+03 -0.12887602510E+04  0.12996916355E+04  0.00000000000E+00 0. -1.
          1    1    5    5  503    0 -0.80461841022E+02  0.46762913307E+03 -0.18229300718E+04  0.18836733158E+04  0.00000000000E+00 0. -1.
         -2    1    5    5    0  503 -0.13568769410E+02  0.56080900657E+02 -0.13290297571E+03  0.14488747315E+03  0.00000000000E+00 0.  1.
         -1    1    6    6    0  502  0.20516557719E+00 -0.13270091818E+03 -0.15825748184E+04  0.15881286571E+04  0.00000000000E+00 0.  1.
<mgrwt>
<rscale>  0 0.22633349E+04</rscale>
<asrwt>0</asrwt>
<pdfrwt beam="1">  1        2 0.76077759E+00 0.22633349E+04</pdfrwt>
<pdfrwt beam="2">  1       -2 0.39843110E-01 0.22633349E+04</pdfrwt>
<totfact> 0.22116711E-01</totfact>
</mgrwt>
</event>
<event>
12    1  0.2019083E-007  0.2354151E+04  0.7818608E-02  0.8456871E-01
          2   -1    0    0  501    0  0.00000000000E+00  0.00000000000E+00  0.28704081819E+04  0.28704081819E+04  0.00000000000E+00 0. -1.
         -2   -1    0    0    0  501 -0.00000000000E+00 -0.00000000000E+00 -0.48268628704E+03  0.48268628704E+03  0.00000000000E+00 0.  1.
         23    2    1    2    0    0 -0.84217257696E+02 -0.87367339382E+03  0.17139298316E+04  0.19277258438E+04  0.90408604102E+02 0.  0.
        254    2    1    2    0    0  0.84217257696E+02  0.87367339382E+03  0.67379206329E+03  0.14253686252E+04  0.89848885773E+03 0.  0.
        -24    2    4    4    0    0  0.89775457785E+02 -0.87268233518E+02  0.39305383112E+03  0.42057349727E+03  0.81947391958E+02 0.  0.
         24    2    4    4    0    0 -0.55582000897E+01  0.96094162734E+03  0.28073823217E+03  0.10047951279E+04  0.85788048540E+02 0.  0.
         11    1    3    3    0    0 -0.92093977560E+02 -0.68739688288E+03  0.14060921091E+04  0.15678299636E+04  0.00000000000E+00 0. -1.
        -11    1    3    3    0    0  0.78767198648E+01 -0.18627651094E+03  0.30783772247E+03  0.35989588025E+03  0.00000000000E+00 0.  1.
          2    1    6    6  502    0  0.13535980635E+02  0.52656068071E+02  0.15970124684E+01  0.54391494972E+02  0.00000000000E+00 0. -1.
          1    1    5    5  503    0  0.34756314411E+02 -0.18580540018E+02  0.37898003041E+02  0.54676288218E+02  0.00000000000E+00 0. -1.
         -2    1    5    5    0  503  0.55019143374E+02 -0.68687693500E+02  0.35515582808E+03  0.36589720905E+03  0.00000000000E+00 0.  1.
         -1    1    6    6    0  502 -0.19094180725E+02  0.90828555927E+03  0.27914121970E+03  0.95040363291E+03  0.00000000000E+00 0.  1.
<mgrwt>
<rscale>  0 0.23541509E+04</rscale>
<asrwt>0</asrwt>
<pdfrwt beam="1">  1        2 0.44160125E+00 0.23541509E+04</pdfrwt>
<pdfrwt beam="2">  1       -2 0.74259430E-01 0.23541509E+04</pdfrwt>
<totfact> 0.30877164E+00</totfact>
</mgrwt>
</event>
<event>
12    1  0.2019083E-007  0.1366763E+04  0.7818608E-02  0.8978235E-01
         -2   -1    0    0    0  501 -0.00000000000E+00  0.00000000000E+00  0.51452490419E+03  0.51452490419E+03  0.00000000000E+00 0.  1.
          2   -1    0    0  501    0  0.00000000000E+00 -0.00000000000E+00 -0.90765331722E+03  0.90765331722E+03  0.00000000000E+00 0. -1.
         23    2    1    2    0    0 -0.95065171287E+02  0.29867054703E+03 -0.33491866335E+03  0.46757414120E+03  0.90628825471E+02 0.  0.
        254    2    1    2    0    0  0.95065171287E+02 -0.29867054703E+03 -0.58209749680E+02  0.95460408020E+03  0.89979947351E+03 0.  0.
        -24    2    4    4    0    0  0.19497842329E+03 -0.58617036626E+03  0.41935220467E+02  0.62458323488E+03  0.82057118851E+02 0.  0.
         24    2    4    4    0    0 -0.99913252004E+02  0.28749981923E+03 -0.10014497015E+03  0.33002084532E+03  0.79031255308E+02 0.  0.
         11    1    3    3    0    0 -0.11107983597E+03  0.26282767433E+03 -0.30866572189E+03  0.42034705211E+03  0.00000000000E+00 0. -1.
        -11    1    3    3    0    0  0.16014664683E+02  0.35842872702E+02 -0.26252941463E+02  0.47227089090E+02  0.00000000000E+00 0.  1.
          4    1    6    6  502    0 -0.42725983167E+02  0.11763045919E+03 -0.92386958441E+00  0.12515305870E+03  0.00000000000E+00 0. -1.
          1    1    5    5  503    0  0.29240274977E+02 -0.11415022586E+03 -0.23171388832E+02  0.12009238529E+03  0.00000000000E+00 0. -1.
         -2    1    5    5    0  503  0.16573814831E+03 -0.47202014040E+03  0.65106609298E+02  0.50449084960E+03  0.00000000000E+00 0.  1.
         -3    1    6    6    0  502 -0.57187268837E+02  0.16986936004E+03 -0.99221100562E+02  0.20486778662E+03  0.00000000000E+00 0.  1.
<mgrwt>
<rscale>  0 0.13667629E+04</rscale>
<asrwt>0</asrwt>
<pdfrwt beam="1">  1        2 0.13963897E+00 0.13667629E+04</pdfrwt>
<pdfrwt beam="2">  1       -2 0.79157679E-01 0.13667629E+04</pdfrwt>
<totfact> 0.40028871E+01</totfact>
</mgrwt>
</event>
<event>
12    1  0.2019083E-007  0.1597613E+04  0.7818608E-02  0.8822016E-01
          2   -1    0    0  501    0  0.00000000000E+00  0.00000000000E+00  0.31357975577E+04  0.31357975577E+04  0.00000000000E+00 0. -1.
         -2   -1    0    0    0  501 -0.00000000000E+00 -0.00000000000E+00 -0.20348631989E+03  0.20348631989E+03  0.00000000000E+00 0.  1.
         23    2    1    2    0    0 -0.18594322319E+03 -0.50540447685E+03  0.10692586466E+04  0.12006282129E+04  0.90473668881E+02 0.  0.
        254    2    1    2    0    0  0.18594322319E+03  0.50540447685E+03  0.18630525911E+04  0.21386556646E+04  0.90159554517E+03 0.  0.
        -24    2    4    4    0    0 -0.81720994995E+02  0.61333862171E+03  0.16692996086E+04  0.17821240865E+04  0.80885664015E+02 0.  0.
         24    2    4    4    0    0  0.26766421819E+03 -0.10793414486E+03  0.19375298255E+03  0.35653157811E+03  0.79250455009E+02 0.  0.
         11    1    3    3    0    0 -0.13820242926E+03 -0.25204271156E+03  0.53106285412E+03  0.60386521255E+03  0.00000000000E+00 0. -1.
        -11    1    3    3    0    0 -0.47740793932E+02 -0.25336176529E+03  0.53819579252E+03  0.59676300036E+03  0.00000000000E+00 0.  1.
          2    1    6    6  502    0  0.34272458359E+01 -0.18768112652E+02  0.48061207429E+01  0.19674523200E+02  0.00000000000E+00 0. -1.
          3    1    5    5  503    0  0.16621525080E+01  0.35834657111E+01  0.12182399024E+01  0.41337738112E+01  0.00000000000E+00 0. -1.
         -4    1    5    5    0  503 -0.83383147503E+02  0.60975515600E+03  0.16680813687E+04  0.17779903127E+04  0.00000000000E+00 0.  1.
         -1    1    6    6    0  502  0.26423697235E+03 -0.89166032211E+02  0.18894686180E+03  0.33685705491E+03  0.00000000000E+00 0.  1.
<mgrwt>
<rscale>  0 0.15976131E+04</rscale>
<asrwt>0</asrwt>
<pdfrwt beam="1">  1        2 0.48243036E+00 0.15976131E+04</pdfrwt>
<pdfrwt beam="2">  1       -2 0.31305590E-01 0.15976131E+04</pdfrwt>
<totfact> 0.13056361E+01</totfact>
</mgrwt>
</event>
<event>
12    1  0.2019083E-007  0.3070830E+04  0.7818608E-02  0.8223789E-01
          2   -1    0    0  501    0  0.00000000000E+00  0.00000000000E+00  0.16851459338E+04  0.16851459338E+04  0.00000000000E+00 0. -1.
         -2   -1    0    0    0  501 -0.00000000000E+00 -0.00000000000E+00 -0.13989880168E+04  0.13989880168E+04  0.00000000000E+00 0.  1.
         23    2    1    2    0    0 -0.43133383859E+03 -0.12361753488E+04  0.62776489495E+03  0.14548125426E+04  0.90622279050E+02 0.  0.
        254    2    1    2    0    0  0.43133383859E+03  0.12361753488E+04 -0.34160697800E+03  0.16293214080E+04  0.90764230288E+03 0.  0.
        -24    2    4    4    0    0  0.35233778935E+02  0.12144809652E+03  0.26004867572E+03  0.29966189093E+03  0.78618546201E+02 0.  0.
         24    2    4    4    0    0  0.39610005966E+03  0.11147272522E+04 -0.60165565372E+03  0.13296595171E+04  0.80577922225E+02 0.  0.
         11    1    3    3    0    0 -0.18282110786E+03 -0.51223385974E+03  0.31034800560E+03  0.62619722861E+03  0.00000000000E+00 0. -1.
        -11    1    3    3    0    0 -0.24851273073E+03 -0.72394148901E+03  0.31741688935E+03  0.82861531394E+03  0.00000000000E+00 0.  1.
          4    1    6    6  502    0  0.27328514715E+03  0.66537643860E+03 -0.34434258652E+03  0.79748504287E+03  0.00000000000E+00 0. -1.
          1    1    5    5  503    0  0.19895769628E+02  0.11198672535E+03  0.25744773503E+03  0.28145373434E+03  0.00000000000E+00 0. -1.
         -2    1    5    5    0  503  0.15338009307E+02  0.94613711677E+01  0.26009406908E+01  0.18208156588E+02  0.00000000000E+00 0.  1.
         -3    1    6    6    0  502  0.12281491250E+03  0.44935081363E+03 -0.25731306720E+03  0.53217447420E+03  0.00000000000E+00 0.  1.
<mgrwt>
<rscale>  0 0.30708298E+04</rscale>
<asrwt>0</asrwt>
<pdfrwt beam="1">  1        2 0.25925322E+00 0.30708298E+04</pdfrwt>
<pdfrwt beam="2">  1       -2 0.21522893E+00 0.30708298E+04</pdfrwt>
<totfact> 0.90173572E-01</totfact>
</mgrwt>
</event>
<event>
12    1  0.2019083E-007  0.1234962E+04  0.7818608E-02  0.9082793E-01
         -2   -1    0    0    0  501 -0.00000000000E+00  0.00000000000E+00  0.21799852646E+03  0.21799852646E+03  0.00000000000E+00 0.  1.
          2   -1    0    0  501    0  0.00000000000E+00 -0.00000000000E+00 -0.17490150608E+04  0.17490150608E+04  0.00000000000E+00 0. -1.
         23    2    1    2    0    0  0.16981502653E+03  0.21749891947E+03 -0.39384369890E+03  0.49093929952E+03  0.98821118457E+02 0.  0.
        254    2    1    2    0    0 -0.16981502653E+03 -0.21749891947E+03 -0.11371728354E+04  0.14760742877E+04  0.89971680100E+03 0.  0.
        -24    2    4    4    0    0 -0.39456985479E+03 -0.40037914530E+03 -0.99024618679E+03  0.11415775593E+04  0.81381713062E+02 0.  0.
         24    2    4    4    0    0  0.22475482826E+03  0.18288022583E+03 -0.14692664864E+03  0.33449672838E+03  0.79628584001E+02 0.  0.
         13    1    3    3    0    0  0.95765093061E+02  0.15551144611E+03 -0.18060190913E+03  0.25684978587E+03  0.00000000000E+00 0.  1.
        -13    1    3    3    0    0  0.74049933470E+02  0.61987473356E+02 -0.21324178977E+03  0.23408951365E+03  0.00000000000E+00 0. -1.
          2    1    6    6  502    0  0.14762447254E+03  0.10996208404E+03 -0.49975609249E+02  0.19074120253E+03  0.00000000000E+00 0. -1.
          3    1    5    5  503    0 -0.95032750014E+02 -0.92748380672E+02 -0.30879668742E+03  0.33613818565E+03  0.00000000000E+00 0. -1.
         -4    1    5    5    0  503 -0.29953710478E+03 -0.30763076463E+03 -0.68144949938E+03  0.80543937369E+03  0.00000000000E+00 0.  1.
         -1    1    6    6    0  502  0.77130355715E+02  0.72918141788E+02 -0.96951039390E+02  0.14375552585E+03  0.00000000000E+00 0.  1.
<mgrwt>
<rscale>  0 0.12349619E+04</rscale>
<asrwt>0</asrwt>
<pdfrwt beam="1">  1        2 0.26907924E+00 0.12349619E+04</pdfrwt>
<pdfrwt beam="2">  1       -2 0.33538235E-01 0.12349619E+04</pdfrwt>
<totfact> 0.75355401E+01</totfact>
</mgrwt>
</event>
<event>
12    1  0.2019083E-007  0.2487887E+04  0.7818608E-02  0.8407314E-01
         -1   -1    0    0    0  501 -0.00000000000E+00  0.00000000000E+00  0.81970820077E+03  0.81970820077E+03  0.00000000000E+00 0.  1.
          1   -1    0    0  501    0  0.00000000000E+00 -0.00000000000E+00 -0.18877392723E+04  0.18877392723E+04  0.00000000000E+00 0. -1.
         23    2    1    2    0    0 -0.27143255207E+03 -0.70570081746E+03  0.37672403453E+03  0.84961060336E+03  0.90707800484E+02 0.  0.
        254    2    1    2    0    0  0.27143255207E+03  0.70570081746E+03 -0.14447551061E+04  0.18578368697E+04  0.89025347169E+03 0.  0.
        -24    2    4    4    0    0 -0.20071693396E+02  0.65044350410E+03 -0.39771276774E+03  0.76666788911E+03  0.78259706537E+02 0.  0.
         24    2    4    4    0    0  0.29150424547E+03  0.55257313360E+02 -0.10470423383E+04  0.10911689806E+04  0.79523519564E+02 0.  0.
         13    1    3    3    0    0 -0.13315094619E+03 -0.27094481616E+03  0.11103368595E+03  0.32166558301E+03  0.00000000000E+00 0. -1.
        -13    1    3    3    0    0 -0.13828160588E+03 -0.43475600129E+03  0.26569034858E+03  0.52794502035E+03  0.00000000000E+00 0.  1.
          2    1    6    6  502    0  0.25687770944E+03  0.31877813566E+02 -0.80637541249E+03  0.84690239017E+03  0.00000000000E+00 0. -1.
          1    1    5    5  503    0  0.14302586239E+02  0.10507189872E+03 -0.38946121647E+02  0.11296666882E+03  0.00000000000E+00 0. -1.
         -2    1    5    5    0  503 -0.34374279635E+02  0.54537160538E+03 -0.35876664609E+03  0.65370122028E+03  0.00000000000E+00 0.  1.
         -1    1    6    6    0  502  0.34626536029E+02  0.23379499794E+02 -0.24066692585E+03  0.24426659044E+03  0.00000000000E+00 0.  1.
<mgrwt>
<rscale>  0 0.24878869E+04</rscale>
<asrwt>0</asrwt>
<pdfrwt beam="1">  1        1 0.29042143E+00 0.24878869E+04</pdfrwt>
<pdfrwt beam="2">  1       -1 0.12610895E+00 0.24878869E+04</pdfrwt>
<totfact> 0.17288254E+00</totfact>
</mgrwt>
</event>
<event>
12    1  0.2019083E-007  0.1685922E+04  0.7818608E-02  0.8769434E-01
         -2   -1    0    0    0  501 -0.00000000000E+00  0.00000000000E+00  0.11941026180E+04  0.11941026180E+04  0.00000000000E+00 0.  1.
          2   -1    0    0  501    0  0.00000000000E+00 -0.00000000000E+00 -0.59507735698E+03  0.59507735698E+03  0.00000000000E+00 0. -1.
         23    2    1    2    0    0 -0.18606006838E+03 -0.56641374760E+03  0.26707268088E+03  0.65950411842E+03  0.90415611611E+02 0.  0.
        254    2    1    2    0    0  0.18606006838E+03  0.56641374760E+03  0.33195258010E+03  0.11296758565E+04  0.90029558639E+03 0.  0.
        -24    2    4    4    0    0  0.42691940180E+03  0.45538470081E+03  0.50181820802E+03  0.80490291570E+03  0.80073643793E+02 0.  0.
         24    2    4    4    0    0 -0.24085933342E+03  0.11102904679E+03 -0.16986562791E+03  0.32477294084E+03  0.79261994843E+02 0.  0.
         11    1    3    3    0    0 -0.91277774376E+02 -0.20762127001E+03  0.60271490037E+02  0.23467184827E+03  0.00000000000E+00 0. -1.
        -11    1    3    3    0    0 -0.94782294007E+02 -0.35879247758E+03  0.20680119085E+03  0.42483227015E+03  0.00000000000E+00 0.  1.
          4    1    6    6  502    0 -0.22050357466E+03  0.92963568905E+02 -0.17577950954E+03  0.29692168589E+03  0.00000000000E+00 0. -1.
          1    1    5    5  503    0  0.23963882700E+03  0.21625610781E+03  0.29634286426E+03  0.43819238328E+03  0.00000000000E+00 0. -1.
         -2    1    5    5    0  503  0.18728057481E+03  0.23912859301E+03  0.20547534376E+03  0.36671053242E+03  0.00000000000E+00 0.  1.
         -3    1    6    6    0  502 -0.20355758764E+02  0.18065477882E+02  0.59138816265E+01  0.27851254942E+02  0.00000000000E+00 0.  1.
<mgrwt>
<rscale>  0 0.16859222E+04</rscale>
<asrwt>0</asrwt>
<pdfrwt beam="1">  1        2 0.91550363E-01 0.16859222E+04</pdfrwt>
<pdfrwt beam="2">  1       -2 0.18370809E+00 0.16859222E+04</pdfrwt>
<totfact> 0.81518364E+00</totfact>
</mgrwt>
</event>
<event>
12    1  0.2019083E-007  0.2316037E+04  0.7818608E-02  0.8471625E-01
         -2   -1    0    0    0  501 -0.00000000000E+00  0.00000000000E+00  0.98310711804E+03  0.98310711804E+03  0.00000000000E+00 0.  1.
          2   -1    0    0  501    0  0.00000000000E+00 -0.00000000000E+00 -0.13640497452E+04  0.13640497452E+04  0.00000000000E+00 0. -1.
         23    2    1    2    0    0 -0.93044645939E+03  0.16415655472E+03 -0.42999133016E+03  0.10419630833E+04  0.90091812782E+02 0.  0.
        254    2    1    2    0    0  0.93044645939E+03 -0.16415655472E+03  0.49048702978E+02  0.13051937800E+04  0.89913683036E+03 0.  0.
        -24    2    4    4    0    0  0.10416543796E+04  0.35564267231E+02 -0.39757332249E+02  0.10460400083E+04  0.79437961839E+02 0.  0.
         24    2    4    4    0    0 -0.11120792022E+03 -0.19972082195E+03  0.88806035227E+02  0.25915377168E+03  0.83776829978E+02 0.  0.
         11    1    3    3    0    0 -0.63270727239E+03  0.70361163109E+02 -0.27554225886E+03  0.69368056209E+03  0.00000000000E+00 0. -1.
        -11    1    3    3    0    0 -0.29773918700E+03  0.93795391609E+02 -0.15444907130E+03  0.34828252122E+03  0.00000000000E+00 0.  1.
          4    1    6    6  502    0  0.25840847369E+01 -0.46860208218E+01  0.23492248146E+02  0.24094024322E+02  0.00000000000E+00 0. -1.
          1    1    5    5  503    0  0.14251857385E+03  0.24044608624E+02  0.14101254312E+02  0.14521891223E+03  0.00000000000E+00 0. -1.
         -2    1    5    5    0  503  0.89913580575E+03  0.11519658607E+02 -0.53858586561E+02  0.90082109604E+03  0.00000000000E+00 0.  1.
         -3    1    6    6    0  502 -0.11379200496E+03 -0.19503480113E+03  0.65313787081E+02  0.23505974735E+03  0.00000000000E+00 0.  1.
<mgrwt>
<rscale>  0 0.23160371E+04</rscale>
<asrwt>0</asrwt>
<pdfrwt beam="1">  1        2 0.20985381E+00 0.23160371E+04</pdfrwt>
<pdfrwt beam="2">  1       -2 0.15124725E+00 0.23160371E+04</pdfrwt>
<totfact> 0.40279309E+00</totfact>
</mgrwt>
</event>
<event>
12    1  0.2019083E-007  0.2873786E+04  0.7818608E-02  0.8280720E-01
          2   -1    0    0  501    0  0.00000000000E+00  0.00000000000E+00  0.33971210701E+04  0.33971210701E+04  0.00000000000E+00 0. -1.
         -2   -1    0    0    0  501 -0.00000000000E+00 -0.00000000000E+00 -0.60776812402E+03  0.60776812402E+03  0.00000000000E+00 0.  1.
         23    2    1    2    0    0  0.70733913697E+03 -0.92356965205E+03  0.47172526809E+03  0.12586638719E+04  0.91654006520E+02 0.  0.
        254    2    1    2    0    0 -0.70733913697E+03  0.92356965205E+03  0.23176276780E+04  0.27462253223E+04  0.90390591872E+03 0.  0.
        -24    2    4    4    0    0 -0.33039799329E+03  0.81640082465E+03  0.85565990687E+03  0.12305382220E+04  0.79983117851E+02 0.  0.
         24    2    4    4    0    0 -0.37694114369E+03  0.10716882740E+03  0.14619677711E+04  0.15156871003E+04  0.79923955480E+02 0.  0.
         13    1    3    3    0    0  0.31468089667E+03 -0.47343556009E+03  0.20249544046E+03  0.60346474603E+03  0.00000000000E+00 0.  1.
        -13    1    3    3    0    0  0.39265824030E+03 -0.45013409196E+03  0.26922982763E+03  0.65519912585E+03  0.00000000000E+00 0. -1.
          2    1    6    6  502    0 -0.37146497622E+03  0.93471683045E+02  0.13698883535E+04  0.14224335785E+04  0.00000000000E+00 0. -1.
          3    1    5    5  503    0 -0.30550456236E+02  0.15628892137E+03  0.14782090261E+03  0.21727994977E+03  0.00000000000E+00 0. -1.
         -4    1    5    5    0  503 -0.29984753705E+03  0.66011190328E+03  0.70783900426E+03  0.10132582722E+04  0.00000000000E+00 0.  1.
         -1    1    6    6    0  502 -0.54761674679E+01  0.13697144352E+02  0.92079417634E+02  0.93253521785E+02  0.00000000000E+00 0.  1.
<mgrwt>
<rscale>  0 0.28737863E+04</rscale>
<asrwt>0</asrwt>
<pdfrwt beam="1">  1        2 0.52263400E+00 0.28737863E+04</pdfrwt>
<pdfrwt beam="2">  1       -2 0.93502791E-01 0.28737863E+04</pdfrwt>
<totfact> 0.80083013E-01</totfact>
</mgrwt>
</event>
<event>
12    1  0.2019083E-007  0.1374218E+04  0.7818608E-02  0.8972696E-01
          2   -1    0    0  501    0  0.00000000000E+00  0.00000000000E+00  0.14998065764E+04  0.14998065764E+04  0.00000000000E+00 0. -1.
         -2   -1    0    0    0  501 -0.00000000000E+00 -0.00000000000E+00 -0.31478623369E+03  0.31478623369E+03  0.00000000000E+00 0.  1.
         23    2    1    2    0    0 -0.12666043592E+03  0.34534070598E+03  0.19126694941E+03  0.42465587280E+03  0.91904815645E+02 0.  0.
        254    2    1    2    0    0  0.12666043592E+03 -0.34534070598E+03  0.99375339331E+03  0.13899369373E+04  0.89948641663E+03 0.  0.
        -24    2    4    4    0    0 -0.18626817659E+03  0.62567850517E+02 -0.55199041742E+02  0.21900177022E+03  0.79399443461E+02 0.  0.
         24    2    4    4    0    0  0.31292861251E+03 -0.40790855649E+03  0.10489524351E+04  0.11709351671E+04  0.80462708784E+02 0.  0.
         13    1    3    3    0    0 -0.73704064472E+02  0.25362486879E+03  0.17664669174E+03  0.31774505014E+03  0.00000000000E+00 0. -1.
        -13    1    3    3    0    0 -0.52956371450E+02  0.91715837186E+02  0.14620257673E+02  0.10691082266E+03  0.00000000000E+00 0.  1.
          4    1    6    6  502    0  0.26925022037E+03 -0.36134254364E+03  0.85106698397E+03  0.96300525763E+03  0.00000000000E+00 0. -1.
          3    1    5    5  503    0 -0.13334665817E+03  0.53747675652E+02 -0.24931438817E+01  0.14379276633E+03  0.00000000000E+00 0. -1.
         -4    1    5    5    0  503 -0.52921518419E+02  0.88201748657E+01 -0.52705897861E+02  0.75209003888E+02  0.00000000000E+00 0.  1.
         -3    1    6    6    0  502  0.43678392137E+02 -0.46566012850E+02  0.19788545108E+03  0.20792990945E+03  0.00000000000E+00 0.  1.
<mgrwt>
<rscale>  0 0.13742175E+04</rscale>
<asrwt>0</asrwt>
<pdfrwt beam="1">  1        2 0.23073947E+00 0.13742175E+04</pdfrwt>
<pdfrwt beam="2">  1       -2 0.48428652E-01 0.13742175E+04</pdfrwt>
<totfact> 0.49988310E+01</totfact>
</mgrwt>
</event>
<event>
12    1  0.2019083E-007  0.1625195E+04  0.7818608E-02  0.8805218E-01
         -2   -1    0    0    0  501 -0.00000000000E+00  0.00000000000E+00  0.58248858954E+03  0.58248858954E+03  0.00000000000E+00 0.  1.
          2   -1    0    0  501    0  0.00000000000E+00 -0.00000000000E+00 -0.11336089750E+04  0.11336089750E+04  0.00000000000E+00 0. -1.
         23    2    1    2    0    0  0.49702281118E+02  0.37796491370E+03 -0.62024393624E+03  0.73375047089E+03  0.91429865761E+02 0.  0.
        254    2    1    2    0    0 -0.49702281118E+02 -0.37796491370E+03  0.69123550746E+02  0.98234709368E+03  0.90271809246E+03 0.  0.
        -24    2    4    4    0    0 -0.72099868123E+02 -0.22657686604E+03  0.47703062439E+03  0.53913610913E+03  0.81080579359E+02 0.  0.
         24    2    4    4    0    0  0.22397587005E+02 -0.15138804766E+03 -0.40790707365E+03  0.44321098455E+03  0.81411321184E+02 0.  0.
         13    1    3    3    0    0  0.60982910675E+02  0.25698655586E+03 -0.48261459694E+03  0.55016166212E+03  0.00000000000E+00 0. -1.
        -13    1    3    3    0    0 -0.11280629557E+02  0.12097835785E+03 -0.13762933929E+03  0.18358880877E+03  0.00000000000E+00 0.  1.
          2    1    6    6  502    0  0.34667179006E+02 -0.19521644263E+02 -0.11691575569E+03  0.12349980496E+03  0.00000000000E+00 0. -1.
          1    1    5    5  503    0 -0.23794191671E+02 -0.18575807795E+03  0.33849040725E+03  0.38684361554E+03  0.00000000000E+00 0. -1.
         -2    1    5    5    0  503 -0.48305676452E+02 -0.40818788093E+02  0.13854021714E+03  0.15229249359E+03  0.00000000000E+00 0.  1.
         -1    1    6    6    0  502 -0.12269592000E+02 -0.13186640340E+03 -0.29099131796E+03  0.31971117960E+03  0.00000000000E+00 0.  1.
<mgrwt>
<rscale>  0 0.16251945E+04</rscale>
<asrwt>0</asrwt>
<pdfrwt beam="1">  1        2 0.17440138E+00 0.16251945E+04</pdfrwt>
<pdfrwt beam="2">  1       -2 0.89613629E-01 0.16251945E+04</pdfrwt>
<totfact> 0.21226183E+01</totfact>
</mgrwt>
</event>
<event>
12    1  0.2019083E-007  0.1690722E+04  0.7818608E-02  0.8766674E-01
         -1   -1    0    0    0  501 -0.00000000000E+00  0.00000000000E+00  0.35072679633E+03  0.35072679633E+03  0.00000000000E+00 0.  1.
          1   -1    0    0  501    0  0.00000000000E+00 -0.00000000000E+00 -0.20375844514E+04  0.20375844514E+04  0.00000000000E+00 0. -1.
         23    2    1    2    0    0  0.57228985699E+03  0.18017580963E+03 -0.66060767650E+03  0.89708445056E+03  0.91536912829E+02 0.  0.
        254    2    1    2    0    0 -0.57228985699E+03 -0.18017580963E+03 -0.10262499786E+04  0.14912267972E+04  0.90032735119E+03 0.  0.
        -24    2    4    4    0    0 -0.35162807130E+03  0.24104412841E+03 -0.89260801774E+03  0.99228885872E+03  0.78380695535E+02 0.  0.
         24    2    4    4    0    0 -0.22066178569E+03 -0.42121993803E+03 -0.13364196085E+03  0.49893793847E+03  0.70434600066E+02 0.  0.
         13    1    3    3    0    0  0.12277021484E+03  0.43038596988E+02 -0.20312493386E+03  0.24121481140E+03  0.00000000000E+00 0. -1.
        -13    1    3    3    0    0  0.44951964215E+03  0.13713721264E+03 -0.45748274264E+03  0.65586963917E+03  0.00000000000E+00 0.  1.
          4    1    6    6  502    0 -0.46236103593E+02 -0.12654324074E+03 -0.65455897490E+02  0.14978465732E+03  0.00000000000E+00 0. -1.
          3    1    5    5  503    0 -0.14462393192E+03  0.11974682282E+03 -0.31320225213E+03  0.36517260850E+03  0.00000000000E+00 0. -1.
         -4    1    5    5    0  503 -0.20700413938E+03  0.12129730559E+03 -0.57940576561E+03  0.62711625021E+03  0.00000000000E+00 0.  1.
         -3    1    6    6    0  502 -0.17442568209E+03 -0.29467669730E+03 -0.68186063363E+02  0.34915328115E+03  0.00000000000E+00 0.  1.
<mgrwt>
<rscale>  0 0.16907223E+04</rscale>
<asrwt>0</asrwt>
<pdfrwt beam="1">  1        1 0.31347453E+00 0.16907223E+04</pdfrwt>
<pdfrwt beam="2">  1       -1 0.53957969E-01 0.16907223E+04</pdfrwt>
<totfact> 0.92819946E+00</totfact>
</mgrwt>
</event>
<event>
12    1  0.2019083E-007  0.1343313E+04  0.7818608E-02  0.8995905E-01
          2   -1    0    0  501    0  0.00000000000E+00  0.00000000000E+00  0.77396939543E+03  0.77396939543E+03  0.00000000000E+00 0. -1.
         -2   -1    0    0    0  501 -0.00000000000E+00 -0.00000000000E+00 -0.58286890502E+03  0.58286890502E+03  0.00000000000E+00 0.  1.
         23    2    1    2    0    0  0.22025004564E+03  0.28678873908E+03  0.50608201275E+02  0.37611901305E+03  0.90257733580E+02 0.  0.
        254    2    1    2    0    0 -0.22025004564E+03 -0.28678873908E+03  0.14049228913E+03  0.98071928740E+03  0.90072991174E+03 0.  0.
        -24    2    4    4    0    0 -0.19458303801E+03  0.97051012644E+02 -0.30714341993E+03  0.38455975236E+03  0.79168585915E+02 0.  0.
         24    2    4    4    0    0 -0.25667007634E+02 -0.38383975173E+03  0.44763570906E+03  0.59615953504E+03  0.83885117285E+02 0.  0.
         11    1    3    3    0    0  0.14467387907E+03  0.12491707563E+03  0.49597136514E+02  0.19747071433E+03  0.00000000000E+00 0. -1.
        -11    1    3    3    0    0  0.75576166576E+02  0.16187166345E+03  0.10110647606E+01  0.17864829872E+03  0.00000000000E+00 0.  1.
          4    1    6    6  502    0 -0.54229419770E+02 -0.30711589687E+03  0.35386426137E+03  0.47167883094E+03  0.00000000000E+00 0. -1.
          1    1    5    5  503    0 -0.17605097891E+03  0.10194803637E+03 -0.30298082051E+03  0.36494482718E+03  0.00000000000E+00 0. -1.
         -2    1    5    5    0  503 -0.18532059101E+02 -0.48970237261E+01 -0.41625994271E+01  0.19614925182E+02  0.00000000000E+00 0.  1.
         -3    1    6    6    0  502  0.28562412137E+02 -0.76723854858E+02  0.93771447696E+02  0.12448070410E+03  0.00000000000E+00 0.  1.
<mgrwt>
<rscale>  0 0.13433134E+04</rscale>
<asrwt>0</asrwt>
<pdfrwt beam="1">  1        2 0.11907222E+00 0.13433134E+04</pdfrwt>
<pdfrwt beam="2">  1       -2 0.89672138E-01 0.13433134E+04</pdfrwt>
<totfact> 0.37495320E+01</totfact>
</mgrwt>
</event>
<event>
12    1  0.2019083E-007  0.3563492E+04  0.7818608E-02  0.8098906E-01
         -2   -1    0    0    0  501 -0.00000000000E+00  0.00000000000E+00  0.10114637746E+04  0.10114637746E+04  0.00000000000E+00 0.  1.
          2   -1    0    0  501    0  0.00000000000E+00 -0.00000000000E+00 -0.31386383777E+04  0.31386383777E+04  0.00000000000E+00 0. -1.
         23    2    1    2    0    0  0.15790001232E+04  0.53235949553E+03 -0.93843493116E+03  0.19145390277E+04  0.90285918623E+02 0.  0.
        254    2    1    2    0    0 -0.15790001232E+04 -0.53235949553E+03 -0.11887396719E+04  0.22355631246E+04  0.89888400521E+03 0.  0.
        -24    2    4    4    0    0 -0.87156060344E+02  0.10153524134E+03  0.80442944140E+02  0.17532553517E+03  0.79764603266E+02 0.  0.
         24    2    4    4    0    0 -0.14918440629E+04 -0.63389473687E+03 -0.12691826161E+04  0.20602375894E+04  0.79581194782E+02 0.  0.
         13    1    3    3    0    0  0.78969239946E+03  0.23823638831E+03 -0.42241529205E+03  0.92671750898E+03  0.00000000000E+00 0.  1.
        -13    1    3    3    0    0  0.78930772376E+03  0.29412310722E+03 -0.51601963911E+03  0.98782151876E+03  0.00000000000E+00 0. -1.
          4    1    6    6  502    0 -0.24351300840E+03 -0.11959303720E+03 -0.24580910340E+03  0.36609178510E+03  0.00000000000E+00 0. -1.
          1    1    5    5  503    0  0.55499042256E+01 -0.94543366983E+01  0.80711432718E+01  0.13613569445E+02  0.00000000000E+00 0. -1.
         -2    1    5    5    0  503 -0.92705964569E+02  0.11098957803E+03  0.72371800868E+02  0.16171196573E+03  0.00000000000E+00 0.  1.
         -3    1    6    6    0  502 -0.12483310545E+04 -0.51430169967E+03 -0.10233735127E+04  0.16941458043E+04  0.00000000000E+00 0.  1.
<mgrwt>
<rscale>  0 0.35634921E+04</rscale>
<asrwt>0</asrwt>
<pdfrwt beam="1">  1        2 0.48286744E+00 0.35634921E+04</pdfrwt>
<pdfrwt beam="2">  1       -2 0.15560981E+00 0.35634921E+04</pdfrwt>
<totfact> 0.31530384E-01</totfact>
</mgrwt>
</event>
<event>
12    1  0.2019083E-007  0.2173940E+04  0.7818608E-02  0.8529354E-01
          1   -1    0    0  501    0  0.00000000000E+00  0.00000000000E+00  0.62526704064E+03  0.62526704064E+03  0.00000000000E+00 0. -1.
         -1   -1    0    0    0  501 -0.00000000000E+00 -0.00000000000E+00 -0.18895983921E+04  0.18895983921E+04  0.00000000000E+00 0.  1.
         23    2    1    2    0    0  0.57495314620E+03  0.66496575225E+03 -0.73439572045E+03  0.11490945263E+04  0.91272034454E+02 0.  0.
        254    2    1    2    0    0 -0.57495314620E+03 -0.66496575225E+03 -0.52993563099E+03  0.13657709064E+04  0.90097048994E+03 0.  0.
        -24    2    4    4    0    0 -0.43427818911E+03 -0.47541627097E+03 -0.77846665674E+03  0.10138702773E+04  0.85465942244E+02 0.  0.
         24    2    4    4    0    0 -0.14067495709E+03 -0.18954948128E+03  0.24853102574E+03  0.35190062909E+03  0.79673914147E+02 0.  0.
         13    1    3    3    0    0  0.18461512378E+03  0.27503142671E+03 -0.25194055608E+03  0.41617192770E+03  0.00000000000E+00 0.  1.
        -13    1    3    3    0    0  0.39033802242E+03  0.38993432554E+03 -0.48245516437E+03  0.73292259865E+03  0.00000000000E+00 0. -1.
          4    1    6    6  502    0 -0.11032529444E+03 -0.88111967308E+02  0.16407519485E+03  0.21646260402E+03  0.00000000000E+00 0. -1.
          1    1    5    5  503    0 -0.15349333004E+03 -0.23060883089E+03 -0.33543250442E+03  0.43503517130E+03  0.00000000000E+00 0. -1.
         -2    1    5    5    0  503 -0.28078485907E+03 -0.24480744008E+03 -0.44303415232E+03  0.57883510599E+03  0.00000000000E+00 0.  1.
         -3    1    6    6    0  502 -0.30349662651E+02 -0.10143751397E+03  0.84455830895E+02  0.13543802507E+03  0.00000000000E+00 0.  1.
<mgrwt>
<rscale>  0 0.21739398E+04</rscale>
<asrwt>0</asrwt>
<pdfrwt beam="1">  1        1 0.96194930E-01 0.21739398E+04</pdfrwt>
<pdfrwt beam="2">  1       -1 0.29070744E+00 0.21739398E+04</pdfrwt>
<totfact> 0.11183663E+00</totfact>
</mgrwt>
</event>
<event>
12    1  0.2019083E-007  0.2214459E+04  0.7818608E-02  0.8512434E-01
          2   -1    0    0  501    0  0.00000000000E+00  0.00000000000E+00  0.23800815314E+04  0.23800815314E+04  0.00000000000E+00 0.  1.
         -2   -1    0    0    0  501 -0.00000000000E+00 -0.00000000000E+00 -0.51509032244E+03  0.51509032244E+03  0.00000000000E+00 0. -1.
         23    2    1    2    0    0 -0.24761649336E+03 -0.71071954775E+03  0.14727895111E+04  0.16558968438E+04  0.80306974605E+02 0.  0.
        254    2    1    2    0    0  0.24761649336E+03  0.71071954775E+03  0.39220169792E+03  0.12392750100E+04  0.90307484482E+03 0.  0.
        -24    2    4    4    0    0  0.25726860648E+03 -0.72807788031E+02  0.35568070018E+03  0.45095709267E+03  0.73249089240E+02 0.  0.
         24    2    4    4    0    0 -0.96521131194E+01  0.78352733578E+03  0.36520997740E+02  0.78831791737E+03  0.78122380751E+02 0.  0.
         13    1    3    3    0    0 -0.13966064539E+03 -0.40042539306E+03  0.74168427287E+03  0.85436593560E+03  0.00000000000E+00 0. -1.
        -13    1    3    3    0    0 -0.10795584796E+03 -0.31029415468E+03  0.73110523819E+03  0.80153090823E+03  0.00000000000E+00 0.  1.
          2    1    6    6  502    0 -0.37171188446E+02  0.24787431093E+03 -0.99693109091E+00  0.25064789075E+03  0.00000000000E+00 0. -1.
          1    1    5    5  503    0  0.12639656308E+03 -0.26313261012E+02  0.11410605096E+03  0.17230400381E+03  0.00000000000E+00 0. -1.
         -2    1    5    5    0  503  0.13087204339E+03 -0.46494527019E+02  0.24157464922E+03  0.27865308886E+03  0.00000000000E+00 0.  1.
         -1    1    6    6    0  502  0.27519075326E+02  0.53565302485E+03  0.37517928831E+02  0.53767002662E+03  0.00000000000E+00 0.  1.
<mgrwt>
<rscale>  0 0.22144588E+04</rscale>
<asrwt>0</asrwt>
<pdfrwt beam="1">  1        2 0.36616638E+00 0.22144588E+04</pdfrwt>
<pdfrwt beam="2">  1       -2 0.79244666E-01 0.22144588E+04</pdfrwt>
<totfact> 0.52613764E+00</totfact>
</mgrwt>
</event>
<event>
12    1  0.2019083E-007  0.1483043E+04  0.7818608E-02  0.8895808E-01
          2   -1    0    0  501    0  0.00000000000E+00  0.00000000000E+00  0.50771394128E+03  0.50771394128E+03  0.00000000000E+00 0. -1.
         -2   -1    0    0    0  501 -0.00000000000E+00 -0.00000000000E+00 -0.10829998464E+04  0.10829998464E+04  0.00000000000E+00 0.  1.
         23    2    1    2    0    0 -0.32890225046E+03 -0.16218334021E+03  0.12162096564E+03  0.39681218269E+03  0.90488247004E+02 0.  0.
        254    2    1    2    0    0  0.32890225046E+03  0.16218334021E+03 -0.69690687079E+03  0.11939016050E+04  0.89735262282E+03 0.  0.
        -24    2    4    4    0    0 -0.25295858338E+03  0.14347610302E+03 -0.48017739637E+03  0.56735341613E+03  0.82134826755E+02 0.  0.
         24    2    4    4    0    0  0.58186083384E+03  0.18707237184E+02 -0.21672947442E+03  0.62654818888E+03  0.81725009759E+02 0.  0.
         11    1    3    3    0    0 -0.18064742550E+02 -0.39674853645E+02  0.13012836565E+02  0.45494646395E+02  0.00000000000E+00 0.  1.
        -11    1    3    3    0    0 -0.31083750792E+03 -0.12250848656E+03  0.10860812908E+03  0.35131753630E+03  0.00000000000E+00 0. -1.
          2    1    6    6  502    0  0.13145299543E+03 -0.28265838662E+02 -0.61238616781E+02  0.14774645792E+03  0.00000000000E+00 0. -1.
          1    1    5    5  503    0 -0.91617026586E+02  0.19053203676E+02 -0.10674527555E+03  0.14195512665E+03  0.00000000000E+00 0. -1.
         -2    1    5    5    0  503 -0.16134155679E+03  0.12442289935E+03 -0.37343212082E+03  0.42539828948E+03  0.00000000000E+00 0.  1.
         -1    1    6    6    0  502  0.45040783841E+03  0.46973075846E+02 -0.15549085764E+03  0.47880173096E+03  0.00000000000E+00 0.  1.
<mgrwt>
<rscale>  0 0.14830430E+04</rscale>
<asrwt>0</asrwt>
<pdfrwt beam="1">  1        2 0.78109837E-01 0.14830430E+04</pdfrwt>
<pdfrwt beam="2">  1       -2 0.16661536E+00 0.14830430E+04</pdfrwt>
<totfact> 0.13174825E+01</totfact>
</mgrwt>
</event>
<event>
12    1  0.2019083E-007  0.1966501E+04  0.7818608E-02  0.8622445E-01
         -1   -1    0    0    0  501 -0.00000000000E+00  0.00000000000E+00  0.72370509113E+03  0.72370509113E+03  0.00000000000E+00 0.  1.
          1   -1    0    0  501    0  0.00000000000E+00 -0.00000000000E+00 -0.13358773404E+04  0.13358773404E+04  0.00000000000E+00 0. -1.
         23    2    1    2    0    0  0.37044561611E+03 -0.52804669721E+03  0.20421231908E+03  0.68247792599E+03  0.89499604866E+02 0.  0.
        254    2    1    2    0    0 -0.37044561611E+03  0.52804669721E+03 -0.81638456835E+03  0.13771045055E+04  0.90214731990E+03 0.  0.
        -24    2    4    4    0    0 -0.37098332759E+03  0.63141371186E+03 -0.94185244262E+03  0.11958906048E+04  0.82197384468E+02 0.  0.
         24    2    4    4    0    0  0.53771147937E+00 -0.10336701465E+03  0.12546787427E+03  0.18121390078E+03  0.80070353496E+02 0.  0.
         13    1    3    3    0    0  0.40682350904E+02 -0.41988868295E+02 -0.56767785770E+01  0.58739633560E+02  0.00000000000E+00 0. -1.
        -13    1    3    3    0    0  0.32976326521E+03 -0.48605782892E+03  0.20988909766E+03  0.62373829243E+03  0.00000000000E+00 0.  1.
          4    1    6    6  502    0  0.13359773796E+02 -0.62072792982E+02  0.12237243231E+03  0.13786416276E+03  0.00000000000E+00 0. -1.
          3    1    5    5  503    0 -0.27417744294E+03  0.43845334120E+03 -0.60613352762E+03  0.79675118822E+03  0.00000000000E+00 0. -1.
         -4    1    5    5    0  503 -0.96805884654E+02  0.19296037066E+03 -0.33571891500E+03  0.39913941654E+03  0.00000000000E+00 0.  1.
         -3    1    6    6    0  502 -0.12822062317E+02 -0.41294221664E+02  0.30954419634E+01  0.43349738013E+02  0.00000000000E+00 0.  1.
<mgrwt>
<rscale>  0 0.19665007E+04</rscale>
<asrwt>0</asrwt>
<pdfrwt beam="1">  1        1 0.20551959E+00 0.19665007E+04</pdfrwt>
<pdfrwt beam="2">  1       -1 0.11133924E+00 0.19665007E+04</pdfrwt>
<totfact> 0.58838002E+00</totfact>
</mgrwt>
</event>
<event>
12    1  0.2019083E-007  0.3039255E+04  0.7818608E-02  0.8232609E-01
         -2   -1    0    0    0  501 -0.00000000000E+00  0.00000000000E+00  0.50977745477E+03  0.50977745477E+03  0.00000000000E+00 0.  1.
          2   -1    0    0  501    0  0.00000000000E+00 -0.00000000000E+00 -0.45299520043E+04  0.45299520043E+04  0.00000000000E+00 0. -1.
         23    2    1    2    0    0  0.91182640321E+03  0.37429562154E+03 -0.22139357714E+03  0.10143027228E+04  0.90941165790E+02 0.  0.
        254    2    1    2    0    0 -0.91182640321E+03 -0.37429562154E+03 -0.37987809724E+04  0.40254267363E+04  0.89543225919E+03 0.  0.
        -24    2    4    4    0    0 -0.98665605178E+03 -0.57548594144E+02 -0.26831752248E+04  0.28606359306E+04  0.83705645935E+02 0.  0.
         24    2    4    4    0    0  0.74829648571E+02 -0.31674702739E+03 -0.11156057476E+04  0.11647908057E+04  0.78951131929E+02 0.  0.
         13    1    3    3    0    0  0.18946974827E+03  0.64632429133E+02 -0.80861990685E+02  0.21590460380E+03  0.00000000000E+00 0. -1.
        -13    1    3    3    0    0  0.72235665495E+03  0.30966319240E+03 -0.14053158646E+03  0.79839811903E+03  0.00000000000E+00 0.  1.
          4    1    6    6  502    0  0.17197499695E+02 -0.14174428538E+02 -0.38238975506E+02  0.44259322948E+02  0.00000000000E+00 0. -1.
          1    1    5    5  503    0 -0.53327826123E+02 -0.27350768712E+01 -0.20880324322E+03  0.21552292701E+03  0.00000000000E+00 0. -1.
         -2    1    5    5    0  503 -0.93332822566E+03 -0.54813517273E+02 -0.24743719816E+04  0.26451130036E+04  0.00000000000E+00 0.  1.
         -3    1    6    6    0  502  0.57632148876E+02 -0.30257259885E+03 -0.10773667721E+04  0.11205314827E+04  0.00000000000E+00 0.  1.
<mgrwt>
<rscale>  0 0.30392548E+04</rscale>
<asrwt>0</asrwt>
<pdfrwt beam="1">  1        2 0.69691572E+00 0.30392548E+04</pdfrwt>
<pdfrwt beam="2">  1       -2 0.78427298E-01 0.30392548E+04</pdfrwt>
<totfact> 0.14163596E-01</totfact>
</mgrwt>
</event>
<event>
12    1  0.2019083E-007  0.2584347E+04  0.7818608E-02  0.8373538E-01
          2   -1    0    0  501    0  0.00000000000E+00  0.00000000000E+00  0.17208126236E+04  0.17208126236E+04  0.00000000000E+00 0. -1.
         -2   -1    0    0    0  501 -0.00000000000E+00 -0.00000000000E+00 -0.97030483381E+03  0.97030483381E+03  0.00000000000E+00 0.  1.
         23    2    1    2    0    0  0.45901669260E+03 -0.39233704517E+03 -0.66853516779E+03  0.90524708769E+03  0.88928837241E+02 0.  0.
        254    2    1    2    0    0 -0.45901669260E+03  0.39233704517E+03  0.14190429576E+04  0.17858703697E+04  0.90056947586E+03 0.  0.
        -24    2    4    4    0    0 -0.16085807145E+03 -0.26445389147E+03  0.67106298604E+03  0.74352840943E+03  0.81839993512E+02 0.  0.
         24    2    4    4    0    0 -0.29815862115E+03  0.65679093665E+03  0.74797997152E+03  0.10423419603E+04  0.82035519726E+02 0.  0.
         11    1    3    3    0    0  0.15016350317E+03 -0.10887297507E+03 -0.15063683339E+03  0.23894321074E+03  0.00000000000E+00 0. -1.
        -11    1    3    3    0    0  0.30885318943E+03 -0.28346407010E+03 -0.51789833440E+03  0.66630387695E+03  0.00000000000E+00 0.  1.
          2    1    6    6  502    0 -0.17721876053E+03  0.29243847794E+03  0.34357029304E+03  0.48473425577E+03  0.00000000000E+00 0. -1.
          3    1    5    5  503    0 -0.48287093413E+02 -0.26053404697E+02  0.14654872483E+03  0.15648307268E+03  0.00000000000E+00 0. -1.
         -4    1    5    5    0  503 -0.11257097804E+03 -0.23840048678E+03  0.52451426121E+03  0.58704533675E+03  0.00000000000E+00 0.  1.
         -1    1    6    6    0  502 -0.12093986063E+03  0.36435245871E+03  0.40440967848E+03  0.55760770449E+03  0.00000000000E+00 0.  1.
<mgrwt>
<rscale>  0 0.25843474E+04</rscale>
<asrwt>0</asrwt>
<pdfrwt beam="1">  1        2 0.26474040E+00 0.25843474E+04</pdfrwt>
<pdfrwt beam="2">  1       -2 0.14927767E+00 0.25843474E+04</pdfrwt>
<totfact> 0.25670450E+00</totfact>
</mgrwt>
</event>
<event>
12    1  0.2019083E-007  0.3299614E+04  0.7818608E-02  0.8162994E-01
          2   -1    0    0  501    0  0.00000000000E+00  0.00000000000E+00  0.48603899197E+04  0.48603899197E+04  0.00000000000E+00 0. -1.
         -2   -1    0    0    0  501 -0.00000000000E+00 -0.00000000000E+00 -0.56000933863E+03  0.56000933863E+03  0.00000000000E+00 0.  1.
         23    2    1    2    0    0 -0.79494702485E+03 -0.12858116792E+04  0.16485818687E+04  0.22386420278E+04  0.91888540846E+02 0.  0.
        254    2    1    2    0    0  0.79494702485E+03  0.12858116792E+04  0.26517987123E+04  0.31817572305E+04  0.89793664405E+03 0.  0.
        -24    2    4    4    0    0  0.71003195129E+03  0.13439366638E+04  0.19810425315E+04  0.24984322369E+04  0.85574543680E+02 0.  0.
         24    2    4    4    0    0  0.84915073563E+02 -0.58124984656E+02  0.67075618076E+03  0.68332499357E+03  0.80187962068E+02 0.  0.
         11    1    3    3    0    0 -0.38022126877E+03 -0.54425770670E+03  0.76223793291E+03  0.10108369457E+04  0.00000000000E+00 0.  1.
        -11    1    3    3    0    0 -0.41472575609E+03 -0.74155397249E+03  0.88634393584E+03  0.12278050820E+04  0.00000000000E+00 0. -1.
          4    1    6    6  502    0  0.40144917142E+02 -0.69464091398E+02  0.50167220919E+03  0.50804712364E+03  0.00000000000E+00 0. -1.
          3    1    5    5  503    0  0.53015102795E+03  0.92837378036E+03  0.14197702430E+04  0.17772691218E+04  0.00000000000E+00 0. -1.
         -4    1    5    5    0  503  0.17988092334E+03  0.41556288349E+03  0.56127228852E+03  0.72116311510E+03  0.00000000000E+00 0.  1.
         -3    1    6    6    0  502  0.44770156421E+02  0.11339106742E+02  0.16908397157E+03  0.17527786994E+03  0.00000000000E+00 0.  1.
<mgrwt>
<rscale>  0 0.32996144E+04</rscale>
<asrwt>0</asrwt>
<pdfrwt beam="1">  1        2 0.74775226E+00 0.32996144E+04</pdfrwt>
<pdfrwt beam="2">  1       -2 0.86155286E-01 0.32996144E+04</pdfrwt>
<totfact> 0.49277030E-02</totfact>
</mgrwt>
</event>
<event>
12    1  0.2019083E-007  0.2235518E+04  0.7818608E-02  0.8503789E-01
         -2   -1    0    0    0  501 -0.00000000000E+00  0.00000000000E+00  0.12881238744E+04  0.12881238744E+04  0.00000000000E+00 0.  1.
          2   -1    0    0  501    0  0.00000000000E+00 -0.00000000000E+00 -0.96992609975E+03  0.96992609975E+03  0.00000000000E+00 0. -1.
         23    2    1    2    0    0  0.68627257104E+03 -0.39501531273E+03  0.63323664582E+03  0.10179760509E+04  0.90991491210E+02 0.  0.
        254    2    1    2    0    0 -0.68627257104E+03  0.39501531273E+03 -0.31503887114E+03  0.12400739233E+04  0.90084777066E+03 0.  0.
        -24    2    4    4    0    0 -0.44994889047E+03  0.65009341722E+03 -0.52737456821E+02  0.79632990166E+03  0.79275581259E+02 0.  0.
         24    2    4    4    0    0 -0.23632368057E+03 -0.25507810448E+03 -0.26230141432E+03  0.44374402165E+03  0.84811575957E+02 0.  0.
         11    1    3    3    0    0  0.87777444072E+02 -0.17738693754E+02  0.72953627973E+02  0.11550659193E+03  0.00000000000E+00 0.  1.
        -11    1    3    3    0    0  0.59849512697E+03 -0.37727661898E+03  0.56028301785E+03  0.90246945895E+03  0.00000000000E+00 0. -1.
          2    1    6    6  502    0 -0.19527311271E+03 -0.24773984309E+03 -0.22185834756E+03  0.38565236260E+03  0.00000000000E+00 0. -1.
          3    1    5    5  503    0 -0.31725164640E+03  0.44063278172E+03 -0.71582294660E+02  0.54765854360E+03  0.00000000000E+00 0. -1.
         -4    1    5    5    0  503 -0.13269724407E+03  0.20946063550E+03  0.18844837839E+02  0.24867135806E+03  0.00000000000E+00 0.  1.
         -1    1    6    6    0  502 -0.41050567863E+02 -0.73382613892E+01 -0.40443066760E+02  0.58091659049E+02  0.00000000000E+00 0.  1.
<mgrwt>
<rscale>  0 0.22355178E+04</rscale>
<asrwt>0</asrwt>
<pdfrwt beam="1">  1        2 0.14921940E+00 0.22355178E+04</pdfrwt>
<pdfrwt beam="2">  1       -2 0.19817290E+00 0.22355178E+04</pdfrwt>
<totfact> 0.32822268E+00</totfact>
</mgrwt>
</event>
<event>
12    1  0.2019083E-007  0.1089988E+04  0.7818608E-02  0.9215005E-01
         -2   -1    0    0    0  501 -0.00000000000E+00  0.00000000000E+00  0.34850597466E+03  0.34850597466E+03  0.00000000000E+00 0.  1.
          2   -1    0    0  501    0  0.00000000000E+00 -0.00000000000E+00 -0.85226258542E+03  0.85226258542E+03  0.00000000000E+00 0. -1.
         23    2    1    2    0    0 -0.10096837653E+03 -0.61036707573E+02  0.21895675330E+02  0.15092266189E+03  0.91532161248E+02 0.  0.
        254    2    1    2    0    0  0.10096837653E+03  0.61036707573E+02 -0.52565228608E+03  0.10498458982E+04  0.90108045776E+03 0.  0.
        -24    2    4    4    0    0  0.38157816046E+03  0.28387420356E+03 -0.47910179872E+03  0.67957939984E+03  0.78122795398E+02 0.  0.
         24    2    4    4    0    0 -0.28060978393E+03 -0.22283749599E+03 -0.46550487366E+02  0.37026649836E+03  0.80820365468E+02 0.  0.
         13    1    3    3    0    0 -0.47598776903E+02 -0.64617749880E+02  0.45721758484E+02  0.92366532689E+02  0.00000000000E+00 0.  1.
        -13    1    3    3    0    0 -0.53369599624E+02  0.35810423069E+01 -0.23826083154E+02  0.58556129196E+02  0.00000000000E+00 0. -1.
          2    1    6    6  502    0 -0.16369204235E+03 -0.80433757489E+02 -0.11805717391E+02  0.18276774616E+03  0.00000000000E+00 0. -1.
          1    1    5    5  503    0  0.15115335610E+03  0.11392467454E+03 -0.24587951300E+03  0.31029486532E+03  0.00000000000E+00 0. -1.
         -2    1    5    5    0  503  0.23042480436E+03  0.16994952903E+03 -0.23322228571E+03  0.36928453452E+03  0.00000000000E+00 0.  1.
         -1    1    6    6    0  502 -0.11691774158E+03 -0.14240373850E+03 -0.34744769974E+02  0.18749875220E+03  0.00000000000E+00 0.  1.
<mgrwt>
<rscale>  0 0.10899883E+04</rscale>
<asrwt>0</asrwt>
<pdfrwt beam="1">  1        2 0.13111732E+00 0.10899883E+04</pdfrwt>
<pdfrwt beam="2">  1       -2 0.53616304E-01 0.10899883E+04</pdfrwt>
<totfact> 0.10298850E+02</totfact>
</mgrwt>
</event>
<event>
12    1  0.2019083E-007  0.5280421E+04  0.7818608E-02  0.7786648E-01
         -2   -1    0    0    0  501 -0.00000000000E+00  0.00000000000E+00  0.15345769984E+04  0.15345769984E+04  0.00000000000E+00 0.  1.
          2   -1    0    0  501    0  0.00000000000E+00 -0.00000000000E+00 -0.45424321297E+04  0.45424321297E+04  0.00000000000E+00 0. -1.
         23    2    1    2    0    0 -0.21426239601E+04 -0.14040431350E+04 -0.13731721497E+04  0.29079039719E+04  0.90162062928E+02 0.  0.
        254    2    1    2    0    0  0.21426239601E+04  0.14040431350E+04 -0.16346829816E+04  0.31691051563E+04  0.89936893551E+03 0.  0.
        -24    2    4    4    0    0  0.12669422282E+04  0.10986689997E+04 -0.61364605518E+03  0.17875270611E+04  0.80469452635E+02 0.  0.
         24    2    4    4    0    0  0.87568173190E+03  0.30537413536E+03 -0.10210369264E+04  0.13815780952E+04  0.78547882814E+02 0.  0.
         13    1    3    3    0    0 -0.97358238883E+03 -0.68267409068E+03 -0.66549043786E+03  0.13626386553E+04  0.00000000000E+00 0. -1.
        -13    1    3    3    0    0 -0.11690415712E+04 -0.72136904435E+03 -0.70768171185E+03  0.15452653166E+04  0.00000000000E+00 0.  1.
          4    1    6    6  502    0  0.82263198662E+03  0.27713578710E+03 -0.97791565229E+03  0.13076110480E+04  0.00000000000E+00 0. -1.
          1    1    5    5  503    0  0.79374436981E+03  0.64308846196E+03 -0.39405973736E+03  0.10949319482E+04  0.00000000000E+00 0. -1.
         -2    1    5    5    0  503  0.47319785835E+03  0.45558053772E+03 -0.21958631782E+03  0.69259511294E+03  0.00000000000E+00 0.  1.
         -3    1    6    6    0  502  0.53049745278E+02  0.28238348257E+02 -0.43121274137E+02  0.73967047187E+02  0.00000000000E+00 0.  1.
<mgrwt>
<rscale>  0 0.52804211E+04</rscale>
<asrwt>0</asrwt>
<pdfrwt beam="1">  1        2 0.69883571E+00 0.52804211E+04</pdfrwt>
<pdfrwt beam="2">  1       -2 0.23608877E+00 0.52804211E+04</pdfrwt>
<totfact> 0.61649514E-03</totfact>
</mgrwt>
</event>
<event>
12    1  0.2019083E-007  0.1124948E+04  0.7818608E-02  0.9181211E-01
         -1   -1    0    0    0  501 -0.00000000000E+00  0.00000000000E+00  0.82353235745E+03  0.82353235745E+03  0.00000000000E+00 0.  1.
          1   -1    0    0  501    0  0.00000000000E+00 -0.00000000000E+00 -0.38417078739E+03  0.38417078739E+03  0.00000000000E+00 0. -1.
         23    2    1    2    0    0  0.10537206542E+02 -0.12017632296E+03 -0.69980405862E+02  0.16638013392E+03  0.90728774025E+02 0.  0.
        254    2    1    2    0    0 -0.10537206542E+02  0.12017632296E+03  0.50934197593E+03  0.10413230109E+04  0.90020607824E+03 0.  0.
        -24    2    4    4    0    0  0.20311288380E+03 -0.26103921112E+03  0.48835670043E+03  0.59513993166E+03  0.79391171377E+02 0.  0.
         24    2    4    4    0    0 -0.21365009034E+03  0.38121553408E+03  0.20985275501E+02  0.44618307926E+03  0.87563199487E+02 0.  0.
         13    1    3    3    0    0  0.36655276791E+02 -0.95134613072E+02 -0.79130710345E+02  0.12905763534E+03  0.00000000000E+00 0. -1.
        -13    1    3    3    0    0 -0.26118070249E+02 -0.25041709889E+02  0.91503044826E+01  0.37322498574E+02  0.00000000000E+00 0.  1.
          2    1    6    6  502    0 -0.11331549701E+03  0.13311218454E+03  0.34641856260E+02  0.17821142988E+03  0.00000000000E+00 0. -1.
          3    1    5    5  503    0  0.17742169394E+03 -0.19846233988E+03  0.33781586543E+03  0.43009919410E+03  0.00000000000E+00 0. -1.
         -4    1    5    5    0  503  0.25691189854E+02 -0.62576871246E+02  0.15054083500E+03  0.16504073755E+03  0.00000000000E+00 0.  1.
         -1    1    6    6    0  502 -0.10033459333E+03  0.24810334955E+03 -0.13656580759E+02  0.26797164938E+03  0.00000000000E+00 0.  1.
<mgrwt>
<rscale>  0 0.11249481E+04</rscale>
<asrwt>0</asrwt>
<pdfrwt beam="1">  1        1 0.59103198E-01 0.11249481E+04</pdfrwt>
<pdfrwt beam="2">  1       -1 0.12669729E+00 0.11249481E+04</pdfrwt>
<totfact> 0.34090818E+01</totfact>
</mgrwt>
</event>
<event>
12    1  0.2019083E-007  0.2211082E+04  0.7818608E-02  0.8513830E-01
          1   -1    0    0  501    0  0.00000000000E+00  0.00000000000E+00  0.15727577537E+04  0.15727577537E+04  0.00000000000E+00 0. -1.
         -1   -1    0    0    0  501 -0.00000000000E+00 -0.00000000000E+00 -0.77711977391E+03  0.77711977391E+03  0.00000000000E+00 0.  1.
         23    2    1    2    0    0  0.64683090876E+03  0.65093853739E+03  0.38546423612E+03  0.99938983033E+03  0.89923031734E+02 0.  0.
        254    2    1    2    0    0 -0.64683090876E+03 -0.65093853739E+03  0.41017374367E+03  0.13504876973E+04  0.90192201244E+03 0.  0.
        -24    2    4    4    0    0 -0.67681642378E+03 -0.75856808168E+03  0.11712908084E+03  0.10265415399E+04  0.81008057681E+02 0.  0.
         24    2    4    4    0    0  0.29985515024E+02  0.10762954429E+03  0.29304466283E+03  0.32394615743E+03  0.81133769700E+02 0.  0.
         11    1    3    3    0    0  0.48781977491E+03  0.51969962187E+03  0.26402705761E+03  0.76010927959E+03  0.00000000000E+00 0.  1.
        -11    1    3    3    0    0  0.15901113385E+03  0.13123891552E+03  0.12143717851E+03  0.23928055074E+03  0.00000000000E+00 0. -1.
          4    1    6    6  502    0  0.53529795707E+02  0.49301602555E+02  0.12679735394E+03  0.14619731875E+03  0.00000000000E+00 0. -1.
          3    1    5    5  503    0 -0.59603626923E+03 -0.66313996196E+03  0.12913650481E+03  0.90093844421E+03  0.00000000000E+00 0. -1.
         -4    1    5    5    0  503 -0.80780154553E+02 -0.95428119729E+02 -0.12007423967E+02  0.12560309564E+03  0.00000000000E+00 0.  1.
         -3    1    6    6    0  502 -0.23544280683E+02  0.58327941736E+02  0.16624730889E+03  0.17774883868E+03  0.00000000000E+00 0.  1.
<mgrwt>
<rscale>  0 0.22110822E+04</rscale>
<asrwt>0</asrwt>
<pdfrwt beam="1">  1        1 0.24196273E+00 0.22110822E+04</pdfrwt>
<pdfrwt beam="2">  1       -1 0.11955689E+00 0.22110822E+04</pdfrwt>
<totfact> 0.33151907E+00</totfact>
</mgrwt>
</event>
<event>
12    1  0.2019083E-007  0.2201217E+04  0.7818608E-02  0.8517922E-01
         -1   -1    0    0    0  501 -0.00000000000E+00  0.00000000000E+00  0.19116573177E+04  0.19116573177E+04  0.00000000000E+00 0.  1.
          1   -1    0    0  501    0  0.00000000000E+00 -0.00000000000E+00 -0.63365884592E+03  0.63365884592E+03  0.00000000000E+00 0. -1.
         23    2    1    2    0    0 -0.27928868923E+03  0.85223618058E+03  0.73436073718E+03  0.11629376552E+04  0.93966047456E+02 0.  0.
        254    2    1    2    0    0  0.27928868923E+03 -0.85223618058E+03  0.54363773460E+03  0.13823785085E+04  0.90062182672E+03 0.  0.
        -24    2    4    4    0    0  0.23720544430E+03 -0.57036377525E+03  0.78416522148E+03  0.10013745809E+04  0.79086647720E+02 0.  0.
         24    2    4    4    0    0  0.42083244926E+02 -0.28187240533E+03 -0.24052748688E+03  0.38100392753E+03  0.78022230543E+02 0.  0.
         11    1    3    3    0    0 -0.13456097566E+03  0.53282929791E+03  0.48092249009E+03  0.73027402964E+03  0.00000000000E+00 0.  1.
        -11    1    3    3    0    0 -0.14472771357E+03  0.31940688266E+03  0.25343824708E+03  0.43266362553E+03  0.00000000000E+00 0. -1.
          4    1    6    6  502    0 -0.90794667178E+01 -0.91032808783E+01 -0.30071349653E+02  0.32704625186E+02  0.00000000000E+00 0. -1.
          3    1    5    5  503    0  0.52113771169E+02 -0.21975203365E+03  0.26645534558E+03  0.34929250296E+03  0.00000000000E+00 0. -1.
         -4    1    5    5    0  503  0.18509167313E+03 -0.35061174160E+03  0.51770987590E+03  0.65208207797E+03  0.00000000000E+00 0.  1.
         -3    1    6    6    0  502  0.51162711644E+02 -0.27276912445E+03 -0.21045613722E+03  0.34829930234E+03  0.00000000000E+00 0.  1.
<mgrwt>
<rscale>  0 0.22012165E+04</rscale>
<asrwt>0</asrwt>
<pdfrwt beam="1">  1        1 0.97485977E-01 0.22012165E+04</pdfrwt>
<pdfrwt beam="2">  1       -1 0.29410112E+00 0.22012165E+04</pdfrwt>
<totfact> 0.10400555E+00</totfact>
</mgrwt>
</event>
<event>
12    1  0.2019083E-007  0.2433892E+04  0.7818608E-02  0.8426923E-01
         -1   -1    0    0    0  501 -0.00000000000E+00  0.00000000000E+00  0.11881482375E+04  0.11881482375E+04  0.00000000000E+00 0.  1.
          1   -1    0    0  501    0  0.00000000000E+00 -0.00000000000E+00 -0.12464415463E+04  0.12464415463E+04  0.00000000000E+00 0. -1.
         23    2    1    2    0    0  0.87428701261E+03  0.43735930964E+03  0.35539974856E+03  0.10440694407E+04  0.90061476958E+02 0.  0.
        254    2    1    2    0    0 -0.87428701261E+03 -0.43735930964E+03 -0.41369305730E+03  0.13905203430E+04  0.89818925210E+03 0.  0.
        -24    2    4    4    0    0 -0.36399734882E+02  0.20124971950E+02 -0.42264343642E+03  0.43227201890E+03  0.80632926124E+02 0.  0.
         24    2    4    4    0    0 -0.83788727773E+03 -0.45748428159E+03  0.89503791221E+01  0.95824832414E+03  0.82539586524E+02 0.  0.
         13    1    3    3    0    0  0.25364042723E+03  0.83841650436E+02  0.85040351068E+02  0.28034755212E+03  0.00000000000E+00 0.  1.
        -13    1    3    3    0    0  0.62064658538E+03  0.35351765921E+03  0.27035939749E+03  0.76372188860E+03  0.00000000000E+00 0. -1.
          4    1    6    6  502    0 -0.42950997473E+03 -0.23204555281E+03  0.45780419167E+02  0.49032622176E+03  0.00000000000E+00 0. -1.
          3    1    5    5  503    0 -0.58637727022E+02  0.29461505507E+02 -0.33521282381E+03  0.34157576112E+03  0.00000000000E+00 0. -1.
         -4    1    5    5    0  503  0.22237992140E+02 -0.93365335577E+01 -0.87430612612E+02  0.90696257778E+02  0.00000000000E+00 0.  1.
         -3    1    6    6    0  502 -0.40837730300E+03 -0.22543872878E+03 -0.36830040044E+02  0.46792210238E+03  0.00000000000E+00 0.  1.
<mgrwt>
<rscale>  0 0.24338918E+04</rscale>
<asrwt>0</asrwt>
<pdfrwt beam="1">  1        1 0.19176024E+00 0.24338918E+04</pdfrwt>
<pdfrwt beam="2">  1       -1 0.18279204E+00 0.24338918E+04</pdfrwt>
<totfact> 0.17554632E+00</totfact>
</mgrwt>
</event>
<event>
12    1  0.2019083E-007  0.1759705E+04  0.7818608E-02  0.8728026E-01
         -2   -1    0    0    0  501 -0.00000000000E+00  0.00000000000E+00  0.37464876824E+03  0.37464876824E+03  0.00000000000E+00 0.  1.
          2   -1    0    0  501    0  0.00000000000E+00 -0.00000000000E+00 -0.20663105784E+04  0.20663105784E+04  0.00000000000E+00 0. -1.
         23    2    1    2    0    0  0.51355705603E+03  0.38394911914E+03 -0.73103673538E+03  0.97641986349E+03  0.88449225320E+02 0.  0.
        254    2    1    2    0    0 -0.51355705603E+03 -0.38394911914E+03 -0.96062507474E+03  0.14645394831E+04  0.90050962653E+03 0.  0.
        -24    2    4    4    0    0 -0.34876290207E+03 -0.45311379643E+03 -0.10873374669E+04  0.12309991743E+04  0.78157058523E+02 0.  0.
         24    2    4    4    0    0 -0.16479415396E+03  0.69164677286E+02  0.12671239217E+03  0.23354030881E+03  0.80896104622E+02 0.  0.
         11    1    3    3    0    0  0.22771588157E+03  0.15533526964E+03 -0.25137789975E+03  0.37306087599E+03  0.00000000000E+00 0.  1.
        -11    1    3    3    0    0  0.28584117447E+03  0.22861384950E+03 -0.47965883563E+03  0.60335898750E+03  0.00000000000E+00 0. -1.
          2    1    6    6  502    0 -0.13800250610E+03  0.71472608733E+02  0.13451372393E+03  0.20554067095E+03  0.00000000000E+00 0. -1.
          3    1    5    5  503    0 -0.33291283790E+03 -0.40717434315E+03 -0.95878610672E+03  0.10935687915E+04  0.00000000000E+00 0. -1.
         -4    1    5    5    0  503 -0.15850064170E+02 -0.45939453273E+02 -0.12855136019E+03  0.13743038277E+03  0.00000000000E+00 0.  1.
         -1    1    6    6    0  502 -0.26791647864E+02 -0.23079314468E+01 -0.78013317598E+01  0.27999637856E+02  0.00000000000E+00 0.  1.
<mgrwt>
<rscale>  0 0.17597053E+04</rscale>
<asrwt>0</asrwt>
<pdfrwt beam="1">  1        2 0.31789394E+00 0.17597053E+04</pdfrwt>
<pdfrwt beam="2">  1       -2 0.57638272E-01 0.17597053E+04</pdfrwt>
<totfact> 0.16383507E+01</totfact>
</mgrwt>
</event>
<event>
12    1  0.2019083E-007  0.2414763E+04  0.7818608E-02  0.8433997E-01
         -2   -1    0    0    0  501 -0.00000000000E+00  0.00000000000E+00  0.86743478008E+03  0.86743478008E+03  0.00000000000E+00 0.  1.
          2   -1    0    0  501    0  0.00000000000E+00 -0.00000000000E+00 -0.16805526304E+04  0.16805526304E+04  0.00000000000E+00 0. -1.
         23    2    1    2    0    0 -0.10073027074E+04  0.96803005564E+02 -0.59228010646E+03  0.11759681368E+04  0.89865277138E+02 0.  0.
        254    2    1    2    0    0  0.10073027074E+04 -0.96803005564E+02 -0.22083774391E+03  0.13720192737E+04  0.89979887307E+03 0.  0.
        -24    2    4    4    0    0  0.10556052930E+04 -0.23544798390E+03  0.13155762077E+02  0.10845638911E+04  0.79796442034E+02 0.  0.
         24    2    4    4    0    0 -0.48302585566E+02  0.13864497833E+03 -0.23399350599E+03  0.28745538256E+03  0.79511422628E+02 0.  0.
         11    1    3    3    0    0 -0.55912925273E+03  0.58948870931E+02 -0.38013560008E+03  0.67867780654E+03  0.00000000000E+00 0. -1.
        -11    1    3    3    0    0 -0.44817345470E+03  0.37854134633E+02 -0.21214450638E+03  0.49729033028E+03  0.00000000000E+00 0.  1.
          4    1    6    6  502    0 -0.33202273494E+02  0.13976273804E+03 -0.23099505928E+03  0.27201972598E+03  0.00000000000E+00 0. -1.
          1    1    5    5  503    0  0.80056708775E+03 -0.18606951591E+03  0.43303517033E+02  0.82304600195E+03  0.00000000000E+00 0. -1.
         -2    1    5    5    0  503  0.25503820525E+03 -0.49378467985E+02 -0.30147754956E+02  0.26151788919E+03  0.00000000000E+00 0.  1.
         -3    1    6    6    0  502 -0.15100312072E+02 -0.11177597029E+01 -0.29984467053E+01  0.15435656581E+02  0.00000000000E+00 0.  1.
<mgrwt>
<rscale>  0 0.24147628E+04</rscale>
<asrwt>0</asrwt>
<pdfrwt beam="1">  1        2 0.25854656E+00 0.24147628E+04</pdfrwt>
<pdfrwt beam="2">  1       -2 0.13345150E+00 0.24147628E+04</pdfrwt>
<totfact> 0.36697105E+00</totfact>
</mgrwt>
</event>
<event>
12    1  0.2303705E-007  0.2687775E+04  0.7818608E-02  0.8338982E-01
          1   -1    0    0  501    0  0.00000000000E+00  0.00000000000E+00  0.17690900181E+04  0.17690900181E+04  0.00000000000E+00 0. -1.
         -1   -1    0    0    0  501 -0.00000000000E+00 -0.00000000000E+00 -0.10208829295E+04  0.10208829295E+04  0.00000000000E+00 0.  1.
         23    2    1    2    0    0 -0.10407134333E+04  0.57968449979E+03  0.37698054702E+03  0.12524317154E+04  0.85745550190E+02 0.  0.
        254    2    1    2    0    0  0.10407134333E+04 -0.57968449979E+03  0.37122654162E+03  0.15375412322E+04  0.89839040853E+03 0.  0.
        -24    2    4    4    0    0  0.68809635639E+03 -0.50703584934E+03  0.64887279323E+03  0.10760643599E+04  0.79477397386E+02 0.  0.
         24    2    4    4    0    0  0.35261707687E+03 -0.72648650446E+02 -0.27764625161E+03  0.46147687231E+03  0.79100147512E+02 0.  0.
         13    1    3    3    0    0 -0.79521086085E+03  0.41720579006E+03  0.25280242540E+03  0.93291481432E+03  0.00000000000E+00 0.  1.
        -13    1    3    3    0    0 -0.24550257240E+03  0.16247870972E+03  0.12417812161E+03  0.31951690105E+03  0.00000000000E+00 0. -1.
          2    1    6    6  502    0  0.23667162115E+03 -0.80009416512E+02 -0.21430509232E+03  0.32915290608E+03  0.00000000000E+00 0. -1.
          3    1    5    5  503    0  0.30726526180E+03 -0.18362095587E+03  0.29436101939E+03  0.46344040208E+03  0.00000000000E+00 0. -1.
         -4    1    5    5    0  503  0.38083109459E+03 -0.32341489347E+03  0.35451177384E+03  0.61262395784E+03  0.00000000000E+00 0.  1.
         -1    1    6    6    0  502  0.11594545572E+03  0.73607660652E+01 -0.63341159290E+02  0.13232396623E+03  0.00000000000E+00 0.  1.
<mgrwt>
<rscale>  0 0.26877751E+04</rscale>
<asrwt>0</asrwt>
<pdfrwt beam="1">  1        1 0.27216769E+00 0.26877751E+04</pdfrwt>
<pdfrwt beam="2">  1       -1 0.15705891E+00 0.26877751E+04</pdfrwt>
<totfact> 0.11501265E+00</totfact>
</mgrwt>
</event>
<event>
12    1  0.2019083E-007  0.2011254E+04  0.7818608E-02  0.8601377E-01
         -4   -1    0    0    0  501 -0.00000000000E+00  0.00000000000E+00  0.53005286787E+03  0.53005286787E+03  0.00000000000E+00 0.  1.
          4   -1    0    0  501    0  0.00000000000E+00 -0.00000000000E+00 -0.19078964298E+04  0.19078964298E+04  0.00000000000E+00 0. -1.
         23    2    1    2    0    0 -0.68928769347E+03 -0.40740112010E+03 -0.58333520119E+03  0.99501739009E+03  0.93201140643E+02 0.  0.
        254    2    1    2    0    0  0.68928769347E+03  0.40740112010E+03 -0.79450836072E+03  0.14429319076E+04  0.89984207368E+03 0.  0.
        -24    2    4    4    0    0  0.79903040059E+03  0.54313975062E+03 -0.49613259004E+03  0.10888269727E+04  0.77111994739E+02 0.  0.
         24    2    4    4    0    0 -0.10974270712E+03 -0.13573863052E+03 -0.29837577068E+03  0.35410493488E+03  0.76770872085E+02 0.  0.
         11    1    3    3    0    0 -0.60136039059E+03 -0.33421636500E+03 -0.53169652404E+03  0.86950335922E+03  0.00000000000E+00 0. -1.
        -11    1    3    3    0    0 -0.87927302874E+02 -0.73184755095E+02 -0.51638677143E+02  0.12551403087E+03  0.00000000000E+00 0.  1.
          4    1    6    6  502    0 -0.37809636923E+02 -0.53148990190E+02 -0.48503025045E+02  0.81283007086E+02  0.00000000000E+00 0. -1.
          1    1    5    5  503    0  0.28321117352E+03  0.17792814249E+03 -0.21105453070E+03  0.39548831541E+03  0.00000000000E+00 0. -1.
         -2    1    5    5    0  503  0.51581922707E+03  0.36521160814E+03 -0.28507805934E+03  0.69333865726E+03  0.00000000000E+00 0.  1.
         -3    1    6    6    0  502 -0.71933070200E+02 -0.82589640332E+02 -0.24987274563E+03  0.27282192780E+03  0.00000000000E+00 0.  1.
<mgrwt>
<rscale>  0 0.20112543E+04</rscale>
<asrwt>0</asrwt>
<pdfrwt beam="1">  1        4 0.29352253E+00 0.20112543E+04</pdfrwt>
<pdfrwt beam="2">  1       -4 0.81546593E-01 0.20112543E+04</pdfrwt>
<totfact> 0.83730278E-02</totfact>
</mgrwt>
</event>
<event>
12    1  0.2019083E-007  0.1474039E+04  0.7818608E-02  0.8901903E-01
          2   -1    0    0  501    0  0.00000000000E+00  0.00000000000E+00  0.10070447431E+04  0.10070447431E+04  0.00000000000E+00 0. -1.
         -2   -1    0    0    0  501 -0.00000000000E+00 -0.00000000000E+00 -0.53939779792E+03  0.53939779792E+03  0.00000000000E+00 0.  1.
         23    2    1    2    0    0  0.34454896221E+03  0.25427310300E+03  0.30978060809E+03  0.53588391425E+03  0.88536693711E+02 0.  0.
        254    2    1    2    0    0 -0.34454896221E+03 -0.25427310300E+03  0.15786633708E+03  0.10105586268E+04  0.90163083326E+03 0.  0.
        -24    2    4    4    0    0  0.18961839841E+03  0.20192518274E+03  0.65725497465E+01  0.28772437366E+03  0.77544827993E+02 0.  0.
         24    2    4    4    0    0 -0.53416736062E+03 -0.45619828574E+03  0.15129378734E+03  0.72283425310E+03  0.78408560124E+02 0.  0.
         13    1    3    3    0    0  0.11829409737E+03  0.10588154165E+03  0.66868891558E+02  0.17226677855E+03  0.00000000000E+00 0.  1.
        -13    1    3    3    0    0  0.22625486484E+03  0.14839156135E+03  0.24291171653E+03  0.36361713570E+03  0.00000000000E+00 0. -1.
          2    1    6    6  502    0 -0.37415155200E+03 -0.28456628386E+03  0.74532168822E+02  0.47594369201E+03  0.00000000000E+00 0. -1.
          3    1    5    5  503    0  0.17827298229E+03  0.15109870964E+03 -0.73854254143E+01  0.23380894075E+03  0.00000000000E+00 0. -1.
         -4    1    5    5    0  503  0.11345416125E+02  0.50826473107E+02  0.13957975161E+02  0.53915432913E+02  0.00000000000E+00 0.  1.
         -1    1    6    6    0  502 -0.16001580862E+03 -0.17163200188E+03  0.76761618513E+02  0.24689056109E+03  0.00000000000E+00 0.  1.
<mgrwt>
<rscale>  0 0.14740390E+04</rscale>
<asrwt>0</asrwt>
<pdfrwt beam="1">  1        2 0.15492996E+00 0.14740390E+04</pdfrwt>
<pdfrwt beam="2">  1       -2 0.82984277E-01 0.14740390E+04</pdfrwt>
<totfact> 0.30713897E+01</totfact>
</mgrwt>
</event>
<event>
12    1  0.2019083E-007  0.2378880E+04  0.7818608E-02  0.8447453E-01
         -2   -1    0    0    0  501 -0.00000000000E+00  0.00000000000E+00  0.79266976560E+03  0.79266976560E+03  0.00000000000E+00 0.  1.
          2   -1    0    0  501    0  0.00000000000E+00 -0.00000000000E+00 -0.17848131963E+04  0.17848131963E+04  0.00000000000E+00 0. -1.
         23    2    1    2    0    0  0.57845105982E+03 -0.81619755919E+03 -0.24799327991E+03  0.10347071759E+04  0.91291777615E+02 0.  0.
        254    2    1    2    0    0 -0.57845105982E+03  0.81619755919E+03 -0.74415015077E+03  0.15427757860E+04  0.90863281627E+03 0.  0.
        -24    2    4    4    0    0 -0.83938072907E+02  0.50442232174E+03  0.86297350343E+02  0.52454644824E+03  0.78830609148E+02 0.  0.
         24    2    4    4    0    0 -0.49451298691E+03  0.31177523745E+03 -0.83044750111E+03  0.10182293378E+04  0.73491763441E+02 0.  0.
         11    1    3    3    0    0  0.32775266740E+03 -0.39779844351E+03 -0.15434588973E+03  0.53804095227E+03  0.00000000000E+00 0. -1.
        -11    1    3    3    0    0  0.25069839242E+03 -0.41839911568E+03 -0.93647390188E+02  0.49666622359E+03  0.00000000000E+00 0.  1.
          4    1    6    6  502    0 -0.27153544982E+03  0.20490321367E+03 -0.51927245515E+03  0.62077428278E+03  0.00000000000E+00 0. -1.
          1    1    5    5  503    0 -0.74793689101E+01  0.46523553667E+02  0.32410520864E+02  0.57191117036E+02  0.00000000000E+00 0. -1.
         -2    1    5    5    0  503 -0.76458703997E+02  0.45789876807E+03  0.53886829478E+02  0.46735533121E+03  0.00000000000E+00 0.  1.
         -3    1    6    6    0  502 -0.22297753709E+03  0.10687202378E+03 -0.31117504596E+03  0.39745505499E+03  0.00000000000E+00 0.  1.
<mgrwt>
<rscale>  0 0.23788800E+04</rscale>
<asrwt>0</asrwt>
<pdfrwt beam="1">  1        2 0.27458664E+00 0.23788800E+04</pdfrwt>
<pdfrwt beam="2">  1       -2 0.12194920E+00 0.23788800E+04</pdfrwt>
<totfact> 0.40429400E+00</totfact>
</mgrwt>
</event>
<event>
12    1  0.2019083E-007  0.1324550E+04  0.7818608E-02  0.9010320E-01
         -2   -1    0    0    0  501 -0.00000000000E+00  0.00000000000E+00  0.18883936238E+04  0.18883936238E+04  0.00000000000E+00 0.  1.
          2   -1    0    0  501    0  0.00000000000E+00 -0.00000000000E+00 -0.23226534517E+03  0.23226534517E+03  0.00000000000E+00 0. -1.
         23    2    1    2    0    0  0.68658220399E+01 -0.31264025990E+03  0.20157288158E+03  0.38307913210E+03  0.91251976656E+02 0.  0.
        254    2    1    2    0    0 -0.68658220399E+01  0.31264025990E+03  0.14545553970E+04  0.17375798369E+04  0.89758632721E+03 0.  0.
        -24    2    4    4    0    0  0.32155177553E+02 -0.30664934320E+03  0.58990387659E+03  0.67039253463E+03  0.79823503766E+02 0.  0.
         24    2    4    4    0    0 -0.39020999592E+02  0.61928960309E+03  0.86465152044E+03  0.10671873022E+04  0.78893823041E+02 0.  0.
         13    1    3    3    0    0  0.42434271057E+02 -0.13737083997E+03  0.11641761433E+03  0.18499858367E+03  0.00000000000E+00 0.  1.
        -13    1    3    3    0    0 -0.35568449017E+02 -0.17526941992E+03  0.85155267256E+02  0.19808054843E+03  0.00000000000E+00 0. -1.
          2    1    6    6  502    0 -0.16612856973E+02  0.28045670104E+02  0.61800986246E+02  0.69870655710E+02  0.00000000000E+00 0. -1.
          3    1    5    5  503    0  0.49644711689E+02 -0.12807037919E+03  0.22184385572E+03  0.26092396545E+03  0.00000000000E+00 0. -1.
         -4    1    5    5    0  503 -0.17489534136E+02 -0.17857896400E+03  0.36806002087E+03  0.40946856918E+03  0.00000000000E+00 0.  1.
         -1    1    6    6    0  502 -0.22408142620E+02  0.59124393299E+03  0.80285053419E+03  0.99731664651E+03  0.00000000000E+00 0.  1.
<mgrwt>
<rscale>  0 0.13245503E+04</rscale>
<asrwt>0</asrwt>
<pdfrwt beam="1">  1        2 0.35733131E-01 0.13245503E+04</pdfrwt>
<pdfrwt beam="2">  1       -2 0.29052209E+00 0.13245503E+04</pdfrwt>
<totfact> 0.52215027E+00</totfact>
</mgrwt>
</event>
<event>
12    1  0.2019083E-007  0.1741184E+04  0.7818608E-02  0.8738218E-01
          1   -1    0    0  501    0  0.00000000000E+00  0.00000000000E+00  0.95466029048E+03  0.95466029048E+03  0.00000000000E+00 0. -1.
         -1   -1    0    0    0  501 -0.00000000000E+00 -0.00000000000E+00 -0.79392647474E+03  0.79392647474E+03  0.00000000000E+00 0.  1.
         23    2    1    2    0    0 -0.45842789297E+03  0.13907803346E+03  0.47527776677E+03  0.68128334783E+03  0.93590661952E+02 0.  0.
        254    2    1    2    0    0  0.45842789297E+03 -0.13907803346E+03 -0.31454395103E+03  0.10673034174E+04  0.90038872449E+03 0.  0.
        -24    2    4    4    0    0  0.46660839297E+03  0.27393751644E+03 -0.77430801252E+01  0.54660853667E+03  0.77173711619E+02 0.  0.
         24    2    4    4    0    0 -0.81804999986E+01 -0.41301554990E+03 -0.30680087090E+03  0.52069488072E+03  0.79671948477E+02 0.  0.
         13    1    3    3    0    0 -0.22099904772E+03  0.68871983226E+02  0.29517444083E+03  0.37511582169E+03  0.00000000000E+00 0. -1.
        -13    1    3    3    0    0 -0.23742884525E+03  0.70206050235E+02  0.18010332594E+03  0.30616752614E+03  0.00000000000E+00 0.  1.
          2    1    6    6  502    0  0.58478956984E+01 -0.27771218789E+03 -0.16000038292E+03  0.32055947923E+03  0.00000000000E+00 0. -1.
          1    1    5    5  503    0  0.28446076368E+02  0.28771208068E+01 -0.12871520581E+02  0.31354953786E+02  0.00000000000E+00 0. -1.
         -2    1    5    5    0  503  0.43816231660E+03  0.27106039564E+03  0.51284404555E+01  0.51525358288E+03  0.00000000000E+00 0.  1.
         -3    1    6    6    0  502 -0.14028395697E+02 -0.13530336202E+03 -0.14680048798E+03  0.20013540149E+03  0.00000000000E+00 0.  1.
<mgrwt>
<rscale>  0 0.17411836E+04</rscale>
<asrwt>0</asrwt>
<pdfrwt beam="1">  1        1 0.14687081E+00 0.17411836E+04</pdfrwt>
<pdfrwt beam="2">  1       -1 0.12214253E+00 0.17411836E+04</pdfrwt>
<totfact> 0.92380794E+00</totfact>
</mgrwt>
</event>
<event>
12    1  0.2019083E-007  0.4709970E+04  0.7818608E-02  0.7874874E-01
         -2   -1    0    0    0  501 -0.00000000000E+00  0.00000000000E+00  0.29819002415E+04  0.29819002415E+04  0.00000000000E+00 0.  1.
          2   -1    0    0  501    0  0.00000000000E+00 -0.00000000000E+00 -0.18598724556E+04  0.18598724556E+04  0.00000000000E+00 0. -1.
         23    2    1    2    0    0  0.13600083880E+04  0.14606784566E+04  0.16485387435E+04  0.25902018601E+04  0.90891795854E+02 0.  0.
        254    2    1    2    0    0 -0.13600083880E+04 -0.14606784566E+04 -0.52651095764E+03  0.22515708370E+04  0.89952936389E+03 0.  0.
        -24    2    4    4    0    0 -0.34777552193E+03 -0.47879978987E+02 -0.34963150088E+03  0.50232960908E+03  0.82780092487E+02 0.  0.
         24    2    4    4    0    0 -0.10122328660E+04 -0.14127984776E+04 -0.17687945677E+03  0.17492412279E+04  0.89126975333E+02 0.  0.
         11    1    3    3    0    0  0.43241648878E+03  0.43342415287E+03  0.55301071054E+03  0.82502203730E+03  0.00000000000E+00 0.  1.
        -11    1    3    3    0    0  0.92759189919E+03  0.10272543037E+04  0.10955280329E+04  0.17651798228E+04  0.00000000000E+00 0. -1.
          2    1    6    6  502    0 -0.80806305048E+03 -0.11836210190E+04 -0.13579300991E+03  0.14395708915E+04  0.00000000000E+00 0. -1.
          3    1    5    5  503    0 -0.29759331234E+03 -0.70133895757E+02 -0.29916056566E+03  0.42775879527E+03  0.00000000000E+00 0. -1.
         -4    1    5    5    0  503 -0.50182209593E+02  0.22253916770E+02 -0.50470935220E+02  0.74570813816E+02  0.00000000000E+00 0.  1.
         -1    1    6    6    0  502 -0.20416981556E+03 -0.22917745864E+03 -0.41086446862E+02  0.30967033640E+03  0.00000000000E+00 0.  1.
<mgrwt>
<rscale>  0 0.47099699E+04</rscale>
<asrwt>0</asrwt>
<pdfrwt beam="1">  1        2 0.28613422E+00 0.47099699E+04</pdfrwt>
<pdfrwt beam="2">  1       -2 0.45875388E+00 0.47099699E+04</pdfrwt>
<totfact> 0.18136326E-02</totfact>
</mgrwt>
</event>
<event>
12    1  0.2019083E-007  0.3192411E+04  0.7818608E-02  0.8190824E-01
          1   -1    0    0  501    0  0.00000000000E+00  0.00000000000E+00  0.12735036745E+04  0.12735036745E+04  0.00000000000E+00 0. -1.
         -1   -1    0    0    0  501 -0.00000000000E+00 -0.00000000000E+00 -0.20006789987E+04  0.20006789987E+04  0.00000000000E+00 0.  1.
         23    2    1    2    0    0 -0.13777177158E+04  0.45680352033E+03 -0.56188746476E+03  0.15589808512E+04  0.89040500630E+02 0.  0.
        254    2    1    2    0    0  0.13777177158E+04 -0.45680352033E+03 -0.16528785943E+03  0.17152018221E+04  0.89878899272E+03 0.  0.
        -24    2    4    4    0    0  0.11588087981E+04 -0.36221245390E+03 -0.48451588889E+03  0.13091695241E+04  0.71648473674E+02 0.  0.
         24    2    4    4    0    0  0.21890891766E+03 -0.94591066430E+02  0.31922802945E+03  0.40603229802E+03  0.78019921631E+02 0.  0.
         13    1    3    3    0    0 -0.94105124454E+03  0.35508020814E+03 -0.39333335576E+03  0.10799863554E+04  0.00000000000E+00 0. -1.
        -13    1    3    3    0    0 -0.43666647125E+03  0.10172331219E+03 -0.16855410900E+03  0.47899449582E+03  0.00000000000E+00 0.  1.
          4    1    6    6  502    0  0.16574247116E+03 -0.10531959583E+03  0.25807030890E+03  0.32428855723E+03  0.00000000000E+00 0. -1.
          1    1    5    5  503    0  0.73977071653E+03 -0.23571979796E+03 -0.34635794209E+03  0.85016960675E+03  0.00000000000E+00 0. -1.
         -2    1    5    5    0  503  0.41903808160E+03 -0.12649265595E+03 -0.13815794679E+03  0.45899991732E+03  0.00000000000E+00 0.  1.
         -3    1    6    6    0  502  0.53166446498E+02  0.10728529400E+02  0.61157720547E+02  0.81743740792E+02  0.00000000000E+00 0.  1.
<mgrwt>
<rscale>  0 0.31924110E+04</rscale>
<asrwt>0</asrwt>
<pdfrwt beam="1">  1        1 0.19592364E+00 0.31924110E+04</pdfrwt>
<pdfrwt beam="2">  1       -1 0.30779677E+00 0.31924110E+04</pdfrwt>
<totfact> 0.23249368E-01</totfact>
</mgrwt>
</event>
<event>
12    1  0.2019083E-007  0.1714251E+04  0.7818608E-02  0.8753278E-01
          1   -1    0    0  501    0  0.00000000000E+00  0.00000000000E+00  0.95459310056E+03  0.95459310056E+03  0.00000000000E+00 0. -1.
         -1   -1    0    0    0  501 -0.00000000000E+00 -0.00000000000E+00 -0.76960926537E+03  0.76960926537E+03  0.00000000000E+00 0.  1.
         23    2    1    2    0    0  0.12664656976E+03  0.54165416250E+03  0.33840488584E+03  0.65719581494E+03  0.89218198999E+02 0.  0.
        254    2    1    2    0    0 -0.12664656976E+03 -0.54165416250E+03 -0.15342105065E+03  0.10670065510E+04  0.89751678295E+03 0.  0.
        -24    2    4    4    0    0  0.16312050946E+03 -0.46545047952E+02 -0.39763464363E+03  0.43909542751E+03  0.76920365006E+02 0.  0.
         24    2    4    4    0    0 -0.28976707922E+03 -0.49510911455E+03  0.24421359298E+03  0.62791112347E+03  0.74391561887E+02 0.  0.
         11    1    3    3    0    0  0.24360339248E+02  0.18419952287E+03  0.15818152356E+03  0.24401697635E+03  0.00000000000E+00 0. -1.
        -11    1    3    3    0    0  0.10228623051E+03  0.35745463963E+03  0.18022336228E+03  0.41317883859E+03  0.00000000000E+00 0.  1.
          2    1    6    6  502    0 -0.17943229999E+03 -0.32453632130E+03  0.19459329074E+03  0.41879150293E+03  0.00000000000E+00 0. -1.
          1    1    5    5  503    0  0.12020913225E+03 -0.48491229827E+02 -0.35763389476E+03  0.38039931326E+03  0.00000000000E+00 0. -1.
         -2    1    5    5    0  503  0.42911377215E+02  0.19461818745E+01 -0.40000748863E+02  0.58696114250E+02  0.00000000000E+00 0.  1.
         -1    1    6    6    0  502 -0.11033477923E+03 -0.17057279324E+03  0.49620302241E+02  0.20911962055E+03  0.00000000000E+00 0.  1.
<mgrwt>
<rscale>  0 0.17142505E+04</rscale>
<asrwt>0</asrwt>
<pdfrwt beam="1">  1        1 0.14686048E+00 0.17142505E+04</pdfrwt>
<pdfrwt beam="2">  1       -1 0.11840143E+00 0.17142505E+04</pdfrwt>
<totfact> 0.99956009E+00</totfact>
</mgrwt>
</event>
<event>
12    1  0.2019083E-007  0.1778507E+04  0.7818608E-02  0.8717813E-01
          2   -1    0    0  501    0  0.00000000000E+00  0.00000000000E+00  0.20745559129E+04  0.20745559129E+04  0.00000000000E+00 0. -1.
         -2   -1    0    0    0  501 -0.00000000000E+00 -0.00000000000E+00 -0.38117654639E+03  0.38117654639E+03  0.00000000000E+00 0.  1.
         23    2    1    2    0    0 -0.47974705900E+03  0.42565243763E+03  0.43307611115E+03  0.77960835766E+03  0.94324095557E+02 0.  0.
        254    2    1    2    0    0  0.47974705900E+03 -0.42565243763E+03  0.12603032553E+04  0.16761241016E+04  0.89982802262E+03 0.  0.
        -24    2    4    4    0    0  0.43404109775E+03  0.71210304866E+02  0.17686159023E+03  0.48066154267E+03  0.79327891961E+02 0.  0.
         24    2    4    4    0    0  0.45705961250E+02 -0.49686274250E+03  0.10834416651E+04  0.11954625589E+04  0.79518981077E+02 0.  0.
         13    1    3    3    0    0 -0.42066405017E+03  0.32992332651E+03  0.37491061506E+03  0.65296677846E+03  0.00000000000E+00 0.  1.
        -13    1    3    3    0    0 -0.59083008833E+02  0.95729111119E+02  0.58165496096E+02  0.12664157921E+03  0.00000000000E+00 0. -1.
          4    1    6    6  502    0  0.46994118194E+02 -0.42443639466E+03  0.98182148140E+03  0.10706671386E+04  0.00000000000E+00 0. -1.
          1    1    5    5  503    0  0.31518107599E+03  0.76672970877E+02  0.15571136701E+03  0.35981090165E+03  0.00000000000E+00 0. -1.
         -2    1    5    5    0  503  0.11886002176E+03 -0.54626660103E+01  0.21150223214E+02  0.12085064102E+03  0.00000000000E+00 0.  1.
         -3    1    6    6    0  502 -0.12881569437E+01 -0.72426347844E+02  0.10162018370E+03  0.12479542037E+03  0.00000000000E+00 0.  1.
<mgrwt>
<rscale>  0 0.17785073E+04</rscale>
<asrwt>0</asrwt>
<pdfrwt beam="1">  1        2 0.31916244E+00 0.17785073E+04</pdfrwt>
<pdfrwt beam="2">  1       -2 0.58642547E-01 0.17785073E+04</pdfrwt>
<totfact> 0.15608751E+01</totfact>
</mgrwt>
</event>
<event>
12    1  0.2019083E-007  0.1564225E+04  0.7818608E-02  0.8842833E-01
          2   -1    0    0  501    0  0.00000000000E+00  0.00000000000E+00  0.19526991598E+04  0.19526991598E+04  0.00000000000E+00 0. -1.
         -2   -1    0    0    0  501 -0.00000000000E+00 -0.00000000000E+00 -0.31325856090E+03  0.31325856090E+03  0.00000000000E+00 0.  1.
         23    2    1    2    0    0  0.11388297100E+02 -0.51738169623E+03  0.52873565518E+03  0.74559970598E+03  0.92433844442E+02 0.  0.
        254    2    1    2    0    0 -0.11388297100E+02  0.51738169623E+03  0.11107049437E+04  0.15203580147E+04  0.90000528223E+03 0.  0.
        -24    2    4    4    0    0  0.22011813279E+03  0.68813110029E+03  0.67391343972E+03  0.99135930203E+03  0.81593736972E+02 0.  0.
         24    2    4    4    0    0 -0.23150642989E+03 -0.17074940406E+03  0.43679150402E+03  0.52899871272E+03  0.79386610988E+02 0.  0.
         11    1    3    3    0    0 -0.26484258418E+02 -0.41768077915E+03  0.40762671248E+03  0.58422443115E+03  0.00000000000E+00 0.  1.
        -11    1    3    3    0    0  0.37872555518E+02 -0.99700917074E+02  0.12110894270E+03  0.16137527483E+03  0.00000000000E+00 0. -1.
          4    1    6    6  502    0 -0.37086875392E+02  0.25984779395E+01  0.67923484425E+02  0.77432474779E+02  0.00000000000E+00 0. -1.
          3    1    5    5  503    0  0.12851940877E+03  0.27121671393E+03  0.27064792531E+03  0.40413616989E+03  0.00000000000E+00 0. -1.
         -4    1    5    5    0  503  0.91598724022E+02  0.41691438636E+03  0.40326551441E+03  0.58722313213E+03  0.00000000000E+00 0.  1.
         -3    1    6    6    0  502 -0.19441955450E+03 -0.17334788200E+03  0.36886801959E+03  0.45156623794E+03  0.00000000000E+00 0.  1.
<mgrwt>
<rscale>  0 0.15642247E+04</rscale>
<asrwt>0</asrwt>
<pdfrwt beam="1">  1        2 0.30041525E+00 0.15642247E+04</pdfrwt>
<pdfrwt beam="2">  1       -2 0.48193626E-01 0.15642247E+04</pdfrwt>
<totfact> 0.27843468E+01</totfact>
</mgrwt>
</event>
<event>
12    1  0.2019083E-007  0.1424778E+04  0.7818608E-02  0.8936076E-01
          2   -1    0    0  501    0  0.00000000000E+00  0.00000000000E+00  0.13059732361E+04  0.13059732361E+04  0.00000000000E+00 0. -1.
         -2   -1    0    0    0  501 -0.00000000000E+00 -0.00000000000E+00 -0.38859754456E+03  0.38859754456E+03  0.00000000000E+00 0.  1.
         23    2    1    2    0    0  0.42016717848E+03 -0.29663241922E+02  0.25820415849E+03  0.50229016351E+03  0.90585071079E+02 0.  0.
        254    2    1    2    0    0 -0.42016717848E+03  0.29663241922E+02  0.65917153308E+03  0.11922806172E+04  0.89978085903E+03 0.  0.
        -24    2    4    4    0    0  0.17999060094E+03  0.21975038377E+03  0.42095527801E+03  0.51433276021E+03  0.81535235017E+02 0.  0.
         24    2    4    4    0    0 -0.60015777942E+03 -0.19008714185E+03  0.23821625506E+03  0.67794785696E+03  0.80893948377E+02 0.  0.
         11    1    3    3    0    0  0.41786936948E+03 -0.39353850917E+02  0.25725872051E+03  0.49228608025E+03  0.00000000000E+00 0. -1.
        -11    1    3    3    0    0  0.22978090070E+01  0.96906089950E+01  0.94543797882E+00  0.10004083261E+02  0.00000000000E+00 0.  1.
          4    1    6    6  502    0 -0.92657767020E+02 -0.34068930100E+02  0.69910706108E+02  0.12096966816E+03  0.00000000000E+00 0. -1.
          1    1    5    5  503    0  0.54729170986E+02  0.90968804502E+02  0.96534224134E+02  0.14349028531E+03  0.00000000000E+00 0. -1.
         -2    1    5    5    0  503  0.12526142995E+03  0.12878157927E+03  0.32442105388E+03  0.37084247490E+03  0.00000000000E+00 0.  1.
         -3    1    6    6    0  502 -0.50750001240E+03 -0.15601821175E+03  0.16830554895E+03  0.55697818879E+03  0.00000000000E+00 0.  1.
<mgrwt>
<rscale>  0 0.14247779E+04</rscale>
<asrwt>0</asrwt>
<pdfrwt beam="1">  1        2 0.20091896E+00 0.14247779E+04</pdfrwt>
<pdfrwt beam="2">  1       -2 0.59784238E-01 0.14247779E+04</pdfrwt>
<totfact> 0.41578340E+01</totfact>
</mgrwt>
</event>
<event>
12    1  0.2019083E-007  0.1548504E+04  0.7818608E-02  0.8852824E-01
         -1   -1    0    0    0  501 -0.00000000000E+00  0.00000000000E+00  0.26510520898E+03  0.26510520898E+03  0.00000000000E+00 0.  1.
          1   -1    0    0  501    0  0.00000000000E+00 -0.00000000000E+00 -0.22612397298E+04  0.22612397298E+04  0.00000000000E+00 0. -1.
         23    2    1    2    0    0  0.25416505979E+03 -0.12578048955E+03 -0.13505550253E+04  0.13830066520E+04  0.91037980279E+02 0.  0.
        254    2    1    2    0    0 -0.25416505979E+03  0.12578048955E+03 -0.64557949544E+03  0.11433382867E+04  0.90001607976E+03 0.  0.
        -24    2    4    4    0    0 -0.33731758786E+03 -0.15101233474E+03 -0.73836845772E+03  0.82950018343E+03  0.79339111534E+02 0.  0.
         24    2    4    4    0    0  0.83152528077E+02  0.27679282428E+03  0.92788962289E+02  0.31383810331E+03  0.79724231353E+02 0.  0.
         11    1    3    3    0    0  0.62731234263E+02 -0.40512911251E+02 -0.19924884006E+03  0.21278299743E+03  0.00000000000E+00 0.  1.
        -11    1    3    3    0    0  0.19143382552E+03 -0.85267578297E+02 -0.11513061853E+04  0.11702236546E+04  0.00000000000E+00 0. -1.
          2    1    6    6  502    0  0.60607421776E+02  0.75926160397E+02  0.38914349722E+02  0.10465356191E+03  0.00000000000E+00 0. -1.
          3    1    5    5  503    0 -0.99545221527E+02 -0.52108323522E+02 -0.15151673128E+03  0.18863151478E+03  0.00000000000E+00 0. -1.
         -4    1    5    5    0  503 -0.23777236634E+03 -0.98904011214E+02 -0.58685172644E+03  0.64086866865E+03  0.00000000000E+00 0.  1.
         -1    1    6    6    0  502  0.22545106300E+02  0.20086666389E+03  0.53874612567E+02  0.20918454139E+03  0.00000000000E+00 0.  1.
<mgrwt>
<rscale>  0 0.15485044E+04</rscale>
<asrwt>0</asrwt>
<pdfrwt beam="1">  1        1 0.34788304E+00 0.15485044E+04</pdfrwt>
<pdfrwt beam="2">  1       -1 0.40785417E-01 0.15485044E+04</pdfrwt>
<totfact> 0.11218673E+01</totfact>
</mgrwt>
</event>
<event>
12    1  0.2019083E-007  0.2269118E+04  0.7818608E-02  0.8490198E-01
          1   -1    0    0  501    0  0.00000000000E+00  0.00000000000E+00  0.72319245938E+03  0.72319245938E+03  0.00000000000E+00 0. -1.
         -1   -1    0    0    0  501 -0.00000000000E+00 -0.00000000000E+00 -0.17799194390E+04  0.17799194390E+04  0.00000000000E+00 0.  1.
         23    2    1    2    0    0  0.93785358920E+03 -0.48609842698E+02 -0.26282778551E+03  0.97958821270E+03  0.92640973860E+02 0.  0.
        254    2    1    2    0    0 -0.93785358920E+03  0.48609842698E+02 -0.79389919413E+03  0.15235236857E+04  0.89939769784E+03 0.  0.
        -24    2    4    4    0    0 -0.19925939951E+03 -0.96009916783E+02 -0.72647181541E+03  0.76362213263E+03  0.80220012700E+02 0.  0.
         24    2    4    4    0    0 -0.73859418969E+03  0.14461975948E+03 -0.67427378725E+02  0.75990155308E+03  0.80421807373E+02 0.  0.
         13    1    3    3    0    0  0.45948758277E+03 -0.15966590319E+02 -0.17606086969E+03  0.49232225276E+03  0.00000000000E+00 0. -1.
        -13    1    3    3    0    0  0.47836600643E+03 -0.32643252379E+02 -0.86766915818E+02  0.48726595994E+03  0.00000000000E+00 0.  1.
          2    1    6    6  502    0 -0.23054751103E+03  0.28473897122E+02 -0.54405163485E+02  0.23858507806E+03  0.00000000000E+00 0. -1.
          3    1    5    5  503    0 -0.89081549963E+02 -0.81830030918E+02 -0.31524351730E+03  0.33765389336E+03  0.00000000000E+00 0. -1.
         -4    1    5    5    0  503 -0.11017784955E+03 -0.14179885865E+02 -0.41122829811E+03  0.42596823926E+03  0.00000000000E+00 0.  1.
         -1    1    6    6    0  502 -0.50804667866E+03  0.11614586236E+03 -0.13022215240E+02  0.52131647502E+03  0.00000000000E+00 0.  1.
<mgrwt>
<rscale>  0 0.22691182E+04</rscale>
<asrwt>0</asrwt>
<pdfrwt beam="1">  1        1 0.11126038E+00 0.22691182E+04</pdfrwt>
<pdfrwt beam="2">  1       -1 0.27383376E+00 0.22691182E+04</pdfrwt>
<totfact> 0.11461633E+00</totfact>
</mgrwt>
</event>
<event>
12    1  0.2019083E-007  0.1150224E+04  0.7818608E-02  0.9157577E-01
          1   -1    0    0  501    0  0.00000000000E+00  0.00000000000E+00  0.46637352366E+03  0.46637352366E+03  0.00000000000E+00 0. -1.
         -1   -1    0    0    0  501 -0.00000000000E+00 -0.00000000000E+00 -0.70920381443E+03  0.70920381443E+03  0.00000000000E+00 0.  1.
         23    2    1    2    0    0 -0.12904309219E+03 -0.10085410090E+03  0.82008801780E+02  0.20409277146E+03  0.90026365485E+02 0.  0.
        254    2    1    2    0    0  0.12904309219E+03  0.10085410090E+03 -0.32483909254E+03  0.97148456662E+03  0.90079862224E+03 0.  0.
        -24    2    4    4    0    0 -0.19078489110E+03  0.38652111340E+03 -0.30486202812E+03  0.53468281634E+03  0.84542368804E+02 0.  0.
         24    2    4    4    0    0  0.31982798330E+03 -0.28566701250E+03 -0.19977064428E+02  0.43680175029E+03  0.80629430255E+02 0.  0.
         11    1    3    3    0    0 -0.92098742669E+02 -0.11181838204E+03  0.47753062064E+02  0.15253158329E+03  0.00000000000E+00 0.  1.
        -11    1    3    3    0    0 -0.36944349525E+02  0.10964281139E+02  0.34255739716E+02  0.51561188177E+02  0.00000000000E+00 0. -1.
          4    1    6    6  502    0  0.90040053736E+02 -0.11562619243E+03  0.20904471471E+02  0.14803251190E+03  0.00000000000E+00 0. -1.
          3    1    5    5  503    0 -0.11875954337E+03  0.31718415852E+03 -0.24679034325E+03  0.41906454524E+03  0.00000000000E+00 0. -1.
         -4    1    5    5    0  503 -0.72025347734E+02  0.69336954881E+02 -0.58071684868E+02  0.11561827110E+03  0.00000000000E+00 0.  1.
         -3    1    6    6    0  502  0.22978792956E+03 -0.17004082007E+03 -0.40881535899E+02  0.28876923839E+03  0.00000000000E+00 0.  1.
<mgrwt>
<rscale>  0 0.11502241E+04</rscale>
<asrwt>0</asrwt>
<pdfrwt beam="1">  1        1 0.71749773E-01 0.11502241E+04</pdfrwt>
<pdfrwt beam="2">  1       -1 0.10910828E+00 0.11502241E+04</pdfrwt>
<totfact> 0.37705249E+01</totfact>
</mgrwt>
</event>
<event>
12    1  0.2019083E-007  0.1600049E+04  0.7818608E-02  0.8820518E-01
          2   -1    0    0  501    0  0.00000000000E+00  0.00000000000E+00  0.13314223430E+04  0.13314223430E+04  0.00000000000E+00 0. -1.
         -2   -1    0    0    0  501 -0.00000000000E+00 -0.00000000000E+00 -0.48071846371E+03  0.48071846371E+03  0.00000000000E+00 0.  1.
         23    2    1    2    0    0 -0.19628223138E+03 -0.39993497661E+03 -0.57050301817E+02  0.45873943486E+03  0.93340410798E+02 0.  0.
        254    2    1    2    0    0  0.19628223138E+03  0.39993497661E+03  0.90775418107E+03  0.13534013718E+04  0.89955706884E+03 0.  0.
        -24    2    4    4    0    0  0.17043831223E+03 -0.26912972961E+03  0.32994566633E+03  0.46559303598E+03  0.80204131994E+02 0.  0.
         24    2    4    4    0    0  0.25843919147E+02  0.66906470622E+03  0.57780851474E+03  0.88780833583E+03  0.77623915056E+02 0.  0.
         13    1    3    3    0    0 -0.58120213327E+02 -0.20436109191E+03  0.50720354782E+00  0.21246569685E+03  0.00000000000E+00 0. -1.
        -13    1    3    3    0    0 -0.13816201805E+03 -0.19557388471E+03 -0.57557505365E+02  0.24627373802E+03  0.00000000000E+00 0.  1.
          2    1    6    6  502    0 -0.32378727007E+01  0.53853478976E+03  0.48768438490E+03  0.72654405432E+03  0.00000000000E+00 0. -1.
          1    1    5    5  503    0  0.17491620947E+03 -0.26098980741E+03  0.30064533337E+03  0.43485512114E+03  0.00000000000E+00 0. -1.
         -2    1    5    5    0  503 -0.44778972386E+01 -0.81399222016E+01  0.29300332960E+02  0.30737914840E+02  0.00000000000E+00 0.  1.
         -1    1    6    6    0  502  0.29081791848E+02  0.13052991646E+03  0.90124129846E+02  0.16126428151E+03  0.00000000000E+00 0.  1.
<mgrwt>
<rscale>  0 0.16000491E+04</rscale>
<asrwt>0</asrwt>
<pdfrwt beam="1">  1        2 0.20483421E+00 0.16000491E+04</pdfrwt>
<pdfrwt beam="2">  1       -2 0.73956687E-01 0.16000491E+04</pdfrwt>
<totfact> 0.25035502E+01</totfact>
</mgrwt>
</event>
<event>
12    1  0.2019083E-007  0.1125354E+04  0.7818608E-02  0.9180827E-01
          1   -1    0    0  501    0  0.00000000000E+00  0.00000000000E+00  0.62222737060E+03  0.62222737060E+03  0.00000000000E+00 0. -1.
         -1   -1    0    0    0  501 -0.00000000000E+00 -0.00000000000E+00 -0.50882553757E+03  0.50882553757E+03  0.00000000000E+00 0.  1.
         23    2    1    2    0    0  0.16428603742E+03 -0.30867517400E+02 -0.63965325886E+02  0.19998393482E+03  0.89214940182E+02 0.  0.
        254    2    1    2    0    0 -0.16428603742E+03  0.30867517400E+02  0.17736715891E+03  0.93106897335E+03  0.89860314842E+03 0.  0.
        -24    2    4    4    0    0 -0.19848441829E+03  0.21421409530E+03  0.47979131650E+03  0.56730607039E+03  0.79703997336E+02 0.  0.
         24    2    4    4    0    0  0.34198380872E+02 -0.18334657790E+03 -0.30242415759E+03  0.36376290295E+03  0.77958845482E+02 0.  0.
         11    1    3    3    0    0  0.14855899246E+03 -0.37197914667E+02 -0.83247332402E+02  0.17430885648E+03  0.00000000000E+00 0.  1.
        -11    1    3    3    0    0  0.15727044959E+02  0.63303972670E+01  0.19282006516E+02  0.25675078344E+02  0.00000000000E+00 0. -1.
          2    1    6    6  502    0  0.56489413287E+02 -0.14755890297E+03 -0.21619382983E+03  0.26777687674E+03  0.00000000000E+00 0. -1.
          3    1    5    5  503    0 -0.10836488399E+03  0.17169715528E+03  0.32590512551E+03  0.38397527531E+03  0.00000000000E+00 0. -1.
         -4    1    5    5    0  503 -0.90119534297E+02  0.42516940021E+02  0.15388619098E+03  0.18333079508E+03  0.00000000000E+00 0.  1.
         -1    1    6    6    0  502 -0.22291032414E+02 -0.35787674931E+02 -0.86230327756E+02  0.95986026213E+02  0.00000000000E+00 0.  1.
<mgrwt>
<rscale>  0 0.11253536E+04</rscale>
<asrwt>0</asrwt>
<pdfrwt beam="1">  1        1 0.95727288E-01 0.11253536E+04</pdfrwt>
<pdfrwt beam="2">  1       -1 0.78280852E-01 0.11253536E+04</pdfrwt>
<totfact> 0.52815979E+01</totfact>
</mgrwt>
</event>
<event>
12    1  0.2019083E-007  0.2625098E+04  0.7818608E-02  0.8359726E-01
          2   -1    0    0  501    0  0.00000000000E+00  0.00000000000E+00  0.18920844170E+04  0.18920844170E+04  0.00000000000E+00 0. -1.
         -2   -1    0    0    0  501 -0.00000000000E+00 -0.00000000000E+00 -0.91052226222E+03  0.91052226222E+03  0.00000000000E+00 0.  1.
         23    2    1    2    0    0  0.82845976722E+03  0.80576809557E+03  0.45472096542E+03  0.12450669511E+04  0.88389742307E+02 0.  0.
        254    2    1    2    0    0 -0.82845976722E+03 -0.80576809557E+03  0.52684118936E+03  0.15575397281E+04  0.90153233785E+03 0.  0.
        -24    2    4    4    0    0 -0.41711886572E+03 -0.48579305687E+03 -0.18653519902E+03  0.67084226841E+03  0.72463276036E+02 0.  0.
         24    2    4    4    0    0 -0.41134090150E+03 -0.31997503870E+03  0.71337638838E+03  0.88669745973E+03  0.75770383118E+02 0.  0.
         11    1    3    3    0    0  0.58082558881E+03  0.55434200969E+03  0.27239998857E+03  0.84785327864E+03  0.00000000000E+00 0.  1.
        -11    1    3    3    0    0  0.24763417841E+03  0.25142608588E+03  0.18232097685E+03  0.39721367244E+03  0.00000000000E+00 0. -1.
          4    1    6    6  502    0 -0.18813002267E+03 -0.13794202447E+03  0.38243680410E+03  0.44797189272E+03  0.00000000000E+00 0. -1.
          3    1    5    5  503    0 -0.39523724933E+03 -0.42902646718E+03 -0.16377738901E+03  0.60588713961E+03  0.00000000000E+00 0. -1.
         -4    1    5    5    0  503 -0.21881616391E+02 -0.56766589692E+02 -0.22757810010E+02  0.64955128801E+02  0.00000000000E+00 0.  1.
         -3    1    6    6    0  502 -0.22321087884E+03 -0.18203301423E+03  0.33093958428E+03  0.43872556701E+03  0.00000000000E+00 0.  1.
<mgrwt>
<rscale>  0 0.26250981E+04</rscale>
<asrwt>0</asrwt>
<pdfrwt beam="1">  1        2 0.29108991E+00 0.26250981E+04</pdfrwt>
<pdfrwt beam="2">  1       -2 0.14008035E+00 0.26250981E+04</pdfrwt>
<totfact> 0.24285405E+00</totfact>
</mgrwt>
</event>
<event>
12    1  0.2019083E-007  0.1383779E+04  0.7818608E-02  0.8965644E-01
         -2   -1    0    0    0  501 -0.00000000000E+00  0.00000000000E+00  0.23463365465E+03  0.23463365465E+03  0.00000000000E+00 0.  1.
          2   -1    0    0  501    0  0.00000000000E+00 -0.00000000000E+00 -0.20402498236E+04  0.20402498236E+04  0.00000000000E+00 0. -1.
         23    2    1    2    0    0  0.63609846187E+02 -0.36057050554E+03 -0.29964897401E+03  0.48196740907E+03  0.91900891093E+02 0.  0.
        254    2    1    2    0    0 -0.63609846187E+02  0.36057050554E+03 -0.15059671949E+04  0.17929160692E+04  0.90141751527E+03 0.  0.
        -24    2    4    4    0    0 -0.10114890177E+03  0.89324338532E+02 -0.14991031384E+04  0.15074774743E+04  0.83475614228E+02 0.  0.
         24    2    4    4    0    0  0.37539055583E+02  0.27124616701E+03 -0.68640565549E+01  0.28543859489E+03  0.80277097394E+02 0.  0.
         13    1    3    3    0    0  0.84155048191E+02 -0.28870503163E+03 -0.21903254065E+03  0.37203215088E+03  0.00000000000E+00 0.  1.
        -13    1    3    3    0    0 -0.20545202003E+02 -0.71865473911E+02 -0.80616433367E+02  0.10993525820E+03  0.00000000000E+00 0. -1.
          2    1    6    6  502    0  0.49381825073E+02  0.16742073746E+03 -0.33180243280E+02  0.17767722567E+03  0.00000000000E+00 0. -1.
          3    1    5    5  503    0 -0.70575774540E+02  0.11461125089E+02 -0.85096809228E+03  0.85396662196E+03  0.00000000000E+00 0. -1.
         -4    1    5    5    0  503 -0.30573127230E+02  0.77863213443E+02 -0.64813504609E+03  0.65351085231E+03  0.00000000000E+00 0.  1.
         -1    1    6    6    0  502 -0.11842769490E+02  0.10382542955E+03  0.26316186725E+02  0.10776136921E+03  0.00000000000E+00 0.  1.
<mgrwt>
<rscale>  0 0.13837793E+04</rscale>
<asrwt>0</asrwt>
<pdfrwt beam="1">  1        2 0.31388458E+00 0.13837793E+04</pdfrwt>
<pdfrwt beam="2">  1       -2 0.36097486E-01 0.13837793E+04</pdfrwt>
<totfact> 0.44674928E+01</totfact>
</mgrwt>
</event>
<event>
12    1  0.2019083E-007  0.1839366E+04  0.7818608E-02  0.8685641E-01
          2   -1    0    0  501    0  0.00000000000E+00  0.00000000000E+00  0.11795971053E+04  0.11795971053E+04  0.00000000000E+00 0. -1.
         -2   -1    0    0    0  501 -0.00000000000E+00 -0.00000000000E+00 -0.71703890944E+03  0.71703890944E+03  0.00000000000E+00 0.  1.
         23    2    1    2    0    0  0.51185405171E+03 -0.44815098486E+03  0.29492138368E+03  0.74790679070E+03  0.97734689574E+02 0.  0.
        254    2    1    2    0    0 -0.51185405171E+03  0.44815098486E+03  0.16763681218E+03  0.11487292240E+04  0.91029822248E+03 0.  0.
        -24    2    4    4    0    0  0.16304500895E+03  0.33392121729E+03  0.25152020564E+03  0.45556494368E+03  0.78676233820E+02 0.  0.
         24    2    4    4    0    0 -0.67489906066E+03  0.11422976757E+03 -0.83883393465E+02  0.69316428034E+03  0.70022239088E+02 0.  0.
         13    1    3    3    0    0  0.41518674263E+03 -0.31131866217E+03  0.20698628326E+03  0.55869729025E+03  0.00000000000E+00 0. -1.
        -13    1    3    3    0    0  0.96667309079E+02 -0.13683232269E+03  0.87935100419E+02  0.18920950045E+03  0.00000000000E+00 0.  1.
          2    1    6    6  502    0 -0.15193161386E+03  0.41344319197E+02 -0.44759661891E+02  0.16369482385E+03  0.00000000000E+00 0. -1.
          3    1    5    5  503    0  0.73773681341E+02  0.11875366411E+03  0.53047918358E+02  0.14952949689E+03  0.00000000000E+00 0. -1.
         -4    1    5    5    0  503  0.89271327606E+02  0.21516755318E+03  0.19847228729E+03  0.30603544679E+03  0.00000000000E+00 0.  1.
         -1    1    6    6    0  502 -0.52296744679E+03  0.72885448373E+02 -0.39123731574E+02  0.52946945650E+03  0.00000000000E+00 0.  1.
<mgrwt>
<rscale>  0 0.18393662E+04</rscale>
<asrwt>0</asrwt>
<pdfrwt beam="1">  1        2 0.18147648E+00 0.18393662E+04</pdfrwt>
<pdfrwt beam="2">  1       -2 0.11031368E+00 0.18393662E+04</pdfrwt>
<totfact> 0.11965737E+01</totfact>
</mgrwt>
</event>
<event>
12    1  0.2019083E-007  0.2371639E+04  0.7818608E-02  0.8450198E-01
         -1   -1    0    0    0  501 -0.00000000000E+00  0.00000000000E+00  0.85621203712E+03  0.85621203712E+03  0.00000000000E+00 0.  1.
          1   -1    0    0  501    0  0.00000000000E+00 -0.00000000000E+00 -0.16423131925E+04  0.16423131925E+04  0.00000000000E+00 0. -1.
         23    2    1    2    0    0 -0.81240810251E+03 -0.32586617240E+03  0.19957210378E+03  0.90267269689E+03  0.93772521358E+02 0.  0.
        254    2    1    2    0    0  0.81240810251E+03  0.32586617240E+03 -0.98567325918E+03  0.15958525327E+04  0.89944307495E+03 0.  0.
        -24    2    4    4    0    0  0.12237046435E+03  0.39880120777E+03 -0.48887487700E+02  0.42749274711E+03  0.79643760063E+02 0.  0.
         24    2    4    4    0    0  0.69003763816E+03 -0.72935035369E+02 -0.93678577148E+03  0.11683597856E+04  0.77624387764E+02 0.  0.
         11    1    3    3    0    0 -0.61104726946E+03 -0.27213211763E+03  0.18364909569E+03  0.69365816171E+03  0.00000000000E+00 0. -1.
        -11    1    3    3    0    0 -0.20136083305E+03 -0.53734054771E+02  0.15923008085E+02  0.20901453517E+03  0.00000000000E+00 0.  1.
          2    1    6    6  502    0  0.16967257699E+03  0.83033491667E-01 -0.18364627422E+03  0.25002948689E+03  0.00000000000E+00 0. -1.
          3    1    5    5  503    0  0.31576336173E+02  0.23723578096E+03 -0.30108409175E+02  0.24121442137E+03  0.00000000000E+00 0. -1.
         -2    1    5    5    0  503  0.90794128175E+02  0.16156542681E+03 -0.18779078525E+02  0.18627832574E+03  0.00000000000E+00 0.  1.
         -1    1    6    6    0  502  0.52036506117E+03 -0.73018068861E+02 -0.75313949726E+03  0.91833029875E+03  0.00000000000E+00 0.  1.
<mgrwt>
<rscale>  0 0.23716394E+04</rscale>
<asrwt>0</asrwt>
<pdfrwt beam="1">  1        1 0.25266357E+00 0.23716394E+04</pdfrwt>
<pdfrwt beam="2">  1       -1 0.13172493E+00 0.23716394E+04</pdfrwt>
<totfact> 0.22995308E+00</totfact>
</mgrwt>
</event>
<event>
12    1  0.2019083E-007  0.2089456E+04  0.7818608E-02  0.8565903E-01
          2   -1    0    0  501    0  0.00000000000E+00  0.00000000000E+00  0.19682596794E+04  0.19682596794E+04  0.00000000000E+00 0. -1.
         -2   -1    0    0    0  501 -0.00000000000E+00 -0.00000000000E+00 -0.55452853884E+03  0.55452853884E+03  0.00000000000E+00 0.  1.
         23    2    1    2    0    0 -0.12976689727E+03  0.20918456098E+03  0.15562527232E+04  0.15783076642E+04  0.92384611315E+02 0.  0.
        254    2    1    2    0    0  0.12976689727E+03 -0.20918456098E+03 -0.14252158263E+03  0.94448055400E+03  0.90062949496E+03 0.  0.
        -24    2    4    4    0    0 -0.13240179297E+02 -0.13254064860E+03  0.37038391255E+03  0.40141357108E+03  0.78779987902E+02 0.  0.
         24    2    4    4    0    0  0.14300707656E+03 -0.76643912388E+02 -0.51290549518E+03  0.54306698292E+03  0.74326224828E+02 0.  0.
         13    1    3    3    0    0 -0.13124445709E+03  0.18352087523E+03  0.14942445125E+04  0.15111822134E+04  0.00000000000E+00 0. -1.
        -13    1    3    3    0    0  0.14775598246E+01  0.25663685758E+02  0.62008210693E+02  0.67125450785E+02  0.00000000000E+00 0.  1.
          4    1    6    6  502    0  0.72426473636E+02 -0.67461771769E+02 -0.37544384288E+03  0.38827150796E+03  0.00000000000E+00 0. -1.
          3    1    5    5  503    0  0.12762403507E+00 -0.11942093445E+03  0.36143951046E+03  0.38065718908E+03  0.00000000000E+00 0. -1.
         -4    1    5    5    0  503 -0.13367803333E+02 -0.13119714147E+02  0.89444020901E+01  0.20756382006E+02  0.00000000000E+00 0.  1.
         -3    1    6    6    0  502  0.70580602927E+02 -0.91821406183E+01 -0.13746165230E+03  0.15479547496E+03  0.00000000000E+00 0.  1.
<mgrwt>
<rscale>  0 0.20894556E+04</rscale>
<asrwt>0</asrwt>
<pdfrwt beam="1">  1        2 0.30280918E+00 0.20894556E+04</pdfrwt>
<pdfrwt beam="2">  1       -2 0.85312084E-01 0.20894556E+04</pdfrwt>
<totfact> 0.76681811E+00</totfact>
</mgrwt>
</event>
<event>
12    1  0.2019083E-007  0.1986722E+04  0.7818608E-02  0.8612854E-01
          1   -1    0    0  501    0  0.00000000000E+00  0.00000000000E+00  0.18498883879E+04  0.18498883879E+04  0.00000000000E+00 0. -1.
         -1   -1    0    0    0  501 -0.00000000000E+00 -0.00000000000E+00 -0.53341946819E+03  0.53341946819E+03  0.00000000000E+00 0.  1.
         23    2    1    2    0    0  0.39130785562E+03 -0.77970139598E+02 -0.28841782858E+03  0.50077609126E+03  0.91600596061E+02 0.  0.
        254    2    1    2    0    0 -0.39130785562E+03  0.77970139598E+02  0.16048867483E+04  0.18825317649E+04  0.89947939954E+03 0.  0.
        -24    2    4    4    0    0  0.84874040844E+02  0.37245324490E+03  0.44304513126E+03  0.59043913123E+03  0.80027226057E+02 0.  0.
         24    2    4    4    0    0 -0.47618189646E+03 -0.29448310530E+03  0.11618416171E+04  0.12920926336E+04  0.78472497593E+02 0.  0.
         13    1    3    3    0    0  0.14849685708E+03 -0.27529062238E+02 -0.56540244887E+02  0.16126365097E+03  0.00000000000E+00 0. -1.
        -13    1    3    3    0    0  0.24281099853E+03 -0.50441077361E+02 -0.23187758370E+03  0.33951244030E+03  0.00000000000E+00 0.  1.
          4    1    6    6  502    0 -0.35404881428E+03 -0.25736530623E+03  0.89990951451E+03  0.10007120455E+04  0.00000000000E+00 0. -1.
          3    1    5    5  503    0  0.90284868810E+02  0.37364837058E+03  0.43937091900E+03  0.58379043058E+03  0.00000000000E+00 0. -1.
         -4    1    5    5    0  503 -0.54108279655E+01 -0.11951256753E+01  0.36742122531E+01  0.66487006500E+01  0.00000000000E+00 0.  1.
         -3    1    6    6    0  502 -0.12213308218E+03 -0.37117799072E+02  0.26193210258E+03  0.29138058812E+03  0.00000000000E+00 0.  1.
<mgrwt>
<rscale>  0 0.19867224E+04</rscale>
<asrwt>0</asrwt>
<pdfrwt beam="1">  1        1 0.28459821E+00 0.19867224E+04</pdfrwt>
<pdfrwt beam="2">  1       -1 0.82064534E-01 0.19867224E+04</pdfrwt>
<totfact> 0.51684122E+00</totfact>
</mgrwt>
</event>
<event>
12    1  0.2019083E-007  0.1196939E+04  0.7818608E-02  0.9115540E-01
          2   -1    0    0  501    0  0.00000000000E+00  0.00000000000E+00  0.14964330265E+04  0.14964330265E+04  0.00000000000E+00 0. -1.
         -2   -1    0    0    0  501 -0.00000000000E+00 -0.00000000000E+00 -0.23934621813E+03  0.23934621813E+03  0.00000000000E+00 0.  1.
         23    2    1    2    0    0 -0.23455318493E+03 -0.70981589242E+02  0.29179856255E+03  0.39156666913E+03  0.90135856911E+02 0.  0.
        254    2    1    2    0    0  0.23455318493E+03  0.70981589242E+02  0.96528824580E+03  0.13442125755E+04  0.90281363969E+03 0.  0.
        -24    2    4    4    0    0  0.28537908879E+03 -0.36167614231E+03  0.64827522568E+03  0.79949666938E+03  0.81751451923E+02 0.  0.
         24    2    4    4    0    0 -0.50825903861E+02  0.43265773155E+03  0.31701302012E+03  0.54471590609E+03  0.80263181130E+02 0.  0.
         11    1    3    3    0    0 -0.15347622028E+02  0.15911118345E+02  0.45527143851E+02  0.50610611695E+02  0.00000000000E+00 0. -1.
        -11    1    3    3    0    0 -0.21920556290E+03 -0.86892707587E+02  0.24627141870E+03  0.34095605744E+03  0.00000000000E+00 0.  1.
          4    1    6    6  502    0 -0.54806083920E+02  0.28224235446E+03  0.24573231682E+03  0.37821795967E+03  0.00000000000E+00 0. -1.
          3    1    5    5  503    0  0.26513410667E+03 -0.33749546994E+03  0.63215002847E+03  0.76407653101E+03  0.00000000000E+00 0. -1.
         -4    1    5    5    0  503  0.20244982113E+02 -0.24180672373E+02  0.16125197211E+02  0.35420138372E+02  0.00000000000E+00 0.  1.
         -3    1    6    6    0  502  0.39801800596E+01  0.15041537709E+03  0.71280703300E+02  0.16649794642E+03  0.00000000000E+00 0.  1.
<mgrwt>
<rscale>  0 0.11969387E+04</rscale>
<asrwt>0</asrwt>
<pdfrwt beam="1">  1        2 0.23022046E+00 0.11969387E+04</pdfrwt>
<pdfrwt beam="2">  1       -2 0.36822496E-01 0.11969387E+04</pdfrwt>
<totfact> 0.87399517E+01</totfact>
</mgrwt>
</event>
<event>
12    1  0.2019083E-007  0.2361404E+04  0.7818608E-02  0.8454096E-01
         -2   -1    0    0    0  501 -0.00000000000E+00  0.00000000000E+00  0.12046737876E+04  0.12046737876E+04  0.00000000000E+00 0.  1.
          2   -1    0    0  501    0  0.00000000000E+00 -0.00000000000E+00 -0.11572068420E+04  0.11572068420E+04  0.00000000000E+00 0. -1.
         23    2    1    2    0    0  0.58164892385E+03 -0.49195651404E+03 -0.63742955067E+03  0.99762088352E+03  0.92705516756E+02 0.  0.
        254    2    1    2    0    0 -0.58164892385E+03  0.49195651404E+03  0.68489649628E+03  0.13642597462E+04  0.90099098889E+03 0.  0.
        -24    2    4    4    0    0 -0.70292483420E+03  0.17894315827E+03  0.71091026425E+03  0.10185648212E+04  0.77181052265E+02 0.  0.
         24    2    4    4    0    0  0.12127591035E+03  0.31301335578E+03 -0.26013767976E+02  0.34569492492E+03  0.78377660508E+02 0.  0.
         13    1    3    3    0    0  0.25345863364E+03 -0.15884233955E+03 -0.26917862341E+03  0.40240439747E+03  0.00000000000E+00 0. -1.
        -13    1    3    3    0    0  0.32819029021E+03 -0.33311417450E+03 -0.36825092725E+03  0.59521648605E+03  0.00000000000E+00 0.  1.
          4    1    6    6  502    0  0.84239287530E+02  0.11965838398E+03  0.48673677151E+01  0.14641747740E+03  0.00000000000E+00 0. -1.
          1    1    5    5  503    0 -0.42941292416E+02  0.28009331312E+02  0.65680925405E+02  0.83321432999E+02  0.00000000000E+00 0. -1.
         -2    1    5    5    0  503 -0.65998354178E+03  0.15093382695E+03  0.64522933885E+03  0.93524338824E+03  0.00000000000E+00 0.  1.
         -3    1    6    6    0  502  0.37036622817E+02  0.19335497180E+03 -0.30881135691E+02  0.19927744752E+03  0.00000000000E+00 0.  1.
<mgrwt>
<rscale>  0 0.23614036E+04</rscale>
<asrwt>0</asrwt>
<pdfrwt beam="1">  1        2 0.17803182E+00 0.23614036E+04</pdfrwt>
<pdfrwt beam="2">  1       -2 0.18533443E+00 0.23614036E+04</pdfrwt>
<totfact> 0.30218314E+00</totfact>
</mgrwt>
</event>
<event>
12    1  0.2019083E-007  0.2096911E+04  0.7818608E-02  0.8562605E-01
         -1   -1    0    0    0  501 -0.00000000000E+00  0.00000000000E+00  0.46250836573E+03  0.46250836573E+03  0.00000000000E+00 0.  1.
          1   -1    0    0  501    0  0.00000000000E+00 -0.00000000000E+00 -0.23767321823E+04  0.23767321823E+04  0.00000000000E+00 0. -1.
         23    2    1    2    0    0 -0.64497441690E+03  0.41842623165E+03 -0.28460142609E+03  0.82472190394E+03  0.89976315299E+02 0.  0.
        254    2    1    2    0    0  0.64497441690E+03 -0.41842623165E+03 -0.16296223905E+04  0.20145186441E+04  0.90085721513E+03 0.  0.
        -24    2    4    4    0    0  0.56097336615E+03  0.13450724813E+03 -0.10764463196E+04  0.12238720036E+04  0.79640974021E+02 0.  0.
         24    2    4    4    0    0  0.84001050751E+02 -0.55293347978E+03 -0.55317607085E+03  0.79064664052E+03  0.79540777117E+02 0.  0.
         11    1    3    3    0    0 -0.30795732110E+03  0.23155194810E+03 -0.18090781900E+03  0.42565438475E+03  0.00000000000E+00 0.  1.
        -11    1    3    3    0    0 -0.33701709580E+03  0.18687428354E+03 -0.10369360710E+03  0.39906751918E+03  0.00000000000E+00 0. -1.
          2    1    6    6  502    0  0.65329547126E+01 -0.12269588951E+02 -0.35451937582E+02  0.38079682097E+02  0.00000000000E+00 0. -1.
          3    1    5    5  503    0  0.24571662260E+03  0.64050259370E+02 -0.39251163686E+03  0.46748741097E+03  0.00000000000E+00 0. -1.
         -4    1    5    5    0  503  0.31525674355E+03  0.70456988758E+02 -0.68393468278E+03  0.75638459260E+03  0.00000000000E+00 0.  1.
         -1    1    6    6    0  502  0.77468096038E+02 -0.54066389082E+03 -0.51772413327E+03  0.75256695842E+03  0.00000000000E+00 0.  1.
<mgrwt>
<rscale>  0 0.20969106E+04</rscale>
<asrwt>0</asrwt>
<pdfrwt beam="1">  1        1 0.36565111E+00 0.20969106E+04</pdfrwt>
<pdfrwt beam="2">  1       -1 0.71155132E-01 0.20969106E+04</pdfrwt>
<totfact> 0.30252313E+00</totfact>
</mgrwt>
</event>
<event>
12    1  0.4123612E-007  0.2894112E+04  0.7818608E-02  0.8274631E-01
          2   -1    0    0  501    0  0.00000000000E+00  0.00000000000E+00  0.16681564933E+04  0.16681564933E+04  0.00000000000E+00 0. -1.
         -2   -1    0    0    0  501 -0.00000000000E+00 -0.00000000000E+00 -0.12552608577E+04  0.12552608577E+04  0.00000000000E+00 0.  1.
         23    2    1    2    0    0  0.49843471922E+03 -0.12022113480E+04  0.73564714883E+02  0.13068161024E+04  0.92775339800E+02 0.  0.
        254    2    1    2    0    0 -0.49843471922E+03  0.12022113480E+04  0.33933092071E+03  0.16166012486E+04  0.89694193164E+03 0.  0.
        -24    2    4    4    0    0  0.53561227338E+02  0.18611404635E+03  0.40441422210E+03  0.45564139444E+03  0.80938087264E+02 0.  0.
         24    2    4    4    0    0 -0.55199594656E+03  0.10160973017E+04 -0.65083301389E+02  0.11609598542E+04  0.80241482256E+02 0.  0.
         13    1    3    3    0    0  0.25231434937E+03 -0.51976570260E+03  0.14727678361E+01  0.57777252058E+03  0.00000000000E+00 0.  1.
        -13    1    3    3    0    0  0.24612036984E+03 -0.68244564541E+03  0.72091947047E+02  0.72904358184E+03  0.00000000000E+00 0. -1.
          2    1    6    6  502    0 -0.53832078034E+03  0.10046333487E+04 -0.71463311766E+02  0.11420089460E+04  0.00000000000E+00 0. -1.
          3    1    5    5  503    0  0.46681202698E+02  0.19315572952E+03  0.39420466521E+03  0.44145847891E+03  0.00000000000E+00 0. -1.
         -4    1    5    5    0  503  0.68800246393E+01 -0.70416831744E+01  0.10209556895E+02  0.14182915531E+02  0.00000000000E+00 0.  1.
         -1    1    6    6    0  502 -0.13675166214E+02  0.11463952996E+02  0.63800103768E+01  0.18950908202E+02  0.00000000000E+00 0.  1.
<mgrwt>
<rscale>  0 0.28941123E+04</rscale>
<asrwt>0</asrwt>
<pdfrwt beam="1">  1        2 0.25663946E+00 0.28941123E+04</pdfrwt>
<pdfrwt beam="2">  1       -2 0.19311706E+00 0.28941123E+04</pdfrwt>
<totfact> 0.13032861E+00</totfact>
</mgrwt>
</event>
<event>
12    1  0.2019083E-007  0.1699240E+04  0.7818608E-02  0.8761798E-01
         -2   -1    0    0    0  501 -0.00000000000E+00  0.00000000000E+00  0.39437679012E+03  0.39437679012E+03  0.00000000000E+00 0.  1.
          2   -1    0    0  501    0  0.00000000000E+00 -0.00000000000E+00 -0.18303659543E+04  0.18303659543E+04  0.00000000000E+00 0. -1.
         23    2    1    2    0    0 -0.96410191761E+02  0.50648873914E+03 -0.10097490462E+03  0.53333253199E+03  0.91770857978E+02 0.  0.
        254    2    1    2    0    0  0.96410191761E+02 -0.50648873914E+03 -0.13350142596E+04  0.16914102124E+04  0.90154293603E+03 0.  0.
        -24    2    4    4    0    0  0.19352686166E+03 -0.69132645877E+03 -0.65442874791E+03  0.97474830952E+03  0.80450991608E+02 0.  0.
         24    2    4    4    0    0 -0.97116669902E+02  0.18483771963E+03 -0.68058551168E+03  0.71666190292E+03  0.82528868992E+02 0.  0.
         13    1    3    3    0    0 -0.71118735889E+02  0.42994432036E+03 -0.51678859540E+02  0.43884017333E+03  0.00000000000E+00 0. -1.
        -13    1    3    3    0    0 -0.25291455872E+02  0.76544418774E+02 -0.49296045076E+02  0.94492358663E+02  0.00000000000E+00 0.  1.
          4    1    6    6  502    0 -0.15672746859E+02  0.92550410229E+02 -0.38893691691E+03  0.40010390996E+03  0.00000000000E+00 0. -1.
          1    1    5    5  503    0  0.15902410944E+02 -0.18564172995E+03 -0.17602255156E+03  0.25631948273E+03  0.00000000000E+00 0. -1.
         -2    1    5    5    0  503  0.17762445072E+03 -0.50568472882E+03 -0.47840619635E+03  0.71842882679E+03  0.00000000000E+00 0.  1.
         -3    1    6    6    0  502 -0.81443923043E+02  0.92287309401E+02 -0.29164859477E+03  0.31655799296E+03  0.00000000000E+00 0.  1.
<mgrwt>
<rscale>  0 0.16992397E+04</rscale>
<asrwt>0</asrwt>
<pdfrwt beam="1">  1        2 0.28159476E+00 0.16992397E+04</pdfrwt>
<pdfrwt beam="2">  1       -2 0.60673352E-01 0.16992397E+04</pdfrwt>
<totfact> 0.19977292E+01</totfact>
</mgrwt>
</event>
<event>
12    1  0.2019083E-007  0.1607363E+04  0.7818608E-02  0.8816037E-01
         -1   -1    0    0    0  501 -0.00000000000E+00  0.00000000000E+00  0.25579797575E+03  0.25579797575E+03  0.00000000000E+00 0.  1.
          1   -1    0    0  501    0  0.00000000000E+00 -0.00000000000E+00 -0.25250557831E+04  0.25250557831E+04  0.00000000000E+00 0. -1.
         23    2    1    2    0    0  0.29538580203E+03 -0.44315603682E+03 -0.61941867109E+03  0.82193234977E+03  0.90847413269E+02 0.  0.
        254    2    1    2    0    0 -0.29538580203E+03  0.44315603682E+03 -0.16498391362E+04  0.19589214090E+04  0.91201089159E+03 0.  0.
        -24    2    4    4    0    0  0.31560778718E+03  0.24636163447E+03 -0.60089033484E+03  0.72666863540E+03  0.81705452087E+02 0.  0.
         24    2    4    4    0    0 -0.61099358921E+03  0.19679440234E+03 -0.10489488014E+04  0.12322527736E+04  0.78179967797E+02 0.  0.
         11    1    3    3    0    0  0.14641847121E+03 -0.19574781422E+03 -0.21877210616E+03  0.32805001130E+03  0.00000000000E+00 0.  1.
        -11    1    3    3    0    0  0.14896733082E+03 -0.24740822260E+03 -0.40064656493E+03  0.49388233847E+03  0.00000000000E+00 0. -1.
          2    1    6    6  502    0 -0.43352720990E+03  0.11238867259E+03 -0.77517058769E+03  0.89524661153E+03  0.00000000000E+00 0. -1.
          3    1    5    5  503    0  0.26009463879E+03  0.23591184393E+03 -0.49900601775E+03  0.61017261901E+03  0.00000000000E+00 0. -1.
         -4    1    5    5    0  503  0.55513148390E+02  0.10449790542E+02 -0.10188431710E+03  0.11649601640E+03  0.00000000000E+00 0.  1.
         -1    1    6    6    0  502 -0.17746637932E+03  0.84405729750E+02 -0.27377821370E+03  0.33700616211E+03  0.00000000000E+00 0.  1.
<mgrwt>
<rscale>  0 0.16073633E+04</rscale>
<asrwt>0</asrwt>
<pdfrwt beam="1">  1        1 0.38847012E+00 0.16073633E+04</pdfrwt>
<pdfrwt beam="2">  1       -1 0.39353535E-01 0.16073633E+04</pdfrwt>
<totfact> 0.78485741E+00</totfact>
</mgrwt>
</event>
<event>
12    1  0.2019083E-007  0.3662450E+04  0.7818608E-02  0.8076335E-01
          2   -1    0    0  501    0  0.00000000000E+00  0.00000000000E+00  0.15558013374E+04  0.15558013374E+04  0.00000000000E+00 0. -1.
         -2   -1    0    0    0  501 -0.00000000000E+00 -0.00000000000E+00 -0.21554074445E+04  0.21554074445E+04  0.00000000000E+00 0.  1.
         23    2    1    2    0    0 -0.10169491165E+04 -0.13851090687E+04 -0.20090913174E+03  0.17323610008E+04  0.89428854686E+02 0.  0.
        254    2    1    2    0    0  0.10169491165E+04  0.13851090687E+04 -0.39869697536E+03  0.19788477811E+04  0.89675338009E+03 0.  0.
        -24    2    4    4    0    0  0.91795057345E+03  0.13260597111E+04 -0.60990318171E+03  0.17261174761E+04  0.80199985127E+02 0.  0.
         24    2    4    4    0    0  0.98998543049E+02  0.59049357588E+02  0.21120620635E+03  0.25273030493E+03  0.77311107043E+02 0.  0.
         13    1    3    3    0    0 -0.67944554170E+03 -0.91417015770E+03 -0.91043605219E+02  0.11426470406E+04  0.00000000000E+00 0. -1.
        -13    1    3    3    0    0 -0.33750357480E+03 -0.47093891100E+03 -0.10986552652E+03  0.58971396017E+03  0.00000000000E+00 0.  1.
          2    1    6    6  502    0  0.65354989606E+02  0.54697723451E+01  0.60270909064E+02  0.89071743866E+02  0.00000000000E+00 0. -1.
          1    1    5    5  503    0  0.12877574427E+03  0.17908948000E+03 -0.11314229258E+03  0.24790605585E+03  0.00000000000E+00 0. -1.
         -2    1    5    5    0  503  0.78917482918E+03  0.11469702311E+04 -0.49676088913E+03  0.14782114203E+04  0.00000000000E+00 0.  1.
         -1    1    6    6    0  502  0.33643553443E+02  0.53579585243E+02  0.15093529728E+03  0.16365856106E+03  0.00000000000E+00 0.  1.
<mgrwt>
<rscale>  0 0.36624504E+04</rscale>
<asrwt>0</asrwt>
<pdfrwt beam="1">  1        2 0.23935405E+00 0.36624504E+04</pdfrwt>
<pdfrwt beam="2">  1       -2 0.33160114E+00 0.36624504E+04</pdfrwt>
<totfact> 0.19419075E-01</totfact>
</mgrwt>
</event>
<event>
12    1  0.2019083E-007  0.2666386E+04  0.7818608E-02  0.8345995E-01
         -2   -1    0    0    0  501 -0.00000000000E+00  0.00000000000E+00  0.67692132118E+03  0.67692132118E+03  0.00000000000E+00 0.  1.
          2   -1    0    0  501    0  0.00000000000E+00 -0.00000000000E+00 -0.26257163611E+04  0.26257163611E+04  0.00000000000E+00 0. -1.
         23    2    1    2    0    0  0.10116488441E+04 -0.15581919109E+03 -0.15908823472E+04  0.18937620054E+04  0.87834425683E+02 0.  0.
        254    2    1    2    0    0 -0.10116488441E+04  0.15581919109E+03 -0.35791269277E+03  0.14088756770E+04  0.89950885123E+03 0.  0.
        -24    2    4    4    0    0 -0.10257382784E+04  0.39494530490E+03 -0.34929509372E+03  0.11559447396E+04  0.77976720138E+02 0.  0.
         24    2    4    4    0    0  0.14089434311E+02 -0.23912611381E+03 -0.86175990451E+01  0.25293093736E+03  0.80746427776E+02 0.  0.
         13    1    3    3    0    0  0.39629414447E+03 -0.92634788178E+02 -0.57746189064E+03  0.70646478190E+03  0.00000000000E+00 0. -1.
        -13    1    3    3    0    0  0.61535469961E+03 -0.63184402916E+02 -0.10134204566E+04  0.11872972235E+04  0.00000000000E+00 0.  1.
          2    1    6    6  502    0 -0.21573050791E+02 -0.56408196913E+02 -0.26414271279E+02  0.65916575507E+02  0.00000000000E+00 0. -1.
          3    1    5    5  503    0 -0.70457794545E+03  0.30048446374E+03 -0.21844814888E+03  0.79651778883E+03  0.00000000000E+00 0. -1.
         -4    1    5    5    0  503 -0.32116033294E+03  0.94460841160E+02 -0.13084694484E+03  0.35942695077E+03  0.00000000000E+00 0.  1.
         -1    1    6    6    0  502  0.35662485102E+02 -0.18271791689E+03  0.17796672234E+02  0.18701436185E+03  0.00000000000E+00 0.  1.
<mgrwt>
<rscale>  0 0.26663859E+04</rscale>
<asrwt>0</asrwt>
<pdfrwt beam="1">  1        2 0.40395636E+00 0.26663859E+04</pdfrwt>
<pdfrwt beam="2">  1       -2 0.10414174E+00 0.26663859E+04</pdfrwt>
<totfact> 0.19378310E+00</totfact>
</mgrwt>
</event>
<event>
12    1  0.2019083E-007  0.2175926E+04  0.7818608E-02  0.8528515E-01
         -2   -1    0    0    0  501 -0.00000000000E+00  0.00000000000E+00  0.56091080551E+03  0.56091080551E+03  0.00000000000E+00 0. -1.
          2   -1    0    0  501    0  0.00000000000E+00 -0.00000000000E+00 -0.21102528635E+04  0.21102528635E+04  0.00000000000E+00 0.  1.
         23    2    1    2    0    0 -0.12138592319E+03  0.83364764543E+03 -0.10246611806E+04  0.13299593328E+04  0.95699283615E+02 0.  0.
        254    2    1    2    0    0  0.12138592319E+03 -0.83364764543E+03 -0.52468087736E+03  0.13412043361E+04  0.90212865442E+03 0.  0.
        -24    2    4    4    0    0 -0.33211720749E+03 -0.22261511120E+03 -0.39101064342E+03  0.56432249591E+03  0.75572672795E+02 0.  0.
         24    2    4    4    0    0  0.45350313068E+03 -0.61103253423E+03 -0.13367023394E+03  0.77688184023E+03  0.81558658753E+02 0.  0.
         11    1    3    3    0    0 -0.40960828447E+02  0.51930115812E+03 -0.68004004129E+03  0.85662473701E+03  0.00000000000E+00 0.  1.
        -11    1    3    3    0    0 -0.80425094740E+02  0.31434648732E+03 -0.34462113930E+03  0.47333459582E+03  0.00000000000E+00 0. -1.
          4    1    6    6  502    0  0.59915401714E+02 -0.13101595496E+03 -0.36019953805E+02  0.14850075047E+03  0.00000000000E+00 0. -1.
          3    1    5    5  503    0 -0.24685211434E+03 -0.12838865713E+03 -0.24477553538E+03  0.37058693494E+03  0.00000000000E+00 0. -1.
         -4    1    5    5    0  503 -0.85265093156E+02 -0.94226454077E+02 -0.14623510804E+03  0.19373556097E+03  0.00000000000E+00 0.  1.
         -3    1    6    6    0  502  0.39358772896E+03 -0.48001657927E+03 -0.97650280139E+02  0.62838108976E+03  0.00000000000E+00 0.  1.
<mgrwt>
<rscale>  0 0.21759261E+04</rscale>
<asrwt>0</asrwt>
<pdfrwt beam="1">  1        2 0.32465429E+00 0.21759261E+04</pdfrwt>
<pdfrwt beam="2">  1       -2 0.86293970E-01 0.21759261E+04</pdfrwt>
<totfact> 0.61813421E+00</totfact>
</mgrwt>
</event>
<event>
12    1  0.2019083E-007  0.1785535E+04  0.7818608E-02  0.8714030E-01
          2   -1    0    0  501    0  0.00000000000E+00  0.00000000000E+00  0.76731208214E+03  0.76731208214E+03  0.00000000000E+00 0. -1.
         -2   -1    0    0    0  501 -0.00000000000E+00 -0.00000000000E+00 -0.10387349974E+04  0.10387349974E+04  0.00000000000E+00 0.  1.
         23    2    1    2    0    0 -0.30159172748E+03 -0.54613013852E+03 -0.32639477963E+03  0.71005102291E+03  0.91778018520E+02 0.  0.
        254    2    1    2    0    0  0.30159172748E+03  0.54613013852E+03  0.54971864407E+02  0.10959960566E+04  0.89942745783E+03 0.  0.
        -24    2    4    4    0    0  0.47366169308E+03  0.49073136443E+03 -0.25168282137E+03  0.73137371513E+03  0.79941210171E+02 0.  0.
         24    2    4    4    0    0 -0.17206996560E+03  0.55398774099E+02  0.30665468578E+03  0.36462234146E+03  0.78963652066E+02 0.  0.
         13    1    3    3    0    0 -0.10991312761E+03 -0.23687966643E+03 -0.18348694940E+03  0.31915565574E+03  0.00000000000E+00 0.  1.
        -13    1    3    3    0    0 -0.19167859987E+03 -0.30925047210E+03 -0.14290783023E+03  0.39089536718E+03  0.00000000000E+00 0. -1.
          4    1    6    6  502    0 -0.12933744053E+03  0.70308365257E+01  0.17217809400E+03  0.21545974621E+03  0.00000000000E+00 0. -1.
          3    1    5    5  503    0  0.34822206289E+03  0.34525293641E+03 -0.14358209519E+03  0.51095402263E+03  0.00000000000E+00 0. -1.
         -4    1    5    5    0  503  0.12543963019E+03  0.14547842801E+03 -0.10810072618E+03  0.22041969250E+03  0.00000000000E+00 0.  1.
         -3    1    6    6    0  502 -0.42732525074E+02  0.48367937573E+02  0.13447659178E+03  0.14916259525E+03  0.00000000000E+00 0.  1.
<mgrwt>
<rscale>  0 0.17855351E+04</rscale>
<asrwt>0</asrwt>
<pdfrwt beam="1">  1        2 0.11804801E+00 0.17855351E+04</pdfrwt>
<pdfrwt beam="2">  1       -2 0.15980538E+00 0.17855351E+04</pdfrwt>
<totfact> 0.86901988E+00</totfact>
</mgrwt>
</event>
<event>
12    1  0.2019083E-007  0.3774177E+04  0.7818608E-02  0.8051719E-01
         -2   -1    0    0    0  501 -0.00000000000E+00  0.00000000000E+00  0.22466290725E+04  0.22466290725E+04  0.00000000000E+00 0.  1.
          2   -1    0    0  501    0  0.00000000000E+00 -0.00000000000E+00 -0.15850874787E+04  0.15850874787E+04  0.00000000000E+00 0. -1.
         23    2    1    2    0    0  0.75938946696E+03  0.10780307435E+04 -0.89926196317E+03  0.15987442021E+04  0.92131964529E+02 0.  0.
        254    2    1    2    0    0 -0.75938946696E+03 -0.10780307435E+04  0.15608035569E+04  0.22329723491E+04  0.90068591761E+03 0.  0.
        -24    2    4    4    0    0 -0.57136543913E+02 -0.73647088979E+02 -0.10604742320E+03  0.16257347240E+03  0.80595282720E+02 0.  0.
         24    2    4    4    0    0 -0.70225292305E+03 -0.10043836545E+04  0.16668509801E+04  0.20703988767E+04  0.78826552500E+02 0.  0.
         11    1    3    3    0    0  0.24710255179E+03  0.29656208831E+03 -0.22950114562E+03  0.44908742931E+03  0.00000000000E+00 0. -1.
        -11    1    3    3    0    0  0.51228691517E+03  0.78146865516E+03 -0.66976081756E+03  0.11496567728E+04  0.00000000000E+00 0.  1.
          4    1    6    6  502    0 -0.36892309023E+03 -0.57712860610E+03  0.88492636107E+03  0.11190515355E+04  0.00000000000E+00 0. -1.
          3    1    5    5  503    0 -0.47015126556E+02 -0.12377223804E+02 -0.83278080036E+02  0.96430578183E+02  0.00000000000E+00 0. -1.
         -4    1    5    5    0  503 -0.10121417357E+02 -0.61269865174E+02 -0.22769343164E+02  0.66142894221E+02  0.00000000000E+00 0.  1.
         -3    1    6    6    0  502 -0.33332983281E+03 -0.42725504839E+03  0.78192461906E+03  0.95134734125E+03  0.00000000000E+00 0.  1.
<mgrwt>
<rscale>  0 0.37741773E+04</rscale>
<asrwt>0</asrwt>
<pdfrwt beam="1">  1        2 0.24385961E+00 0.37741773E+04</pdfrwt>
<pdfrwt beam="2">  1       -2 0.34563524E+00 0.37741773E+04</pdfrwt>
<totfact> 0.15135661E-01</totfact>
</mgrwt>
</event>
<event>
12    1  0.2019083E-007  0.1395717E+04  0.7818608E-02  0.8956925E-01
         -4   -1    0    0    0  501 -0.00000000000E+00  0.00000000000E+00  0.51351498086E+03  0.51351498086E+03  0.00000000000E+00 0.  1.
          4   -1    0    0  501    0  0.00000000000E+00 -0.00000000000E+00 -0.94837779470E+03  0.94837779470E+03  0.00000000000E+00 0. -1.
         23    2    1    2    0    0 -0.17417211210E+03 -0.35437834414E+03 -0.20262604483E+03  0.45285388977E+03  0.89996644403E+02 0.  0.
        254    2    1    2    0    0  0.17417211210E+03  0.35437834414E+03 -0.23223676901E+03  0.10090388858E+04  0.89905818540E+03 0.  0.
        -24    2    4    4    0    0  0.14469543500E+03 -0.17187336294E+03 -0.38663681264E+03  0.45444585717E+03  0.80967835656E+02 0.  0.
         24    2    4    4    0    0  0.29476677102E+02  0.52625170708E+03  0.15440004363E+03  0.55459302863E+03  0.76969605930E+02 0.  0.
         13    1    3    3    0    0 -0.67339955981E+02 -0.81016300130E+02 -0.20154594909E+02  0.10725911735E+03  0.00000000000E+00 0.  1.
        -13    1    3    3    0    0 -0.10683215612E+03 -0.27336204401E+03 -0.18247144992E+03  0.34559477242E+03  0.00000000000E+00 0. -1.
          2    1    6    6  502    0  0.61498538267E+00  0.43937431842E+03  0.14443693888E+03  0.46250643154E+03  0.00000000000E+00 0. -1.
          3    1    5    5  503    0  0.12533169935E+03 -0.16882771236E+03 -0.37898079546E+03  0.43340197813E+03  0.00000000000E+00 0. -1.
         -4    1    5    5    0  503  0.19363735651E+02 -0.30456505808E+01 -0.76560171821E+01  0.21043879037E+02  0.00000000000E+00 0.  1.
         -3    1    6    6    0  502  0.28861691720E+02  0.86877388651E+02  0.99631047434E+01  0.92086597091E+02  0.00000000000E+00 0.  1.
<mgrwt>
<rscale>  0 0.13957166E+04</rscale>
<asrwt>0</asrwt>
<pdfrwt beam="1">  1        4 0.14590427E+00 0.13957166E+04</pdfrwt>
<pdfrwt beam="2">  1       -4 0.79002306E-01 0.13957166E+04</pdfrwt>
<totfact> 0.89040038E-01</totfact>
</mgrwt>
</event>
<event>
12    1  0.2019083E-007  0.3893788E+04  0.7818608E-02  0.8026322E-01
         -2   -1    0    0    0  501 -0.00000000000E+00  0.00000000000E+00  0.26600230694E+04  0.26600230694E+04  0.00000000000E+00 0. -1.
          2   -1    0    0  501    0  0.00000000000E+00 -0.00000000000E+00 -0.14249484439E+04  0.14249484439E+04  0.00000000000E+00 0.  1.
         23    2    1    2    0    0  0.67337251812E+02 -0.14919260717E+04 -0.54575369174E+03  0.15925768563E+04  0.89867914779E+02 0.  0.
        254    2    1    2    0    0 -0.67337251812E+02  0.14919260717E+04  0.17808283172E+04  0.24923946570E+04  0.90016882980E+03 0.  0.
        -24    2    4    4    0    0 -0.16410903269E+03  0.29964748305E+03  0.10054741648E+04  0.10646347856E+04  0.75819140753E+02 0.  0.
         24    2    4    4    0    0  0.96771780879E+02  0.11922785887E+04  0.77535415243E+03  0.14277598714E+04  0.80194626175E+02 0.  0.
         11    1    3    3    0    0  0.66733388365E+02 -0.55911092940E+03 -0.19130183263E+03  0.59468879901E+03  0.00000000000E+00 0. -1.
        -11    1    3    3    0    0  0.60386344716E+00 -0.93281514232E+03 -0.35445185911E+03  0.99788805726E+03  0.00000000000E+00 0.  1.
          2    1    6    6  502    0  0.81738298103E+00 -0.10373772840E+01 -0.19556577430E+00  0.13351076882E+01  0.00000000000E+00 0. -1.
          1    1    5    5  503    0 -0.62369099336E+02  0.63895226305E+02  0.19525198665E+03  0.21469942429E+03  0.00000000000E+00 0. -1.
         -2    1    5    5    0  503 -0.10173993336E+03  0.23575225674E+03  0.81022217810E+03  0.84993536135E+03  0.00000000000E+00 0.  1.
         -1    1    6    6    0  502  0.95954397898E+02  0.11933159660E+04  0.77554971820E+03  0.14264247637E+04  0.00000000000E+00 0.  1.
<mgrwt>
<rscale>  0 0.38937877E+04</rscale>
<asrwt>0</asrwt>
<pdfrwt beam="1">  1        2 0.21922284E+00 0.38937877E+04</pdfrwt>
<pdfrwt beam="2">  1       -2 0.40923432E+00 0.38937877E+04</pdfrwt>
<totfact> 0.71891313E-02</totfact>
</mgrwt>
</event>
<event>
12    1  0.2019083E-007  0.1765379E+04  0.7818608E-02  0.8724930E-01
         -2   -1    0    0    0  501 -0.00000000000E+00  0.00000000000E+00  0.74697083123E+03  0.74697083123E+03  0.00000000000E+00 0.  1.
          2   -1    0    0  501    0  0.00000000000E+00 -0.00000000000E+00 -0.10430667768E+04  0.10430667768E+04  0.00000000000E+00 0. -1.
         23    2    1    2    0    0  0.12595506663E+03  0.54739901450E+03  0.23281391505E+03  0.61447734216E+03  0.88711471033E+02 0.  0.
        254    2    1    2    0    0 -0.12595506663E+03 -0.54739901450E+03 -0.52890986064E+03  0.11755602659E+04  0.88695317699E+03 0.  0.
        -24    2    4    4    0    0 -0.13204072720E+03 -0.49922739761E+03 -0.76274332648E+03  0.92470353305E+03  0.81464678132E+02 0.  0.
         24    2    4    4    0    0  0.60856605679E+01 -0.48171616895E+02  0.23383346584E+03  0.25085673284E+03  0.76768943746E+02 0.  0.
         11    1    3    3    0    0  0.75572685516E+01  0.18165080781E+03  0.10157719562E+03  0.20825958551E+03  0.00000000000E+00 0. -1.
        -11    1    3    3    0    0  0.11839779808E+03  0.36574820669E+03  0.13123671943E+03  0.40621775665E+03  0.00000000000E+00 0.  1.
          2    1    6    6  502    0  0.40987781040E+02 -0.28000088786E+02  0.14617315507E+03  0.15437161148E+03  0.00000000000E+00 0. -1.
          3    1    5    5  503    0 -0.79029615506E+02 -0.15754223638E+03 -0.28136665547E+03  0.33201269732E+03  0.00000000000E+00 0. -1.
         -4    1    5    5    0  503 -0.53011111693E+02 -0.34168516123E+03 -0.48137667101E+03  0.59269083573E+03  0.00000000000E+00 0.  1.
         -1    1    6    6    0  502 -0.34902120472E+02 -0.20171528108E+02  0.87660310769E+02  0.96485121360E+02  0.00000000000E+00 0.  1.
<mgrwt>
<rscale>  0 0.17653787E+04</rscale>
<asrwt>0</asrwt>
<pdfrwt beam="1">  1        2 0.16047181E+00 0.17653787E+04</pdfrwt>
<pdfrwt beam="2">  1       -2 0.11491859E+00 0.17653787E+04</pdfrwt>
<totfact> 0.13223269E+01</totfact>
</mgrwt>
</event>
<event>
12    1  0.2019083E-007  0.2759061E+04  0.7818608E-02  0.8316092E-01
          2   -1    0    0  501    0  0.00000000000E+00  0.00000000000E+00  0.25392896919E+04  0.25392896919E+04  0.00000000000E+00 0. -1.
         -2   -1    0    0    0  501 -0.00000000000E+00 -0.00000000000E+00 -0.74946348457E+03  0.74946348457E+03  0.00000000000E+00 0.  1.
         23    2    1    2    0    0 -0.60115845593E+03 -0.10010316592E+04  0.13013338234E+04  0.17507971513E+04  0.91460774105E+02 0.  0.
        254    2    1    2    0    0  0.60115845593E+03  0.10010316592E+04  0.48849238393E+03  0.15379560252E+04  0.87362924312E+03 0.  0.
        -24    2    4    4    0    0 -0.17898514158E+03  0.42129837766E+03  0.27396494765E+03  0.53939459495E+03  0.79760470125E+02 0.  0.
         24    2    4    4    0    0  0.78014359751E+03  0.57973328152E+03  0.21452743628E+03  0.99856143023E+03  0.79926207190E+02 0.  0.
         13    1    3    3    0    0 -0.29895991917E+03 -0.46523340279E+03  0.55275063833E+03  0.78189028675E+03  0.00000000000E+00 0.  1.
        -13    1    3    3    0    0 -0.30219853676E+03 -0.53579825639E+03  0.74858318503E+03  0.96890686450E+03  0.00000000000E+00 0. -1.
          2    1    6    6  502    0  0.43188502558E+03  0.33667099408E+03  0.82263902746E+02  0.55375028963E+03  0.00000000000E+00 0. -1.
          1    1    5    5  503    0 -0.67673991751E+02  0.15054756807E+03  0.14423112277E+03  0.21919615915E+03  0.00000000000E+00 0. -1.
         -2    1    5    5    0  503 -0.11131114983E+03  0.27075080959E+03  0.12973382488E+03  0.32019843580E+03  0.00000000000E+00 0.  1.
         -1    1    6    6    0  502  0.34825857193E+03  0.24306228744E+03  0.13226353353E+03  0.44481114060E+03  0.00000000000E+00 0.  1.
<mgrwt>
<rscale>  0 0.27590614E+04</rscale>
<asrwt>0</asrwt>
<pdfrwt beam="1">  1        2 0.39065995E+00 0.27590614E+04</pdfrwt>
<pdfrwt beam="2">  1       -2 0.11530208E+00 0.27590614E+04</pdfrwt>
<totfact> 0.16889590E+00</totfact>
</mgrwt>
</event>
<event>
12    1  0.2019083E-007  0.1783633E+04  0.7818608E-02  0.8715052E-01
          1   -1    0    0  501    0  0.00000000000E+00  0.00000000000E+00  0.20172348656E+04  0.20172348656E+04  0.00000000000E+00 0. -1.
         -1   -1    0    0    0  501 -0.00000000000E+00 -0.00000000000E+00 -0.39427077087E+03  0.39427077087E+03  0.00000000000E+00 0.  1.
         23    2    1    2    0    0 -0.16999511438E+03 -0.58828556807E+03  0.94627611522E+03  0.11308513871E+04  0.91695827937E+02 0.  0.
        254    2    1    2    0    0  0.16999511438E+03  0.58828556807E+03  0.67668797949E+03  0.12806542494E+04  0.89843777548E+03 0.  0.
        -24    2    4    4    0    0 -0.15531227619E+02  0.28303604853E+02  0.68004289052E+03  0.68533423019E+03  0.78627991448E+02 0.  0.
         24    2    4    4    0    0  0.18552634200E+03  0.55998196321E+03 -0.33549110327E+01  0.59532001921E+03  0.79967788158E+02 0.  0.
         11    1    3    3    0    0 -0.14288781848E+03 -0.33662239819E+03  0.53989299552E+03  0.65208589484E+03  0.00000000000E+00 0.  1.
        -11    1    3    3    0    0 -0.27107295906E+02 -0.25166316988E+03  0.40638311970E+03  0.47876549222E+03  0.00000000000E+00 0. -1.
          2    1    6    6  502    0  0.81761037750E+02  0.29964739022E+03 -0.38068943008E+02  0.31292598195E+03  0.00000000000E+00 0. -1.
          3    1    5    5  503    0 -0.33034018303E+02  0.17890557443E+01  0.12254986032E+03  0.12693665881E+03  0.00000000000E+00 0. -1.
         -4    1    5    5    0  503  0.17502790684E+02  0.26514549108E+02  0.55749303020E+03  0.55839757137E+03  0.00000000000E+00 0.  1.
         -1    1    6    6    0  502  0.10376530425E+03  0.26033457300E+03  0.34714031975E+02  0.28239403726E+03  0.00000000000E+00 0.  1.
<mgrwt>
<rscale>  0 0.17836331E+04</rscale>
<asrwt>0</asrwt>
<pdfrwt beam="1">  1        1 0.31034382E+00 0.17836331E+04</pdfrwt>
<pdfrwt beam="2">  1       -1 0.60657043E-01 0.17836331E+04</pdfrwt>
<totfact> 0.75562186E+00</totfact>
</mgrwt>
</event>
<event>
12    1  0.2019083E-007  0.2751285E+04  0.7818608E-02  0.8318554E-01
          2   -1    0    0  501    0  0.00000000000E+00  0.00000000000E+00  0.11294458065E+04  0.11294458065E+04  0.00000000000E+00 0. -1.
         -2   -1    0    0    0  501 -0.00000000000E+00 -0.00000000000E+00 -0.16755053208E+04  0.16755053208E+04  0.00000000000E+00 0.  1.
         23    2    1    2    0    0 -0.97722872957E+03 -0.63949685681E+01 -0.10006852165E+04  0.14016681381E+04  0.91026266578E+02 0.  0.
        254    2    1    2    0    0  0.97722872957E+03  0.63949685681E+01  0.45462570222E+03  0.14032829893E+04  0.89861100228E+03 0.  0.
        -24    2    4    4    0    0  0.44474914392E+03 -0.31214613825E+03 -0.11107840738E+03  0.55976767456E+03  0.75923805624E+02 0.  0.
         24    2    4    4    0    0  0.53247958565E+03  0.31854110681E+03  0.56570410960E+03  0.84351531473E+03  0.80585362878E+02 0.  0.
         13    1    3    3    0    0 -0.12377183283E+03 -0.17015746771E+02 -0.16687797750E+03  0.20846405354E+03  0.00000000000E+00 0.  1.
        -13    1    3    3    0    0 -0.85345689674E+03  0.10620778203E+02 -0.83380723900E+03  0.11932040845E+04  0.00000000000E+00 0. -1.
          2    1    6    6  502    0  0.16634544574E+03  0.64455065582E+02  0.18993801293E+03  0.26057956856E+03  0.00000000000E+00 0. -1.
          3    1    5    5  503    0  0.34018794307E+02 -0.51752815166E+02 -0.59504177115E+01  0.62217680081E+02  0.00000000000E+00 0. -1.
         -4    1    5    5    0  503  0.41073034961E+03 -0.26039332308E+03 -0.10512798967E+03  0.49754999448E+03  0.00000000000E+00 0.  1.
         -1    1    6    6    0  502  0.36613413991E+03  0.25408604123E+03  0.37576609667E+03  0.58293574617E+03  0.00000000000E+00 0.  1.
<mgrwt>
<rscale>  0 0.27512851E+04</rscale>
<asrwt>0</asrwt>
<pdfrwt beam="1">  1        2 0.17376089E+00 0.27512851E+04</pdfrwt>
<pdfrwt beam="2">  1       -2 0.25777005E+00 0.27512851E+04</pdfrwt>
<totfact> 0.10510514E+00</totfact>
</mgrwt>
</event>
<event>
12    1  0.2019083E-007  0.1837657E+04  0.7818608E-02  0.8686526E-01
         -2   -1    0    0    0  501 -0.00000000000E+00  0.00000000000E+00  0.29726073940E+03  0.29726073940E+03  0.00000000000E+00 0.  1.
          2   -1    0    0  501    0  0.00000000000E+00 -0.00000000000E+00 -0.28400848695E+04  0.28400848695E+04  0.00000000000E+00 0. -1.
         23    2    1    2    0    0  0.52558235507E+03  0.44491833661E+03 -0.80870956833E+03  0.10659379945E+04  0.89574014307E+02 0.  0.
        254    2    1    2    0    0 -0.52558235507E+03 -0.44491833661E+03 -0.17341145618E+04  0.20714076144E+04  0.89965940963E+03 0.  0.
        -24    2    4    4    0    0 -0.36025239827E+03 -0.44473864929E+03 -0.17892982393E+04  0.18806743757E+04  0.88168371745E+02 0.  0.
         24    2    4    4    0    0 -0.16532995680E+03 -0.17968732197E+00  0.55183677496E+02  0.19073323867E+03  0.77459041864E+02 0.  0.
         13    1    3    3    0    0  0.24669704694E+03  0.26739882892E+03 -0.42093662341E+03  0.55637146548E+03  0.00000000000E+00 0. -1.
        -13    1    3    3    0    0  0.27888530814E+03  0.17751950769E+03 -0.38777294492E+03  0.50956652904E+03  0.00000000000E+00 0.  1.
          4    1    6    6  502    0 -0.15350649064E+02  0.26104859502E+02  0.79413925360E+01  0.31307696046E+02  0.00000000000E+00 0. -1.
          1    1    5    5  503    0 -0.11500536497E+03 -0.98642708429E+02 -0.38613734063E+03  0.41479954644E+03  0.00000000000E+00 0. -1.
         -2    1    5    5    0  503 -0.24524703330E+03 -0.34609594086E+03 -0.14031608986E+04  0.14658748293E+04  0.00000000000E+00 0.  1.
         -3    1    6    6    0  502 -0.14997930774E+03 -0.26284546824E+02  0.47242284960E+02  0.15942554262E+03  0.00000000000E+00 0.  1.
<mgrwt>
<rscale>  0 0.18376569E+04</rscale>
<asrwt>0</asrwt>
<pdfrwt beam="1">  1        2 0.43693616E+00 0.18376569E+04</pdfrwt>
<pdfrwt beam="2">  1       -2 0.45732419E-01 0.18376569E+04</pdfrwt>
<totfact> 0.93538930E+00</totfact>
</mgrwt>
</event>
<event>
12    1  0.2019083E-007  0.2577984E+04  0.7818608E-02  0.8375718E-01
         -2   -1    0    0    0  501 -0.00000000000E+00  0.00000000000E+00  0.77181295894E+03  0.77181295894E+03  0.00000000000E+00 0.  1.
          2   -1    0    0  501    0  0.00000000000E+00 -0.00000000000E+00 -0.21527236296E+04  0.21527236296E+04  0.00000000000E+00 0. -1.
         23    2    1    2    0    0  0.88415580130E+03  0.59458407007E+03 -0.18187479117E+03  0.10849210172E+04  0.93346004472E+02 0.  0.
        254    2    1    2    0    0 -0.88415580130E+03 -0.59458407007E+03 -0.11990358795E+04  0.18396155714E+04  0.90068680057E+03 0.  0.
        -24    2    4    4    0    0 -0.52849549308E+03 -0.64905535439E+03 -0.12069640241E+04  0.14709801354E+04  0.80250009916E+02 0.  0.
         24    2    4    4    0    0 -0.35566030821E+03  0.54471284327E+02  0.79281445316E+01  0.36863543598E+03  0.79798831617E+02 0.  0.
         13    1    3    3    0    0  0.12164511339E+03  0.63526714372E+02 -0.51609030541E+02  0.14661742421E+03  0.00000000000E+00 0. -1.
        -13    1    3    3    0    0  0.76251068791E+03  0.53105735570E+03 -0.13026576063E+03  0.93830359298E+03  0.00000000000E+00 0.  1.
          4    1    6    6  502    0 -0.19313335670E+03  0.69442233601E+02  0.21571617785E+00  0.20523830981E+03  0.00000000000E+00 0. -1.
          1    1    5    5  503    0 -0.41292754911E+03 -0.48669075023E+03 -0.86186286986E+03  0.10724666212E+04  0.00000000000E+00 0. -1.
         -2    1    5    5    0  503 -0.11556794397E+03 -0.16236460416E+03 -0.34510115420E+03  0.39851351419E+03  0.00000000000E+00 0.  1.
         -3    1    6    6    0  502 -0.16252695151E+03 -0.14970949274E+02  0.77124283538E+01  0.16339712617E+03  0.00000000000E+00 0.  1.
<mgrwt>
<rscale>  0 0.25779837E+04</rscale>
<asrwt>0</asrwt>
<pdfrwt beam="1">  1        2 0.33118824E+00 0.25779837E+04</pdfrwt>
<pdfrwt beam="2">  1       -2 0.11874046E+00 0.25779837E+04</pdfrwt>
<totfact> 0.26516086E+00</totfact>
</mgrwt>
</event>
<event>
12    1  0.2019083E-007  0.1645650E+04  0.7818608E-02  0.8792984E-01
          2   -1    0    0  501    0  0.00000000000E+00  0.00000000000E+00  0.31387534766E+04  0.31387534766E+04  0.00000000000E+00 0.  1.
         -2   -1    0    0    0  501 -0.00000000000E+00 -0.00000000000E+00 -0.21570378540E+03  0.21570378540E+03  0.00000000000E+00 0. -1.
         23    2    1    2    0    0  0.39854524660E+02  0.53891061331E+03  0.14062114679E+04  0.15092541004E+04  0.91674505771E+02 0.  0.
        254    2    1    2    0    0 -0.39854524660E+02 -0.53891061331E+03  0.15168382233E+04  0.18452031616E+04  0.90109016169E+03 0.  0.
        -24    2    4    4    0    0 -0.30161331972E+01 -0.39823541394E+03  0.16065182233E+04  0.16569508468E+04  0.77361262330E+02 0.  0.
         24    2    4    4    0    0 -0.36838391463E+02 -0.14067519936E+03 -0.89679999962E+02  0.18825231480E+03  0.79056010729E+02 0.  0.
         13    1    3    3    0    0  0.14340465469E+02  0.50293169804E+03  0.13141140507E+04  0.14071395382E+04  0.00000000000E+00 0.  1.
        -13    1    3    3    0    0  0.25514059191E+02  0.35978915265E+02  0.92097417222E+02  0.10211456223E+03  0.00000000000E+00 0. -1.
          4    1    6    6  502    0 -0.24063661765E+02 -0.27048032295E+01 -0.26714684503E+02  0.36056208150E+02  0.00000000000E+00 0. -1.
          3    1    5    5  503    0 -0.36795639408E+02 -0.13931205380E+03  0.53307868458E+03  0.55220888382E+03  0.00000000000E+00 0. -1.
         -4    1    5    5    0  503  0.33779506210E+02 -0.25892336014E+03  0.10734395387E+04  0.11047419630E+04  0.00000000000E+00 0.  1.
         -3    1    6    6    0  502 -0.12774729698E+02 -0.13797039613E+03 -0.62965315459E+02  0.15219610665E+03  0.00000000000E+00 0.  1.
<mgrwt>
<rscale>  0 0.16456500E+04</rscale>
<asrwt>0</asrwt>
<pdfrwt beam="1">  1        2 0.48288512E+00 0.16456500E+04</pdfrwt>
<pdfrwt beam="2">  1       -2 0.33185200E-01 0.16456500E+04</pdfrwt>
<totfact> 0.11592706E+01</totfact>
</mgrwt>
</event>
<event>
12    1  0.2019083E-007  0.2478216E+04  0.7818608E-02  0.8410788E-01
         -2   -1    0    0    0  501 -0.00000000000E+00  0.00000000000E+00  0.69223116954E+03  0.69223116954E+03  0.00000000000E+00 0. -1.
          2   -1    0    0  501    0  0.00000000000E+00 -0.00000000000E+00 -0.22180288448E+04  0.22180288448E+04  0.00000000000E+00 0.  1.
         23    2    1    2    0    0 -0.56918915884E+03  0.90995935672E+03 -0.64713404762E+03  0.12561726819E+04  0.84764389877E+02 0.  0.
        254    2    1    2    0    0  0.56918915884E+03 -0.90995935672E+03 -0.87866362764E+03  0.16540873324E+04  0.90108423764E+03 0.  0.
        -24    2    4    4    0    0  0.61261482012E+03 -0.10553404408E+04 -0.71484768454E+03  0.14165097681E+04  0.80326504226E+02 0.  0.
         24    2    4    4    0    0 -0.43425661289E+02  0.14538108409E+03 -0.16381594310E+03  0.23757756429E+03  0.81154101392E+02 0.  0.
         11    1    3    3    0    0 -0.23371336075E+03  0.44777549316E+03 -0.28552744552E+03  0.58021612302E+03  0.00000000000E+00 0. -1.
        -11    1    3    3    0    0 -0.33547579808E+03  0.46218386357E+03 -0.36160660210E+03  0.67595655890E+03  0.00000000000E+00 0.  1.
          4    1    6    6  502    0 -0.46104447493E+02  0.10614832028E+03 -0.68532301495E+02  0.13449818707E+03  0.00000000000E+00 0. -1.
          1    1    5    5  503    0  0.43557265610E+03 -0.75894892384E+03 -0.55357586233E+03  0.10354579871E+04  0.00000000000E+00 0. -1.
         -2    1    5    5    0  503  0.17704216402E+03 -0.29639151697E+03 -0.16127182222E+03  0.38105178101E+03  0.00000000000E+00 0.  1.
         -3    1    6    6    0  502  0.26787862041E+01  0.39232763809E+02 -0.95283641601E+02  0.10307937722E+03  0.00000000000E+00 0.  1.
<mgrwt>
<rscale>  0 0.24782161E+04</rscale>
<asrwt>0</asrwt>
<pdfrwt beam="1">  1        2 0.34123521E+00 0.24782161E+04</pdfrwt>
<pdfrwt beam="2">  1       -2 0.10649710E+00 0.24782161E+04</pdfrwt>
<totfact> 0.32017298E+00</totfact>
</mgrwt>
</event>
<event>
12    1  0.2019083E-007  0.1577457E+04  0.7818608E-02  0.8834518E-01
         -1   -1    0    0    0  501 -0.00000000000E+00  0.00000000000E+00  0.44297130873E+03  0.44297130873E+03  0.00000000000E+00 0.  1.
          1   -1    0    0  501    0  0.00000000000E+00 -0.00000000000E+00 -0.14043637270E+04  0.14043637270E+04  0.00000000000E+00 0. -1.
         23    2    1    2    0    0  0.51896190902E+03  0.54734703768E+02 -0.39664696934E+03  0.66153561286E+03  0.89348743637E+02 0.  0.
        254    2    1    2    0    0 -0.51896190902E+03 -0.54734703768E+02 -0.56474544889E+03  0.11857994228E+04  0.90269900760E+03 0.  0.
        -24    2    4    4    0    0 -0.41212116629E+03  0.29972777794E+03 -0.61659760153E+03  0.80385186301E+03  0.79401630181E+02 0.  0.
         24    2    4    4    0    0 -0.10684074273E+03 -0.35446248171E+03  0.51852152637E+02  0.38194755982E+03  0.78337075942E+02 0.  0.
         13    1    3    3    0    0  0.28672679122E+03  0.69052625455E+02 -0.19424737254E+03  0.35314665455E+03  0.00000000000E+00 0. -1.
        -13    1    3    3    0    0  0.23223511780E+03 -0.14317921688E+02 -0.20239959680E+03  0.30838895831E+03  0.00000000000E+00 0.  1.
          4    1    6    6  502    0 -0.36286783321E+02 -0.33301004944E+02  0.13320273568E+01  0.49269279180E+02  0.00000000000E+00 0. -1.
          1    1    5    5  503    0 -0.12636459421E+03  0.12134614579E+03 -0.25786098535E+03  0.31174538575E+03  0.00000000000E+00 0. -1.
         -2    1    5    5    0  503 -0.28575657207E+03  0.17838163215E+03 -0.35873661617E+03  0.49210647726E+03  0.00000000000E+00 0.  1.
         -3    1    6    6    0  502 -0.70553959412E+02 -0.32116147677E+03  0.50520125280E+02  0.33267828064E+03  0.00000000000E+00 0.  1.
<mgrwt>
<rscale>  0 0.15774572E+04</rscale>
<asrwt>0</asrwt>
<pdfrwt beam="1">  1        1 0.21605596E+00 0.15774572E+04</pdfrwt>
<pdfrwt beam="2">  1       -1 0.68149432E-01 0.15774572E+04</pdfrwt>
<totfact> 0.15984802E+01</totfact>
</mgrwt>
</event>
<event>
12    1  0.2019083E-007  0.2363453E+04  0.7818608E-02  0.8453314E-01
         -2   -1    0    0    0  501 -0.00000000000E+00  0.00000000000E+00  0.20811511991E+04  0.20811511991E+04  0.00000000000E+00 0. -1.
          2   -1    0    0  501    0  0.00000000000E+00 -0.00000000000E+00 -0.67101198470E+03  0.67101198470E+03  0.00000000000E+00 0.  1.
         23    2    1    2    0    0 -0.31299070647E+03  0.95762898521E+03  0.62727657953E+03  0.11908747865E+04  0.98439800425E+02 0.  0.
        254    2    1    2    0    0  0.31299070647E+03 -0.95762898521E+03  0.78286263484E+03  0.15612883973E+04  0.89985059801E+03 0.  0.
        -24    2    4    4    0    0 -0.10063364000E+03 -0.91690913476E+03  0.50464969049E+03  0.10544295622E+04  0.79378212545E+02 0.  0.
         24    2    4    4    0    0  0.41362434647E+03 -0.40719850449E+02  0.27821294436E+03  0.50685883506E+03  0.82220618203E+02 0.  0.
         13    1    3    3    0    0 -0.12241623478E+03  0.53021374656E+03  0.34708067077E+03  0.64542803131E+03  0.00000000000E+00 0.  1.
        -13    1    3    3    0    0 -0.19057447169E+03  0.42741523865E+03  0.28019590876E+03  0.54544675522E+03  0.00000000000E+00 0. -1.
          4    1    6    6  502    0  0.34601327113E+03 -0.29160344224E+01  0.22136332797E+03  0.41077415940E+03  0.00000000000E+00 0. -1.
          3    1    5    5  503    0 -0.10631696594E+03 -0.81371525127E+03  0.42640405592E+03  0.92480064139E+03  0.00000000000E+00 0. -1.
         -4    1    5    5    0  503  0.56833259432E+01 -0.10319388348E+03  0.78245634562E+02  0.12962892081E+03  0.00000000000E+00 0.  1.
         -3    1    6    6    0  502  0.67611075339E+02 -0.37803816027E+02  0.56849616384E+02  0.96084675665E+02  0.00000000000E+00 0.  1.
<mgrwt>
<rscale>  0 0.23634529E+04</rscale>
<asrwt>0</asrwt>
<pdfrwt beam="1">  1        2 0.10323261E+00 0.23634529E+04</pdfrwt>
<pdfrwt beam="2">  1       -2 0.32017710E+00 0.23634529E+04</pdfrwt>
<totfact> 0.93145692E-01</totfact>
</mgrwt>
</event>
<event>
12    1  0.2019083E-007  0.1868689E+04  0.7818608E-02  0.8670601E-01
         -1   -1    0    0    0  501 -0.00000000000E+00  0.00000000000E+00  0.13290919219E+04  0.13290919219E+04  0.00000000000E+00 0.  1.
          1   -1    0    0  501    0  0.00000000000E+00 -0.00000000000E+00 -0.65683948405E+03  0.65683948405E+03  0.00000000000E+00 0. -1.
         23    2    1    2    0    0  0.68443170707E+03  0.15713319947E+03  0.40229416778E+03  0.81352361293E+03  0.82719207880E+02 0.  0.
        254    2    1    2    0    0 -0.68443170707E+03 -0.15713319947E+03  0.26995827004E+03  0.11724077930E+04  0.89918016073E+03 0.  0.
        -24    2    4    4    0    0  0.13704650862E+03  0.15985044850E+03  0.17070551949E+03  0.28253846854E+03  0.79710102306E+02 0.  0.
         24    2    4    4    0    0 -0.82147821569E+03 -0.31698364798E+03  0.99252750549E+02  0.88986932443E+03  0.81922000297E+02 0.  0.
         13    1    3    3    0    0  0.25989593335E+03  0.85109635035E+02  0.19321883802E+03  0.33484782441E+03  0.00000000000E+00 0.  1.
        -13    1    3    3    0    0  0.42453577372E+03  0.72023564439E+02  0.20907532975E+03  0.47867578852E+03  0.00000000000E+00 0. -1.
          2    1    6    6  502    0 -0.49860437328E+03 -0.15223408444E+03  0.73437165573E+02  0.52647369811E+03  0.00000000000E+00 0. -1.
          3    1    5    5  503    0  0.12049527738E+03  0.15841299441E+03  0.12780416952E+03  0.23653264978E+03  0.00000000000E+00 0. -1.
         -4    1    5    5    0  503  0.16551231245E+02  0.14374540940E+01  0.42901349977E+02  0.46005818760E+02  0.00000000000E+00 0.  1.
         -1    1    6    6    0  502 -0.32287384242E+03 -0.16474956353E+03  0.25815584976E+02  0.36339562632E+03  0.00000000000E+00 0.  1.
<mgrwt>
<rscale>  0 0.18686894E+04</rscale>
<asrwt>0</asrwt>
<pdfrwt beam="1">  1        1 0.10105223E+00 0.18686894E+04</pdfrwt>
<pdfrwt beam="2">  1       -1 0.20447568E+00 0.18686894E+04</pdfrwt>
<totfact> 0.39433631E+00</totfact>
</mgrwt>
</event>
<event>
12    1  0.2019083E-007  0.2009961E+04  0.7818608E-02  0.8601978E-01
         -2   -1    0    0    0  501 -0.00000000000E+00  0.00000000000E+00  0.64247227960E+03  0.64247227960E+03  0.00000000000E+00 0.  1.
          2   -1    0    0  501    0  0.00000000000E+00 -0.00000000000E+00 -0.15720304185E+04  0.15720304185E+04  0.00000000000E+00 0. -1.
         23    2    1    2    0    0  0.25639767186E+03 -0.17713144917E+03  0.44053944799E+03  0.54687923536E+03  0.88806398511E+02 0.  0.
        254    2    1    2    0    0 -0.25639767186E+03  0.17713144917E+03 -0.13700975869E+04  0.16676234627E+04  0.89815661184E+03 0.  0.
        -24    2    4    4    0    0  0.16334227881E+03 -0.15724260155E+03 -0.95452701036E+03  0.98423320028E+03  0.78659031532E+02 0.  0.
         24    2    4    4    0    0 -0.41973995067E+03  0.33437405071E+03 -0.41557057650E+03  0.68339026242E+03  0.79597203063E+02 0.  0.
         11    1    3    3    0    0  0.20134463576E+03 -0.89165941093E+02  0.30440492471E+03  0.37570278890E+03  0.00000000000E+00 0. -1.
        -11    1    3    3    0    0  0.55053036099E+02 -0.87965508075E+02  0.13613452328E+03  0.17117644646E+03  0.00000000000E+00 0.  1.
          4    1    6    6  502    0 -0.89365937749E+02  0.61625381865E+02 -0.47163119057E+02  0.11835674176E+03  0.00000000000E+00 0. -1.
          1    1    5    5  503    0  0.19804533324E+02  0.77230305055E+01 -0.78593490237E+02  0.81417451741E+02  0.00000000000E+00 0. -1.
         -2    1    5    5    0  503  0.14353774548E+03 -0.16496563205E+03 -0.87593352012E+03  0.90281574854E+03  0.00000000000E+00 0.  1.
         -3    1    6    6    0  502 -0.33037401292E+03  0.27274866885E+03 -0.36840745744E+03  0.56503352066E+03  0.00000000000E+00 0.  1.
<mgrwt>
<rscale>  0 0.20099612E+04</rscale>
<asrwt>0</asrwt>
<pdfrwt beam="1">  1        2 0.24185083E+00 0.20099612E+04</pdfrwt>
<pdfrwt beam="2">  1       -2 0.98841889E-01 0.20099612E+04</pdfrwt>
<totfact> 0.91140504E+00</totfact>
</mgrwt>
</event>
<event>
12    1  0.2019083E-007  0.1694992E+04  0.7818608E-02  0.8764226E-01
          1   -1    0    0  501    0  0.00000000000E+00  0.00000000000E+00  0.51523603573E+03  0.51523603573E+03  0.00000000000E+00 0. -1.
         -1   -1    0    0    0  501 -0.00000000000E+00 -0.00000000000E+00 -0.13940209592E+04  0.13940209592E+04  0.00000000000E+00 0.  1.
         23    2    1    2    0    0 -0.40349682622E+03 -0.36401587271E+03 -0.23814071365E+02  0.55147940928E+03  0.90802998402E+02 0.  0.
        254    2    1    2    0    0  0.40349682622E+03  0.36401587271E+03 -0.85497085208E+03  0.13577775856E+04  0.90402852265E+03 0.  0.
        -24    2    4    4    0    0  0.61312950743E+03  0.55614153231E+02 -0.72596298513E+03  0.95510843137E+03  0.78671042865E+02 0.  0.
         24    2    4    4    0    0 -0.20963268121E+03  0.30840171948E+03 -0.12900786695E+03  0.40266915425E+03  0.80261674793E+02 0.  0.
         11    1    3    3    0    0 -0.20175237519E+03 -0.16432932189E+03 -0.54860808162E+02  0.26592828958E+03  0.00000000000E+00 0.  1.
        -11    1    3    3    0    0 -0.20174445103E+03 -0.19968655082E+03  0.31046736797E+02  0.28555111970E+03  0.00000000000E+00 0. -1.
          4    1    6    6  502    0 -0.87211200917E+02  0.65391852944E+02 -0.44577425778E+02  0.11776686667E+03  0.00000000000E+00 0. -1.
          1    1    5    5  503    0  0.10838368894E+03  0.22869424370E+02 -0.17560850612E+03  0.20762558133E+03  0.00000000000E+00 0. -1.
         -2    1    5    5    0  503  0.50474581849E+03  0.32744728861E+02 -0.55035447901E+03  0.74748285005E+03  0.00000000000E+00 0.  1.
         -3    1    6    6    0  502 -0.12242148029E+03  0.24300986653E+03 -0.84430441170E+02  0.28490228758E+03  0.00000000000E+00 0.  1.
<mgrwt>
<rscale>  0 0.16949924E+04</rscale>
<asrwt>0</asrwt>
<pdfrwt beam="1">  1        1 0.79267083E-01 0.16949924E+04</pdfrwt>
<pdfrwt beam="2">  1       -1 0.21446476E+00 0.16949924E+04</pdfrwt>
<totfact> 0.48522925E+00</totfact>
</mgrwt>
</event>
<event>
12    1  0.2019083E-007  0.2234063E+04  0.7818608E-02  0.8504383E-01
          2   -1    0    0  501    0  0.00000000000E+00  0.00000000000E+00  0.26427335112E+04  0.26427335112E+04  0.00000000000E+00 0. -1.
         -2   -1    0    0    0  501 -0.00000000000E+00 -0.00000000000E+00 -0.47214721958E+03  0.47214721958E+03  0.00000000000E+00 0.  1.
         23    2    1    2    0    0 -0.51862822093E+03  0.77492621187E+03  0.91260930036E+03  0.13078527959E+04  0.90207179512E+02 0.  0.
        254    2    1    2    0    0  0.51862822093E+03 -0.77492621187E+03  0.12579769912E+04  0.18070279349E+04  0.90186361581E+03 0.  0.
        -24    2    4    4    0    0  0.27668833454E+03  0.13735607701E+03  0.15983341151E+03  0.35679422954E+03  0.79575602043E+02 0.  0.
         24    2    4    4    0    0  0.24193988639E+03 -0.91228228887E+03  0.10981435797E+04  0.14502337053E+04  0.80402706066E+02 0.  0.
         11    1    3    3    0    0 -0.19604471166E+03  0.27178104340E+03  0.27079556881E+03  0.43084649773E+03  0.00000000000E+00 0.  1.
        -11    1    3    3    0    0 -0.32258350927E+03  0.50314516847E+03  0.64181373155E+03  0.87700629816E+03  0.00000000000E+00 0. -1.
          2    1    6    6  502    0  0.57869792195E+02 -0.12399709097E+03  0.18191306988E+03  0.22763250298E+03  0.00000000000E+00 0. -1.
          3    1    5    5  503    0  0.19157480574E+02  0.36056001234E+02  0.32411732259E+02  0.52130266401E+02  0.00000000000E+00 0. -1.
         -4    1    5    5    0  503  0.25753085396E+03  0.10130007577E+03  0.12742167925E+03  0.30466396314E+03  0.00000000000E+00 0.  1.
         -1    1    6    6    0  502  0.18407009420E+03 -0.78828519790E+03  0.91623050986E+03  0.12226012024E+04  0.00000000000E+00 0.  1.
<mgrwt>
<rscale>  0 0.22340629E+04</rscale>
<asrwt>0</asrwt>
<pdfrwt beam="1">  1        2 0.40657438E+00 0.22340629E+04</pdfrwt>
<pdfrwt beam="2">  1       -2 0.72638036E-01 0.22340629E+04</pdfrwt>
<totfact> 0.44873935E+00</totfact>
</mgrwt>
</event>
<event>
12    1  0.2019083E-007  0.3270690E+04  0.7818608E-02  0.8170394E-01
         -2   -1    0    0    0  501 -0.00000000000E+00  0.00000000000E+00  0.12613953610E+04  0.12613953610E+04  0.00000000000E+00 0.  1.
          2   -1    0    0  501    0  0.00000000000E+00 -0.00000000000E+00 -0.21201550056E+04  0.21201550056E+04  0.00000000000E+00 0. -1.
         23    2    1    2    0    0  0.13253840458E+04  0.60551543503E+03 -0.80624092069E+03  0.16678599897E+04  0.91873348840E+02 0.  0.
        254    2    1    2    0    0 -0.13253840458E+04 -0.60551543503E+03 -0.52518723895E+02  0.17136903770E+04  0.90038029797E+03 0.  0.
        -24    2    4    4    0    0 -0.54174670964E+03 -0.28887425906E+03 -0.46096872268E+03  0.77165563505E+03  0.77604258057E+02 0.  0.
         24    2    4    4    0    0 -0.78363733612E+03 -0.31664117597E+03  0.40844999879E+03  0.94203474192E+03  0.79050266308E+02 0.  0.
         11    1    3    3    0    0  0.55177403423E+03  0.20818354264E+03 -0.34976716909E+03  0.68566175688E+03  0.00000000000E+00 0.  1.
        -11    1    3    3    0    0  0.77361001152E+03  0.39733189239E+03 -0.45647375160E+03  0.98219823281E+03  0.00000000000E+00 0. -1.
          4    1    6    6  502    0 -0.10157915984E+03 -0.63051299176E+02  0.78678853182E+02  0.14312286323E+03  0.00000000000E+00 0. -1.
          3    1    5    5  503    0 -0.14648989500E+03 -0.48198779568E+02 -0.14179391756E+03  0.20949445517E+03  0.00000000000E+00 0. -1.
         -4    1    5    5    0  503 -0.39525681464E+03 -0.24067547949E+03 -0.31917480512E+03  0.56216117988E+03  0.00000000000E+00 0.  1.
         -3    1    6    6    0  502 -0.68205817628E+03 -0.25358987680E+03  0.32977114560E+03  0.79891187869E+03  0.00000000000E+00 0.  1.
<mgrwt>
<rscale>  0 0.32706903E+04</rscale>
<asrwt>0</asrwt>
<pdfrwt beam="1">  1        2 0.32617769E+00 0.32706903E+04</pdfrwt>
<pdfrwt beam="2">  1       -2 0.19406083E+00 0.32706903E+04</pdfrwt>
<totfact> 0.69791613E-01</totfact>
</mgrwt>
</event>
<event>
12    1  0.2019083E-007  0.1651734E+04  0.7818608E-02  0.8789381E-01
          2   -1    0    0  501    0  0.00000000000E+00  0.00000000000E+00  0.57595488429E+03  0.57595488429E+03  0.00000000000E+00 0. -1.
         -2   -1    0    0    0  501 -0.00000000000E+00 -0.00000000000E+00 -0.11842189765E+04  0.11842189765E+04  0.00000000000E+00 0.  1.
         23    2    1    2    0    0 -0.39801137461E+03  0.40852365149E+03 -0.12223859765E+03  0.59018911608E+03  0.89868180323E+02 0.  0.
        254    2    1    2    0    0  0.39801137461E+03 -0.40852365149E+03 -0.48602549456E+03  0.11699847447E+04  0.89852039119E+03 0.  0.
        -24    2    4    4    0    0 -0.11032722021E+03  0.17574841184E+03 -0.29340495336E+03  0.36795291373E+03  0.79014430844E+02 0.  0.
         24    2    4    4    0    0  0.50833859482E+03 -0.58427206333E+03 -0.19262054120E+03  0.80203183100E+03  0.79814873669E+02 0.  0.
         11    1    3    3    0    0 -0.10014394103E+03  0.99967619254E+02  0.87163956152E+01  0.14176850629E+03  0.00000000000E+00 0. -1.
        -11    1    3    3    0    0 -0.29786743358E+03  0.30855603224E+03 -0.13095499327E+03  0.44842060978E+03  0.00000000000E+00 0.  1.
          2    1    6    6  502    0  0.39097568518E+03 -0.42905773557E+03 -0.11088528651E+03  0.59097214284E+03  0.00000000000E+00 0. -1.
          1    1    5    5  503    0 -0.16586988183E+01  0.35926591493E+01 -0.52057561471E+02  0.52207740689E+02  0.00000000000E+00 0. -1.
         -2    1    5    5    0  503 -0.10866852140E+03  0.17215575269E+03 -0.24134739189E+03  0.31574517304E+03  0.00000000000E+00 0.  1.
         -1    1    6    6    0  502  0.11736290964E+03 -0.15521432777E+03 -0.81735254690E+02  0.21105968816E+03  0.00000000000E+00 0.  1.
<mgrwt>
<rscale>  0 0.16517345E+04</rscale>
<asrwt>0</asrwt>
<pdfrwt beam="1">  1        2 0.88608444E-01 0.16517345E+04</pdfrwt>
<pdfrwt beam="2">  1       -2 0.18218754E+00 0.16517345E+04</pdfrwt>
<totfact> 0.87076755E+00</totfact>
</mgrwt>
</event>
<event>
12    1  0.2019083E-007  0.1986485E+04  0.7818608E-02  0.8612965E-01
         -1   -1    0    0    0  501 -0.00000000000E+00  0.00000000000E+00  0.90209556716E+03  0.90209556716E+03  0.00000000000E+00 0.  1.
          1   -1    0    0  501    0  0.00000000000E+00 -0.00000000000E+00 -0.10935991778E+04  0.10935991778E+04  0.00000000000E+00 0. -1.
         23    2    1    2    0    0  0.61779856865E+03  0.41742010963E+03 -0.32812229966E+03  0.81989481839E+03  0.92998120089E+02 0.  0.
        254    2    1    2    0    0 -0.61779856865E+03 -0.41742010963E+03  0.13661868906E+03  0.11757999265E+04  0.89884714033E+03 0.  0.
        -24    2    4    4    0    0 -0.50746912483E+03 -0.32656193188E+03  0.49315410102E+03  0.78350157985E+03  0.80660710832E+02 0.  0.
         24    2    4    4    0    0 -0.11032944382E+03 -0.90858177758E+02 -0.35653541196E+03  0.39229834668E+03  0.79703815407E+02 0.  0.
         11    1    3    3    0    0  0.57567466429E+03  0.36255993032E+03 -0.28033464923E+03  0.73582507278E+03  0.00000000000E+00 0.  1.
        -11    1    3    3    0    0  0.42123904357E+02  0.54860179313E+02 -0.47787650431E+02  0.84069745606E+02  0.00000000000E+00 0. -1.
          2    1    6    6  502    0 -0.20020070095E+02  0.90737476975E+01 -0.10179087556E+03  0.10413701768E+03  0.00000000000E+00 0. -1.
          3    1    5    5  503    0 -0.30057898859E+03 -0.19656907346E+03  0.24181045957E+03  0.43296585013E+03  0.00000000000E+00 0. -1.
         -4    1    5    5    0  503 -0.20689013624E+03 -0.12999285841E+03  0.25134364146E+03  0.35053572972E+03  0.00000000000E+00 0.  1.
         -1    1    6    6    0  502 -0.90309373727E+02 -0.99931925455E+02 -0.25474453639E+03  0.28816132900E+03  0.00000000000E+00 0.  1.
<mgrwt>
<rscale>  0 0.19864853E+04</rscale>
<asrwt>0</asrwt>
<pdfrwt beam="1">  1        1 0.16824603E+00 0.19864853E+04</pdfrwt>
<pdfrwt beam="2">  1       -1 0.13878393E+00 0.19864853E+04</pdfrwt>
<totfact> 0.51065296E+00</totfact>
</mgrwt>
</event>
<event>
12    1  0.2019083E-007  0.1995811E+04  0.7818608E-02  0.8608582E-01
         -2   -1    0    0    0  501 -0.00000000000E+00  0.00000000000E+00  0.60816287836E+03  0.60816287836E+03  0.00000000000E+00 0. -1.
          2   -1    0    0  501    0  0.00000000000E+00 -0.00000000000E+00 -0.16374161015E+04  0.16374161015E+04  0.00000000000E+00 0.  1.
         23    2    1    2    0    0 -0.12120598595E+03  0.72620147674E+03 -0.83966926189E+02  0.74667479706E+03  0.91724217217E+02 0.  0.
        254    2    1    2    0    0  0.12120598595E+03 -0.72620147674E+03 -0.94528629699E+03  0.14989041828E+04  0.90060429168E+03 0.  0.
        -24    2    4    4    0    0 -0.29174872234E+03 -0.14808994571E+02 -0.42677724492E+03  0.52334761037E+03  0.80107934671E+02 0.  0.
         24    2    4    4    0    0  0.41295470829E+03 -0.71139248217E+03 -0.51850905207E+03  0.97555657246E+03  0.79045140308E+02 0.  0.
         13    1    3    3    0    0 -0.16444968255E+02  0.21381555160E+03  0.12730782741E+02  0.21482457940E+03  0.00000000000E+00 0. -1.
        -13    1    3    3    0    0 -0.10476101770E+03  0.51238592514E+03 -0.96697708930E+02  0.53185021766E+03  0.00000000000E+00 0.  1.
          4    1    6    6  502    0  0.39422331383E+03 -0.69400507453E+03 -0.51468767293E+03  0.94971493897E+03  0.00000000000E+00 0. -1.
          3    1    5    5  503    0 -0.22584567999E+03  0.17401433949E+02 -0.28829531810E+03  0.36663779335E+03  0.00000000000E+00 0. -1.
         -4    1    5    5    0  503 -0.65903042343E+02 -0.32210428519E+02 -0.13848192682E+03  0.15670981702E+03  0.00000000000E+00 0.  1.
         -3    1    6    6    0  502  0.18731394461E+02 -0.17387407638E+02 -0.38213791414E+01  0.25841633488E+02  0.00000000000E+00 0.  1.
<mgrwt>
<rscale>  0 0.19958113E+04</rscale>
<asrwt>0</asrwt>
<pdfrwt beam="1">  1        2 0.25191017E+00 0.19958113E+04</pdfrwt>
<pdfrwt beam="2">  1       -2 0.93563520E-01 0.19958113E+04</pdfrwt>
<totfact> 0.95389541E+00</totfact>
</mgrwt>
</event>
<event>
12    1  0.2019083E-007  0.3176761E+04  0.7818608E-02  0.8194982E-01
          1   -1    0    0  501    0  0.00000000000E+00  0.00000000000E+00  0.17740419438E+04  0.17740419438E+04  0.00000000000E+00 0. -1.
         -1   -1    0    0    0  501 -0.00000000000E+00 -0.00000000000E+00 -0.14221491104E+04  0.14221491104E+04  0.00000000000E+00 0.  1.
         23    2    1    2    0    0  0.12202037831E+04  0.78118511405E+03  0.33953139109E+03  0.14907865259E+04  0.89529019545E+02 0.  0.
        254    2    1    2    0    0 -0.12202037831E+04 -0.78118511405E+03  0.12361442275E+02  0.17054045284E+04  0.89950227641E+03 0.  0.
        -24    2    4    4    0    0 -0.61506475795E+03  0.35327249142E+01  0.27322423184E+03  0.67769139443E+03  0.79353693105E+02 0.  0.
         24    2    4    4    0    0 -0.60513902520E+03 -0.78471783896E+03 -0.26086278956E+03  0.10277131339E+04  0.78546572532E+02 0.  0.
         13    1    3    3    0    0  0.94433576568E+03  0.58123385567E+03  0.22610721498E+03  0.11316922311E+04  0.00000000000E+00 0. -1.
        -13    1    3    3    0    0  0.27586801747E+03  0.19995125838E+03  0.11342417611E+03  0.35909429474E+03  0.00000000000E+00 0.  1.
          4    1    6    6  502    0 -0.14731571608E+03 -0.19688012449E+03 -0.10005097344E+03  0.26546920896E+03  0.00000000000E+00 0. -1.
          1    1    5    5  503    0 -0.15830771589E+03  0.72683556848E+01  0.34056596317E+02  0.16209260827E+03  0.00000000000E+00 0. -1.
         -2    1    5    5    0  503 -0.45675704206E+03 -0.37356307706E+01  0.23916763552E+03  0.51559878616E+03  0.00000000000E+00 0.  1.
         -3    1    6    6    0  502 -0.45782330912E+03 -0.58783771448E+03 -0.16081181612E+03  0.76224392496E+03  0.00000000000E+00 0.  1.
<mgrwt>
<rscale>  0 0.31767607E+04</rscale>
<asrwt>0</asrwt>
<pdfrwt beam="1">  1        1 0.27292953E+00 0.31767607E+04</pdfrwt>
<pdfrwt beam="2">  1       -1 0.21879217E+00 0.31767607E+04</pdfrwt>
<totfact> 0.39885492E-01</totfact>
</mgrwt>
</event>
<event>
12    1  0.2019083E-007  0.2540676E+04  0.7818608E-02  0.8388636E-01
         -2   -1    0    0    0  501 -0.00000000000E+00  0.00000000000E+00  0.55537721276E+03  0.55537721276E+03  0.00000000000E+00 0.  1.
          2   -1    0    0  501    0  0.00000000000E+00 -0.00000000000E+00 -0.29056977551E+04  0.29056977551E+04  0.00000000000E+00 0. -1.
         23    2    1    2    0    0  0.52124357532E+03  0.73503018796E+03 -0.14922638012E+03  0.91795425505E+03  0.91691110901E+02 0.  0.
        254    2    1    2    0    0 -0.52124357532E+03 -0.73503018796E+03 -0.22010941622E+04  0.25431207128E+04  0.90037947939E+03 0.  0.
        -24    2    4    4    0    0 -0.22537249517E+03  0.15306295952E+03 -0.25230721144E+03  0.37974361128E+03  0.79531441627E+02 0.  0.
         24    2    4    4    0    0 -0.29587108014E+03 -0.88809314748E+03 -0.19487869508E+04  0.21633771015E+04  0.78617868087E+02 0.  0.
         11    1    3    3    0    0  0.50652553119E+03  0.67765559268E+03 -0.13206841835E+03  0.85628691638E+03  0.00000000000E+00 0. -1.
        -11    1    3    3    0    0  0.14718044128E+02  0.57374595285E+02 -0.17157961769E+02  0.61667338674E+02  0.00000000000E+00 0.  1.
          4    1    6    6  502    0 -0.21619483939E+03 -0.70043935835E+03 -0.15865439526E+04  0.17477062731E+04  0.00000000000E+00 0. -1.
          3    1    5    5  503    0 -0.99739271785E+02  0.25349155653E+02 -0.11273615847E+03  0.15264319000E+03  0.00000000000E+00 0. -1.
         -4    1    5    5    0  503 -0.12563322339E+03  0.12771380387E+03 -0.13957105298E+03  0.22710042128E+03  0.00000000000E+00 0.  1.
         -3    1    6    6    0  502 -0.79676240758E+02 -0.18765378913E+03 -0.36224299819E+03  0.41567082848E+03  0.00000000000E+00 0.  1.
<mgrwt>
<rscale>  0 0.25406758E+04</rscale>
<asrwt>0</asrwt>
<pdfrwt beam="1">  1        2 0.44703041E+00 0.25406758E+04</pdfrwt>
<pdfrwt beam="2">  1       -2 0.85442651E-01 0.25406758E+04</pdfrwt>
<totfact> 0.21092494E+00</totfact>
</mgrwt>
</event>
<event>
12    1  0.2019083E-007  0.2633292E+04  0.7818608E-02  0.8356980E-01
          1   -1    0    0  501    0  0.00000000000E+00  0.00000000000E+00  0.30537734897E+04  0.30537734897E+04  0.00000000000E+00 0. -1.
         -1   -1    0    0    0  501 -0.00000000000E+00 -0.00000000000E+00 -0.56767697188E+03  0.56767697188E+03  0.00000000000E+00 0.  1.
         23    2    1    2    0    0  0.21031115983E+03  0.98424486179E+03  0.30291748266E+03  0.10549268003E+04  0.90237580120E+02 0.  0.
        254    2    1    2    0    0 -0.21031115983E+03 -0.98424486179E+03  0.21831790351E+04  0.25665236612E+04  0.89877932345E+03 0.  0.
        -24    2    4    4    0    0 -0.39100336446E+03 -0.70642138737E+03  0.79198358183E+03  0.11337140544E+04  0.78452251046E+02 0.  0.
         24    2    4    4    0    0  0.18069220463E+03 -0.27782347442E+03  0.13911954533E+04  0.14328096068E+04  0.87652862894E+02 0.  0.
         13    1    3    3    0    0  0.49981627801E+02  0.36442844867E+03  0.14603491246E+03  0.39576818085E+03  0.00000000000E+00 0. -1.
        -13    1    3    3    0    0  0.16032953203E+03  0.61981641311E+03  0.15688257021E+03  0.65915861949E+03  0.00000000000E+00 0.  1.
          2    1    6    6  502    0  0.13915060344E+03 -0.25334463729E+03  0.12677104929E+04  0.13002447037E+04  0.00000000000E+00 0. -1.
          1    1    5    5  503    0 -0.37494709931E+03 -0.68962046033E+03  0.74964457186E+03  0.10854163674E+04  0.00000000000E+00 0. -1.
         -2    1    5    5    0  503 -0.16056265151E+02 -0.16800927037E+02  0.42339009973E+02  0.48297686957E+02  0.00000000000E+00 0.  1.
         -1    1    6    6    0  502  0.41541601184E+02 -0.24478837130E+02  0.12348496039E+03  0.13256490312E+03  0.00000000000E+00 0.  1.
<mgrwt>
<rscale>  0 0.26332922E+04</rscale>
<asrwt>0</asrwt>
<pdfrwt beam="1">  1        1 0.46981130E+00 0.26332922E+04</pdfrwt>
<pdfrwt beam="2">  1       -1 0.87334920E-01 0.26332922E+04</pdfrwt>
<totfact> 0.61849490E-01</totfact>
</mgrwt>
</event>
<event>
12    1  0.2019084E-007  0.1656946E+04  0.7818608E-02  0.8786308E-01
         -1   -1    0    0    0  501 -0.00000000000E+00  0.00000000000E+00  0.48730316987E+03  0.48730316987E+03  0.00000000000E+00 0.  1.
          1   -1    0    0  501    0  0.00000000000E+00 -0.00000000000E+00 -0.14085018511E+04  0.14085018511E+04  0.00000000000E+00 0. -1.
         23    2    1    2    0    0  0.45152748032E+03 -0.34982341424E+03 -0.21958485774E+03  0.61875292111E+03  0.91565173472E+02 0.  0.
        254    2    1    2    0    0 -0.45152748032E+03  0.34982341424E+03 -0.70161382344E+03  0.12770520998E+04  0.90130273592E+03 0.  0.
        -24    2    4    4    0    0 -0.43161954466E+03  0.38190832273E+03 -0.89322441314E+03  0.10659501473E+04  0.79059888135E+02 0.  0.
         24    2    4    4    0    0 -0.19907935663E+02 -0.32084908485E+02  0.19161058970E+03  0.21110195257E+03  0.80147670192E+02 0.  0.
         13    1    3    3    0    0  0.49883667814E+02 -0.20017128531E+02 -0.46243821264E+02  0.70905266055E+02  0.00000000000E+00 0. -1.
        -13    1    3    3    0    0  0.40164381251E+03 -0.32980628571E+03 -0.17334103648E+03  0.54784765505E+03  0.00000000000E+00 0.  1.
          2    1    6    6  502    0  0.39465240368E+01 -0.17688563684E+02  0.18001228564E+03  0.18092231293E+03  0.00000000000E+00 0. -1.
          1    1    5    5  503    0 -0.43213363227E+03  0.37519535109E+03 -0.86677839713E+03  0.10386605881E+04  0.00000000000E+00 0. -1.
         -2    1    5    5    0  503  0.51408761005E+00  0.67129716342E+01 -0.26446016007E+02  0.27289559118E+02  0.00000000000E+00 0.  1.
         -1    1    6    6    0  502 -0.23854459700E+02 -0.14396344801E+02  0.11598304063E+02  0.30179639632E+02  0.00000000000E+00 0.  1.
<mgrwt>
<rscale>  0 0.16569459E+04</rscale>
<asrwt>0</asrwt>
<pdfrwt beam="1">  1        1 0.21669259E+00 0.16569459E+04</pdfrwt>
<pdfrwt beam="2">  1       -1 0.74969719E-01 0.16569459E+04</pdfrwt>
<totfact> 0.12950057E+01</totfact>
</mgrwt>
</event>
<event>
12    1  0.2019083E-007  0.1226359E+04  0.7818608E-02  0.9090092E-01
         -1   -1    0    0    0  501 -0.00000000000E+00  0.00000000000E+00  0.31460744643E+03  0.31460744643E+03  0.00000000000E+00 0.  1.
          1   -1    0    0  501    0  0.00000000000E+00 -0.00000000000E+00 -0.11951060146E+04  0.11951060146E+04  0.00000000000E+00 0. -1.
         23    2    1    2    0    0  0.24256202058E+03 -0.73846690260E+02 -0.97053991236E+02  0.28938048485E+03  0.10015947436E+03 0.  0.
        254    2    1    2    0    0 -0.24256202058E+03  0.73846690260E+02 -0.78344457698E+03  0.12203329762E+04  0.90063172283E+03 0.  0.
        -24    2    4    4    0    0 -0.11338856304E+03  0.71611192381E+02  0.18412107001E+03  0.24085970166E+03  0.78279616481E+02 0.  0.
         24    2    4    4    0    0 -0.12917345754E+03  0.22354978792E+01 -0.96756564700E+03  0.97947327457E+03  0.80584333259E+02 0.  0.
         13    1    3    3    0    0  0.92969049609E+02  0.13431716178E+02 -0.62354393792E+02  0.11274628867E+03  0.00000000000E+00 0. -1.
        -13    1    3    3    0    0  0.14959297097E+03 -0.87278406438E+02 -0.34699597444E+02  0.17663419617E+03  0.00000000000E+00 0.  1.
          4    1    6    6  502    0 -0.74101192197E+02 -0.38740284500E+02 -0.52773450048E+03  0.53431778871E+03  0.00000000000E+00 0. -1.
          1    1    5    5  503    0 -0.90507998292E+02  0.17594608761E+02  0.13922842287E+03  0.16699048401E+03  0.00000000000E+00 0. -1.
         -2    1    5    5    0  503 -0.22880564746E+02  0.54016583619E+02  0.44892647139E+02  0.73869217650E+02  0.00000000000E+00 0.  1.
         -3    1    6    6    0  502 -0.55072265348E+02  0.40975782379E+02 -0.43983114651E+03  0.44515548586E+03  0.00000000000E+00 0.  1.
<mgrwt>
<rscale>  0 0.12263592E+04</rscale>
<asrwt>0</asrwt>
<pdfrwt beam="1">  1        1 0.18386247E+00 0.12263592E+04</pdfrwt>
<pdfrwt beam="2">  1       -1 0.48401145E-01 0.12263592E+04</pdfrwt>
<totfact> 0.45430061E+01</totfact>
</mgrwt>
</event>
<event>
12    1  0.2019083E-007  0.3818934E+04  0.7818608E-02  0.8042104E-01
         -2   -1    0    0    0  501 -0.00000000000E+00  0.00000000000E+00  0.19623458151E+04  0.19623458151E+04  0.00000000000E+00 0.  1.
          2   -1    0    0  501    0  0.00000000000E+00 -0.00000000000E+00 -0.18580134312E+04  0.18580134312E+04  0.00000000000E+00 0. -1.
         23    2    1    2    0    0  0.90500214003E+03 -0.69556211043E+01 -0.15096668571E+04  0.17625161686E+04  0.91060259795E+02 0.  0.
        254    2    1    2    0    0 -0.90500214003E+03  0.69556211043E+01  0.16139992411E+04  0.20578430777E+04  0.90035955479E+03 0.  0.
        -24    2    4    4    0    0 -0.39406243891E+03  0.32716846899E+03  0.27405506974E+03  0.58633262085E+03  0.79720437516E+02 0.  0.
         24    2    4    4    0    0 -0.51093970111E+03 -0.32021284788E+03  0.13399441714E+04  0.14715104568E+04  0.79353613942E+02 0.  0.
         13    1    3    3    0    0  0.33357471736E+03 -0.19610143158E+01 -0.64357365436E+03  0.72488825775E+03  0.00000000000E+00 0.  1.
        -13    1    3    3    0    0  0.57142742267E+03 -0.49946067885E+01 -0.86609320278E+03  0.10376279109E+04  0.00000000000E+00 0. -1.
          4    1    6    6  502    0 -0.23547292547E+03 -0.16863472422E+03  0.72850283089E+03  0.78396526930E+03  0.00000000000E+00 0. -1.
          1    1    5    5  503    0 -0.29616215636E+03  0.20682663564E+03  0.16783738857E+03  0.39831980753E+03  0.00000000000E+00 0. -1.
         -2    1    5    5    0  503 -0.97900282551E+02  0.12034183335E+03  0.10621768117E+03  0.18801281332E+03  0.00000000000E+00 0.  1.
         -3    1    6    6    0  502 -0.27546677564E+03 -0.15157812367E+03  0.61144134046E+03  0.68754518752E+03  0.00000000000E+00 0.  1.
<mgrwt>
<rscale>  0 0.38189343E+04</rscale>
<asrwt>0</asrwt>
<pdfrwt beam="1">  1        2 0.28584822E+00 0.38189343E+04</pdfrwt>
<pdfrwt beam="2">  1       -2 0.30189936E+00 0.38189343E+04</pdfrwt>
<totfact> 0.19847647E-01</totfact>
</mgrwt>
</event>
<event>
12    1  0.2019083E-007  0.2089957E+04  0.7818608E-02  0.8565680E-01
          2   -1    0    0  501    0  0.00000000000E+00  0.00000000000E+00  0.15998325693E+04  0.15998325693E+04  0.00000000000E+00 0. -1.
         -2   -1    0    0    0  501 -0.00000000000E+00 -0.00000000000E+00 -0.68255920316E+03  0.68255920316E+03  0.00000000000E+00 0.  1.
         23    2    1    2    0    0  0.83503184138E+03  0.94976734969E+02  0.49406173142E+03  0.97917864896E+03  0.91624646373E+02 0.  0.
        254    2    1    2    0    0 -0.83503184138E+03 -0.94976734969E+02  0.42321163467E+03  0.13032131235E+04  0.90164161458E+03 0.  0.
        -24    2    4    4    0    0  0.92544507970E+02  0.83284491366E+02  0.31669867329E+03  0.34891784949E+03  0.77102682009E+02 0.  0.
         24    2    4    4    0    0 -0.92757634935E+03 -0.17826122634E+03  0.10651296139E+03  0.95429527397E+03  0.84613889552E+02 0.  0.
         11    1    3    3    0    0  0.42412331416E+03  0.77557693844E+02  0.21188456142E+03  0.48040696171E+03  0.00000000000E+00 0.  1.
        -11    1    3    3    0    0  0.41090852721E+03  0.17419041126E+02  0.28217717001E+03  0.49877168725E+03  0.00000000000E+00 0. -1.
          4    1    6    6  502    0 -0.40407946265E+03 -0.52044939079E+02  0.79636359480E+02  0.41512749556E+03  0.00000000000E+00 0. -1.
          3    1    5    5  503    0 -0.13465337300E+02  0.14600158810E+02  0.50668763980E+02  0.54422454825E+02  0.00000000000E+00 0. -1.
         -4    1    5    5    0  503  0.10600984527E+03  0.68684332556E+02  0.26602990931E+03  0.29449539466E+03  0.00000000000E+00 0.  1.
         -3    1    6    6    0  502 -0.52349688669E+03 -0.12621628726E+03  0.26876601907E+02  0.53916777841E+03  0.00000000000E+00 0.  1.
<mgrwt>
<rscale>  0 0.20899574E+04</rscale>
<asrwt>0</asrwt>
<pdfrwt beam="1">  1        2 0.24612809E+00 0.20899574E+04</pdfrwt>
<pdfrwt beam="2">  1       -2 0.10500911E+00 0.20899574E+04</pdfrwt>
<totfact> 0.75614490E+00</totfact>
</mgrwt>
</event>
<event>
12    1  0.2019083E-007  0.4407919E+04  0.7818608E-02  0.7926959E-01
          1   -1    0    0  501    0  0.00000000000E+00  0.00000000000E+00  0.25247711280E+04  0.25247711280E+04  0.00000000000E+00 0. -1.
         -1   -1    0    0    0  501 -0.00000000000E+00 -0.00000000000E+00 -0.19239117928E+04  0.19239117928E+04  0.00000000000E+00 0.  1.
         23    2    1    2    0    0  0.12571182149E+04 -0.16343603663E+04  0.74549088536E+03  0.21944821914E+04  0.92279005854E+02 0.  0.
        254    2    1    2    0    0 -0.12571182149E+04  0.16343603663E+04 -0.14463155010E+03  0.22542007294E+04  0.89945685278E+03 0.  0.
        -24    2    4    4    0    0 -0.52252350563E+03  0.12120113881E+03 -0.17534908276E+03  0.56996401955E+03  0.79944685770E+02 0.  0.
         24    2    4    4    0    0 -0.73459470926E+03  0.15131592275E+04  0.30717532659E+02  0.16842367099E+04  0.80184121457E+02 0.  0.
         13    1    3    3    0    0  0.22916069541E+03 -0.32183230206E+03  0.10782212666E+03  0.40953176430E+03  0.00000000000E+00 0. -1.
        -13    1    3    3    0    0  0.10279575195E+04 -0.13125280643E+04  0.63766875869E+03  0.17849504271E+04  0.00000000000E+00 0.  1.
          2    1    6    6  502    0 -0.23800257049E+03  0.51771149906E+03 -0.25599744749E+02  0.57037335733E+03  0.00000000000E+00 0. -1.
          1    1    5    5  503    0 -0.33662568675E+03  0.44707738687E+02 -0.13192142690E+03  0.36430604957E+03  0.00000000000E+00 0. -1.
         -2    1    5    5    0  503 -0.18589781887E+03  0.76493400120E+02 -0.43427655863E+02  0.20565796998E+03  0.00000000000E+00 0.  1.
         -1    1    6    6    0  502 -0.49659213876E+03  0.99544772848E+03  0.56317277408E+02  0.11138633526E+04  0.00000000000E+00 0.  1.
<mgrwt>
<rscale>  0 0.44079188E+04</rscale>
<asrwt>0</asrwt>
<pdfrwt beam="1">  1        1 0.38842632E+00 0.44079188E+04</pdfrwt>
<pdfrwt beam="2">  1       -1 0.29598643E+00 0.44079188E+04</pdfrwt>
<totfact> 0.34567334E-02</totfact>
</mgrwt>
</event>
<event>
12    1  0.2019083E-007  0.1979145E+04  0.7818608E-02  0.8616434E-01
         -2   -1    0    0    0  501 -0.00000000000E+00  0.00000000000E+00  0.66312031111E+03  0.66312031111E+03  0.00000000000E+00 0. -1.
          2   -1    0    0  501    0  0.00000000000E+00 -0.00000000000E+00 -0.14767362726E+04  0.14767362726E+04  0.00000000000E+00 0.  1.
         23    2    1    2    0    0 -0.42987183212E+03 -0.91544545653E+02  0.37548681766E+03  0.58526519994E+03  0.91513977837E+02 0.  0.
        254    2    1    2    0    0  0.42987183212E+03  0.91544545653E+02 -0.11891027792E+04  0.15545913838E+04  0.89978817245E+03 0.  0.
        -24    2    4    4    0    0 -0.12871678195E+03  0.31292449931E+03 -0.21920780224E+03  0.41083690416E+03  0.79026255311E+02 0.  0.
         24    2    4    4    0    0  0.55858861407E+03 -0.22137995366E+03 -0.96989497695E+03  0.11437544797E+04  0.80297694729E+02 0.  0.
         13    1    3    3    0    0 -0.21828547723E+03 -0.90182349055E+02  0.21904589430E+03  0.32212188604E+03  0.00000000000E+00 0. -1.
        -13    1    3    3    0    0 -0.21158635488E+03 -0.13621965974E+01  0.15644092336E+03  0.26314331390E+03  0.00000000000E+00 0.  1.
          4    1    6    6  502    0  0.46271269366E+03 -0.15017039645E+03 -0.76409434566E+03  0.90581143397E+03  0.00000000000E+00 0. -1.
          1    1    5    5  503    0 -0.95305945463E+02  0.15162848332E+03 -0.14378463069E+03  0.22967028588E+03  0.00000000000E+00 0. -1.
         -2    1    5    5    0  503 -0.33410836488E+02  0.16129601600E+03 -0.75423171551E+02  0.18116661828E+03  0.00000000000E+00 0.  1.
         -3    1    6    6    0  502  0.95875920411E+02 -0.71209557207E+02 -0.20580063129E+03  0.23794304569E+03  0.00000000000E+00 0.  1.
<mgrwt>
<rscale>  0 0.19791451E+04</rscale>
<asrwt>0</asrwt>
<pdfrwt beam="1">  1        2 0.22719020E+00 0.19791451E+04</pdfrwt>
<pdfrwt beam="2">  1       -2 0.10201851E+00 0.19791451E+04</pdfrwt>
<totfact> 0.95917161E+00</totfact>
</mgrwt>
</event>
<event>
12    1  0.2019083E-007  0.1431220E+04  0.7818608E-02  0.8931525E-01
          2   -1    0    0  501    0  0.00000000000E+00  0.00000000000E+00  0.12881994999E+04  0.12881994999E+04  0.00000000000E+00 0.  1.
         -2   -1    0    0    0  501 -0.00000000000E+00 -0.00000000000E+00 -0.39752991855E+03  0.39752991855E+03  0.00000000000E+00 0. -1.
         23    2    1    2    0    0 -0.25163457614E+03 -0.22239629866E+03 -0.39146116323E+02  0.34956485966E+03  0.88786818379E+02 0.  0.
        254    2    1    2    0    0  0.25163457614E+03  0.22239629866E+03  0.92981569772E+03  0.13361645588E+04  0.89888732496E+03 0.  0.
        -24    2    4    4    0    0  0.14332842556E+03  0.51045177333E+02  0.10659162983E+04  0.10794987542E+04  0.77403859921E+02 0.  0.
         24    2    4    4    0    0  0.10830615058E+03  0.17135112133E+03 -0.13610060060E+03  0.25666580466E+03  0.79136165955E+02 0.  0.
         13    1    3    3    0    0 -0.16113772203E+03 -0.85738209984E+02 -0.78402059522E+01  0.18269612733E+03  0.00000000000E+00 0.  1.
        -13    1    3    3    0    0 -0.90496854111E+02 -0.13665808868E+03 -0.31305910371E+02  0.16686873233E+03  0.00000000000E+00 0. -1.
          4    1    6    6  502    0  0.37268487725E+01  0.59101825940E+02 -0.63858458175E+02  0.87090860093E+02  0.00000000000E+00 0. -1.
          1    1    5    5  503    0  0.32061352221E+02  0.14907508798E+02  0.91652331269E+02  0.98236011482E+02  0.00000000000E+00 0. -1.
         -2    1    5    5    0  503  0.11126707334E+03  0.36137668535E+02  0.97426396705E+03  0.98126274269E+03  0.00000000000E+00 0.  1.
         -3    1    6    6    0  502  0.10457930180E+03  0.11224929539E+03 -0.72242142425E+02  0.16957494456E+03  0.00000000000E+00 0.  1.
<mgrwt>
<rscale>  0 0.14312202E+04</rscale>
<asrwt>0</asrwt>
<pdfrwt beam="1">  1        2 0.19818454E+00 0.14312202E+04</pdfrwt>
<pdfrwt beam="2">  1       -2 0.61158450E-01 0.14312202E+04</pdfrwt>
<totfact> 0.40563044E+01</totfact>
</mgrwt>
</event>
<event>
12    1  0.2019083E-007  0.2001552E+04  0.7818608E-02  0.8605896E-01
          2   -1    0    0  501    0  0.00000000000E+00  0.00000000000E+00  0.15671464812E+04  0.15671464812E+04  0.00000000000E+00 0. -1.
         -2   -1    0    0    0  501 -0.00000000000E+00 -0.00000000000E+00 -0.63909298104E+03  0.63909298104E+03  0.00000000000E+00 0.  1.
         23    2    1    2    0    0  0.10511683829E+03 -0.70214024053E+03  0.76798105100E+03  0.10497086117E+04  0.89681702040E+02 0.  0.
        254    2    1    2    0    0 -0.10511683829E+03  0.70214024053E+03  0.16007244918E+03  0.11565308506E+04  0.89882698685E+03 0.  0.
        -24    2    4    4    0    0 -0.25096756386E+02  0.81164594070E+03 -0.12902749480E+03  0.82693479466E+03  0.88170743255E+02 0.  0.
         24    2    4    4    0    0 -0.80020081904E+02 -0.10950570017E+03  0.28909994398E+03  0.32959605592E+03  0.81609255587E+02 0.  0.
         13    1    3    3    0    0  0.28485752377E+02 -0.37553946768E+03  0.45785675722E+03  0.59285254491E+03  0.00000000000E+00 0. -1.
        -13    1    3    3    0    0  0.76631085912E+02 -0.32660077285E+03  0.31012429378E+03  0.45685606677E+03  0.00000000000E+00 0.  1.
          4    1    6    6  502    0 -0.21580430157E+02 -0.85278655888E+02  0.21416899488E+03  0.23153082405E+03  0.00000000000E+00 0. -1.
          3    1    5    5  503    0 -0.41851051791E+02  0.17577515269E+03 -0.31306784381E+02  0.18338083211E+03  0.00000000000E+00 0. -1.
         -4    1    5    5    0  503  0.16754295405E+02  0.63587078801E+03 -0.97720710416E+02  0.64355396254E+03  0.00000000000E+00 0.  1.
         -3    1    6    6    0  502 -0.58439651747E+02 -0.24227044280E+02  0.74930949093E+02  0.98065231875E+02  0.00000000000E+00 0.  1.
<mgrwt>
<rscale>  0 0.20015517E+04</rscale>
<asrwt>0</asrwt>
<pdfrwt beam="1">  1        2 0.24109946E+00 0.20015517E+04</pdfrwt>
<pdfrwt beam="2">  1       -2 0.98321997E-01 0.20015517E+04</pdfrwt>
<totfact> 0.92929408E+00</totfact>
</mgrwt>
</event>
<event>
12    1  0.2019083E-007  0.1604816E+04  0.7818608E-02  0.8817595E-01
         -2   -1    0    0    0  501 -0.00000000000E+00  0.00000000000E+00  0.25095876262E+03  0.25095876262E+03  0.00000000000E+00 0.  1.
          2   -1    0    0  501    0  0.00000000000E+00 -0.00000000000E+00 -0.25655965845E+04  0.25655965845E+04  0.00000000000E+00 0. -1.
         23    2    1    2    0    0  0.46969945580E+03  0.17575714473E+03 -0.11704296413E+04  0.12767311367E+04  0.92890782427E+02 0.  0.
        254    2    1    2    0    0 -0.46969945580E+03 -0.17575714473E+03 -0.11442081806E+04  0.15398242105E+04  0.90018780588E+03 0.  0.
        -24    2    4    4    0    0 -0.30853342071E+03 -0.39615382397E+03 -0.18734779018E+03  0.54175002731E+03  0.79140215216E+02 0.  0.
         24    2    4    4    0    0 -0.16116603510E+03  0.22039667925E+03 -0.95686039042E+03  0.99807418315E+03  0.77595626330E+02 0.  0.
         13    1    3    3    0    0  0.37554511584E+03  0.11355605067E+03 -0.97634083579E+03  0.10522217154E+04  0.00000000000E+00 0. -1.
        -13    1    3    3    0    0  0.94154339958E+02  0.62201094057E+02 -0.19408880550E+03  0.22450942131E+03  0.00000000000E+00 0.  1.
          4    1    6    6  502    0 -0.10335925203E+03  0.99212597656E+02 -0.38865394291E+03  0.41421994382E+03  0.00000000000E+00 0. -1.
          3    1    5    5  503    0 -0.14076894057E+03 -0.21918011912E+03 -0.13052546593E+03  0.29136354697E+03  0.00000000000E+00 0. -1.
         -4    1    5    5    0  503 -0.16776448014E+03 -0.17697370486E+03 -0.56822324257E+02  0.25038648035E+03  0.00000000000E+00 0.  1.
         -3    1    6    6    0  502 -0.57806783067E+02  0.12118408159E+03 -0.56820644751E+03  0.58385423934E+03  0.00000000000E+00 0.  1.
<mgrwt>
<rscale>  0 0.16048164E+04</rscale>
<asrwt>0</asrwt>
<pdfrwt beam="1">  1        2 0.39470719E+00 0.16048164E+04</pdfrwt>
<pdfrwt beam="2">  1       -2 0.38609038E-01 0.16048164E+04</pdfrwt>
<totfact> 0.19416319E+01</totfact>
</mgrwt>
</event>
<event>
12    1  0.2454428E-007  0.3509398E+04  0.7818608E-02  0.8111566E-01
          2   -1    0    0  501    0  0.00000000000E+00  0.00000000000E+00  0.15099589236E+04  0.15099589236E+04  0.00000000000E+00 0. -1.
         -2   -1    0    0    0  501 -0.00000000000E+00 -0.00000000000E+00 -0.20391074527E+04  0.20391074527E+04  0.00000000000E+00 0.  1.
         23    2    1    2    0    0  0.14605674471E+04 -0.64626823130E+03 -0.61547051459E+03  0.17145180119E+04  0.99237917195E+02 0.  0.
        254    2    1    2    0    0 -0.14605674471E+04  0.64626823130E+03  0.86321985429E+02  0.18345483644E+04  0.89844105083E+03 0.  0.
        -24    2    4    4    0    0 -0.76668791780E+03  0.79313652319E+03 -0.52981904226E+02  0.11071750219E+04  0.78444497817E+02 0.  0.
         24    2    4    4    0    0 -0.69387952934E+03 -0.14686829189E+03  0.13930388966E+03  0.72737334252E+03  0.81408287884E+02 0.  0.
         11    1    3    3    0    0  0.38747242733E+03 -0.18981377177E+03 -0.12302349540E+03  0.44866349340E+03  0.00000000000E+00 0.  1.
        -11    1    3    3    0    0  0.10730950198E+04 -0.45645445953E+03 -0.49244701919E+03  0.12658545185E+04  0.00000000000E+00 0. -1.
          4    1    6    6  502    0 -0.58650887664E+02 -0.36729494047E+02  0.13793360754E+02  0.70563724091E+02  0.00000000000E+00 0. -1.
          3    1    5    5  503    0 -0.34183707734E+03  0.29865513487E+03 -0.16360122224E+02  0.45421925392E+03  0.00000000000E+00 0. -1.
         -4    1    5    5    0  503 -0.42485084046E+03  0.49448138832E+03 -0.36621782002E+02  0.65295576799E+03  0.00000000000E+00 0.  1.
         -3    1    6    6    0  502 -0.63522864168E+03 -0.11013879784E+03  0.12551052890E+03  0.65680961843E+03  0.00000000000E+00 0.  1.
<mgrwt>
<rscale>  0 0.35093980E+04</rscale>
<asrwt>0</asrwt>
<pdfrwt beam="1">  1        2 0.23230137E+00 0.35093980E+04</pdfrwt>
<pdfrwt beam="2">  1       -2 0.31370884E+00 0.35093980E+04</pdfrwt>
<totfact> 0.26933158E-01</totfact>
</mgrwt>
</event>
<event>
12    1  0.2019083E-007  0.3373356E+04  0.7818608E-02  0.8144477E-01
         -1   -1    0    0    0  501 -0.00000000000E+00  0.00000000000E+00  0.83973629109E+03  0.83973629109E+03  0.00000000000E+00 0.  1.
          1   -1    0    0  501    0  0.00000000000E+00 -0.00000000000E+00 -0.33878296634E+04  0.33878296634E+04  0.00000000000E+00 0. -1.
         23    2    1    2    0    0  0.78241157192E+03 -0.13089440900E+04 -0.15915080115E+04  0.22061159651E+04  0.92452162702E+02 0.  0.
        254    2    1    2    0    0 -0.78241157192E+03  0.13089440900E+04 -0.95658536087E+03  0.20214499894E+04  0.91962057847E+03 0.  0.
        -24    2    4    4    0    0 -0.41123683787E+03  0.12802950840E+04 -0.93574713950E+03  0.16402101356E+04  0.79970875948E+02 0.  0.
         24    2    4    4    0    0 -0.37117473405E+03  0.28649006019E+02 -0.20838221362E+02  0.38123985377E+03  0.79486765496E+02 0.  0.
         13    1    3    3    0    0  0.11502254331E+03 -0.15720502477E+03 -0.24073411886E+03  0.30967163458E+03  0.00000000000E+00 0.  1.
        -13    1    3    3    0    0  0.66738902861E+03 -0.11517390652E+04 -0.13507738926E+04  0.18964443305E+04  0.00000000000E+00 0. -1.
          2    1    6    6  502    0 -0.11588103548E+03  0.43297748538E+02  0.76626446876E+01  0.12394283172E+03  0.00000000000E+00 0. -1.
          1    1    5    5  503    0 -0.98313745514E+02  0.31197801627E+03 -0.18671799423E+03  0.37664238285E+03  0.00000000000E+00 0. -1.
         -2    1    5    5    0  503 -0.31292309235E+03  0.96831706772E+03 -0.74902914527E+03  0.12635677528E+04  0.00000000000E+00 0.  1.
         -1    1    6    6    0  502 -0.25529369858E+03 -0.14648742519E+02 -0.28500866050E+02  0.25729702205E+03  0.00000000000E+00 0.  1.
<mgrwt>
<rscale>  0 0.33733565E+04</rscale>
<asrwt>0</asrwt>
<pdfrwt beam="1">  1        1 0.52120456E+00 0.33733565E+04</pdfrwt>
<pdfrwt beam="2">  1       -1 0.12919020E+00 0.33733565E+04</pdfrwt>
<totfact> 0.12972089E-01</totfact>
</mgrwt>
</event>
<event>
12    1  0.2019083E-007  0.1334609E+04  0.7818608E-02  0.9002562E-01
         -1   -1    0    0    0  501 -0.00000000000E+00  0.00000000000E+00  0.74013133549E+03  0.74013133549E+03  0.00000000000E+00 0.  1.
          1   -1    0    0  501    0  0.00000000000E+00 -0.00000000000E+00 -0.60164331340E+03  0.60164331340E+03  0.00000000000E+00 0. -1.
         23    2    1    2    0    0  0.20211299668E+01 -0.19257740003E+03  0.33547913970E+03  0.39725749302E+03  0.90427443939E+02 0.  0.
        254    2    1    2    0    0 -0.20211299668E+01  0.19257740003E+03 -0.19699111761E+03  0.94451715587E+03  0.90344729639E+03 0.  0.
        -24    2    4    4    0    0 -0.33890794411E+03 -0.18930537227E+03 -0.15786787324E+03  0.42664210202E+03  0.80038111280E+02 0.  0.
         24    2    4    4    0    0  0.33688681415E+03  0.38188277229E+03 -0.39123244366E+02  0.51787505386E+03  0.85654923017E+02 0.  0.
         11    1    3    3    0    0  0.71515273527E+01 -0.35359587252E+02  0.14894619687E+03  0.15325277914E+03  0.00000000000E+00 0.  1.
        -11    1    3    3    0    0 -0.51303973859E+01 -0.15721781277E+03  0.18653294284E+03  0.24400471388E+03  0.00000000000E+00 0. -1.
          4    1    6    6  502    0  0.52505529232E+02  0.10124631137E+03  0.13662653461E+02  0.11486650628E+03  0.00000000000E+00 0. -1.
          3    1    5    5  503    0 -0.15754455011E+02 -0.73853503121E+01 -0.29430640638E+02  0.34189309152E+02  0.00000000000E+00 0. -1.
         -4    1    5    5    0  503 -0.32315348910E+03 -0.18192002196E+03 -0.12843723261E+03  0.39245279286E+03  0.00000000000E+00 0.  1.
         -3    1    6    6    0  502  0.28438128491E+03  0.28063646093E+03 -0.52785897826E+02  0.40300854758E+03  0.00000000000E+00 0.  1.
<mgrwt>
<rscale>  0 0.13346087E+04</rscale>
<asrwt>0</asrwt>
<pdfrwt beam="1">  1        1 0.92560509E-01 0.13346087E+04</pdfrwt>
<pdfrwt beam="2">  1       -1 0.11386636E+00 0.13346087E+04</pdfrwt>
<totfact> 0.23508361E+01</totfact>
</mgrwt>
</event>
<event>
12    1  0.2019083E-007  0.1938905E+04  0.7818608E-02  0.8635730E-01
          2   -1    0    0  501    0  0.00000000000E+00  0.00000000000E+00  0.29984328298E+04  0.29984328298E+04  0.00000000000E+00 0.  1.
         -2   -1    0    0    0  501 -0.00000000000E+00 -0.00000000000E+00 -0.31344303484E+03  0.31344303484E+03  0.00000000000E+00 0. -1.
         23    2    1    2    0    0 -0.72179866642E+03  0.17559082268E+03  0.80791685447E+03  0.11014119704E+04  0.92483689929E+02 0.  0.
        254    2    1    2    0    0  0.72179866642E+03 -0.17559082268E+03  0.18770729405E+04  0.22104638943E+04  0.90051227199E+03 0.  0.
        -24    2    4    4    0    0 -0.13839648938E+01 -0.94906909084E+02  0.12208988718E+04  0.12272429188E+04  0.80758218862E+02 0.  0.
         24    2    4    4    0    0  0.72318263132E+03 -0.80683913594E+02  0.65617406872E+03  0.98322097544E+03  0.81584716357E+02 0.  0.
         13    1    3    3    0    0 -0.17179012916E+03  0.23924342506E+02  0.24266703039E+03  0.29828092510E+03  0.00000000000E+00 0.  1.
        -13    1    3    3    0    0 -0.55000853726E+03  0.15166648017E+03  0.56524982408E+03  0.80313104528E+03  0.00000000000E+00 0. -1.
          2    1    6    6  502    0  0.64675929817E+03 -0.97251889045E+02  0.58615459593E+03  0.87825550384E+03  0.00000000000E+00 0. -1.
          3    1    5    5  503    0 -0.21097919915E+02 -0.40832215120E+02  0.90346436319E+03  0.90463265891E+03  0.00000000000E+00 0. -1.
         -4    1    5    5    0  503  0.19713955021E+02 -0.54074693964E+02  0.31743450860E+03  0.32261025991E+03  0.00000000000E+00 0.  1.
         -1    1    6    6    0  502  0.76423333152E+02  0.16567975451E+02  0.70019472785E+02  0.10496547161E+03  0.00000000000E+00 0.  1.
<mgrwt>
<rscale>  0 0.19389047E+04</rscale>
<asrwt>0</asrwt>
<pdfrwt beam="1">  1        2 0.46129734E+00 0.19389047E+04</pdfrwt>
<pdfrwt beam="2">  1       -2 0.48222008E-01 0.19389047E+04</pdfrwt>
<totfact> 0.66559643E+00</totfact>
</mgrwt>
</event>
<event>
12    1  0.2019083E-007  0.3110536E+04  0.7818608E-02  0.8212852E-01
          2   -1    0    0  501    0  0.00000000000E+00  0.00000000000E+00  0.23477299199E+04  0.23477299199E+04  0.00000000000E+00 0.  1.
         -2   -1    0    0    0  501 -0.00000000000E+00 -0.00000000000E+00 -0.10302970157E+04  0.10302970157E+04  0.00000000000E+00 0. -1.
         23    2    1    2    0    0 -0.13749963013E+04  0.13702274238E+02  0.10004069583E+04  0.17028490944E+04  0.89879782081E+02 0.  0.
        254    2    1    2    0    0  0.13749963013E+04 -0.13702274238E+02  0.31702594598E+03  0.16751778412E+04  0.90272518989E+03 0.  0.
        -24    2    4    4    0    0  0.10661518749E+04  0.38235417649E+03  0.24596823509E+03  0.11618286095E+04  0.80441335149E+02 0.  0.
         24    2    4    4    0    0  0.30884442636E+03 -0.39605645073E+03  0.71057710892E+02  0.51334923177E+03  0.78947093808E+02 0.  0.
         13    1    3    3    0    0 -0.32927318495E+03  0.33557529568E+02  0.21170699210E+03  0.39289539145E+03  0.00000000000E+00 0.  1.
        -13    1    3    3    0    0 -0.10457231164E+04 -0.19855255330E+02  0.78869996615E+03  0.13099537029E+04  0.00000000000E+00 0. -1.
          2    1    6    6  502    0  0.90106351501E+01 -0.17703467693E+02  0.19523243792E+02  0.27852492928E+02  0.00000000000E+00 0. -1.
          3    1    5    5  503    0  0.17765941367E+03  0.50694915583E+02  0.68193747373E+02  0.19693458029E+03  0.00000000000E+00 0. -1.
         -4    1    5    5    0  503  0.88849246127E+03  0.33165926091E+03  0.17777448771E+03  0.96489402919E+03  0.00000000000E+00 0.  1.
         -1    1    6    6    0  502  0.29983379121E+03 -0.37835298304E+03  0.51534467100E+02  0.48549673884E+03  0.00000000000E+00 0.  1.
<mgrwt>
<rscale>  0 0.31105364E+04</rscale>
<asrwt>0</asrwt>
<pdfrwt beam="1">  1        2 0.36118922E+00 0.31105364E+04</pdfrwt>
<pdfrwt beam="2">  1       -2 0.15850723E+00 0.31105364E+04</pdfrwt>
<totfact> 0.93341655E-01</totfact>
</mgrwt>
</event>
<event>
12    1  0.2019083E-007  0.1354940E+04  0.7818608E-02  0.8987097E-01
          1   -1    0    0  501    0  0.00000000000E+00  0.00000000000E+00  0.16031758301E+04  0.16031758301E+04  0.00000000000E+00 0. -1.
         -1   -1    0    0    0  501 -0.00000000000E+00 -0.00000000000E+00 -0.28628544743E+03  0.28628544743E+03  0.00000000000E+00 0.  1.
         23    2    1    2    0    0 -0.15004822273E+03 -0.21804995031E+03  0.10034295331E+02  0.28041890944E+03  0.92053395991E+02 0.  0.
        254    2    1    2    0    0  0.15004822273E+03  0.21804995031E+03  0.13068560873E+04  0.16090423681E+04  0.90060216483E+03 0.  0.
        -24    2    4    4    0    0  0.40275120931E+03  0.32664475635E+03  0.40395649249E+03  0.66171720849E+03  0.76049212591E+02 0.  0.
         24    2    4    4    0    0 -0.25270298659E+03 -0.10859480604E+03  0.90289959482E+03  0.94732515957E+03  0.80905180895E+02 0.  0.
         11    1    3    3    0    0 -0.15338803305E+03 -0.18944752777E+03  0.29680334914E+02  0.24555890687E+03  0.00000000000E+00 0. -1.
        -11    1    3    3    0    0  0.33398103190E+01 -0.28602422538E+02 -0.19646039582E+02  0.34860002571E+02  0.00000000000E+00 0.  1.
          2    1    6    6  502    0 -0.16016363757E+03 -0.84079673424E+02  0.69969363368E+03  0.72269839027E+03  0.00000000000E+00 0. -1.
          1    1    5    5  503    0  0.81426966697E+02  0.87736972768E+02  0.60172713209E+02  0.13397344032E+03  0.00000000000E+00 0. -1.
         -2    1    5    5    0  503  0.32132424262E+03  0.23890778358E+03  0.34378377928E+03  0.52774376817E+03  0.00000000000E+00 0.  1.
         -1    1    6    6    0  502 -0.92539349017E+02 -0.24515132613E+02  0.20320596114E+03  0.22462676930E+03  0.00000000000E+00 0.  1.
<mgrwt>
<rscale>  0 0.13549405E+04</rscale>
<asrwt>0</asrwt>
<pdfrwt beam="1">  1        1 0.24664243E+00 0.13549405E+04</pdfrwt>
<pdfrwt beam="2">  1       -1 0.44043916E-01 0.13549405E+04</pdfrwt>
<totfact> 0.27693829E+01</totfact>
</mgrwt>
</event>
<event>
12    1  0.2019083E-007  0.1420877E+04  0.7818608E-02  0.8938844E-01
          2   -1    0    0  501    0  0.00000000000E+00  0.00000000000E+00  0.16986476644E+04  0.16986476644E+04  0.00000000000E+00 0. -1.
         -2   -1    0    0    0  501 -0.00000000000E+00 -0.00000000000E+00 -0.29713203342E+03  0.29713203342E+03  0.00000000000E+00 0.  1.
         23    2    1    2    0    0 -0.32188450108E+03  0.82635923672E+02  0.58053486560E+02  0.34801992525E+03  0.85494638160E+02 0.  0.
        254    2    1    2    0    0  0.32188450108E+03 -0.82635923672E+02  0.13434621444E+04  0.16477597726E+04  0.89430610347E+03 0.  0.
        -24    2    4    4    0    0  0.29900880311E+02 -0.11513796569E+03 -0.97092332571E+02  0.17541858367E+03  0.84817124834E+02 0.  0.
         24    2    4    4    0    0  0.29198362077E+03  0.32502042017E+02  0.14405544770E+04  0.14723411889E+04  0.79249970540E+02 0.  0.
         11    1    3    3    0    0 -0.14529337404E+03  0.72583762491E+02  0.53793903725E+02  0.17109164561E+03  0.00000000000E+00 0. -1.
        -11    1    3    3    0    0 -0.17659112704E+03  0.10052161180E+02  0.42595828348E+01  0.17692827965E+03  0.00000000000E+00 0.  1.
          4    1    6    6  502    0  0.21744151260E+02  0.13914512031E+02  0.57779291341E+02  0.63284028530E+02  0.00000000000E+00 0. -1.
          1    1    5    5  503    0  0.48492076167E+02 -0.72012882746E+02 -0.26759215753E+02  0.90848183031E+02  0.00000000000E+00 0. -1.
         -2    1    5    5    0  503 -0.18591195856E+02 -0.43125082943E+02 -0.70333116819E+02  0.84570400635E+02  0.00000000000E+00 0.  1.
         -3    1    6    6    0  502  0.27023946951E+03  0.18587529986E+02  0.13827751857E+04  0.14090571604E+04  0.00000000000E+00 0.  1.
<mgrwt>
<rscale>  0 0.14208767E+04</rscale>
<asrwt>0</asrwt>
<pdfrwt beam="1">  1        2 0.26133040E+00 0.14208767E+04</pdfrwt>
<pdfrwt beam="2">  1       -2 0.45712622E-01 0.14208767E+04</pdfrwt>
<totfact> 0.43319115E+01</totfact>
</mgrwt>
</event>
<event>
12    1  0.2019083E-007  0.1247482E+04  0.7818608E-02  0.9072281E-01
          1   -1    0    0  501    0  0.00000000000E+00  0.00000000000E+00  0.19409700927E+04  0.19409700927E+04  0.00000000000E+00 0. -1.
         -1   -1    0    0    0  501 -0.00000000000E+00 -0.00000000000E+00 -0.20044250577E+03  0.20044250577E+03  0.00000000000E+00 0.  1.
         23    2    1    2    0    0 -0.22968888313E+03 -0.21873547548E+02  0.12631701261E+03  0.27851626219E+03  0.91541714596E+02 0.  0.
        254    2    1    2    0    0  0.22968888313E+03  0.21873547548E+02  0.16142105744E+04  0.18628963363E+04  0.90081715483E+03 0.  0.
        -24    2    4    4    0    0  0.52204026290E+03 -0.18860283519E+03  0.98488036536E+03  0.11333638637E+04  0.80170119405E+02 0.  0.
         24    2    4    4    0    0 -0.29235137977E+03  0.21047638274E+03  0.62933020901E+03  0.72953247260E+03  0.79946730132E+02 0.  0.
         11    1    3    3    0    0 -0.19759079279E+03 -0.13810535321E+02  0.64347389169E+02  0.20826290782E+03  0.00000000000E+00 0.  1.
        -11    1    3    3    0    0 -0.32098090337E+02 -0.80630122274E+01  0.61969623444E+02  0.70253354363E+02  0.00000000000E+00 0. -1.
          2    1    6    6  502    0 -0.29633832873E+03  0.20354224783E+03  0.60322630151E+03  0.70223060498E+03  0.00000000000E+00 0. -1.
          3    1    5    5  503    0  0.41990284459E+03 -0.18174134755E+03  0.82879043546E+03  0.94670053460E+03  0.00000000000E+00 0. -1.
         -4    1    5    5    0  503  0.10213741831E+03 -0.68614876399E+01  0.15608992990E+03  0.18666332914E+03  0.00000000000E+00 0.  1.
         -1    1    6    6    0  502  0.39869489667E+01  0.69341349095E+01  0.26103907493E+02  0.27301867618E+02  0.00000000000E+00 0.  1.
<mgrwt>
<rscale>  0 0.12474821E+04</rscale>
<asrwt>0</asrwt>
<pdfrwt beam="1">  1        1 0.29861077E+00 0.12474821E+04</pdfrwt>
<pdfrwt beam="2">  1       -1 0.30837310E-01 0.12474821E+04</pdfrwt>
<totfact> 0.31373159E+01</totfact>
</mgrwt>
</event>
<event>
12    1  0.2019083E-007  0.3495326E+04  0.7818608E-02  0.8114899E-01
          1   -1    0    0  501    0  0.00000000000E+00  0.00000000000E+00  0.94945000283E+03  0.94945000283E+03  0.00000000000E+00 0. -1.
         -1   -1    0    0    0  501 -0.00000000000E+00 -0.00000000000E+00 -0.32169420463E+04  0.32169420463E+04  0.00000000000E+00 0.  1.
         23    2    1    2    0    0  0.64166139721E+03 -0.14848991103E+04 -0.82112204934E+03  0.18164285364E+04  0.92284837906E+02 0.  0.
        254    2    1    2    0    0 -0.64166139721E+03  0.14848991103E+04 -0.14463699942E+04  0.23499635128E+04  0.90204635960E+03 0.  0.
        -24    2    4    4    0    0  0.87731340952E+02  0.81368221722E+03 -0.88422071306E+03  0.12075023092E+04  0.80249725687E+02 0.  0.
         24    2    4    4    0    0 -0.72939273816E+03  0.67121689312E+03 -0.56214928111E+03  0.11424612036E+04  0.81608231294E+02 0.  0.
         13    1    3    3    0    0  0.35194010635E+03 -0.82575802005E+03 -0.40432714046E+03  0.98448899570E+03  0.00000000000E+00 0. -1.
        -13    1    3    3    0    0  0.28972129085E+03 -0.65914109029E+03 -0.41679490887E+03  0.83193954068E+03  0.00000000000E+00 0.  1.
          2    1    6    6  502    0 -0.65712456689E+03  0.60832943312E+03 -0.47861506932E+03  0.10153569718E+04  0.00000000000E+00 0. -1.
          1    1    5    5  503    0  0.49995752635E+02  0.71287732650E+03 -0.76356903095E+03  0.10458161038E+04  0.00000000000E+00 0. -1.
         -2    1    5    5    0  503  0.37735588317E+02  0.10080489072E+03 -0.12065168211E+03  0.16168620539E+03  0.00000000000E+00 0.  1.
         -1    1    6    6    0  502 -0.72268171271E+02  0.62887459996E+02 -0.83534211791E+02  0.12710423181E+03  0.00000000000E+00 0.  1.
<mgrwt>
<rscale>  0 0.34953258E+04</rscale>
<asrwt>0</asrwt>
<pdfrwt beam="1">  1        1 0.14606923E+00 0.34953258E+04</pdfrwt>
<pdfrwt beam="2">  1       -1 0.49491416E+00 0.34953258E+04</pdfrwt>
<totfact> 0.21754459E-02</totfact>
</mgrwt>
</event>
<event>
12    1  0.2019083E-007  0.1851360E+04  0.7818608E-02  0.8679454E-01
         -1   -1    0    0    0  501 -0.00000000000E+00  0.00000000000E+00  0.62805283596E+03  0.62805283596E+03  0.00000000000E+00 0.  1.
          1   -1    0    0  501    0  0.00000000000E+00 -0.00000000000E+00 -0.13643487178E+04  0.13643487178E+04  0.00000000000E+00 0. -1.
         23    2    1    2    0    0 -0.39501145799E+03  0.57638286677E+03 -0.18721932994E+03  0.72892360046E+03  0.89595070993E+02 0.  0.
        254    2    1    2    0    0  0.39501145799E+03 -0.57638286677E+03 -0.54907655193E+03  0.12634779533E+04  0.89813151466E+03 0.  0.
        -24    2    4    4    0    0  0.37415646277E+01 -0.69834793764E+03 -0.23375355101E+03  0.74019026702E+03  0.74411474072E+02 0.  0.
         24    2    4    4    0    0  0.39126989336E+03  0.12196507086E+03 -0.31532300091E+03  0.52328768631E+03  0.80210970439E+02 0.  0.
         13    1    3    3    0    0 -0.19051902030E+03  0.31083778505E+03 -0.55352710998E+02  0.36875676038E+03  0.00000000000E+00 0.  1.
        -13    1    3    3    0    0 -0.20449243769E+03  0.26554508172E+03 -0.13186661894E+03  0.36016684008E+03  0.00000000000E+00 0. -1.
          2    1    6    6  502    0  0.19625886183E+03  0.47726779274E+02 -0.20278130968E+03  0.28620909466E+03  0.00000000000E+00 0. -1.
          3    1    5    5  503    0  0.30396304533E+02 -0.43630404350E+03 -0.12192793766E+03  0.45403917858E+03  0.00000000000E+00 0. -1.
         -4    1    5    5    0  503 -0.26654739905E+02 -0.26204389413E+03 -0.11182561335E+03  0.28615108844E+03  0.00000000000E+00 0.  1.
         -1    1    6    6    0  502  0.19501103153E+03  0.74238291587E+02 -0.11254169123E+03  0.23707859166E+03  0.00000000000E+00 0.  1.
<mgrwt>
<rscale>  0 0.18513596E+04</rscale>
<asrwt>0</asrwt>
<pdfrwt beam="1">  1        1 0.20989980E+00 0.18513596E+04</pdfrwt>
<pdfrwt beam="2">  1       -1 0.96623514E-01 0.18513596E+04</pdfrwt>
<totfact> 0.78823295E+00</totfact>
</mgrwt>
</event>
<event>
12    1  0.2019083E-007  0.1682377E+04  0.7818608E-02  0.8771480E-01
         -1   -1    0    0    0  501 -0.00000000000E+00  0.00000000000E+00  0.41251637183E+03  0.41251637183E+03  0.00000000000E+00 0.  1.
          1   -1    0    0  501    0  0.00000000000E+00 -0.00000000000E+00 -0.17153203460E+04  0.17153203460E+04  0.00000000000E+00 0. -1.
         23    2    1    2    0    0  0.41648857841E+03 -0.35841573511E+03 -0.75353152977E+03  0.93715731144E+03  0.92355210475E+02 0.  0.
        254    2    1    2    0    0 -0.41648857841E+03  0.35841573511E+03 -0.54927244440E+03  0.11906794064E+04  0.90227083269E+03 0.  0.
        -24    2    4    4    0    0  0.24663931210E+03 -0.53301946260E+02 -0.78809081939E+02  0.27623794431E+03  0.80152871024E+02 0.  0.
         24    2    4    4    0    0 -0.66312789052E+03  0.41171768137E+03 -0.47046336246E+03  0.91444146208E+03  0.74949074869E+02 0.  0.
         11    1    3    3    0    0  0.12295688706E+03 -0.13156930730E+03 -0.18397519555E+03  0.25744077236E+03  0.00000000000E+00 0.  1.
        -11    1    3    3    0    0  0.29353169135E+03 -0.22684642782E+03 -0.56955633422E+03  0.67971653908E+03  0.00000000000E+00 0. -1.
          4    1    6    6  502    0 -0.54267951653E+03  0.36920803343E+03 -0.39720355127E+03  0.76719377653E+03  0.00000000000E+00 0. -1.
          1    1    5    5  503    0  0.80015116250E+02 -0.41136374633E+02  0.34102510651E+01  0.90034715298E+02  0.00000000000E+00 0. -1.
         -2    1    5    5    0  503  0.16662419585E+03 -0.12165571627E+02 -0.82219333004E+02  0.18620322902E+03  0.00000000000E+00 0.  1.
         -3    1    6    6    0  502 -0.12044837398E+03  0.42509647942E+02 -0.73259811197E+02  0.14724768555E+03  0.00000000000E+00 0.  1.
<mgrwt>
<rscale>  0 0.16823766E+04</rscale>
<asrwt>0</asrwt>
<pdfrwt beam="1">  1        1 0.26389544E+00 0.16823766E+04</pdfrwt>
<pdfrwt beam="2">  1       -1 0.63464058E-01 0.16823766E+04</pdfrwt>
<totfact> 0.11165175E+01</totfact>
</mgrwt>
</event>
<event>
12    1  0.2019083E-007  0.1879313E+04  0.7818608E-02  0.8665223E-01
         -1   -1    0    0    0  501 -0.00000000000E+00  0.00000000000E+00  0.86096668311E+03  0.86096668311E+03  0.00000000000E+00 0.  1.
          1   -1    0    0  501    0  0.00000000000E+00 -0.00000000000E+00 -0.10255380276E+04  0.10255380276E+04  0.00000000000E+00 0. -1.
         23    2    1    2    0    0  0.69197930099E+01  0.16406133128E+03 -0.76817678394E+03  0.79088467058E+03  0.91863958226E+02 0.  0.
        254    2    1    2    0    0 -0.69197930099E+01 -0.16406133128E+03  0.60360543949E+03  0.10956200401E+04  0.89948860010E+03 0.  0.
        -24    2    4    4    0    0  0.11682776317E+02 -0.52901487010E+03  0.41216901245E+03  0.67539132594E+03  0.79227067867E+02 0.  0.
         24    2    4    4    0    0 -0.18602569327E+02  0.36495353882E+03  0.19143642705E+03  0.42022871415E+03  0.80044522099E+02 0.  0.
         13    1    3    3    0    0  0.33979474096E+02  0.91315761022E+02 -0.56593359921E+03  0.57425953330E+03  0.00000000000E+00 0. -1.
        -13    1    3    3    0    0 -0.27059681086E+02  0.72745570263E+02 -0.20224318473E+03  0.21662513728E+03  0.00000000000E+00 0.  1.
          2    1    6    6  502    0 -0.20877433631E+01  0.21680269987E+03  0.15572585964E+03  0.26694252697E+03  0.00000000000E+00 0. -1.
          3    1    5    5  503    0 -0.55902051354E+01 -0.46395474729E+03  0.38455263776E+03  0.60263254901E+03  0.00000000000E+00 0. -1.
         -4    1    5    5    0  503  0.17272981452E+02 -0.65060122815E+02  0.27616374688E+02  0.72758776926E+02  0.00000000000E+00 0.  1.
         -1    1    6    6    0  502 -0.16514825964E+02  0.14815083895E+03  0.35710567406E+02  0.15328618719E+03  0.00000000000E+00 0.  1.
<mgrwt>
<rscale>  0 0.18793127E+04</rscale>
<asrwt>0</asrwt>
<pdfrwt beam="1">  1        1 0.15777508E+00 0.18793127E+04</pdfrwt>
<pdfrwt beam="2">  1       -1 0.13245641E+00 0.18793127E+04</pdfrwt>
<totfact> 0.65522091E+00</totfact>
</mgrwt>
</event>
<event>
12    1  0.2019083E-007  0.1407233E+04  0.7818608E-02  0.8948599E-01
         -1   -1    0    0    0  501 -0.00000000000E+00  0.00000000000E+00  0.86649970231E+03  0.86649970231E+03  0.00000000000E+00 0.  1.
          1   -1    0    0  501    0  0.00000000000E+00 -0.00000000000E+00 -0.57135189518E+03  0.57135189518E+03  0.00000000000E+00 0. -1.
         23    2    1    2    0    0  0.34447922667E+03  0.18180469008E+03 -0.38607908592E+02  0.40248035841E+03  0.93706911997E+02 0.  0.
        254    2    1    2    0    0 -0.34447922667E+03 -0.18180469008E+03  0.33375571572E+03  0.10353712391E+04  0.89937858658E+03 0.  0.
        -24    2    4    4    0    0 -0.87151157409E+02 -0.46694947638E+02  0.61201703851E+03  0.62526162473E+03  0.81311140451E+02 0.  0.
         24    2    4    4    0    0 -0.25732806926E+03 -0.13510974244E+03 -0.27826132279E+03  0.41010961435E+03  0.79297883263E+02 0.  0.
         11    1    3    3    0    0  0.23358909820E+03  0.73124727909E+02 -0.34247818890E+02  0.24715178682E+03  0.00000000000E+00 0. -1.
        -11    1    3    3    0    0  0.11089012847E+03  0.10867996217E+03 -0.43600897022E+01  0.15532857159E+03  0.00000000000E+00 0.  1.
          2    1    6    6  502    0 -0.18805232692E+03 -0.13418078535E+03 -0.22743592732E+03  0.32418399382E+03  0.00000000000E+00 0. -1.
          3    1    5    5  503    0 -0.65002763861E+02  0.25381558667E+00  0.20792979340E+03  0.21785367271E+03  0.00000000000E+00 0. -1.
         -4    1    5    5    0  503 -0.22148393548E+02 -0.46948763224E+02  0.40408724511E+03  0.40740795202E+03  0.00000000000E+00 0.  1.
         -1    1    6    6    0  502 -0.69275742340E+02 -0.92895709434E+00 -0.50825395472E+02  0.85925620527E+02  0.00000000000E+00 0.  1.
<mgrwt>
<rscale>  0 0.14072331E+04</rscale>
<asrwt>0</asrwt>
<pdfrwt beam="1">  1        1 0.87900292E-01 0.14072331E+04</pdfrwt>
<pdfrwt beam="2">  1       -1 0.13330765E+00 0.14072331E+04</pdfrwt>
<totfact> 0.17040837E+01</totfact>
</mgrwt>
</event>
<event>
12    1  0.2019083E-007  0.1582631E+04  0.7818608E-02  0.8831290E-01
         -1   -1    0    0    0  501 -0.00000000000E+00  0.00000000000E+00  0.84512651377E+03  0.84512651377E+03  0.00000000000E+00 0.  1.
          1   -1    0    0  501    0  0.00000000000E+00 -0.00000000000E+00 -0.74093035530E+03  0.74093035530E+03  0.00000000000E+00 0. -1.
         23    2    1    2    0    0 -0.40678154730E+03 -0.19522086139E+03  0.31182308242E+03  0.55600367826E+03  0.91236196545E+02 0.  0.
        254    2    1    2    0    0  0.40678154730E+03  0.19522086139E+03 -0.20762692395E+03  0.10300531908E+04  0.90239582469E+03 0.  0.
        -24    2    4    4    0    0 -0.15944480457E+03  0.18100628110E+03 -0.35805427996E+03  0.43916415174E+03  0.80475867671E+02 0.  0.
         24    2    4    4    0    0  0.56622635187E+03  0.14214580292E+02  0.15042735601E+03  0.59088903907E+03  0.75545557256E+02 0.  0.
         13    1    3    3    0    0 -0.95914041736E+02 -0.12599609388E+02  0.40953404428E+02  0.10504967822E+03  0.00000000000E+00 0. -1.
        -13    1    3    3    0    0 -0.31086750556E+03 -0.18262125200E+03  0.27086967799E+03  0.45095400004E+03  0.00000000000E+00 0.  1.
          4    1    6    6  502    0  0.20706010973E+03  0.18275879742E+02  0.20295857365E+02  0.20885358184E+03  0.00000000000E+00 0. -1.
          1    1    5    5  503    0 -0.14075668674E+03  0.10817997185E+03 -0.22828402482E+03  0.28918669949E+03  0.00000000000E+00 0. -1.
         -2    1    5    5    0  503 -0.18688117829E+02  0.72826309244E+02 -0.12977025514E+03  0.14997745225E+03  0.00000000000E+00 0.  1.
         -3    1    6    6    0  502  0.35916624214E+03 -0.40612994497E+01  0.13013149865E+03  0.38203545723E+03  0.00000000000E+00 0.  1.
<mgrwt>
<rscale>  0 0.15826306E+04</rscale>
<asrwt>0</asrwt>
<pdfrwt beam="1">  1        1 0.11398929E+00 0.15826306E+04</pdfrwt>
<pdfrwt beam="2">  1       -1 0.13001946E+00 0.15826306E+04</pdfrwt>
<totfact> 0.12162354E+01</totfact>
</mgrwt>
</event>
<event>
12    1  0.2019083E-007  0.2340834E+04  0.7818608E-02  0.8461993E-01
         -2   -1    0    0    0  501 -0.00000000000E+00  0.00000000000E+00  0.99579300674E+03  0.99579300674E+03  0.00000000000E+00 0.  1.
          2   -1    0    0  501    0  0.00000000000E+00 -0.00000000000E+00 -0.13756635605E+04  0.13756635605E+04  0.00000000000E+00 0. -1.
         23    2    1    2    0    0  0.82575497413E+03 -0.49862110747E+03 -0.41283294976E+03  0.10532364708E+04  0.91551804723E+02 0.  0.
        254    2    1    2    0    0 -0.82575497413E+03  0.49862110747E+03  0.32962395998E+02  0.13182200964E+04  0.89784375977E+03 0.  0.
        -24    2    4    4    0    0 -0.97974784117E+03  0.29586598023E+03  0.12840296151E+03  0.10346466269E+04  0.81017352743E+02 0.  0.
         24    2    4    4    0    0  0.15399286704E+03  0.20275512724E+03 -0.95440565517E+02  0.28357346955E+03  0.80508175755E+02 0.  0.
         11    1    3    3    0    0  0.47030864302E+03 -0.27686519867E+03 -0.18442854906E+03  0.57607156469E+03  0.00000000000E+00 0.  1.
        -11    1    3    3    0    0  0.35544633111E+03 -0.22175590879E+03 -0.22840440070E+03  0.47716490613E+03  0.00000000000E+00 0. -1.
          2    1    6    6  502    0  0.48727963809E+02  0.12945248835E+03 -0.41408773764E+02  0.14438506759E+03  0.00000000000E+00 0. -1.
          3    1    5    5  503    0 -0.20541653513E+00  0.12076880712E+01  0.40299151814E+01  0.42119974833E+01  0.00000000000E+00 0. -1.
         -4    1    5    5    0  503 -0.97954242464E+03  0.29465829216E+03  0.12437304633E+03  0.10304346294E+04  0.00000000000E+00 0.  1.
         -1    1    6    6    0  502  0.10526490323E+03  0.73302638890E+02 -0.54031791753E+02  0.13918840196E+03  0.00000000000E+00 0.  1.
<mgrwt>
<rscale>  0 0.23408342E+04</rscale>
<asrwt>0</asrwt>
<pdfrwt beam="1">  1        2 0.21164055E+00 0.23408342E+04</pdfrwt>
<pdfrwt beam="2">  1       -2 0.15319892E+00 0.23408342E+04</pdfrwt>
<totfact> 0.38253187E+00</totfact>
</mgrwt>
</event>
<event>
12    1  0.2019083E-007  0.1727091E+04  0.7818608E-02  0.8746062E-01
          2   -1    0    0  501    0  0.00000000000E+00  0.00000000000E+00  0.83853080447E+03  0.83853080447E+03  0.00000000000E+00 0.  1.
         -2   -1    0    0    0  501 -0.00000000000E+00 -0.00000000000E+00 -0.88930687590E+03  0.88930687590E+03  0.00000000000E+00 0. -1.
         23    2    1    2    0    0 -0.19972009889E+03 -0.55934595664E+03  0.17510069215E+03  0.62593616988E+03  0.91541352672E+02 0.  0.
        254    2    1    2    0    0  0.19972009889E+03  0.55934595664E+03 -0.22587676358E+03  0.11019015105E+04  0.90022808743E+03 0.  0.
        -24    2    4    4    0    0 -0.19439668678E+03 -0.14719843089E+03  0.60817039753E+01  0.25656776011E+03  0.79577500076E+02 0.  0.
         24    2    4    4    0    0  0.39411678567E+03  0.70654438753E+03 -0.23195846756E+03  0.84533375040E+03  0.79065837038E+02 0.  0.
         11    1    3    3    0    0 -0.19986361479E+03 -0.48594477114E+03  0.13593531873E+03  0.54273952868E+03  0.00000000000E+00 0. -1.
        -11    1    3    3    0    0  0.14351589794E+00 -0.73401185508E+02  0.39165373428E+02  0.83196641197E+02  0.00000000000E+00 0.  1.
          4    1    6    6  502    0  0.13803442165E+03  0.17781670466E+03 -0.74622375247E+02  0.23715138815E+03  0.00000000000E+00 0. -1.
          1    1    5    5  503    0 -0.54419243369E+02 -0.18905353460E+02  0.30404298154E+02  0.65140523367E+02  0.00000000000E+00 0. -1.
         -2    1    5    5    0  503 -0.13997744341E+03 -0.12829307743E+03 -0.24322594179E+02  0.19142723674E+03  0.00000000000E+00 0.  1.
         -1    1    6    6    0  502  0.25608236402E+03  0.52872768287E+03 -0.15733609231E+03  0.60818236224E+03  0.00000000000E+00 0.  1.
<mgrwt>
<rscale>  0 0.17270914E+04</rscale>
<asrwt>0</asrwt>
<pdfrwt beam="1">  1        2 0.12900474E+00 0.17270914E+04</pdfrwt>
<pdfrwt beam="2">  1       -2 0.13681644E+00 0.17270914E+04</pdfrwt>
<totfact> 0.11701318E+01</totfact>
</mgrwt>
</event>
<event>
12    1  0.2019083E-007  0.2426150E+04  0.7818608E-02  0.8429778E-01
         -1   -1    0    0    0  501 -0.00000000000E+00  0.00000000000E+00  0.28255108233E+04  0.28255108233E+04  0.00000000000E+00 0.  1.
          1   -1    0    0  501    0  0.00000000000E+00 -0.00000000000E+00 -0.52080874513E+03  0.52080874513E+03  0.00000000000E+00 0. -1.
         23    2    1    2    0    0  0.78518750374E+03  0.70295906828E+02  0.54596559106E+02  0.79727747436E+03  0.10587566441E+03 0.  0.
        254    2    1    2    0    0 -0.78518750374E+03 -0.70295906828E+02  0.22501055190E+04  0.25490420940E+04  0.90176483624E+03 0.  0.
        -24    2    4    4    0    0 -0.41535842143E+03 -0.37905343506E+03  0.17860780903E+04  0.18742816636E+04  0.81563993148E+02 0.  0.
         24    2    4    4    0    0 -0.36982908231E+03  0.30875752823E+03  0.46402742871E+03  0.67476043042E+03  0.88743577253E+02 0.  0.
         13    1    3    3    0    0  0.45737677803E+03  0.45703149009E+02  0.83874665175E+02  0.46724431979E+03  0.00000000000E+00 0.  1.
        -13    1    3    3    0    0  0.32781072570E+03  0.24592757819E+02 -0.29278106069E+02  0.33003315457E+03  0.00000000000E+00 0. -1.
          2    1    6    6  502    0 -0.45251305841E+02  0.15973056400E+02  0.78041773280E+02  0.91615160251E+02  0.00000000000E+00 0. -1.
          1    1    5    5  503    0 -0.28992656482E+02 -0.47083525333E+02  0.24632726707E+03  0.25245703593E+03  0.00000000000E+00 0. -1.
         -2    1    5    5    0  503 -0.38636576495E+03 -0.33196990973E+03  0.15397508232E+04  0.16218246277E+04  0.00000000000E+00 0.  1.
         -1    1    6    6    0  502 -0.32457777647E+03  0.29278447183E+03  0.38598565543E+03  0.58314527017E+03  0.00000000000E+00 0.  1.
<mgrwt>
<rscale>  0 0.24261498E+04</rscale>
<asrwt>0</asrwt>
<pdfrwt beam="1">  1        1 0.80124424E-01 0.24261498E+04</pdfrwt>
<pdfrwt beam="2">  1       -1 0.43469396E+00 0.24261498E+04</pdfrwt>
<totfact> 0.15451323E-01</totfact>
</mgrwt>
</event>
<event>
12    1  0.2019083E-007  0.2879581E+04  0.7818608E-02  0.8278979E-01
         -1   -1    0    0    0  501 -0.00000000000E+00  0.00000000000E+00  0.13626536510E+04  0.13626536510E+04  0.00000000000E+00 0.  1.
          1   -1    0    0  501    0  0.00000000000E+00 -0.00000000000E+00 -0.15212941561E+04  0.15212941561E+04  0.00000000000E+00 0. -1.
         23    2    1    2    0    0 -0.91396601431E+03  0.75874981865E+02 -0.98586359009E+03  0.13492488486E+04  0.86339729862E+02 0.  0.
        254    2    1    2    0    0  0.91396601431E+03 -0.75874981865E+02  0.82722308500E+03  0.15346989584E+04  0.91099504524E+03 0.  0.
        -24    2    4    4    0    0  0.42111670352E+03 -0.34332454280E+03  0.79629940083E+03  0.96753751852E+03  0.82614129006E+02 0.  0.
         24    2    4    4    0    0  0.49284931079E+03  0.26744956094E+03  0.30923684167E+02  0.56716143990E+03  0.79285016765E+02 0.  0.
         13    1    3    3    0    0 -0.55548885245E+03  0.50179614310E+01 -0.57953680278E+03  0.80278013859E+03  0.00000000000E+00 0.  1.
        -13    1    3    3    0    0 -0.35847716186E+03  0.70857020434E+02 -0.40632678731E+03  0.54646870999E+03  0.00000000000E+00 0. -1.
          4    1    6    6  502    0  0.35299709873E+03  0.18600889659E+03 -0.13843954810E+02  0.39924668616E+03  0.00000000000E+00 0. -1.
          3    1    5    5  503    0  0.42217752582E+03 -0.34316491657E+03  0.77884561584E+03  0.95005079684E+03  0.00000000000E+00 0. -1.
         -4    1    5    5    0  503 -0.10608223004E+01 -0.15962623007E+00  0.17453784993E+02  0.17486721679E+02  0.00000000000E+00 0.  1.
         -3    1    6    6    0  502  0.13985221205E+03  0.81440664346E+02  0.44767638977E+02  0.16791475374E+03  0.00000000000E+00 0.  1.
<mgrwt>
<rscale>  0 0.28795812E+04</rscale>
<asrwt>0</asrwt>
<pdfrwt beam="1">  1        1 0.23404525E+00 0.28795812E+04</pdfrwt>
<pdfrwt beam="2">  1       -1 0.20963902E+00 0.28795812E+04</pdfrwt>
<totfact> 0.70296312E-01</totfact>
</mgrwt>
</event>
<event>
12    1  0.2019083E-007  0.1800414E+04  0.7818608E-02  0.8706080E-01
         -2   -1    0    0    0  501 -0.00000000000E+00  0.00000000000E+00  0.34982666969E+03  0.34982666969E+03  0.00000000000E+00 0. -1.
          2   -1    0    0  501    0  0.00000000000E+00 -0.00000000000E+00 -0.23164967078E+04  0.23164967078E+04  0.00000000000E+00 0.  1.
         23    2    1    2    0    0  0.23142520306E+03  0.61556461190E+03 -0.94467675067E+03  0.11546900336E+04  0.91746904144E+02 0.  0.
        254    2    1    2    0    0 -0.23142520306E+03 -0.61556461190E+03 -0.10219932875E+04  0.15116333439E+04  0.89893696708E+03 0.  0.
        -24    2    4    4    0    0 -0.23143023024E+03  0.80643019903E+02  0.16067453872E+02  0.25938384247E+03  0.83418022811E+02 0.  0.
         24    2    4    4    0    0  0.50271873275E-02 -0.69620763180E+03 -0.10380607414E+04  0.12522495015E+04  0.76509114258E+02 0.  0.
         11    1    3    3    0    0  0.13966037504E+02  0.93380947309E+02 -0.18327073929E+03  0.20616307963E+03  0.00000000000E+00 0. -1.
        -11    1    3    3    0    0  0.21745916555E+03  0.52218366459E+03 -0.76140601138E+03  0.94852695397E+03  0.00000000000E+00 0.  1.
          2    1    6    6  502    0 -0.28847949295E+02 -0.18917099109E+03 -0.31735035571E+03  0.37057943321E+03  0.00000000000E+00 0. -1.
          3    1    5    5  503    0 -0.11413031148E+03 -0.11874124769E+01  0.22003215141E+02  0.11623802916E+03  0.00000000000E+00 0. -1.
         -4    1    5    5    0  503 -0.11729991877E+03  0.81830432380E+02 -0.59357612689E+01  0.14314581331E+03  0.00000000000E+00 0.  1.
         -1    1    6    6    0  502  0.28852976482E+02 -0.50703664071E+03 -0.72071038564E+03  0.88167006825E+03  0.00000000000E+00 0.  1.
<mgrwt>
<rscale>  0 0.18004137E+04</rscale>
<asrwt>0</asrwt>
<pdfrwt beam="1">  1        2 0.35638409E+00 0.18004137E+04</pdfrwt>
<pdfrwt beam="2">  1       -2 0.53819490E-01 0.18004137E+04</pdfrwt>
<totfact> 0.13630113E+01</totfact>
</mgrwt>
</event>
<event>
12    1  0.2019083E-007  0.1377199E+04  0.7818608E-02  0.8970490E-01
         -2   -1    0    0    0  501 -0.00000000000E+00  0.00000000000E+00  0.22406136556E+03  0.22406136556E+03  0.00000000000E+00 0.  1.
          2   -1    0    0  501    0  0.00000000000E+00 -0.00000000000E+00 -0.21162479550E+04  0.21162479550E+04  0.00000000000E+00 0. -1.
         23    2    1    2    0    0 -0.36595957048E+02 -0.38588559697E+03 -0.52064580302E+03  0.65525639352E+03  0.89676814309E+02 0.  0.
        254    2    1    2    0    0  0.36595957048E+02  0.38588559697E+03 -0.13715407864E+04  0.16850529271E+04  0.89890615755E+03 0.  0.
        -24    2    4    4    0    0 -0.40838395605E+03  0.18183780384E+03 -0.45465747050E+03  0.64265364133E+03  0.80298472962E+02 0.  0.
         24    2    4    4    0    0  0.44497991310E+03  0.20404779314E+03 -0.91688331594E+03  0.10423992857E+04  0.79237812318E+02 0.  0.
         11    1    3    3    0    0 -0.14785196131E+02 -0.13280353833E+03 -0.25386064310E+03  0.28688082531E+03  0.00000000000E+00 0. -1.
        -11    1    3    3    0    0 -0.21810760916E+02 -0.25308205864E+03 -0.26678515992E+03  0.36837556821E+03  0.00000000000E+00 0.  1.
          4    1    6    6  502    0  0.42085986215E+03  0.21069142710E+03 -0.87723368606E+03  0.99551636902E+03  0.00000000000E+00 0. -1.
          1    1    5    5  503    0 -0.67824937489E+02 -0.44159510151E+00 -0.72619525974E+02  0.99368066824E+02  0.00000000000E+00 0. -1.
         -2    1    5    5    0  503 -0.34055901856E+03  0.18227939894E+03 -0.38203794453E+03  0.54328557450E+03  0.00000000000E+00 0.  1.
         -3    1    6    6    0  502  0.24120050951E+02 -0.66436339658E+01 -0.39649629877E+02  0.46882916713E+02  0.00000000000E+00 0.  1.
<mgrwt>
<rscale>  0 0.13771992E+04</rscale>
<asrwt>0</asrwt>
<pdfrwt beam="1">  1        2 0.32557662E+00 0.13771992E+04</pdfrwt>
<pdfrwt beam="2">  1       -2 0.34470978E-01 0.13771992E+04</pdfrwt>
<totfact> 0.44298628E+01</totfact>
</mgrwt>
</event>
<event>
12    1  0.2019083E-007  0.3177037E+04  0.7818608E-02  0.8194908E-01
          1   -1    0    0  501    0  0.00000000000E+00  0.00000000000E+00  0.72122726813E+03  0.72122726813E+03  0.00000000000E+00 0. -1.
         -1   -1    0    0    0  501 -0.00000000000E+00 -0.00000000000E+00 -0.34987455124E+04  0.34987455124E+04  0.00000000000E+00 0.  1.
         23    2    1    2    0    0 -0.78562146400E+03 -0.11607599070E+04 -0.73671395045E+03  0.15854655946E+04  0.79931599739E+02 0.  0.
        254    2    1    2    0    0  0.78562146400E+03  0.11607599070E+04 -0.20408042939E+04  0.26345071859E+04  0.90065603899E+03 0.  0.
        -24    2    4    4    0    0  0.90808534408E+03  0.12060192875E+04 -0.18603139036E+04  0.23971371692E+04  0.79982961048E+02 0.  0.
         24    2    4    4    0    0 -0.12246388008E+03 -0.45259380481E+02 -0.18049039030E+03  0.23737001679E+03  0.81987379721E+02 0.  0.
         11    1    3    3    0    0 -0.27746818125E+03 -0.41489707858E+03 -0.30580523893E+03  0.58535888272E+03  0.00000000000E+00 0.  1.
        -11    1    3    3    0    0 -0.50815328275E+03 -0.74586282840E+03 -0.43090871152E+03  0.10001067119E+04  0.00000000000E+00 0. -1.
          4    1    6    6  502    0 -0.13433112969E+03 -0.38163667595E+02 -0.17006529336E+03  0.22005345244E+03  0.00000000000E+00 0. -1.
          1    1    5    5  503    0  0.77122620907E+03  0.10678245233E+04 -0.16293036439E+04  0.20951537992E+04  0.00000000000E+00 0. -1.
         -2    1    5    5    0  503  0.13685913501E+03  0.13819476412E+03 -0.23101025968E+03  0.30198336998E+03  0.00000000000E+00 0.  1.
         -3    1    6    6    0  502  0.11867249603E+02 -0.70957128857E+01 -0.10425096940E+02  0.17316564345E+02  0.00000000000E+00 0.  1.
<mgrwt>
<rscale>  0 0.31770368E+04</rscale>
<asrwt>0</asrwt>
<pdfrwt beam="1">  1        1 0.11095804E+00 0.31770368E+04</pdfrwt>
<pdfrwt beam="2">  1       -1 0.53826853E+00 0.31770368E+04</pdfrwt>
<totfact> 0.18920969E-02</totfact>
</mgrwt>
</event>
<event>
12    1  0.2019083E-007  0.1366228E+04  0.7818608E-02  0.8978634E-01
          2   -1    0    0  501    0  0.00000000000E+00  0.00000000000E+00  0.11186093647E+04  0.11186093647E+04  0.00000000000E+00 0. -1.
         -2   -1    0    0    0  501 -0.00000000000E+00 -0.00000000000E+00 -0.41716475492E+03  0.41716475492E+03  0.00000000000E+00 0.  1.
         23    2    1    2    0    0  0.25765867657E+03  0.17584844370E+03  0.45072117572E+03  0.55559157477E+03  0.90673871371E+02 0.  0.
        254    2    1    2    0    0 -0.25765867657E+03 -0.17584844370E+03  0.25072343403E+03  0.98018254483E+03  0.89475410703E+03 0.  0.
        -24    2    4    4    0    0  0.27950156660E+02  0.33972715066E+03  0.12887385280E+03  0.37306152236E+03  0.79816548275E+02 0.  0.
         24    2    4    4    0    0 -0.28560883323E+03 -0.51557559436E+03  0.12184958124E+03  0.60712102247E+03  0.79737170460E+02 0.  0.
         13    1    3    3    0    0  0.90902686163E+02  0.11072616308E+03  0.23545269136E+03  0.27561123238E+03  0.00000000000E+00 0. -1.
        -13    1    3    3    0    0  0.16675599040E+03  0.65122280625E+02  0.21526848435E+03  0.27998034239E+03  0.00000000000E+00 0.  1.
          2    1    6    6  502    0 -0.61062704046E+02 -0.18699639431E+03  0.44921949970E+02  0.20177781568E+03  0.00000000000E+00 0. -1.
          3    1    5    5  503    0  0.11557074208E+02  0.17296555186E+01  0.37009526334E+01  0.12257843320E+02  0.00000000000E+00 0. -1.
         -4    1    5    5    0  503  0.16393082452E+02  0.33799749514E+03  0.12517290016E+03  0.36080367904E+03  0.00000000000E+00 0.  1.
         -1    1    6    6    0  502 -0.22454612918E+03 -0.32857920005E+03  0.76927631267E+02  0.40534320679E+03  0.00000000000E+00 0.  1.
<mgrwt>
<rscale>  0 0.13662275E+04</rscale>
<asrwt>0</asrwt>
<pdfrwt beam="1">  1        2 0.17209375E+00 0.13662275E+04</pdfrwt>
<pdfrwt beam="2">  1       -2 0.64179193E-01 0.13662275E+04</pdfrwt>
<totfact> 0.46451942E+01</totfact>
</mgrwt>
</event>
<event>
12    1  0.2019083E-007  0.3856033E+04  0.7818608E-02  0.8034236E-01
         -1   -1    0    0    0  501 -0.00000000000E+00  0.00000000000E+00  0.13265795356E+04  0.13265795356E+04  0.00000000000E+00 0.  1.
          1   -1    0    0  501    0  0.00000000000E+00 -0.00000000000E+00 -0.28021296201E+04  0.28021296201E+04  0.00000000000E+00 0. -1.
         23    2    1    2    0    0 -0.67292401918E+03  0.46318510957E+03 -0.24410744157E+04  0.25757303869E+04  0.90418703052E+02 0.  0.
        254    2    1    2    0    0  0.67292401918E+03 -0.46318510957E+03  0.96552433108E+03  0.15529787688E+04  0.90118735080E+03 0.  0.
        -24    2    4    4    0    0 -0.15800636736E+03  0.10572609819E+03  0.14743395983E+03  0.25310830096E+03  0.78632178772E+02 0.  0.
         24    2    4    4    0    0  0.83093038654E+03 -0.56891120776E+03  0.81809037125E+03  0.12998704679E+04  0.79284980636E+02 0.  0.
         13    1    3    3    0    0 -0.39040800703E+03  0.32201438165E+03 -0.14952832179E+04  0.15786017787E+04  0.00000000000E+00 0. -1.
        -13    1    3    3    0    0 -0.28251601215E+03  0.14117072792E+03 -0.94579119777E+03  0.99712860821E+03  0.00000000000E+00 0.  1.
          4    1    6    6  502    0  0.34331654746E+03 -0.27783050943E+03  0.33562359024E+03  0.55470644313E+03  0.00000000000E+00 0. -1.
          3    1    5    5  503    0 -0.10204466940E+03  0.10279577718E+03  0.12943274638E+03  0.19424963885E+03  0.00000000000E+00 0. -1.
         -4    1    5    5    0  503 -0.55961697959E+02  0.29303210148E+01  0.18001213458E+02  0.58858662113E+02  0.00000000000E+00 0.  1.
         -3    1    6    6    0  502  0.48761383907E+03 -0.29108069833E+03  0.48246678101E+03  0.74516402474E+03  0.00000000000E+00 0.  1.
<mgrwt>
<rscale>  0 0.38560331E+04</rscale>
<asrwt>0</asrwt>
<pdfrwt beam="1">  1        1 0.43109686E+00 0.38560331E+04</pdfrwt>
<pdfrwt beam="2">  1       -1 0.20408916E+00 0.38560331E+04</pdfrwt>
<totfact> 0.92751525E-02</totfact>
</mgrwt>
</event>
<event>
12    1  0.2019083E-007  0.2526220E+04  0.7818608E-02  0.8393704E-01
          1   -1    0    0  501    0  0.00000000000E+00  0.00000000000E+00  0.90330110190E+03  0.90330110190E+03  0.00000000000E+00 0. -1.
         -1   -1    0    0    0  501 -0.00000000000E+00 -0.00000000000E+00 -0.17662396717E+04  0.17662396717E+04  0.00000000000E+00 0.  1.
         23    2    1    2    0    0 -0.86375967319E+03  0.58780240575E+03 -0.55006378248E+01  0.10483935580E+04  0.86639218743E+02 0.  0.
        254    2    1    2    0    0  0.86375967319E+03 -0.58780240575E+03 -0.85743793200E+03  0.16211472156E+04  0.89516816648E+03 0.  0.
        -24    2    4    4    0    0  0.24968878656E+03 -0.59175632365E+03 -0.11996395174E+03  0.65814928698E+03  0.79051233552E+02 0.  0.
         24    2    4    4    0    0  0.61407088663E+03  0.39539178996E+01 -0.73747398026E+03  0.96299792864E+03  0.79990322801E+02 0.  0.
         13    1    3    3    0    0 -0.75297736211E+03  0.53262953088E+03  0.17649286687E+02  0.92248610957E+03  0.00000000000E+00 0. -1.
        -13    1    3    3    0    0 -0.11078231107E+03  0.55172874873E+02 -0.23149924512E+02  0.12590744844E+03  0.00000000000E+00 0.  1.
          4    1    6    6  502    0  0.58688678066E+03  0.10700723334E+02 -0.67495372375E+03  0.89449042924E+03  0.00000000000E+00 0. -1.
          3    1    5    5  503    0  0.17340008526E+03 -0.33955549839E+03 -0.98519930016E+02  0.39379144565E+03  0.00000000000E+00 0. -1.
         -4    1    5    5    0  503  0.76288701294E+02 -0.25220082526E+03 -0.21444021727E+02  0.26435784133E+03  0.00000000000E+00 0.  1.
         -3    1    6    6    0  502  0.27184105965E+02 -0.67468054341E+01 -0.62520256508E+02  0.68507499404E+02  0.00000000000E+00 0.  1.
<mgrwt>
<rscale>  0 0.25262195E+04</rscale>
<asrwt>0</asrwt>
<pdfrwt beam="1">  1        1 0.13896940E+00 0.25262195E+04</pdfrwt>
<pdfrwt beam="2">  1       -1 0.27172917E+00 0.25262195E+04</pdfrwt>
<totfact> 0.80706885E-01</totfact>
</mgrwt>
</event>
<event>
12    1  0.2019083E-007  0.1515816E+04  0.7818608E-02  0.8874003E-01
          2   -1    0    0  501    0  0.00000000000E+00  0.00000000000E+00  0.47322841622E+03  0.47322841622E+03  0.00000000000E+00 0. -1.
         -2   -1    0    0    0  501 -0.00000000000E+00 -0.00000000000E+00 -0.12138423150E+04  0.12138423150E+04  0.00000000000E+00 0.  1.
         23    2    1    2    0    0 -0.24019593670E+03 -0.30005918403E+03  0.88276171303E+02  0.40449708518E+03  0.89975594304E+02 0.  0.
        254    2    1    2    0    0  0.24019593670E+03  0.30005918403E+03 -0.82889007004E+03  0.12825736460E+04  0.90011488560E+03 0.  0.
        -24    2    4    4    0    0 -0.33795356469E+03  0.13956875312E+03 -0.29026895171E+03  0.47321653357E+03  0.77367787757E+02 0.  0.
         24    2    4    4    0    0  0.57814950138E+03  0.16049043091E+03 -0.53862111833E+03  0.80935711243E+03  0.70229637394E+02 0.  0.
         11    1    3    3    0    0 -0.14774551018E+03 -0.16857194602E+03  0.67216242104E+01  0.22425524965E+03  0.00000000000E+00 0.  1.
        -11    1    3    3    0    0 -0.92450426512E+02 -0.13148723802E+03  0.81554547093E+02  0.18024183553E+03  0.00000000000E+00 0. -1.
          4    1    6    6  502    0  0.14720684547E+03  0.16750500222E+02 -0.15912684530E+03  0.21742076144E+03  0.00000000000E+00 0. -1.
          1    1    5    5  503    0 -0.25400089421E+02  0.34784311857E+02 -0.45324356291E+02  0.62525276226E+02  0.00000000000E+00 0. -1.
         -2    1    5    5    0  503 -0.31255347527E+03  0.10478444126E+03 -0.24494459542E+03  0.41069125734E+03  0.00000000000E+00 0.  1.
         -3    1    6    6    0  502  0.43094265591E+03  0.14373993069E+03 -0.37949427303E+03  0.59193635099E+03  0.00000000000E+00 0.  1.
<mgrwt>
<rscale>  0 0.15158162E+04</rscale>
<asrwt>0</asrwt>
<pdfrwt beam="1">  1        2 0.72804372E-01 0.15158162E+04</pdfrwt>
<pdfrwt beam="2">  1       -2 0.18674497E+00 0.15158162E+04</pdfrwt>
<totfact> 0.10316073E+01</totfact>
</mgrwt>
</event>
<event>
12    1  0.2019083E-007  0.1926657E+04  0.7818608E-02  0.8641700E-01
         -2   -1    0    0    0  501 -0.00000000000E+00  0.00000000000E+00  0.82880471608E+03  0.82880471608E+03  0.00000000000E+00 0.  1.
          2   -1    0    0  501    0  0.00000000000E+00 -0.00000000000E+00 -0.11196864272E+04  0.11196864272E+04  0.00000000000E+00 0. -1.
         23    2    1    2    0    0 -0.67542609124E+03  0.22683916229E+03  0.12109698294E+03  0.72832734613E+03  0.90221026214E+02 0.  0.
        254    2    1    2    0    0  0.67542609124E+03 -0.22683916229E+03 -0.41197869406E+03  0.12201637972E+04  0.90078678790E+03 0.  0.
        -24    2    4    4    0    0 -0.76373032836E+02  0.14484499721E+03 -0.32586419700E+03  0.37322931426E+03  0.79370855935E+02 0.  0.
         24    2    4    4    0    0  0.75179912407E+03 -0.37168415950E+03 -0.86114497056E+02  0.84693448289E+03  0.80816299889E+02 0.  0.
         13    1    3    3    0    0 -0.31728220261E+03  0.66408500648E+02  0.78969205909E+02  0.33363785836E+03  0.00000000000E+00 0.  1.
        -13    1    3    3    0    0 -0.35814388863E+03  0.16043066164E+03  0.42127777027E+02  0.39468948777E+03  0.00000000000E+00 0. -1.
          4    1    6    6  502    0  0.49262198487E+02 -0.12279000091E+02  0.10701569973E+02  0.51885081121E+02  0.00000000000E+00 0. -1.
          3    1    5    5  503    0 -0.62120988970E+02  0.40477342313E+02 -0.10508768115E+03  0.12861124850E+03  0.00000000000E+00 0. -1.
         -4    1    5    5    0  503 -0.14252043866E+02  0.10436765490E+03 -0.22077651585E+03  0.24461806575E+03  0.00000000000E+00 0.  1.
         -3    1    6    6    0  502  0.70253692559E+03 -0.35940515941E+03 -0.96816067029E+02  0.79504940177E+03  0.00000000000E+00 0.  1.
<mgrwt>
<rscale>  0 0.19266566E+04</rscale>
<asrwt>0</asrwt>
<pdfrwt beam="1">  1        2 0.17225945E+00 0.19266566E+04</pdfrwt>
<pdfrwt beam="2">  1       -2 0.12750842E+00 0.19266566E+04</pdfrwt>
<totfact> 0.90314761E+00</totfact>
</mgrwt>
</event>
<event>
12    1  0.2019083E-007  0.2166579E+04  0.7818608E-02  0.8532469E-01
         -2   -1    0    0    0  501 -0.00000000000E+00  0.00000000000E+00  0.49637141637E+03  0.49637141637E+03  0.00000000000E+00 0.  1.
          2   -1    0    0  501    0  0.00000000000E+00 -0.00000000000E+00 -0.23641903771E+04  0.23641903771E+04  0.00000000000E+00 0. -1.
         23    2    1    2    0    0 -0.52501646397E+03  0.72902987898E+03 -0.86737706405E+03  0.12521355712E+04  0.91507734607E+02 0.  0.
        254    2    1    2    0    0  0.52501646397E+03 -0.72902987898E+03 -0.10004418967E+04  0.16084262223E+04  0.88262340332E+03 0.  0.
        -24    2    4    4    0    0  0.65892519158E+03 -0.83493845020E+03 -0.81040338403E+03  0.13396261804E+04  0.80870480015E+02 0.  0.
         24    2    4    4    0    0 -0.13390872761E+03  0.10590857122E+03 -0.19003851270E+03  0.26880004198E+03  0.83610127790E+02 0.  0.
         11    1    3    3    0    0 -0.32831666535E+03  0.40272078959E+03 -0.54559178204E+03  0.75342302841E+03  0.00000000000E+00 0. -1.
        -11    1    3    3    0    0 -0.19669979862E+03  0.32630908939E+03 -0.32178528201E+03  0.49871254277E+03  0.00000000000E+00 0.  1.
          2    1    6    6  502    0 -0.76345534596E+02  0.39759436313E+02 -0.14878886444E+03  0.17189409417E+03  0.00000000000E+00 0. -1.
          1    1    5    5  503    0  0.67489462248E+02 -0.13031126059E+03 -0.11271185576E+03  0.18504003507E+03  0.00000000000E+00 0. -1.
         -2    1    5    5    0  503  0.59143572933E+03 -0.70462718961E+03 -0.69769152828E+03  0.11545861453E+04  0.00000000000E+00 0.  1.
         -1    1    6    6    0  502 -0.57563193015E+02  0.66149134909E+02 -0.41249648260E+02  0.96905947810E+02  0.00000000000E+00 0.  1.
<mgrwt>
<rscale>  0 0.21665794E+04</rscale>
<asrwt>0</asrwt>
<pdfrwt beam="1">  1        2 0.36372160E+00 0.21665794E+04</pdfrwt>
<pdfrwt beam="2">  1       -2 0.76364833E-01 0.21665794E+04</pdfrwt>
<totfact> 0.58597569E+00</totfact>
</mgrwt>
</event>
<event>
12    1  0.2019083E-007  0.1859911E+04  0.7818608E-02  0.8675072E-01
          1   -1    0    0  501    0  0.00000000000E+00  0.00000000000E+00  0.94329561654E+03  0.94329561654E+03  0.00000000000E+00 0.  1.
         -1   -1    0    0    0  501 -0.00000000000E+00 -0.00000000000E+00 -0.91680430673E+03  0.91680430673E+03  0.00000000000E+00 0. -1.
         23    2    1    2    0    0  0.67395009265E+03  0.11776844057E+03 -0.17393356234E+03  0.71178192590E+03  0.91118016652E+02 0.  0.
        254    2    1    2    0    0 -0.67395009265E+03 -0.11776844057E+03  0.20042487214E+03  0.11483179974E+04  0.90021439709E+03 0.  0.
        -24    2    4    4    0    0 -0.75802878688E+03 -0.86215811542E+02  0.43689425793E+03  0.88274932757E+03  0.79554854047E+02 0.  0.
         24    2    4    4    0    0  0.84078694237E+02 -0.31552629029E+02 -0.23646938578E+03  0.26556866980E+03  0.80895937747E+02 0.  0.
         13    1    3    3    0    0  0.25645498349E+03  0.33373278208E+02 -0.21982737746E+02  0.25954994705E+03  0.00000000000E+00 0.  1.
        -13    1    3    3    0    0  0.41749510915E+03  0.84395162364E+02 -0.15195082460E+03  0.45223197885E+03  0.00000000000E+00 0. -1.
          4    1    6    6  502    0  0.72764047517E+02  0.11096822388E+02 -0.17547419236E+03  0.19028646369E+03  0.00000000000E+00 0. -1.
          1    1    5    5  503    0 -0.48897586400E+03 -0.22432579551E+02  0.30122307913E+03  0.57474860557E+03  0.00000000000E+00 0. -1.
         -2    1    5    5    0  503 -0.26905292288E+03 -0.63783231990E+02  0.13567117880E+03  0.30800072200E+03  0.00000000000E+00 0.  1.
         -1    1    6    6    0  502  0.11314646720E+02 -0.42649451418E+02 -0.60995193422E+02  0.75282206113E+02  0.00000000000E+00 0.  1.
<mgrwt>
<rscale>  0 0.18599113E+04</rscale>
<asrwt>0</asrwt>
<pdfrwt beam="1">  1        1 0.14512240E+00 0.18599113E+04</pdfrwt>
<pdfrwt beam="2">  1       -1 0.14104682E+00 0.18599113E+04</pdfrwt>
<totfact> 0.64765502E+00</totfact>
</mgrwt>
</event>
<event>
12    1  0.2019083E-007  0.1309350E+04  0.7818608E-02  0.9022183E-01
         -1   -1    0    0    0  501 -0.00000000000E+00  0.00000000000E+00  0.15850908784E+03  0.15850908784E+03  0.00000000000E+00 0.  1.
          1   -1    0    0  501    0  0.00000000000E+00 -0.00000000000E+00 -0.27039426346E+04  0.27039426346E+04  0.00000000000E+00 0. -1.
         23    2    1    2    0    0 -0.89884962481E+02 -0.12593529598E+03 -0.11386179674E+02  0.17977845785E+03  0.90838557699E+02 0.  0.
        254    2    1    2    0    0  0.89884962481E+02  0.12593529598E+03 -0.25340473671E+04  0.26826732646E+04  0.86683376762E+03 0.  0.
        -24    2    4    4    0    0  0.10436103775E+03  0.69805241046E+02 -0.25719643374E+04  0.25762733698E+04  0.80124434538E+02 0.  0.
         24    2    4    4    0    0 -0.14476075267E+02  0.56130054935E+02  0.37916970357E+02  0.10639989479E+03  0.80765717658E+02 0.  0.
         11    1    3    3    0    0 -0.86870905472E+02 -0.95443532631E+02  0.25782669120E+02  0.13160838942E+03  0.00000000000E+00 0.  1.
        -11    1    3    3    0    0 -0.30140570097E+01 -0.30491763350E+02 -0.37168848794E+02  0.48170068430E+02  0.00000000000E+00 0. -1.
          4    1    6    6  502    0  0.20339885493E+02  0.82760853518E+01 -0.15339108048E+02  0.26786055446E+02  0.00000000000E+00 0. -1.
          3    1    5    5  503    0  0.33550295994E+02  0.69788371362E+02 -0.12184758113E+04  0.12209337991E+04  0.00000000000E+00 0. -1.
         -2    1    5    5    0  503  0.70810741754E+02  0.16869684302E-01 -0.13534885261E+04  0.13553395707E+04  0.00000000000E+00 0.  1.
         -3    1    6    6    0  502 -0.34815960760E+02  0.47853969583E+02  0.53256078405E+02  0.79613839347E+02  0.00000000000E+00 0.  1.
<mgrwt>
<rscale>  0 0.13093502E+04</rscale>
<asrwt>0</asrwt>
<pdfrwt beam="1">  1        1 0.41599113E+00 0.13093502E+04</pdfrwt>
<pdfrwt beam="2">  1       -1 0.24386016E-01 0.13093502E+04</pdfrwt>
<totfact> 0.14085558E+01</totfact>
</mgrwt>
</event>
<event>
12    1  0.2019083E-007  0.1636262E+04  0.7818608E-02  0.8798576E-01
          1   -1    0    0  501    0  0.00000000000E+00  0.00000000000E+00  0.15059821482E+04  0.15059821482E+04  0.00000000000E+00 0. -1.
         -1   -1    0    0    0  501 -0.00000000000E+00 -0.00000000000E+00 -0.44445289809E+03  0.44445289809E+03  0.00000000000E+00 0.  1.
         23    2    1    2    0    0 -0.19194467006E+03  0.47165550697E+03  0.79265339731E+02  0.52374979231E+03  0.93430066055E+02 0.  0.
        254    2    1    2    0    0  0.19194467006E+03 -0.47165550697E+03  0.98226391039E+03  0.14266852540E+04  0.90071457783E+03 0.  0.
        -24    2    4    4    0    0  0.21471835802E+03 -0.66961551052E+03  0.98272334145E+03  0.12111055024E+04  0.80885516822E+02 0.  0.
         24    2    4    4    0    0 -0.22773687959E+02  0.19796000355E+03 -0.45943105905E+00  0.21557975164E+03  0.82265511419E+02 0.  0.
         11    1    3    3    0    0 -0.17751647818E+03  0.45597938687E+03  0.56493836309E+02  0.49256558428E+03  0.00000000000E+00 0. -1.
        -11    1    3    3    0    0 -0.14428191875E+02  0.15676120096E+02  0.22771503423E+02  0.31184208025E+02  0.00000000000E+00 0.  1.
          2    1    6    6  502    0 -0.29647348498E+02  0.18213574894E+03  0.23533896542E+02  0.18602752647E+03  0.00000000000E+00 0. -1.
          1    1    5    5  503    0  0.14347137556E+03 -0.36646885523E+03  0.49398206922E+03  0.63158668618E+03  0.00000000000E+00 0. -1.
         -2    1    5    5    0  503  0.71246982455E+02 -0.30314665529E+03  0.48874127224E+03  0.57951881618E+03  0.00000000000E+00 0.  1.
         -1    1    6    6    0  502  0.68736605390E+01  0.15824254606E+02 -0.23993327601E+02  0.29552225169E+02  0.00000000000E+00 0.  1.
<mgrwt>
<rscale>  0 0.16362618E+04</rscale>
<asrwt>0</asrwt>
<pdfrwt beam="1">  1        1 0.23168956E+00 0.16362618E+04</pdfrwt>
<pdfrwt beam="2">  1       -1 0.68377370E-01 0.16362618E+04</pdfrwt>
<totfact> 0.13419127E+01</totfact>
</mgrwt>
</event>
<event>
12    1  0.2019083E-007  0.2440331E+04  0.7818608E-02  0.8424557E-01
         -2   -1    0    0    0  501 -0.00000000000E+00  0.00000000000E+00  0.98655007084E+03  0.98655007084E+03  0.00000000000E+00 0. -1.
          2   -1    0    0  501    0  0.00000000000E+00 -0.00000000000E+00 -0.15091012012E+04  0.15091012012E+04  0.00000000000E+00 0.  1.
         23    2    1    2    0    0 -0.85190337641E+03  0.59398792656E+03 -0.82430737875E+02  0.10458959917E+04  0.92426075099E+02 0.  0.
        254    2    1    2    0    0  0.85190337641E+03 -0.59398792656E+03 -0.44012039245E+03  0.14497552803E+04  0.91078174837E+03 0.  0.
        -24    2    4    4    0    0 -0.51831350612E+02 -0.40470787582E+03 -0.29971448536E+03  0.51229804814E+03  0.78393646065E+02 0.  0.
         24    2    4    4    0    0  0.90373472702E+03 -0.18928005074E+03 -0.14040590709E+03  0.93745723212E+03  0.80924958248E+02 0.  0.
         13    1    3    3    0    0 -0.10808493280E+03  0.40239824587E+02 -0.94689460892E+01  0.11572059938E+03  0.00000000000E+00 0.  1.
        -13    1    3    3    0    0 -0.74381844361E+03  0.55374810197E+03 -0.72961791786E+02  0.93017539236E+03  0.00000000000E+00 0. -1.
          4    1    6    6  502    0  0.64049068708E+03 -0.10868906528E+03 -0.70827536181E+02  0.65349688066E+03  0.00000000000E+00 0. -1.
          3    1    5    5  503    0 -0.10412689555E+02 -0.87292561290E+02 -0.10767877815E+03  0.13900767829E+03  0.00000000000E+00 0. -1.
         -4    1    5    5    0  503 -0.41418661057E+02 -0.31741531453E+03 -0.19203570720E+03  0.37329036985E+03  0.00000000000E+00 0.  1.
         -3    1    6    6    0  502  0.26324403995E+03 -0.80590985453E+02 -0.69578370914E+02  0.28396035146E+03  0.00000000000E+00 0.  1.
<mgrwt>
<rscale>  0 0.24403310E+04</rscale>
<asrwt>0</asrwt>
<pdfrwt beam="1">  1        2 0.23216942E+00 0.24403310E+04</pdfrwt>
<pdfrwt beam="2">  1       -2 0.15177693E+00 0.24403310E+04</pdfrwt>
<totfact> 0.32653417E+00</totfact>
</mgrwt>
</event>
<event>
12    1  0.2019083E-007  0.1552212E+04  0.7818608E-02  0.8850456E-01
          1   -1    0    0  501    0  0.00000000000E+00  0.00000000000E+00  0.11206311370E+04  0.11206311370E+04  0.00000000000E+00 0. -1.
         -1   -1    0    0    0  501 -0.00000000000E+00 -0.00000000000E+00 -0.53750142265E+03  0.53750142265E+03  0.00000000000E+00 0.  1.
         23    2    1    2    0    0 -0.34546342139E+03  0.33115023076E+03 -0.38741299668E+01  0.48277301907E+03  0.63634332009E+02 0.  0.
        254    2    1    2    0    0  0.34546342139E+03 -0.33115023076E+03  0.58700384433E+03  0.11753595406E+04  0.89882761727E+03 0.  0.
        -24    2    4    4    0    0  0.52489983508E+03 -0.43671277871E+03  0.17756605768E+03  0.71003077544E+03  0.79850543408E+02 0.  0.
         24    2    4    4    0    0 -0.17943641369E+03  0.10556254794E+03  0.40943778665E+03  0.46532876515E+03  0.74502888925E+02 0.  0.
         13    1    3    3    0    0 -0.10424312777E+03  0.62231747021E+02  0.32364869298E+01  0.12144914521E+03  0.00000000000E+00 0. -1.
        -13    1    3    3    0    0 -0.24122029362E+03  0.26891848374E+03 -0.71106168965E+01  0.36132387387E+03  0.00000000000E+00 0.  1.
          4    1    6    6  502    0 -0.11601129760E+03  0.79153278213E+02  0.19611638609E+03  0.24121670655E+03  0.00000000000E+00 0. -1.
          1    1    5    5  503    0  0.42903653213E+01  0.34601106779E+01  0.30368387348E+01  0.62930112025E+01  0.00000000000E+00 0. -1.
         -2    1    5    5    0  503  0.52060946976E+03 -0.44017288939E+03  0.17452921895E+03  0.70373776424E+03  0.00000000000E+00 0.  1.
         -3    1    6    6    0  502 -0.63425116090E+02  0.26409269731E+02  0.21332140055E+03  0.22411205861E+03  0.00000000000E+00 0.  1.
<mgrwt>
<rscale>  0 0.15522124E+04</rscale>
<asrwt>0</asrwt>
<pdfrwt beam="1">  1        1 0.17240479E+00 0.15522124E+04</pdfrwt>
<pdfrwt beam="2">  1       -1 0.82692527E-01 0.15522124E+04</pdfrwt>
<totfact> 0.17126464E+01</totfact>
</mgrwt>
</event>
<event>
12    1  0.2019083E-007  0.2079886E+04  0.7818608E-02  0.8570156E-01
          1   -1    0    0  501    0  0.00000000000E+00  0.00000000000E+00  0.37311653621E+03  0.37311653621E+03  0.00000000000E+00 0. -1.
         -1   -1    0    0    0  501 -0.00000000000E+00 -0.00000000000E+00 -0.28985080839E+04  0.28985080839E+04  0.00000000000E+00 0.  1.
         23    2    1    2    0    0 -0.85261893217E+02  0.83614919825E+03 -0.94292477756E+03  0.12666000249E+04  0.93559686238E+02 0.  0.
        254    2    1    2    0    0  0.85261893217E+02 -0.83614919825E+03 -0.15824667701E+04  0.20050245951E+04  0.89972633421E+03 0.  0.
        -24    2    4    4    0    0 -0.85914277216E+02  0.16441498749E+03 -0.17013813365E+03  0.26389860272E+03  0.79258670543E+02 0.  0.
         24    2    4    4    0    0  0.17117617043E+03 -0.10005641857E+04 -0.14123286364E+04  0.17411259924E+04  0.80109756027E+02 0.  0.
         13    1    3    3    0    0 -0.34600078275E+02  0.68343913977E+03 -0.77964577074E+03  0.10373686669E+04  0.00000000000E+00 0.  1.
        -13    1    3    3    0    0 -0.50661814942E+02  0.15271005848E+03 -0.16327900682E+03  0.22923135807E+03  0.00000000000E+00 0. -1.
          4    1    6    6  502    0  0.84549258803E+02 -0.33702744886E+03 -0.43686845282E+03  0.55820258287E+03  0.00000000000E+00 0. -1.
          3    1    5    5  503    0 -0.97460062861E+02  0.13036858602E+03 -0.15540883871E+03  0.22504741550E+03  0.00000000000E+00 0. -1.
         -4    1    5    5    0  503  0.11545785645E+02  0.34046401470E+02 -0.14729294938E+02  0.38851187222E+02  0.00000000000E+00 0.  1.
         -3    1    6    6    0  502  0.86626911630E+02 -0.66353673688E+03 -0.97546018361E+03  0.11829234095E+04  0.00000000000E+00 0.  1.
<mgrwt>
<rscale>  0 0.20798859E+04</rscale>
<asrwt>0</asrwt>
<pdfrwt beam="1">  1        1 0.57402545E-01 0.20798859E+04</pdfrwt>
<pdfrwt beam="2">  1       -1 0.44592432E+00 0.20798859E+04</pdfrwt>
<totfact> 0.20941524E-01</totfact>
</mgrwt>
</event>
<event>
12    1  0.2019083E-007  0.1436426E+04  0.7818608E-02  0.8927865E-01
          1   -1    0    0  501    0  0.00000000000E+00  0.00000000000E+00  0.51381244268E+03  0.51381244268E+03  0.00000000000E+00 0. -1.
         -1   -1    0    0    0  501 -0.00000000000E+00 -0.00000000000E+00 -0.10039267591E+04  0.10039267591E+04  0.00000000000E+00 0.  1.
         23    2    1    2    0    0  0.68788976843E+02 -0.14518716786E+02 -0.59504606295E+03  0.60672016812E+03  0.95324859849E+02 0.  0.
        254    2    1    2    0    0 -0.68788976843E+02  0.14518716786E+02  0.10493174651E+03  0.91101903367E+03  0.90222075559E+03 0.  0.
        -24    2    4    4    0    0  0.25301667690E+03 -0.29802407765E+03 -0.97767921141E+02  0.41080258908E+03  0.79777259545E+02 0.  0.
         24    2    4    4    0    0 -0.32180565375E+03  0.31254279443E+03  0.20269966765E+03  0.50021644459E+03  0.88811367745E+02 0.  0.
         11    1    3    3    0    0  0.74209801453E+02  0.14541148735E+02 -0.52877427605E+03  0.53415426110E+03  0.00000000000E+00 0.  1.
        -11    1    3    3    0    0 -0.54208246096E+01 -0.29059865520E+02 -0.66271786894E+02  0.72565907020E+02  0.00000000000E+00 0. -1.
          4    1    6    6  502    0 -0.10784112714E+03  0.15317663533E+03  0.54851489776E+02  0.19519599444E+03  0.00000000000E+00 0. -1.
          3    1    5    5  503    0  0.24895775115E+03 -0.27309541286E+03 -0.75596495381E+02  0.37719477263E+03  0.00000000000E+00 0. -1.
         -4    1    5    5    0  503  0.40589257512E+01 -0.24928664788E+02 -0.22171425760E+02  0.33607816451E+02  0.00000000000E+00 0.  1.
         -3    1    6    6    0  502 -0.21396452660E+03  0.15936615911E+03  0.14784817787E+03  0.30502045016E+03  0.00000000000E+00 0.  1.
<mgrwt>
<rscale>  0 0.14364262E+04</rscale>
<asrwt>0</asrwt>
<pdfrwt beam="1">  1        1 0.79048069E-01 0.14364262E+04</pdfrwt>
<pdfrwt beam="2">  1       -1 0.15445027E+00 0.14364262E+04</pdfrwt>
<totfact> 0.13371829E+01</totfact>
</mgrwt>
</event>
<event>
12    1  0.2019083E-007  0.2761584E+04  0.7818608E-02  0.8315295E-01
         -1   -1    0    0    0  501 -0.00000000000E+00  0.00000000000E+00  0.69201810184E+03  0.69201810184E+03  0.00000000000E+00 0.  1.
          1   -1    0    0  501    0  0.00000000000E+00 -0.00000000000E+00 -0.27551116250E+04  0.27551116250E+04  0.00000000000E+00 0. -1.
         23    2    1    2    0    0  0.11359237246E+04 -0.41781244131E+03 -0.12115525028E+04  0.17149448261E+04  0.91029365172E+02 0.  0.
        254    2    1    2    0    0 -0.11359237246E+04  0.41781244131E+03 -0.85154102035E+03  0.17321849007E+04  0.90025134085E+03 0.  0.
        -24    2    4    4    0    0 -0.66017625259E+03 -0.20635863627E+03 -0.55289889931E+03  0.88905082972E+03  0.79357505748E+02 0.  0.
         24    2    4    4    0    0 -0.47574747201E+03  0.62417107758E+03 -0.29864212104E+03  0.84313407100E+03  0.75912805317E+02 0.  0.
         11    1    3    3    0    0  0.26891831819E+03 -0.58411157456E+02 -0.27173478708E+03  0.38674115334E+03  0.00000000000E+00 0.  1.
        -11    1    3    3    0    0  0.86700540641E+03 -0.35940128385E+03 -0.93981771572E+03  0.13282036728E+04  0.00000000000E+00 0. -1.
          4    1    6    6  502    0 -0.28435632571E+03  0.41536918068E+03 -0.21859864764E+03  0.54879453804E+03  0.00000000000E+00 0. -1.
          1    1    5    5  503    0 -0.93267912282E+02 -0.37827308588E+02 -0.48403680722E+02  0.11168135495E+03  0.00000000000E+00 0. -1.
         -2    1    5    5    0  503 -0.56690834031E+03 -0.16853132768E+03 -0.50449521859E+03  0.77736947477E+03  0.00000000000E+00 0.  1.
         -3    1    6    6    0  502 -0.19139114630E+03  0.20880189690E+03 -0.80043473406E+02  0.29433953296E+03  0.00000000000E+00 0.  1.
<mgrwt>
<rscale>  0 0.27615844E+04</rscale>
<asrwt>0</asrwt>
<pdfrwt beam="1">  1        1 0.42386333E+00 0.27615844E+04</pdfrwt>
<pdfrwt beam="2">  1       -1 0.10646432E+00 0.27615844E+04</pdfrwt>
<totfact> 0.64183770E-01</totfact>
</mgrwt>
</event>
<event>
12    1  0.2019083E-007  0.2309992E+04  0.7818608E-02  0.8473992E-01
         -1   -1    0    0    0  501 -0.00000000000E+00  0.00000000000E+00  0.24704402471E+04  0.24704402471E+04  0.00000000000E+00 0.  1.
          1   -1    0    0  501    0  0.00000000000E+00 -0.00000000000E+00 -0.53999114699E+03  0.53999114699E+03  0.00000000000E+00 0. -1.
         23    2    1    2    0    0 -0.98571389253E+02  0.82428744477E+03  0.14696391164E+04  0.16902146535E+04  0.88432641981E+02 0.  0.
        254    2    1    2    0    0  0.98571389253E+02 -0.82428744477E+03  0.46080998367E+03  0.13202167405E+04  0.91731144685E+03 0.  0.
        -24    2    4    4    0    0  0.36066216935E+03 -0.15222607659E+01  0.15669172019E+03  0.40132894479E+03  0.80206664755E+02 0.  0.
         24    2    4    4    0    0 -0.26209078010E+03 -0.82276518400E+03  0.30411826348E+03  0.91888779573E+03  0.78947691151E+02 0.  0.
         11    1    3    3    0    0 -0.59966009875E+02  0.71059746536E+03  0.12181870762E+04  0.14115680758E+04  0.00000000000E+00 0. -1.
        -11    1    3    3    0    0 -0.38605379378E+02  0.11368997941E+03  0.25145204024E+03  0.27864657772E+03  0.00000000000E+00 0.  1.
          2    1    6    6  502    0 -0.23678292519E+02 -0.31020414204E+02  0.24254670778E+02  0.45947978068E+02  0.00000000000E+00 0. -1.
          3    1    5    5  503    0  0.12969252164E+03 -0.10778391790E+02  0.97794608232E+02  0.16278854167E+03  0.00000000000E+00 0. -1.
         -4    1    5    5    0  503  0.23096964771E+03  0.92561310246E+01  0.58897111963E+02  0.23854040312E+03  0.00000000000E+00 0.  1.
         -1    1    6    6    0  502 -0.23841248758E+03 -0.79174476980E+03  0.27986359270E+03  0.87293981766E+03  0.00000000000E+00 0.  1.
<mgrwt>
<rscale>  0 0.23099921E+04</rscale>
<asrwt>0</asrwt>
<pdfrwt beam="1">  1        1 0.83075562E-01 0.23099921E+04</pdfrwt>
<pdfrwt beam="2">  1       -1 0.38006772E+00 0.23099921E+04</pdfrwt>
<totfact> 0.35163629E-01</totfact>
</mgrwt>
</event>
<event>
12    1  0.2019083E-007  0.1794921E+04  0.7818608E-02  0.8709005E-01
          1   -1    0    0  501    0  0.00000000000E+00  0.00000000000E+00  0.76705544810E+03  0.76705544810E+03  0.00000000000E+00 0. -1.
         -1   -1    0    0    0  501 -0.00000000000E+00 -0.00000000000E+00 -0.10500354368E+04  0.10500354368E+04  0.00000000000E+00 0.  1.
         23    2    1    2    0    0 -0.49763596853E+03  0.28593373674E+03 -0.45264371552E+03  0.73667150532E+03  0.91645592195E+02 0.  0.
        254    2    1    2    0    0  0.49763596853E+03 -0.28593373674E+03  0.16966372680E+03  0.10804193796E+04  0.89951130991E+03 0.  0.
        -24    2    4    4    0    0  0.47385303496E+03  0.22994066499E+03  0.16859884288E+03  0.55874735018E+03  0.79772322024E+02 0.  0.
         24    2    4    4    0    0  0.23782933570E+02 -0.51587440173E+03  0.10648839197E+01  0.52167202942E+03  0.73814267026E+02 0.  0.
         11    1    3    3    0    0 -0.94854757891E+02  0.69916088070E+02 -0.13963736951E+03  0.18271365419E+03  0.00000000000E+00 0.  1.
        -11    1    3    3    0    0 -0.40278121064E+03  0.21601764867E+03 -0.31300634601E+03  0.55395785113E+03  0.00000000000E+00 0. -1.
          4    1    6    6  502    0  0.37998387799E+02 -0.38259406263E+03 -0.24353339612E+02  0.38524690704E+03  0.00000000000E+00 0. -1.
          1    1    5    5  503    0  0.47458814670E+03  0.22831557202E+03  0.17272474476E+03  0.55425242162E+03  0.00000000000E+00 0. -1.
         -2    1    5    5    0  503 -0.73511174268E+00  0.16250929618E+01 -0.41259018848E+01  0.44949285614E+01  0.00000000000E+00 0.  1.
         -3    1    6    6    0  502 -0.14215454229E+02 -0.13328033910E+03  0.25418223532E+02  0.13642512238E+03  0.00000000000E+00 0.  1.
<mgrwt>
<rscale>  0 0.17949211E+04</rscale>
<asrwt>0</asrwt>
<pdfrwt beam="1">  1        1 0.11800853E+00 0.17949211E+04</pdfrwt>
<pdfrwt beam="2">  1       -1 0.16154391E+00 0.17949211E+04</pdfrwt>
<totfact> 0.63494713E+00</totfact>
</mgrwt>
</event>
<event>
12    1  0.2019083E-007  0.2439815E+04  0.7818608E-02  0.8424746E-01
          1   -1    0    0  501    0  0.00000000000E+00  0.00000000000E+00  0.10813367197E+04  0.10813367197E+04  0.00000000000E+00 0. -1.
         -1   -1    0    0    0  501 -0.00000000000E+00 -0.00000000000E+00 -0.13762361757E+04  0.13762361757E+04  0.00000000000E+00 0.  1.
         23    2    1    2    0    0  0.97689371390E+03 -0.37278509993E+03  0.26578538525E+01  0.10476632499E+04  0.65583244712E+02 0.  0.
        254    2    1    2    0    0 -0.97689371390E+03  0.37278509993E+03 -0.29755730985E+03  0.14099096456E+04  0.89778326840E+03 0.  0.
        -24    2    4    4    0    0 -0.91926063470E+03 -0.60295176641E+02 -0.12784593903E+03  0.93353816304E+03  0.80456788984E+02 0.  0.
         24    2    4    4    0    0 -0.57633079206E+02  0.43308027657E+03 -0.16971137082E+03  0.47637148253E+03  0.85133672543E+02 0.  0.
         13    1    3    3    0    0  0.61126631026E+03 -0.26649995488E+03 -0.38221660468E+01  0.66684581198E+03  0.00000000000E+00 0.  1.
        -13    1    3    3    0    0  0.36562740364E+03 -0.10628514505E+03  0.64800198993E+01  0.38081743790E+03  0.00000000000E+00 0. -1.
          4    1    6    6  502    0  0.91197748540E+00  0.13133398910E+03 -0.14800527662E+02  0.13216846831E+03  0.00000000000E+00 0. -1.
          1    1    5    5  503    0 -0.39593567892E+00 -0.12058522979E+01  0.32506804530E+01  0.34896659200E+01  0.00000000000E+00 0. -1.
         -2    1    5    5    0  503 -0.91886469902E+03 -0.59089324343E+02 -0.13109661948E+03  0.93004849712E+03  0.00000000000E+00 0.  1.
         -3    1    6    6    0  502 -0.58545056692E+02  0.30174628747E+03 -0.15491084316E+03  0.34420301422E+03  0.00000000000E+00 0.  1.
<mgrwt>
<rscale>  0 0.24398153E+04</rscale>
<asrwt>0</asrwt>
<pdfrwt beam="1">  1        1 0.16635950E+00 0.24398153E+04</pdfrwt>
<pdfrwt beam="2">  1       -1 0.21172864E+00 0.24398153E+04</pdfrwt>
<totfact> 0.14636181E+00</totfact>
</mgrwt>
</event>
<event>
12    1  0.2019083E-007  0.1219004E+04  0.7818608E-02  0.9096383E-01
         -3   -1    0    0    0  501 -0.00000000000E+00  0.00000000000E+00  0.17035772353E+04  0.17035772353E+04  0.00000000000E+00 0.  1.
          3   -1    0    0  501    0  0.00000000000E+00 -0.00000000000E+00 -0.21806632669E+03  0.21806632669E+03  0.00000000000E+00 0. -1.
         23    2    1    2    0    0 -0.13628418087E+03 -0.79438589725E+02  0.64198915577E+01  0.18343189918E+03  0.93392607504E+02 0.  0.
        254    2    1    2    0    0  0.13628418087E+03  0.79438589725E+02  0.14790910171E+04  0.17382116628E+04  0.89932512505E+03 0.  0.
        -24    2    4    4    0    0  0.77967322813E+02  0.46116523249E+03  0.10681265987E+04  0.11686792098E+04  0.78513627138E+02 0.  0.
         24    2    4    4    0    0  0.58316858057E+02 -0.38172664277E+03  0.41096441840E+03  0.56953245299E+03  0.79745696354E+02 0.  0.
         13    1    3    3    0    0 -0.84430629779E+02 -0.88258273154E+02 -0.21289729346E+02  0.12398107356E+03  0.00000000000E+00 0. -1.
        -13    1    3    3    0    0 -0.51853551090E+02  0.88196834290E+01  0.27709620904E+02  0.59450825622E+02  0.00000000000E+00 0.  1.
          4    1    6    6  502    0  0.47742682086E+02 -0.10391854557E+03  0.14624496509E+03  0.18565025618E+03  0.00000000000E+00 0. -1.
          3    1    5    5  503    0  0.47469559405E+02  0.13834434439E+03  0.26736768106E+03  0.30475891057E+03  0.00000000000E+00 0. -1.
         -4    1    5    5    0  503  0.30497763408E+02  0.32282088810E+03  0.80075891760E+03  0.86392029927E+03  0.00000000000E+00 0.  1.
         -3    1    6    6    0  502  0.10574175971E+02 -0.27780809720E+03  0.26471945331E+03  0.38388219681E+03  0.00000000000E+00 0.  1.
<mgrwt>
<rscale>  0 0.12190042E+04</rscale>
<asrwt>0</asrwt>
<pdfrwt beam="1">  1        3 0.33548667E-01 0.12190042E+04</pdfrwt>
<pdfrwt beam="2">  1       -3 0.26208880E+00 0.12190042E+04</pdfrwt>
<totfact> 0.14168931E+00</totfact>
</mgrwt>
</event>
<event>
12    1  0.2019083E-007  0.1977020E+04  0.7818608E-02  0.8617441E-01
         -1   -1    0    0    0  501 -0.00000000000E+00  0.00000000000E+00  0.38641187020E+03  0.38641187020E+03  0.00000000000E+00 0.  1.
          1   -1    0    0  501    0  0.00000000000E+00 -0.00000000000E+00 -0.25287824146E+04  0.25287824146E+04  0.00000000000E+00 0. -1.
         23    2    1    2    0    0 -0.70027659348E+03 -0.34428683994E+03 -0.83567676749E+03  0.11470513402E+04  0.91925958180E+02 0.  0.
        254    2    1    2    0    0  0.70027659348E+03  0.34428683994E+03 -0.13066937769E+04  0.17681429446E+04  0.89997783884E+03 0.  0.
        -24    2    4    4    0    0  0.73562280904E+03  0.35535684312E+03 -0.50973199002E+03  0.96641747933E+03  0.81955107091E+02 0.  0.
         24    2    4    4    0    0 -0.35346215558E+02 -0.11070003175E+02 -0.79696178691E+03  0.80172546528E+03  0.79017289059E+02 0.  0.
         11    1    3    3    0    0 -0.44964320000E+03 -0.17483891283E+03 -0.53782916846E+03  0.72250111916E+03  0.00000000000E+00 0. -1.
        -11    1    3    3    0    0 -0.25063339348E+03 -0.16944792712E+03 -0.29784759903E+03  0.42455022104E+03  0.00000000000E+00 0.  1.
          4    1    6    6  502    0 -0.86920239867E+01  0.77469312201E+01 -0.14556673734E+02  0.18640358755E+02  0.00000000000E+00 0. -1.
          3    1    5    5  503    0  0.35216365852E+03  0.14126868363E+03 -0.27351396437E+03  0.46774562752E+03  0.00000000000E+00 0. -1.
         -4    1    5    5    0  503  0.38345915052E+03  0.21408815949E+03 -0.23621802566E+03  0.49867185182E+03  0.00000000000E+00 0.  1.
         -3    1    6    6    0  502 -0.26654191572E+02 -0.18816934395E+02 -0.78240511317E+03  0.78308510653E+03  0.00000000000E+00 0.  1.
<mgrwt>
<rscale>  0 0.19770195E+04</rscale>
<asrwt>0</asrwt>
<pdfrwt beam="1">  1        1 0.38904344E+00 0.19770195E+04</pdfrwt>
<pdfrwt beam="2">  1       -1 0.59447981E-01 0.19770195E+04</pdfrwt>
<totfact> 0.34515616E+00</totfact>
</mgrwt>
</event>
<event>
12    1  0.2019083E-007  0.1812596E+04  0.7818608E-02  0.8699630E-01
         -1   -1    0    0    0  501 -0.00000000000E+00  0.00000000000E+00  0.69255366222E+03  0.69255366222E+03  0.00000000000E+00 0.  1.
          1   -1    0    0  501    0  0.00000000000E+00 -0.00000000000E+00 -0.11860105050E+04  0.11860105050E+04  0.00000000000E+00 0. -1.
         23    2    1    2    0    0 -0.25074166784E+02  0.55690254857E+03 -0.58496298615E+03  0.81317931530E+03  0.91157782045E+02 0.  0.
        254    2    1    2    0    0  0.25074166784E+02 -0.55690254857E+03  0.91506143321E+02  0.10653848520E+04  0.90327312929E+03 0.  0.
        -24    2    4    4    0    0  0.38141474230E+03 -0.21357606351E+03  0.28534211673E+03  0.52798101480E+03  0.79068880493E+02 0.  0.
         24    2    4    4    0    0 -0.35634057552E+03 -0.34332648506E+03 -0.19383597341E+03  0.53740383717E+03  0.79867506008E+02 0.  0.
         11    1    3    3    0    0  0.25289672109E+02  0.37863293586E+03 -0.38432046555E+03  0.54009692452E+03  0.00000000000E+00 0.  1.
        -11    1    3    3    0    0 -0.50363838894E+02  0.17826961270E+03 -0.20064252060E+03  0.27308239078E+03  0.00000000000E+00 0. -1.
          4    1    6    6  502    0 -0.34580826358E+03 -0.34304261155E+03 -0.19836242770E+03  0.52593653726E+03  0.00000000000E+00 0. -1.
          1    1    5    5  503    0  0.33028909912E+03 -0.21168759309E+03  0.24209633655E+03  0.46099149909E+03  0.00000000000E+00 0. -1.
         -2    1    5    5    0  503  0.51125643182E+02 -0.18884704149E+01  0.43245780179E+02  0.66989515707E+02  0.00000000000E+00 0.  1.
         -3    1    6    6    0  502 -0.10532311931E+02 -0.28387351416E+00  0.45264542945E+01  0.11467299912E+02  0.00000000000E+00 0.  1.
<mgrwt>
<rscale>  0 0.18125958E+04</rscale>
<asrwt>0</asrwt>
<pdfrwt beam="1">  1        1 0.18246315E+00 0.18125958E+04</pdfrwt>
<pdfrwt beam="2">  1       -1 0.10654672E+00 0.18125958E+04</pdfrwt>
<totfact> 0.84860067E+00</totfact>
</mgrwt>
</event>
<event>
12    1  0.2019083E-007  0.1131813E+04  0.7818608E-02  0.9174728E-01
         -1   -1    0    0    0  501 -0.00000000000E+00  0.00000000000E+00  0.37464878503E+03  0.37464878503E+03  0.00000000000E+00 0.  1.
          1   -1    0    0  501    0  0.00000000000E+00 -0.00000000000E+00 -0.85480108419E+03  0.85480108419E+03  0.00000000000E+00 0. -1.
         23    2    1    2    0    0 -0.54312809639E+02 -0.17746637534E+03 -0.12171989339E+03  0.24267254411E+03  0.98132744546E+02 0.  0.
        254    2    1    2    0    0  0.54312809639E+02  0.17746637534E+03 -0.35843240578E+03  0.98677732511E+03  0.90045072278E+03 0.  0.
        -24    2    4    4    0    0 -0.35133214348E+03  0.30995758295E+03 -0.11428460321E+03  0.48884940793E+03  0.80029962068E+02 0.  0.
         24    2    4    4    0    0  0.40564495312E+03 -0.13249120761E+03 -0.24414780257E+03  0.49792791718E+03  0.78881639963E+02 0.  0.
         11    1    3    3    0    0 -0.24245397583E+02 -0.11860459037E+03 -0.12812127085E+03  0.17626669624E+03  0.00000000000E+00 0. -1.
        -11    1    3    3    0    0 -0.30067412055E+02 -0.58861784975E+02  0.64013774615E+01  0.66405847872E+02  0.00000000000E+00 0.  1.
          4    1    6    6  502    0  0.38468491911E+03 -0.12380668919E+03 -0.20612281144E+03  0.45364875915E+03  0.00000000000E+00 0. -1.
          3    1    5    5  503    0 -0.20624809760E+03  0.22677253562E+03 -0.92555461946E+02  0.32020395721E+03  0.00000000000E+00 0. -1.
         -4    1    5    5    0  503 -0.14508404588E+03  0.83185047331E+02 -0.21729141265E+02  0.16864545072E+03  0.00000000000E+00 0.  1.
         -3    1    6    6    0  502  0.20960034011E+02 -0.86845184150E+01 -0.38024991131E+02  0.44279158035E+02  0.00000000000E+00 0.  1.
<mgrwt>
<rscale>  0 0.11318130E+04</rscale>
<asrwt>0</asrwt>
<pdfrwt beam="1">  1        1 0.13150786E+00 0.11318130E+04</pdfrwt>
<pdfrwt beam="2">  1       -1 0.57638275E-01 0.11318130E+04</pdfrwt>
<totfact> 0.60154198E+01</totfact>
</mgrwt>
</event>
<event>
12    1  0.2019083E-007  0.2473227E+04  0.7818608E-02  0.8412586E-01
         -2   -1    0    0    0  501 -0.00000000000E+00  0.00000000000E+00  0.79211600021E+03  0.79211600021E+03  0.00000000000E+00 0.  1.
          2   -1    0    0  501    0  0.00000000000E+00 -0.00000000000E+00 -0.19305424210E+04  0.19305424210E+04  0.00000000000E+00 0. -1.
         23    2    1    2    0    0 -0.77986414618E+03  0.61423595902E+03 -0.93540649167E+03  0.13669429938E+04  0.89855127308E+02 0.  0.
        254    2    1    2    0    0  0.77986414618E+03 -0.61423595902E+03 -0.20301992912E+03  0.13557154274E+04  0.90070712697E+03 0.  0.
        -24    2    4    4    0    0  0.19722653556E+03 -0.70868627608E+03 -0.54420928445E+02  0.74187148052E+03  0.79228226742E+02 0.  0.
         24    2    4    4    0    0  0.58263761061E+03  0.94450317066E+02 -0.14859900067E+03  0.61384394686E+03  0.79594474685E+02 0.  0.
         11    1    3    3    0    0 -0.26530758830E+03  0.15664632157E+03 -0.29705504687E+03  0.42798117639E+03  0.00000000000E+00 0. -1.
        -11    1    3    3    0    0 -0.51455655787E+03  0.45758963744E+03 -0.63835144480E+03  0.93896181745E+03  0.00000000000E+00 0.  1.
          4    1    6    6  502    0  0.13337810724E+03  0.49904013293E+02 -0.15959047435E+02  0.14329976005E+03  0.00000000000E+00 0. -1.
          1    1    5    5  503    0  0.45213499511E+02 -0.30340925767E+03 -0.12791034305E+02  0.30702613690E+03  0.00000000000E+00 0. -1.
         -2    1    5    5    0  503  0.15201303605E+03 -0.40527701841E+03 -0.41629894140E+02  0.43484534362E+03  0.00000000000E+00 0.  1.
         -3    1    6    6    0  502  0.44925950337E+03  0.44546303773E+02 -0.13263995324E+03  0.47054418681E+03  0.00000000000E+00 0.  1.
<mgrwt>
<rscale>  0 0.24732275E+04</rscale>
<asrwt>0</asrwt>
<pdfrwt beam="1">  1        2 0.29700652E+00 0.24732275E+04</pdfrwt>
<pdfrwt beam="2">  1       -2 0.12186400E+00 0.24732275E+04</pdfrwt>
<totfact> 0.33355254E+00</totfact>
</mgrwt>
</event>
<event>
12    1  0.2019083E-007  0.2613543E+04  0.7818608E-02  0.8363615E-01
         -1   -1    0    0    0  501 -0.00000000000E+00  0.00000000000E+00  0.10655910288E+04  0.10655910288E+04  0.00000000000E+00 0.  1.
          1   -1    0    0  501    0  0.00000000000E+00 -0.00000000000E+00 -0.16025397883E+04  0.16025397883E+04  0.00000000000E+00 0. -1.
         23    2    1    2    0    0 -0.20656835138E+03 -0.57032243232E+03 -0.12310820567E+04  0.13755234258E+04  0.92539202392E+02 0.  0.
        254    2    1    2    0    0  0.20656835138E+03  0.57032243232E+03  0.69413329717E+03  0.12926073913E+04  0.90613170849E+03 0.  0.
        -24    2    4    4    0    0  0.45354420920E+03  0.58335583564E+03  0.71586990929E+03  0.10319658372E+04  0.80482180712E+02 0.  0.
         24    2    4    4    0    0 -0.24697585783E+03 -0.13033403312E+02 -0.21736612118E+02  0.26064155409E+03  0.79338486649E+02 0.  0.
         13    1    3    3    0    0 -0.21441914064E+03 -0.53432833411E+03 -0.11741406900E+04  0.13077035965E+04  0.00000000000E+00 0. -1.
        -13    1    3    3    0    0  0.78507892645E+01 -0.35994098209E+02 -0.56941366774E+02  0.67819829313E+02  0.00000000000E+00 0.  1.
          2    1    6    6  502    0 -0.15381794333E+03 -0.43478225613E+02  0.17739204566E+01  0.15985450443E+03  0.00000000000E+00 0. -1.
          3    1    5    5  503    0  0.19673326252E+03  0.31847666354E+03  0.35709598614E+03  0.51734795362E+03  0.00000000000E+00 0. -1.
         -4    1    5    5    0  503  0.25681094668E+03  0.26487917210E+03  0.35877392315E+03  0.51461788356E+03  0.00000000000E+00 0.  1.
         -1    1    6    6    0  502 -0.93157914492E+02  0.30444822301E+02 -0.23510532574E+02  0.10078704966E+03  0.00000000000E+00 0.  1.
<mgrwt>
<rscale>  0 0.26135432E+04</rscale>
<asrwt>0</asrwt>
<pdfrwt beam="1">  1        1 0.24654458E+00 0.26135432E+04</pdfrwt>
<pdfrwt beam="2">  1       -1 0.16393708E+00 0.26135432E+04</pdfrwt>
<totfact> 0.13344876E+00</totfact>
</mgrwt>
</event>
<event>
12    1  0.2019083E-007  0.1081190E+04  0.7818608E-02  0.9223722E-01
          1   -1    0    0  501    0  0.00000000000E+00  0.00000000000E+00  0.18059102160E+03  0.18059102160E+03  0.00000000000E+00 0. -1.
         -1   -1    0    0    0  501 -0.00000000000E+00 -0.00000000000E+00 -0.16182574701E+04  0.16182574701E+04  0.00000000000E+00 0.  1.
         23    2    1    2    0    0 -0.11474321558E+03 -0.82913571497E+02 -0.25186143019E+03  0.30299634572E+03  0.91279459057E+02 0.  0.
        254    2    1    2    0    0  0.11474321558E+03  0.82913571497E+02 -0.11858050183E+04  0.14958521460E+04  0.90077712855E+03 0.  0.
        -24    2    4    4    0    0  0.72759376005E+02 -0.15443944626E+03  0.79744171961E+02  0.20514680412E+03  0.81120952409E+02 0.  0.
         24    2    4    4    0    0  0.41983839570E+02  0.23735301776E+03 -0.12655491903E+04  0.12907053419E+04  0.78780890379E+02 0.  0.
         11    1    3    3    0    0 -0.55814193355E+02  0.11295624405E+02 -0.75958569439E+02  0.94934290864E+02  0.00000000000E+00 0.  1.
        -11    1    3    3    0    0 -0.58929022220E+02 -0.94209195901E+02 -0.17590286075E+03  0.20806205486E+03  0.00000000000E+00 0. -1.
          2    1    6    6  502    0  0.13548738012E+02  0.43899244665E+02 -0.43644290537E+03  0.43885432848E+03  0.00000000000E+00 0. -1.
          1    1    5    5  503    0  0.46163349047E+02 -0.15236206185E+03  0.54100179947E+02  0.16814304076E+03  0.00000000000E+00 0. -1.
         -2    1    5    5    0  503  0.26596026958E+02 -0.20773844090E+01  0.25643992014E+02  0.37003763353E+02  0.00000000000E+00 0.  1.
         -1    1    6    6    0  502  0.28435101558E+02  0.19345377309E+03 -0.82910628493E+03  0.85185101340E+03  0.00000000000E+00 0.  1.
<mgrwt>
<rscale>  0 0.10811897E+04</rscale>
<asrwt>0</asrwt>
<pdfrwt beam="1">  1        1 0.27783233E-01 0.10811897E+04</pdfrwt>
<pdfrwt beam="2">  1       -1 0.24896270E+00 0.10811897E+04</pdfrwt>
<totfact> 0.12064097E+01</totfact>
</mgrwt>
</event>
<event>
12    1  0.2019083E-007  0.1691964E+04  0.7818608E-02  0.8765961E-01
         -2   -1    0    0    0  501 -0.00000000000E+00  0.00000000000E+00  0.96560495043E+03  0.96560495043E+03  0.00000000000E+00 0.  1.
          2   -1    0    0  501    0  0.00000000000E+00 -0.00000000000E+00 -0.74117816223E+03  0.74117816223E+03  0.00000000000E+00 0. -1.
         23    2    1    2    0    0  0.44179117113E+02  0.49802756495E+03 -0.25854853897E+03  0.57024885722E+03  0.91395636193E+02 0.  0.
        254    2    1    2    0    0 -0.44179117113E+02 -0.49802756495E+03  0.48297532717E+03  0.11365342554E+04  0.89914498124E+03 0.  0.
        -24    2    4    4    0    0  0.36703157409E+03 -0.30498092091E+03  0.22053962233E+02  0.48431935739E+03  0.79707742376E+02 0.  0.
         24    2    4    4    0    0 -0.41121069120E+03 -0.19304664404E+03  0.46092136493E+03  0.65221489805E+03  0.81083470928E+02 0.  0.
         13    1    3    3    0    0  0.72297962516E+02  0.38299257156E+03 -0.19374883617E+03  0.43525729950E+03  0.00000000000E+00 0. -1.
        -13    1    3    3    0    0 -0.28118845403E+02  0.11503499340E+03 -0.64799702794E+02  0.13499155772E+03  0.00000000000E+00 0.  1.
          4    1    6    6  502    0 -0.12107365808E+03 -0.73291870898E+02  0.19429633418E+03  0.24037802416E+03  0.00000000000E+00 0. -1.
          1    1    5    5  503    0  0.18377633249E+03 -0.10535632059E+03 -0.57523361283E+01  0.21191220833E+03  0.00000000000E+00 0. -1.
         -2    1    5    5    0  503  0.18325524160E+03 -0.19962460032E+03  0.27806298362E+02  0.27240714905E+03  0.00000000000E+00 0.  1.
         -3    1    6    6    0  502 -0.29013703312E+03 -0.11975477314E+03  0.26662503075E+03  0.41183687389E+03  0.00000000000E+00 0.  1.
<mgrwt>
<rscale>  0 0.16919637E+04</rscale>
<asrwt>0</asrwt>
<pdfrwt beam="1">  1        2 0.11402741E+00 0.16919637E+04</pdfrwt>
<pdfrwt beam="2">  1       -2 0.14855461E+00 0.16919637E+04</pdfrwt>
<totfact> 0.11140499E+01</totfact>
</mgrwt>
</event>
<event>
12    1  0.2019083E-007  0.1787686E+04  0.7818608E-02  0.8712875E-01
          1   -1    0    0  501    0  0.00000000000E+00  0.00000000000E+00  0.89844276656E+03  0.89844276656E+03  0.00000000000E+00 0. -1.
         -1   -1    0    0    0  501 -0.00000000000E+00 -0.00000000000E+00 -0.88926679189E+03  0.88926679189E+03  0.00000000000E+00 0.  1.
         23    2    1    2    0    0 -0.31891669003E+03  0.34462567941E+03 -0.46486350019E+03  0.66689991808E+03  0.90458348688E+02 0.  0.
        254    2    1    2    0    0  0.31891669003E+03 -0.34462567941E+03  0.47403947486E+03  0.11208096404E+04  0.90056988188E+03 0.  0.
        -24    2    4    4    0    0 -0.20107478695E+03  0.11922129309E+03  0.31741553733E+03  0.40218578547E+03  0.79724500810E+02 0.  0.
         24    2    4    4    0    0  0.51999147698E+03 -0.46384697249E+03  0.15662393753E+03  0.71862385490E+03  0.79649463321E+02 0.  0.
         11    1    3    3    0    0 -0.18290233692E+02  0.34417302821E+02 -0.77191937281E+02  0.86473571472E+02  0.00000000000E+00 0.  1.
        -11    1    3    3    0    0 -0.30062645634E+03  0.31020837659E+03 -0.38767156290E+03  0.58042634661E+03  0.00000000000E+00 0. -1.
          4    1    6    6  502    0  0.47852690599E+03 -0.41917449502E+03  0.16472530077E+03  0.65713749075E+03  0.00000000000E+00 0. -1.
          1    1    5    5  503    0 -0.15492458057E+03  0.11655163746E+03  0.21313801495E+03  0.28812102193E+03  0.00000000000E+00 0. -1.
         -2    1    5    5    0  503 -0.46150206375E+02  0.26696556262E+01  0.10427752238E+03  0.11406476354E+03  0.00000000000E+00 0.  1.
         -3    1    6    6    0  502  0.41464570987E+02 -0.44672477470E+02 -0.81013632395E+01  0.61486364153E+02  0.00000000000E+00 0.  1.
<mgrwt>
<rscale>  0 0.17876860E+04</rscale>
<asrwt>0</asrwt>
<pdfrwt beam="1">  1        1 0.13822196E+00 0.17876860E+04</pdfrwt>
<pdfrwt beam="2">  1       -1 0.13681028E+00 0.17876860E+04</pdfrwt>
<totfact> 0.76744133E+00</totfact>
</mgrwt>
</event>
<event>
12    1  0.2019083E-007  0.1138978E+04  0.7818608E-02  0.9168013E-01
         -1   -1    0    0    0  501 -0.00000000000E+00  0.00000000000E+00  0.17843756169E+03  0.17843756169E+03  0.00000000000E+00 0.  1.
          1   -1    0    0  501    0  0.00000000000E+00 -0.00000000000E+00 -0.18175403673E+04  0.18175403673E+04  0.00000000000E+00 0. -1.
         23    2    1    2    0    0 -0.66846007425E+02  0.11811041700E+03 -0.56516364079E+03  0.58817895123E+03  0.90144764024E+02 0.  0.
        254    2    1    2    0    0  0.66846007425E+02 -0.11811041700E+03 -0.10739391648E+04  0.14077989778E+04  0.90007453732E+03 0.  0.
        -24    2    4    4    0    0 -0.38280983883E+03  0.62553960569E+02 -0.32663720808E+03  0.51351947661E+03  0.80956880277E+02 0.  0.
         24    2    4    4    0    0  0.44965584626E+03 -0.18066437757E+03 -0.74730195674E+03  0.89427950115E+03  0.80284582776E+02 0.  0.
         13    1    3    3    0    0 -0.60126105356E+02  0.82669187910E+02 -0.23788260700E+03  0.25891596684E+03  0.00000000000E+00 0.  1.
        -13    1    3    3    0    0 -0.67199020692E+01  0.35441229092E+02 -0.32728103380E+03  0.32926298438E+03  0.00000000000E+00 0. -1.
          4    1    6    6  502    0  0.38482059615E+03 -0.13579407458E+03 -0.57823819214E+03  0.70773323277E+03  0.00000000000E+00 0. -1.
          1    1    5    5  503    0 -0.30136218566E+03  0.21005483224E+02 -0.27498197053E+03  0.40850395517E+03  0.00000000000E+00 0. -1.
         -2    1    5    5    0  503 -0.81447653175E+02  0.41548477345E+02 -0.51655237547E+02  0.10501552144E+03  0.00000000000E+00 0.  1.
         -3    1    6    6    0  502  0.64835250109E+02 -0.44870302987E+02 -0.16906376460E+03  0.18654626839E+03  0.00000000000E+00 0.  1.
<mgrwt>
<rscale>  0 0.11389776E+04</rscale>
<asrwt>0</asrwt>
<pdfrwt beam="1">  1        1 0.27962159E+00 0.11389776E+04</pdfrwt>
<pdfrwt beam="2">  1       -1 0.27451934E-01 0.11389776E+04</pdfrwt>
<totfact> 0.47000006E+01</totfact>
</mgrwt>
</event>
<event>
12    1  0.2019083E-007  0.2858259E+04  0.7818608E-02  0.8285406E-01
         -2   -1    0    0    0  501 -0.00000000000E+00  0.00000000000E+00  0.12128246167E+04  0.12128246167E+04  0.00000000000E+00 0. -1.
          2   -1    0    0  501    0  0.00000000000E+00 -0.00000000000E+00 -0.16840119932E+04  0.16840119932E+04  0.00000000000E+00 0.  1.
         23    2    1    2    0    0 -0.66410687706E+03 -0.58339031748E+03 -0.11582110980E+04  0.14598516408E+04  0.91277922501E+02 0.  0.
        254    2    1    2    0    0  0.66410687706E+03  0.58339031748E+03  0.68702372151E+03  0.14369849691E+04  0.90085625973E+03 0.  0.
        -24    2    4    4    0    0  0.75768738143E+03  0.71235091504E+03  0.43951771643E+03  0.11318010888E+04  0.79144724578E+02 0.  0.
         24    2    4    4    0    0 -0.93580504363E+02 -0.12896059756E+03  0.24750600508E+03  0.30518388026E+03  0.80559491668E+02 0.  0.
         11    1    3    3    0    0 -0.31163693310E+03 -0.32043885195E+03 -0.53583677354E+03  0.69779630537E+03  0.00000000000E+00 0.  1.
        -11    1    3    3    0    0 -0.35246994396E+03 -0.26295146553E+03 -0.62237432442E+03  0.76205533547E+03  0.00000000000E+00 0. -1.
          4    1    6    6  502    0 -0.50516909662E+02 -0.80440142769E+02  0.20942213543E+03  0.22995696453E+03  0.00000000000E+00 0. -1.
          1    1    5    5  503    0  0.66171502541E+03  0.58303516039E+03  0.37340257905E+03  0.95771930081E+03  0.00000000000E+00 0. -1.
         -2    1    5    5    0  503  0.95972356020E+02  0.12931575465E+03  0.66115137372E+02  0.17408178799E+03  0.00000000000E+00 0.  1.
         -3    1    6    6    0  502 -0.43063594700E+02 -0.48520454789E+02  0.38083869656E+02  0.75226915724E+02  0.00000000000E+00 0.  1.
<mgrwt>
<rscale>  0 0.28582591E+04</rscale>
<asrwt>0</asrwt>
<pdfrwt beam="1">  1        2 0.25907877E+00 0.28582591E+04</pdfrwt>
<pdfrwt beam="2">  1       -2 0.18658840E+00 0.28582591E+04</pdfrwt>
<totfact> 0.14170278E+00</totfact>
</mgrwt>
</event>
<event>
12    1  0.2019083E-007  0.2294639E+04  0.7818608E-02  0.8480038E-01
          2   -1    0    0  501    0  0.00000000000E+00  0.00000000000E+00  0.30963352851E+04  0.30963352851E+04  0.00000000000E+00 0. -1.
         -2   -1    0    0    0  501 -0.00000000000E+00 -0.00000000000E+00 -0.42512897519E+03  0.42512897519E+03  0.00000000000E+00 0.  1.
         23    2    1    2    0    0  0.55402589972E+03 -0.69781789515E+03  0.17049847681E+04  0.19266712001E+04  0.10580331569E+03 0.  0.
        254    2    1    2    0    0 -0.55402589972E+03  0.69781789515E+03  0.96622154185E+03  0.15947930602E+04  0.90326426064E+03 0.  0.
        -24    2    4    4    0    0  0.23048874758E+03  0.13652096417E+03  0.10287147364E+03  0.29772377872E+03  0.79333926608E+02 0.  0.
         24    2    4    4    0    0 -0.78451464729E+03  0.56129693099E+03  0.86335006822E+03  0.12970692815E+04  0.80609578281E+02 0.  0.
         11    1    3    3    0    0  0.18775949512E+03 -0.16113367589E+03  0.48252223550E+03  0.54225952944E+03  0.00000000000E+00 0. -1.
        -11    1    3    3    0    0  0.36626640459E+03 -0.53668421927E+03  0.12224625326E+04  0.13844116707E+04  0.00000000000E+00 0.  1.
          2    1    6    6  502    0 -0.70750972958E+03  0.52366714079E+03  0.76106297035E+03  0.11636211311E+04  0.00000000000E+00 0. -1.
          1    1    5    5  503    0  0.16336114991E+03  0.52696021989E+02  0.56043160826E+02  0.18056736114E+03  0.00000000000E+00 0. -1.
         -2    1    5    5    0  503  0.67127597662E+02  0.83824942177E+02  0.46828312812E+02  0.11715641758E+03  0.00000000000E+00 0.  1.
         -1    1    6    6    0  502 -0.77004917715E+02  0.37629790202E+02  0.10228709786E+03  0.13344815043E+03  0.00000000000E+00 0.  1.
<mgrwt>
<rscale>  0 0.22946388E+04</rscale>
<asrwt>0</asrwt>
<pdfrwt beam="1">  1        2 0.47635926E+00 0.22946388E+04</pdfrwt>
<pdfrwt beam="2">  1       -2 0.65404460E-01 0.22946388E+04</pdfrwt>
<totfact> 0.29594573E+00</totfact>
</mgrwt>
</event>
<event>
12    1  0.2019083E-007  0.1441293E+04  0.7818608E-02  0.8924459E-01
         -2   -1    0    0    0  501 -0.00000000000E+00  0.00000000000E+00  0.33722771972E+03  0.33722771972E+03  0.00000000000E+00 0.  1.
          2   -1    0    0  501    0  0.00000000000E+00 -0.00000000000E+00 -0.15400015115E+04  0.15400015115E+04  0.00000000000E+00 0. -1.
         23    2    1    2    0    0  0.17038347636E+03 -0.20428909878E+03  0.76375580257E+02  0.29110197072E+03  0.90236152394E+02 0.  0.
        254    2    1    2    0    0 -0.17038347636E+03  0.20428909878E+03 -0.12791493720E+04  0.15861272605E+04  0.89933976095E+03 0.  0.
        -24    2    4    4    0    0 -0.42595034406E+03  0.21892017485E+02 -0.11619330358E+04  0.12404643885E+04  0.82161811751E+02 0.  0.
         24    2    4    4    0    0  0.25556686770E+03  0.18239708130E+03 -0.11721633620E+03  0.34566287201E+03  0.84616975140E+02 0.  0.
         11    1    3    3    0    0  0.48382715917E+02 -0.12703382027E+03  0.27821075063E+02  0.13875334558E+03  0.00000000000E+00 0.  1.
        -11    1    3    3    0    0  0.12200076045E+03 -0.77255278511E+02  0.48554505193E+02  0.15234862514E+03  0.00000000000E+00 0. -1.
          2    1    6    6  502    0  0.68104176821E+02  0.32477570023E+02 -0.65949759153E+02  0.10021148730E+03  0.00000000000E+00 0. -1.
          1    1    5    5  503    0 -0.10111499225E+03 -0.13427919817E+02 -0.19927139160E+03  0.22386075627E+03  0.00000000000E+00 0. -1.
         -2    1    5    5    0  503 -0.32483535181E+03  0.35319937302E+02 -0.96266164423E+03  0.10166036322E+04  0.00000000000E+00 0.  1.
         -1    1    6    6    0  502  0.18746269088E+03  0.14991951127E+03 -0.51266577045E+02  0.24545138471E+03  0.00000000000E+00 0.  1.
<mgrwt>
<rscale>  0 0.14412928E+04</rscale>
<asrwt>0</asrwt>
<pdfrwt beam="1">  1        2 0.23692331E+00 0.14412928E+04</pdfrwt>
<pdfrwt beam="2">  1       -2 0.51881188E-01 0.14412928E+04</pdfrwt>
<totfact> 0.41018995E+01</totfact>
</mgrwt>
</event>
<event>
12    1  0.2019083E-007  0.1590823E+04  0.7818608E-02  0.8826206E-01
         -2   -1    0    0    0  501 -0.00000000000E+00  0.00000000000E+00  0.22977490562E+03  0.22977490562E+03  0.00000000000E+00 0.  1.
          2   -1    0    0  501    0  0.00000000000E+00 -0.00000000000E+00 -0.27534736670E+04  0.27534736670E+04  0.00000000000E+00 0. -1.
         23    2    1    2    0    0  0.25464505168E+03 -0.43836381525E+03 -0.11898856549E+04  0.12965310679E+04  0.90321655163E+02 0.  0.
        254    2    1    2    0    0 -0.25464505168E+03  0.43836381525E+03 -0.13338131064E+04  0.16867175047E+04  0.89941736746E+03 0.  0.
        -24    2    4    4    0    0  0.14393418619E+03  0.58144465478E+01  0.55473917760E+02  0.17590378277E+03  0.84344101757E+02 0.  0.
         24    2    4    4    0    0 -0.39857923786E+03  0.43254936870E+03 -0.13892870242E+04  0.15108137219E+04  0.80469258271E+02 0.  0.
         11    1    3    3    0    0  0.18103157014E+03 -0.25305328320E+03 -0.64034949407E+03  0.71193810692E+03  0.00000000000E+00 0. -1.
        -11    1    3    3    0    0  0.73613481532E+02 -0.18531053205E+03 -0.54953616083E+03  0.58459296097E+03  0.00000000000E+00 0.  1.
          4    1    6    6  502    0 -0.24438745780E+03  0.21880055856E+03 -0.83267206560E+03  0.89495345286E+03  0.00000000000E+00 0. -1.
          1    1    5    5  503    0  0.96981211210E+02  0.43565144540E+02  0.29798403845E+02  0.11041386696E+03  0.00000000000E+00 0. -1.
         -2    1    5    5    0  503  0.46952974975E+02 -0.37750697992E+02  0.25675513915E+02  0.65489915809E+02  0.00000000000E+00 0.  1.
         -3    1    6    6    0  502 -0.15419178006E+03  0.21374881013E+03 -0.55661495861E+03  0.61586026907E+03  0.00000000000E+00 0.  1.
<mgrwt>
<rscale>  0 0.15908226E+04</rscale>
<asrwt>0</asrwt>
<pdfrwt beam="1">  1        2 0.42361131E+00 0.15908226E+04</pdfrwt>
<pdfrwt beam="2">  1       -2 0.35349987E-01 0.15908226E+04</pdfrwt>
<totfact> 0.17861725E+01</totfact>
</mgrwt>
</event>
<event>
12    1  0.2019083E-007  0.1785095E+04  0.7818608E-02  0.8714266E-01
         -1   -1    0    0    0  501 -0.00000000000E+00  0.00000000000E+00  0.72058290141E+03  0.72058290141E+03  0.00000000000E+00 0.  1.
          1   -1    0    0  501    0  0.00000000000E+00 -0.00000000000E+00 -0.11055512823E+04  0.11055512823E+04  0.00000000000E+00 0. -1.
         23    2    1    2    0    0  0.32752951589E+03  0.14944168703E+03 -0.71249658321E+03  0.80348629362E+03  0.91271251455E+02 0.  0.
        254    2    1    2    0    0 -0.32752951589E+03 -0.14944168703E+03  0.32752820233E+03  0.10226478901E+04  0.89940290314E+03 0.  0.
        -24    2    4    4    0    0  0.51202787276E+01 -0.20503960864E+02 -0.29198722218E+03  0.30369433755E+03  0.80790365010E+02 0.  0.
         24    2    4    4    0    0 -0.33264979461E+03 -0.12893772617E+03  0.61951542451E+03  0.71895355254E+03  0.76249763340E+02 0.  0.
         11    1    3    3    0    0  0.20554254157E+03  0.84393029884E+02 -0.52876774797E+03  0.57355492429E+03  0.00000000000E+00 0. -1.
        -11    1    3    3    0    0  0.12198697432E+03  0.65048657150E+02 -0.18372883524E+03  0.22993136932E+03  0.00000000000E+00 0.  1.
          4    1    6    6  502    0 -0.11854979808E+03 -0.23766841759E+02  0.26955879754E+03  0.29543334735E+03  0.00000000000E+00 0. -1.
          1    1    5    5  503    0 -0.14933929765E+01 -0.27369954860E+02 -0.26797824591E+02  0.38333641289E+02  0.00000000000E+00 0. -1.
         -2    1    5    5    0  503  0.66136717042E+01  0.68659939966E+01 -0.26518939759E+03  0.26536069626E+03  0.00000000000E+00 0.  1.
         -3    1    6    6    0  502 -0.21409999653E+03 -0.10517088441E+03  0.34995662697E+03  0.42352020519E+03  0.00000000000E+00 0.  1.
<mgrwt>
<rscale>  0 0.17850953E+04</rscale>
<asrwt>0</asrwt>
<pdfrwt beam="1">  1        1 0.17008481E+00 0.17850953E+04</pdfrwt>
<pdfrwt beam="2">  1       -1 0.11085891E+00 0.17850953E+04</pdfrwt>
<totfact> 0.88903661E+00</totfact>
</mgrwt>
</event>
<event>
12    1  0.2019083E-007  0.2340924E+04  0.7818608E-02  0.8461958E-01
         -1   -1    0    0    0  501 -0.00000000000E+00  0.00000000000E+00  0.10282127210E+04  0.10282127210E+04  0.00000000000E+00 0.  1.
          1   -1    0    0  501    0  0.00000000000E+00 -0.00000000000E+00 -0.13323912813E+04  0.13323912813E+04  0.00000000000E+00 0. -1.
         23    2    1    2    0    0  0.23481522883E+03 -0.38679709648E+02 -0.11046295209E+04  0.11338812048E+04  0.94052625313E+02 0.  0.
        254    2    1    2    0    0 -0.23481522883E+03  0.38679709648E+02  0.80045096069E+03  0.12267227975E+04  0.89860601482E+03 0.  0.
        -24    2    4    4    0    0 -0.48683682340E+01  0.41884093901E+03  0.59334049007E+03  0.73039809134E+03  0.77311069557E+02 0.  0.
         24    2    4    4    0    0 -0.22994686060E+03 -0.38016122936E+03  0.20711047061E+03  0.49632470618E+03  0.77751835468E+02 0.  0.
         11    1    3    3    0    0  0.56875322958E+02 -0.50249099644E+02 -0.27322434293E+03  0.28356889101E+03  0.00000000000E+00 0.  1.
        -11    1    3    3    0    0  0.17793990587E+03  0.11569389997E+02 -0.83140517801E+03  0.85031231375E+03  0.00000000000E+00 0. -1.
          4    1    6    6  502    0 -0.18547012319E+03 -0.26391033664E+03  0.17830828989E+03  0.36856706123E+03  0.00000000000E+00 0. -1.
          3    1    5    5  503    0  0.19416535488E+02  0.37749273888E+03  0.52644873018E+03  0.64809415618E+03  0.00000000000E+00 0. -1.
         -4    1    5    5    0  503 -0.24284903722E+02  0.41348200132E+02  0.66891759890E+02  0.82303935168E+02  0.00000000000E+00 0.  1.
         -3    1    6    6    0  502 -0.44476737412E+02 -0.11625089272E+03  0.28802180729E+02  0.12775764495E+03  0.00000000000E+00 0.  1.
<mgrwt>
<rscale>  0 0.23409243E+04</rscale>
<asrwt>0</asrwt>
<pdfrwt beam="1">  1        1 0.20498327E+00 0.23409243E+04</pdfrwt>
<pdfrwt beam="2">  1       -1 0.15818657E+00 0.23409243E+04</pdfrwt>
<totfact> 0.23306308E+00</totfact>
</mgrwt>
</event>
<event>
12    1  0.2445524E-007  0.3549576E+04  0.7818608E-02  0.8102140E-01
         -2   -1    0    0    0  501 -0.00000000000E+00  0.00000000000E+00  0.12884943857E+04  0.12884943857E+04  0.00000000000E+00 0.  1.
          2   -1    0    0  501    0  0.00000000000E+00 -0.00000000000E+00 -0.24446153527E+04  0.24446153527E+04  0.00000000000E+00 0. -1.
         23    2    1    2    0    0 -0.15311473262E+04 -0.57191039583E+03 -0.29450961504E+03  0.16631646075E+04  0.88808574388E+02 0.  0.
        254    2    1    2    0    0  0.15311473262E+04  0.57191039583E+03 -0.86161135201E+03  0.20699451309E+04  0.93316937777E+03 0.  0.
        -24    2    4    4    0    0  0.10953781314E+04  0.26429869197E+03 -0.96926031652E+02  0.11341515658E+04  0.84841436090E+02 0.  0.
         24    2    4    4    0    0  0.43576919483E+03  0.30761170387E+03 -0.76468532036E+03  0.93579356512E+03  0.80288267029E+02 0.  0.
         11    1    3    3    0    0 -0.47426160484E+03 -0.14990992091E+03 -0.57249609018E+02  0.50067411751E+03  0.00000000000E+00 0. -1.
        -11    1    3    3    0    0 -0.10568857214E+04 -0.42200047492E+03 -0.23726000602E+03  0.11624904900E+04  0.00000000000E+00 0.  1.
          2    1    6    6  502    0  0.37006345809E+03  0.22441901955E+03 -0.59604516090E+03  0.73660076919E+03  0.00000000000E+00 0. -1.
          3    1    5    5  503    0  0.31287676563E+03  0.73630728336E+02  0.10665746290E+02  0.32160085941E+03  0.00000000000E+00 0. -1.
         -4    1    5    5    0  503  0.78250136576E+03  0.19066796363E+03 -0.10759177794E+03  0.81255070639E+03  0.00000000000E+00 0.  1.
         -1    1    6    6    0  502  0.65705736746E+02  0.83192684314E+02 -0.16864015946E+03  0.19919279592E+03  0.00000000000E+00 0.  1.
<mgrwt>
<rscale>  0 0.35495764E+04</rscale>
<asrwt>0</asrwt>
<pdfrwt beam="1">  1        2 0.37609467E+00 0.35495764E+04</pdfrwt>
<pdfrwt beam="2">  1       -2 0.19822991E+00 0.35495764E+04</pdfrwt>
<totfact> 0.41897199E-01</totfact>
</mgrwt>
</event>
<event>
12    1  0.2019083E-007  0.5296020E+04  0.7818608E-02  0.7784398E-01
          2   -1    0    0  501    0  0.00000000000E+00  0.00000000000E+00  0.24567138097E+04  0.24567138097E+04  0.00000000000E+00 0. -1.
         -2   -1    0    0    0  501 -0.00000000000E+00 -0.00000000000E+00 -0.28542017582E+04  0.28542017582E+04  0.00000000000E+00 0.  1.
         23    2    1    2    0    0 -0.22377493972E+04 -0.12508970529E+04  0.46434186813E+01  0.25652320662E+04  0.90156477930E+02 0.  0.
        254    2    1    2    0    0  0.22377493972E+04  0.12508970529E+04 -0.40213136721E+03  0.27456835017E+04  0.89710782702E+03 0.  0.
        -24    2    4    4    0    0  0.78053488584E+03  0.72050429943E+03 -0.52594606587E+03  0.11879342601E+04  0.78786981957E+02 0.  0.
         24    2    4    4    0    0  0.14572145113E+04  0.53039275346E+03  0.12381469866E+03  0.15577492416E+04  0.80386660037E+02 0.  0.
         11    1    3    3    0    0 -0.67837328661E+03 -0.38898175031E+03  0.42045305300E+02  0.78311233279E+03  0.00000000000E+00 0.  1.
        -11    1    3    3    0    0 -0.15593761106E+04 -0.86191530259E+03 -0.37401886619E+02  0.17821197334E+04  0.00000000000E+00 0. -1.
          2    1    6    6  502    0  0.70233988442E+03  0.21531442590E+03  0.45304199300E+02  0.73599869954E+03  0.00000000000E+00 0. -1.
          1    1    5    5  503    0  0.33871294598E+03  0.32687153764E+03 -0.19110230744E+03  0.50802711916E+03  0.00000000000E+00 0. -1.
         -2    1    5    5    0  503  0.44182193986E+03  0.39363276180E+03 -0.33484375843E+03  0.67990714091E+03  0.00000000000E+00 0.  1.
         -1    1    6    6    0  502  0.75487462691E+03  0.31507832756E+03  0.78510499357E+02  0.82175054205E+03  0.00000000000E+00 0.  1.
<mgrwt>
<rscale>  0 0.52960200E+04</rscale>
<asrwt>0</asrwt>
<pdfrwt beam="1">  1        2 0.37795597E+00 0.52960200E+04</pdfrwt>
<pdfrwt beam="2">  1       -2 0.43910797E+00 0.52960200E+04</pdfrwt>
<totfact> 0.10776106E-02</totfact>
</mgrwt>
</event>
<event>
12    1  0.2019083E-007  0.2595410E+04  0.7818608E-02  0.8369762E-01
          2   -1    0    0  501    0  0.00000000000E+00  0.00000000000E+00  0.11937546972E+04  0.11937546972E+04  0.00000000000E+00 0. -1.
         -2   -1    0    0    0  501 -0.00000000000E+00 -0.00000000000E+00 -0.14107075209E+04  0.14107075209E+04  0.00000000000E+00 0.  1.
         23    2    1    2    0    0  0.86346309485E+03  0.50387661801E+03 -0.64422727905E+03  0.11934373596E+04  0.99014048775E+02 0.  0.
        254    2    1    2    0    0 -0.86346309485E+03 -0.50387661801E+03  0.42727445538E+03  0.14110248586E+04  0.89942622204E+03 0.  0.
        -24    2    4    4    0    0  0.26571470576E+02  0.15539449723E+03  0.21419390617E+03  0.28030312121E+03  0.88528625312E+02 0.  0.
         24    2    4    4    0    0 -0.89003456543E+03 -0.65927111524E+03  0.21308054921E+03  0.11307217373E+04  0.79551215007E+02 0.  0.
         13    1    3    3    0    0  0.47352052140E+03  0.30034783923E+03 -0.30779066537E+03  0.63966053686E+03  0.00000000000E+00 0. -1.
        -13    1    3    3    0    0  0.38994257345E+03  0.20352877878E+03 -0.33643661367E+03  0.55377682273E+03  0.00000000000E+00 0.  1.
          4    1    6    6  502    0 -0.59432784095E+03 -0.48354575632E+03  0.13494518802E+03  0.77797961718E+03  0.00000000000E+00 0. -1.
          1    1    5    5  503    0  0.56943279008E+02  0.12663261237E+03  0.16003518987E+03  0.21187170065E+03  0.00000000000E+00 0. -1.
         -2    1    5    5    0  503 -0.30371808433E+02  0.28761884869E+02  0.54158716297E+02  0.68431420558E+02  0.00000000000E+00 0.  1.
         -3    1    6    6    0  502 -0.29570672448E+03 -0.17572535893E+03  0.78135361189E+02  0.35274212017E+03  0.00000000000E+00 0.  1.
<mgrwt>
<rscale>  0 0.25954104E+04</rscale>
<asrwt>0</asrwt>
<pdfrwt beam="1">  1        2 0.18365457E+00 0.25954104E+04</pdfrwt>
<pdfrwt beam="2">  1       -2 0.21703193E+00 0.25954104E+04</pdfrwt>
<totfact> 0.17449824E+00</totfact>
</mgrwt>
</event>
<event>
12    1  0.2019083E-007  0.2525258E+04  0.7818608E-02  0.8394042E-01
          1   -1    0    0  501    0  0.00000000000E+00  0.00000000000E+00  0.21982581657E+04  0.21982581657E+04  0.00000000000E+00 0. -1.
         -1   -1    0    0    0  501 -0.00000000000E+00 -0.00000000000E+00 -0.72522519317E+03  0.72522519317E+03  0.00000000000E+00 0.  1.
         23    2    1    2    0    0 -0.59502459553E+03  0.14160033309E+03 -0.41353540109E+03  0.74384660771E+03  0.90505934770E+02 0.  0.
        254    2    1    2    0    0  0.59502459553E+03 -0.14160033309E+03  0.18865683736E+04  0.21796367511E+04  0.90419644714E+03 0.  0.
        -24    2    4    4    0    0  0.45317510736E+03 -0.50501955904E+03  0.10432433143E+04  0.12470390886E+04  0.79608056452E+02 0.  0.
         24    2    4    4    0    0  0.14184948817E+03  0.36341922596E+03  0.84332505927E+03  0.93259766253E+03  0.79664505842E+02 0.  0.
         13    1    3    3    0    0 -0.45582019144E+03  0.92091483305E+02 -0.26934489654E+03  0.53740074573E+03  0.00000000000E+00 0. -1.
        -13    1    3    3    0    0 -0.13920440409E+03  0.49508849781E+02 -0.14419050455E+03  0.20644586197E+03  0.00000000000E+00 0.  1.
          4    1    6    6  502    0  0.13701913056E+03  0.26160538685E+03  0.65379284042E+03  0.71739577554E+03  0.00000000000E+00 0. -1.
          3    1    5    5  503    0  0.38686085672E+03 -0.42434151771E+03  0.82583063197E+03  0.10058445600E+04  0.00000000000E+00 0. -1.
         -4    1    5    5    0  503  0.66314250645E+02 -0.80678041332E+02  0.21741268236E+03  0.24119452863E+03  0.00000000000E+00 0.  1.
         -3    1    6    6    0  502  0.48303576052E+01  0.10181383910E+03  0.18953221884E+03  0.21520188700E+03  0.00000000000E+00 0.  1.
<mgrwt>
<rscale>  0 0.25252582E+04</rscale>
<asrwt>0</asrwt>
<pdfrwt beam="1">  1        1 0.33819356E+00 0.25252582E+04</pdfrwt>
<pdfrwt beam="2">  1       -1 0.11157311E+00 0.25252582E+04</pdfrwt>
<totfact> 0.14285191E+00</totfact>
</mgrwt>
</event>
<event>
12    1  0.2019083E-007  0.1443146E+04  0.7818608E-02  0.8923166E-01
          2   -1    0    0  501    0  0.00000000000E+00  0.00000000000E+00  0.11533202714E+04  0.11533202714E+04  0.00000000000E+00 0. -1.
         -2   -1    0    0    0  501 -0.00000000000E+00 -0.00000000000E+00 -0.45145121439E+03  0.45145121439E+03  0.00000000000E+00 0.  1.
         23    2    1    2    0    0  0.31321574553E+03  0.12098029497E+03  0.52062971218E+03  0.62634075314E+03  0.92233978667E+02 0.  0.
        254    2    1    2    0    0 -0.31321574553E+03 -0.12098029497E+03  0.18123934478E+03  0.97843073260E+03  0.90096540632E+03 0.  0.
        -24    2    4    4    0    0 -0.46448735765E+01  0.28381349131E+03  0.32914960107E+03  0.44255026350E+03  0.83304280471E+02 0.  0.
         24    2    4    4    0    0 -0.30857087195E+03 -0.40479378628E+03 -0.14791025629E+03  0.53588046909E+03  0.78844408864E+02 0.  0.
         11    1    3    3    0    0  0.10199884720E+03  0.40257799484E+02  0.98196247932E+02  0.14719700526E+03  0.00000000000E+00 0.  1.
        -11    1    3    3    0    0  0.21121689833E+03  0.80722495488E+02  0.42243346425E+03  0.47914374789E+03  0.00000000000E+00 0. -1.
          2    1    6    6  502    0 -0.12358203399E+03 -0.12120175387E+03 -0.21353525082E+02  0.17440859296E+03  0.00000000000E+00 0. -1.
          1    1    5    5  503    0  0.87666155686E+01  0.17572250590E+03  0.14235210347E+03  0.22631697680E+03  0.00000000000E+00 0. -1.
         -2    1    5    5    0  503 -0.13411489145E+02  0.10809098542E+03  0.18679749760E+03  0.21623328670E+03  0.00000000000E+00 0.  1.
         -1    1    6    6    0  502 -0.18498883796E+03 -0.28359203241E+03 -0.12655673120E+03  0.36147187613E+03  0.00000000000E+00 0.  1.
<mgrwt>
<rscale>  0 0.14431463E+04</rscale>
<asrwt>0</asrwt>
<pdfrwt beam="1">  1        2 0.17743389E+00 0.14431463E+04</pdfrwt>
<pdfrwt beam="2">  1       -2 0.69454033E-01 0.14431463E+04</pdfrwt>
<totfact> 0.37081880E+01</totfact>
</mgrwt>
</event>
<event>
12    1  0.2019083E-007  0.2346129E+04  0.7818608E-02  0.8459952E-01
         -2   -1    0    0    0  501 -0.00000000000E+00  0.00000000000E+00  0.86129863700E+03  0.86129863700E+03  0.00000000000E+00 0.  1.
          2   -1    0    0  501    0  0.00000000000E+00 -0.00000000000E+00 -0.15976807728E+04  0.15976807728E+04  0.00000000000E+00 0. -1.
         23    2    1    2    0    0 -0.37555434557E+03  0.92325070065E+03 -0.35949962291E+03  0.10635326548E+04  0.91808529725E+02 0.  0.
        254    2    1    2    0    0  0.37555434557E+03 -0.92325070065E+03 -0.37688251289E+03  0.13954467551E+04  0.90099849886E+03 0.  0.
        -24    2    4    4    0    0 -0.20166968010E+03 -0.15484293807E+03 -0.33876455139E+03  0.43059273164E+03  0.77470535810E+02 0.  0.
         24    2    4    4    0    0  0.57722402568E+03 -0.76840776258E+03 -0.38117961505E+02  0.96485402342E+03  0.76499948429E+02 0.  0.
         13    1    3    3    0    0 -0.18642513290E+03  0.34134179009E+03 -0.13151119598E+03  0.41056515014E+03  0.00000000000E+00 0. -1.
        -13    1    3    3    0    0 -0.18912921268E+03  0.58190891056E+03 -0.22798842693E+03  0.65296750462E+03  0.00000000000E+00 0.  1.
          4    1    6    6  502    0  0.35786628837E+03 -0.51089801610E+03 -0.54798974706E+02  0.62616929886E+03  0.00000000000E+00 0. -1.
          1    1    5    5  503    0 -0.13672960881E+03 -0.71056353957E+02 -0.15574838509E+03  0.21909256222E+03  0.00000000000E+00 0. -1.
         -4    1    5    5    0  503 -0.64940071297E+02 -0.83786584113E+02 -0.18301616629E+03  0.21150016941E+03  0.00000000000E+00 0.  1.
         -3    1    6    6    0  502  0.21935773731E+03 -0.25750974647E+03  0.16681013201E+02  0.33868472456E+03  0.00000000000E+00 0.  1.
<mgrwt>
<rscale>  0 0.23461290E+04</rscale>
<asrwt>0</asrwt>
<pdfrwt beam="1">  1        2 0.24579704E+00 0.23461290E+04</pdfrwt>
<pdfrwt beam="2">  1       -2 0.13250748E+00 0.23461290E+04</pdfrwt>
<totfact> 0.41804162E+00</totfact>
</mgrwt>
</event>
<event>
12    1  0.2019083E-007  0.2005215E+04  0.7818608E-02  0.8604187E-01
          1   -1    0    0  501    0  0.00000000000E+00  0.00000000000E+00  0.62319431125E+03  0.62319431125E+03  0.00000000000E+00 0. -1.
         -1   -1    0    0    0  501 -0.00000000000E+00 -0.00000000000E+00 -0.16130144060E+04  0.16130144060E+04  0.00000000000E+00 0.  1.
         23    2    1    2    0    0 -0.54521610121E+03 -0.14827808666E+03  0.23207718635E+03  0.61760385733E+03  0.91256321219E+02 0.  0.
        254    2    1    2    0    0  0.54521610121E+03  0.14827808666E+03 -0.12218972811E+04  0.16186048599E+04  0.89866664511E+03 0.  0.
        -24    2    4    4    0    0  0.39713966917E+03  0.46173081760E+03 -0.42565103435E+03  0.74731737692E+03  0.79932434253E+02 0.  0.
         24    2    4    4    0    0  0.14807643203E+03 -0.31345273094E+03 -0.79624624677E+03  0.87128748303E+03  0.70388552502E+02 0.  0.
         13    1    3    3    0    0 -0.41132467985E+03 -0.14272562471E+03  0.15019849677E+03  0.46056289976E+03  0.00000000000E+00 0.  1.
        -13    1    3    3    0    0 -0.13389142136E+03 -0.55524619513E+01  0.81878689580E+02  0.15704095757E+03  0.00000000000E+00 0. -1.
          2    1    6    6  502    0  0.17681850538E+02 -0.10399868130E+03 -0.27690674557E+03  0.29632029849E+03  0.00000000000E+00 0. -1.
          3    1    5    5  503    0  0.20096191804E+03  0.18272606556E+03 -0.16233139080E+03  0.31642690780E+03  0.00000000000E+00 0. -1.
         -4    1    5    5    0  503  0.19617775113E+03  0.27900475204E+03 -0.26331964354E+03  0.43089046912E+03  0.00000000000E+00 0.  1.
         -1    1    6    6    0  502  0.13039458150E+03 -0.20945404964E+03 -0.51933950120E+03  0.57496718454E+03  0.00000000000E+00 0.  1.
<mgrwt>
<rscale>  0 0.20052146E+04</rscale>
<asrwt>0</asrwt>
<pdfrwt beam="1">  1        1 0.95876049E-01 0.20052146E+04</pdfrwt>
<pdfrwt beam="2">  1       -1 0.24815606E+00 0.20052146E+04</pdfrwt>
<totfact> 0.21539815E+00</totfact>
</mgrwt>
</event>
<event>
12    1  0.2019083E-007  0.1181179E+04  0.7818608E-02  0.9129492E-01
         -2   -1    0    0    0  501 -0.00000000000E+00  0.00000000000E+00  0.73538441713E+03  0.73538441713E+03  0.00000000000E+00 0.  1.
          2   -1    0    0  501    0  0.00000000000E+00 -0.00000000000E+00 -0.47430451199E+03  0.47430451199E+03  0.00000000000E+00 0. -1.
         23    2    1    2    0    0 -0.18210841629E+03 -0.13782829045E+03  0.97280790672E+02  0.26637834038E+03  0.96611360907E+02 0.  0.
        254    2    1    2    0    0  0.18210841629E+03  0.13782829045E+03  0.16379911446E+03  0.94331058874E+03  0.90046910219E+03 0.  0.
        -24    2    4    4    0    0  0.50810428668E+03 -0.58242885379E+02  0.19452269137E+03  0.55302527949E+03  0.80222705395E+02 0.  0.
         24    2    4    4    0    0 -0.32599587038E+03  0.19607117582E+03 -0.30723576907E+02  0.39028530925E+03  0.81617834710E+02 0.  0.
         13    1    3    3    0    0 -0.93274628490E+02 -0.78751251552E+02  0.10274091200E+03  0.15955441373E+03  0.00000000000E+00 0.  1.
        -13    1    3    3    0    0 -0.88833787805E+02 -0.59077038895E+02 -0.54601213296E+01  0.10682392665E+03  0.00000000000E+00 0. -1.
          2    1    6    6  502    0 -0.30238124112E+03  0.16381379396E+03 -0.47042083195E+02  0.34710564914E+03  0.00000000000E+00 0. -1.
          1    1    5    5  503    0  0.46506550266E+03 -0.74512406352E+02  0.16892947626E+03  0.50037504775E+03  0.00000000000E+00 0. -1.
         -2    1    5    5    0  503  0.43038784018E+02  0.16269520973E+02  0.25593215107E+02  0.52650231737E+02  0.00000000000E+00 0.  1.
         -1    1    6    6    0  502 -0.23614629265E+02  0.32257381862E+02  0.16318506288E+02  0.43179660112E+02  0.00000000000E+00 0.  1.
<mgrwt>
<rscale>  0 0.11811793E+04</rscale>
<asrwt>0</asrwt>
<pdfrwt beam="1">  1        2 0.72969925E-01 0.11811793E+04</pdfrwt>
<pdfrwt beam="2">  1       -2 0.11313606E+00 0.11811793E+04</pdfrwt>
<totfact> 0.39682140E+01</totfact>
</mgrwt>
</event>
<event>
12    1  0.3339822E-007  0.2711986E+04  0.7818608E-02  0.8331126E-01
          1   -1    0    0  501    0  0.00000000000E+00  0.00000000000E+00  0.14189289771E+04  0.14189289771E+04  0.00000000000E+00 0. -1.
         -1   -1    0    0    0  501 -0.00000000000E+00 -0.00000000000E+00 -0.12958486929E+04  0.12958486929E+04  0.00000000000E+00 0.  1.
         23    2    1    2    0    0  0.12112168670E+03  0.11301454250E+04  0.45267580617E+03  0.12266366492E+04  0.88447381209E+02 0.  0.
        254    2    1    2    0    0 -0.12112168670E+03 -0.11301454250E+04 -0.32959552197E+03  0.14881410208E+04  0.90223685642E+03 0.  0.
        -24    2    4    4    0    0 -0.33185196574E+03 -0.54910139945E+02 -0.19139177137E+02  0.34657094554E+03  0.81266607878E+02 0.  0.
         24    2    4    4    0    0  0.21073027904E+03 -0.10752352850E+04 -0.31045634483E+03  0.11415700752E+04  0.79126013383E+02 0.  0.
         13    1    3    3    0    0  0.83015372460E+02  0.59183756318E+03  0.19516851599E+03  0.62869229587E+03  0.00000000000E+00 0. -1.
        -13    1    3    3    0    0  0.38106314245E+02  0.53830786178E+03  0.25750729019E+03  0.59794435338E+03  0.00000000000E+00 0.  1.
          4    1    6    6  502    0  0.20801146424E+03 -0.10755449460E+04 -0.31103120688E+03  0.11387739511E+04  0.00000000000E+00 0. -1.
          3    1    5    5  503    0 -0.31281258237E+03 -0.29660838698E+02 -0.13952768459E+02  0.31452528799E+03  0.00000000000E+00 0. -1.
         -2    1    5    5    0  503 -0.19039383378E+02 -0.25249301247E+02 -0.51864086787E+01  0.32045657551E+02  0.00000000000E+00 0.  1.
         -3    1    6    6    0  502  0.27188147957E+01  0.30966096007E+00  0.57486204355E+00  0.27961241340E+01  0.00000000000E+00 0.  1.
<mgrwt>
<rscale>  0 0.27119862E+04</rscale>
<asrwt>0</asrwt>
<pdfrwt beam="1">  1        1 0.21829677E+00 0.27119862E+04</pdfrwt>
<pdfrwt beam="2">  1       -1 0.19936134E+00 0.27119862E+04</pdfrwt>
<totfact> 0.98823081E-01</totfact>
</mgrwt>
</event>
<event>
12    1  0.2019083E-007  0.1823860E+04  0.7818608E-02  0.8693713E-01
         -2   -1    0    0    0  501 -0.00000000000E+00  0.00000000000E+00  0.10770852709E+04  0.10770852709E+04  0.00000000000E+00 0.  1.
          2   -1    0    0  501    0  0.00000000000E+00 -0.00000000000E+00 -0.77209852244E+03  0.77209852244E+03  0.00000000000E+00 0. -1.
         23    2    1    2    0    0 -0.38724987997E+03 -0.55649292206E+03  0.21846153267E+03  0.71792352459E+03  0.89676664002E+02 0.  0.
        254    2    1    2    0    0  0.38724987997E+03  0.55649292206E+03  0.86525215787E+02  0.11312602687E+04  0.90145235083E+03 0.  0.
        -24    2    4    4    0    0  0.87822874319E+02  0.59668761531E+03 -0.26167313662E+03  0.66314844842E+03  0.86856587001E+02 0.  0.
         24    2    4    4    0    0  0.29942700565E+03 -0.40194693249E+02  0.34819835241E+03  0.46811182032E+03  0.81329199073E+02 0.  0.
         11    1    3    3    0    0 -0.77591867149E+02 -0.10215332665E+03  0.58341953216E+01  0.12841276349E+03  0.00000000000E+00 0. -1.
        -11    1    3    3    0    0 -0.30965801282E+03 -0.45433959541E+03  0.21262733735E+03  0.58951076110E+03  0.00000000000E+00 0.  1.
          4    1    6    6  502    0  0.34365543116E+02 -0.30046360793E+02  0.34012033593E+02  0.56926204684E+02  0.00000000000E+00 0. -1.
          3    1    5    5  503    0 -0.11371623503E+02  0.16944570914E+02 -0.15104709777E+02  0.25388669953E+02  0.00000000000E+00 0. -1.
         -4    1    5    5    0  503  0.99194497822E+02  0.57974304439E+03 -0.24656842684E+03  0.63775977847E+03  0.00000000000E+00 0.  1.
         -3    1    6    6    0  502  0.26506146254E+03 -0.10148332456E+02  0.31418631881E+03  0.41118561563E+03  0.00000000000E+00 0.  1.
<mgrwt>
<rscale>  0 0.18238596E+04</rscale>
<asrwt>0</asrwt>
<pdfrwt beam="1">  1        2 0.11878439E+00 0.18238596E+04</pdfrwt>
<pdfrwt beam="2">  1       -2 0.16570543E+00 0.18238596E+04</pdfrwt>
<totfact> 0.77798051E+00</totfact>
</mgrwt>
</event>
<event>
12    1  0.2019083E-007  0.2154399E+04  0.7818608E-02  0.8537652E-01
          2   -1    0    0  501    0  0.00000000000E+00  0.00000000000E+00  0.10864253055E+04  0.10864253055E+04  0.00000000000E+00 0. -1.
         -2   -1    0    0    0  501 -0.00000000000E+00 -0.00000000000E+00 -0.10680520827E+04  0.10680520827E+04  0.00000000000E+00 0.  1.
         23    2    1    2    0    0  0.62141467054E+03 -0.24297704755E+03 -0.57642593387E+03  0.88673899717E+03  0.94048675991E+02 0.  0.
        254    2    1    2    0    0 -0.62141467054E+03  0.24297704755E+03  0.59479915661E+03  0.12677383910E+04  0.89898862784E+03 0.  0.
        -24    2    4    4    0    0 -0.83507439100E+03  0.16438737691E+03  0.34909633137E+03  0.92357331506E+03  0.82139950803E+02 0.  0.
         24    2    4    4    0    0  0.21365972046E+03  0.78589670648E+02  0.24570282524E+03  0.34416507597E+03  0.79075335629E+02 0.  0.
         11    1    3    3    0    0  0.29632055954E+03 -0.16003727746E+03 -0.31872568782E+03  0.46368509601E+03  0.00000000000E+00 0. -1.
        -11    1    3    3    0    0  0.32509411100E+03 -0.82939770091E+02 -0.25770024605E+03  0.42305390116E+03  0.00000000000E+00 0.  1.
          2    1    6    6  502    0  0.21084062362E+03  0.70798034373E+02  0.25017917653E+03  0.33474729366E+03  0.00000000000E+00 0. -1.
          3    1    5    5  503    0 -0.46673787995E+03  0.65611903734E+02  0.15864336064E+03  0.49730964838E+03  0.00000000000E+00 0. -1.
         -4    1    5    5    0  503 -0.36833651105E+03  0.98775473173E+02  0.19045297073E+03  0.42626366669E+03  0.00000000000E+00 0.  1.
         -1    1    6    6    0  502  0.28190968425E+01  0.77916362752E+01 -0.44763512898E+01  0.94177823145E+01  0.00000000000E+00 0.  1.
<mgrwt>
<rscale>  0 0.21543990E+04</rscale>
<asrwt>0</asrwt>
<pdfrwt beam="1">  1        2 0.16714235E+00 0.21543990E+04</pdfrwt>
<pdfrwt beam="2">  1       -2 0.16431571E+00 0.21543990E+04</pdfrwt>
<totfact> 0.47720846E+00</totfact>
</mgrwt>
</event>
<event>
12    1  0.2019083E-007  0.1658588E+04  0.7818608E-02  0.8785342E-01
          2   -1    0    0  501    0  0.00000000000E+00  0.00000000000E+00  0.25850241865E+04  0.25850241865E+04  0.00000000000E+00 0. -1.
         -2   -1    0    0    0  501 -0.00000000000E+00 -0.00000000000E+00 -0.26604327764E+03  0.26604327764E+03  0.00000000000E+00 0.  1.
         23    2    1    2    0    0 -0.48206192309E+02 -0.53239105461E+03  0.11911969310E+04  0.13115635357E+04  0.12443756565E+03 0.  0.
        254    2    1    2    0    0  0.48206192309E+02  0.53239105461E+03  0.11277839778E+04  0.15395039284E+04  0.90133876702E+03 0.  0.
        -24    2    4    4    0    0 -0.14845157192E+01  0.13990343882E+03  0.11234534259E+04  0.11357056794E+04  0.90025630195E+02 0.  0.
         24    2    4    4    0    0  0.49690708028E+02  0.39248761579E+03  0.43305519150E+01  0.40379824900E+03  0.80737706167E+02 0.  0.
         11    1    3    3    0    0 -0.74850141209E+02 -0.37116287993E+03  0.73150091093E+03  0.82368562557E+03  0.00000000000E+00 0.  1.
        -11    1    3    3    0    0  0.26643948900E+02 -0.16122817468E+03  0.45969602009E+03  0.48787791015E+03  0.00000000000E+00 0. -1.
          2    1    6    6  502    0  0.39176982923E+02  0.36001140393E+03 -0.18701172993E+02  0.36261933322E+03  0.00000000000E+00 0. -1.
          1    1    5    5  503    0  0.39160796621E+02  0.37024597948E+02  0.45201908249E+03  0.45522042988E+03  0.00000000000E+00 0. -1.
         -2    1    5    5    0  503 -0.40645312340E+02  0.10287884087E+03  0.67143434340E+03  0.68048524951E+03  0.00000000000E+00 0.  1.
         -3    1    6    6    0  502  0.10513725105E+02  0.32476211861E+02  0.23031724908E+02  0.41178915779E+02  0.00000000000E+00 0.  1.
<mgrwt>
<rscale>  0 0.16585877E+04</rscale>
<asrwt>0</asrwt>
<pdfrwt beam="1">  1        2 0.39769601E+00 0.16585877E+04</pdfrwt>
<pdfrwt beam="2">  1       -2 0.40929737E-01 0.16585877E+04</pdfrwt>
<totfact> 0.16797833E+01</totfact>
</mgrwt>
</event>
<event>
12    1  0.2019083E-007  0.2240114E+04  0.7818608E-02  0.8501915E-01
         -2   -1    0    0    0  501 -0.00000000000E+00  0.00000000000E+00  0.25843946132E+04  0.25843946132E+04  0.00000000000E+00 0.  1.
          2   -1    0    0  501    0  0.00000000000E+00 -0.00000000000E+00 -0.48542426208E+03  0.48542426208E+03  0.00000000000E+00 0. -1.
         23    2    1    2    0    0  0.56407357544E+02 -0.70554964336E+03  0.17239555310E+04  0.18659667622E+04  0.93953155470E+02 0.  0.
        254    2    1    2    0    0 -0.56407357544E+02  0.70554964336E+03  0.37501482015E+03  0.12038521131E+04  0.89868888151E+03 0.  0.
        -24    2    4    4    0    0 -0.31381656032E+03  0.77455861932E+03  0.16381543852E+03  0.85532678101E+03  0.79539399855E+02 0.  0.
         24    2    4    4    0    0  0.25740920277E+03 -0.69008975962E+02  0.21119938163E+03  0.34852533212E+03  0.76439465574E+02 0.  0.
         13    1    3    3    0    0  0.66756169777E+01 -0.55968560927E+03  0.13345362697E+04  0.14471626033E+04  0.00000000000E+00 0.  1.
        -13    1    3    3    0    0  0.49731740566E+02 -0.14586403409E+03  0.38941926125E+03  0.41880415888E+03  0.00000000000E+00 0. -1.
          2    1    6    6  502    0  0.16085736509E+03 -0.80735816247E+02  0.13772937403E+03  0.22663350238E+03  0.00000000000E+00 0. -1.
          1    1    5    5  503    0 -0.82054055481E+02  0.27132817341E+03  0.83457778609E+02  0.29549457951E+03  0.00000000000E+00 0. -1.
         -2    1    5    5    0  503 -0.23176250484E+03  0.50323044591E+03  0.80357659914E+02  0.55983220151E+03  0.00000000000E+00 0.  1.
         -1    1    6    6    0  502  0.96551837680E+02  0.11726840285E+02  0.73470007600E+02  0.12189182975E+03  0.00000000000E+00 0.  1.
<mgrwt>
<rscale>  0 0.22401141E+04</rscale>
<asrwt>0</asrwt>
<pdfrwt beam="1">  1        2 0.74680657E-01 0.22401141E+04</pdfrwt>
<pdfrwt beam="2">  1       -2 0.39759916E+00 0.22401141E+04</pdfrwt>
<totfact> 0.44745834E-01</totfact>
</mgrwt>
</event>
<event>
12    1  0.2019083E-007  0.1365896E+04  0.7818608E-02  0.8978881E-01
         -2   -1    0    0    0  501 -0.00000000000E+00  0.00000000000E+00  0.36166286659E+03  0.36166286659E+03  0.00000000000E+00 0.  1.
          2   -1    0    0  501    0  0.00000000000E+00 -0.00000000000E+00 -0.12896486793E+04  0.12896486793E+04  0.00000000000E+00 0. -1.
         23    2    1    2    0    0 -0.18261714146E+03  0.25281573981E+03 -0.36829913801E+02  0.32742891457E+03  0.92673798326E+02 0.  0.
        254    2    1    2    0    0  0.18261714146E+03 -0.25281573981E+03 -0.89115589892E+03  0.13238826313E+04  0.92803101601E+03 0.  0.
        -24    2    4    4    0    0  0.27239452566E+03 -0.50335343874E+03 -0.25996302988E+03  0.63361595009E+03  0.79529449900E+02 0.  0.
         24    2    4    4    0    0 -0.89777384193E+02  0.25053769893E+03 -0.63119286904E+03  0.69026668123E+03  0.85056075573E+02 0.  0.
         13    1    3    3    0    0 -0.12512681738E+02  0.60831591565E+02 -0.34229555748E+02  0.70913413564E+02  0.00000000000E+00 0. -1.
        -13    1    3    3    0    0 -0.17010445973E+03  0.19198414824E+03 -0.26003580528E+01  0.25651550101E+03  0.00000000000E+00 0.  1.
          4    1    6    6  502    0  0.13245294023E+01  0.34641044073E+02 -0.16372152838E+03  0.16735141220E+03  0.00000000000E+00 0. -1.
          1    1    5    5  503    0  0.18376559575E+02 -0.85557296383E+02 -0.24234708890E+02  0.90802367927E+02  0.00000000000E+00 0. -1.
         -2    1    5    5    0  503  0.25401796608E+03 -0.41779614236E+03 -0.23572832099E+03  0.54281358216E+03  0.00000000000E+00 0.  1.
         -3    1    6    6    0  502 -0.91101913595E+02  0.21589665486E+03 -0.46747134067E+03  0.52291526903E+03  0.00000000000E+00 0.  1.
<mgrwt>
<rscale>  0 0.13658961E+04</rscale>
<asrwt>0</asrwt>
<pdfrwt beam="1">  1        2 0.19840749E+00 0.13658961E+04</pdfrwt>
<pdfrwt beam="2">  1       -2 0.55640442E-01 0.13658961E+04</pdfrwt>
<totfact> 0.49630851E+01</totfact>
</mgrwt>
</event>
<event>
12    1  0.2019083E-007  0.2894423E+04  0.7818608E-02  0.8274539E-01
         -2   -1    0    0    0  501 -0.00000000000E+00  0.00000000000E+00  0.10803581793E+04  0.10803581793E+04  0.00000000000E+00 0.  1.
          2   -1    0    0  501    0  0.00000000000E+00 -0.00000000000E+00 -0.19386362434E+04  0.19386362434E+04  0.00000000000E+00 0. -1.
         23    2    1    2    0    0  0.32668695218E+03 -0.80450732473E+03  0.62430156325E+03  0.10735559613E+04  0.93880561941E+02 0.  0.
        254    2    1    2    0    0 -0.32668695218E+03  0.80450732473E+03 -0.14825796274E+04  0.19454384614E+04  0.91254153612E+03 0.  0.
        -24    2    4    4    0    0 -0.47028909665E+03  0.90147502092E+03 -0.14126650977E+04  0.17424188429E+04  0.81066010765E+02 0.  0.
         24    2    4    4    0    0  0.14360214447E+03 -0.96967696188E+02 -0.69914529745E+02  0.20301961850E+03  0.79401599632E+02 0.  0.
         13    1    3    3    0    0  0.19566399830E+03 -0.42115171964E+03  0.28297738201E+03  0.54381004948E+03  0.00000000000E+00 0. -1.
        -13    1    3    3    0    0  0.13102295388E+03 -0.38335560509E+03  0.34132418124E+03  0.52974591183E+03  0.00000000000E+00 0.  1.
          4    1    6    6  502    0  0.56660327295E+02 -0.90416227867E+01 -0.53194793813E+02  0.78242122419E+02  0.00000000000E+00 0. -1.
          1    1    5    5  503    0 -0.32104160362E+03  0.55399858409E+03 -0.84149389321E+03  0.10573996949E+04  0.00000000000E+00 0. -1.
         -2    1    5    5    0  503 -0.14924749304E+03  0.34747643683E+03 -0.57117120448E+03  0.68501914802E+03  0.00000000000E+00 0.  1.
         -3    1    6    6    0  502  0.86941817178E+02 -0.87926073401E+02 -0.16719735932E+02  0.12477749608E+03  0.00000000000E+00 0.  1.
<mgrwt>
<rscale>  0 0.28944233E+04</rscale>
<asrwt>0</asrwt>
<pdfrwt beam="1">  1        2 0.29825173E+00 0.28944233E+04</pdfrwt>
<pdfrwt beam="2">  1       -2 0.16620895E+00 0.28944233E+04</pdfrwt>
<totfact> 0.14161199E+00</totfact>
</mgrwt>
</event>
<event>
12    1  0.2019083E-007  0.1970149E+04  0.7818608E-02  0.8620705E-01
          1   -1    0    0  501    0  0.00000000000E+00  0.00000000000E+00  0.63233077638E+03  0.63233077638E+03  0.00000000000E+00 0. -1.
         -1   -1    0    0    0  501 -0.00000000000E+00 -0.00000000000E+00 -0.15345956223E+04  0.15345956223E+04  0.00000000000E+00 0.  1.
         23    2    1    2    0    0 -0.33661341519E+03 -0.22210647248E+03  0.37141051514E+03  0.55576196526E+03  0.91025902202E+02 0.  0.
        254    2    1    2    0    0  0.33661341519E+03  0.22210647248E+03 -0.12736753610E+04  0.16111644334E+04  0.90053430234E+03 0.  0.
        -24    2    4    4    0    0  0.45176526422E+03 -0.21509527573E+03 -0.83200403404E+03  0.97405262851E+03  0.78676418649E+02 0.  0.
         24    2    4    4    0    0 -0.11515184903E+03  0.43720174821E+03 -0.44167132699E+03  0.63711180488E+03  0.80203328172E+02 0.  0.
         11    1    3    3    0    0 -0.74178644792E+02 -0.97230333276E+02  0.12273138440E+03  0.17326050262E+03  0.00000000000E+00 0. -1.
        -11    1    3    3    0    0 -0.26243477039E+03 -0.12487613921E+03  0.24867913074E+03  0.38250146264E+03  0.00000000000E+00 0.  1.
          2    1    6    6  502    0 -0.64672191348E+02  0.35706218798E+03 -0.37083471609E+03  0.51883936346E+03  0.00000000000E+00 0. -1.
          1    1    5    5  503    0  0.39141429180E+03 -0.21201776096E+03 -0.75056823736E+03  0.87264503535E+03  0.00000000000E+00 0. -1.
         -4    1    5    5    0  503  0.60350972421E+02 -0.30775147619E+01 -0.81435796679E+02  0.10140759316E+03  0.00000000000E+00 0.  1.
         -1    1    6    6    0  502 -0.50479657687E+02  0.80139560225E+02 -0.70836610907E+02  0.11827244141E+03  0.00000000000E+00 0.  1.
<mgrwt>
<rscale>  0 0.19701493E+04</rscale>
<asrwt>0</asrwt>
<pdfrwt beam="1">  1        1 0.97281659E-01 0.19701493E+04</pdfrwt>
<pdfrwt beam="2">  1       -1 0.23609163E+00 0.19701493E+04</pdfrwt>
<totfact> 0.25377608E+00</totfact>
</mgrwt>
</event>
<event>
12    1  0.2019083E-007  0.2012448E+04  0.7818608E-02  0.8600823E-01
         -1   -1    0    0    0  501 -0.00000000000E+00  0.00000000000E+00  0.70768741771E+03  0.70768741771E+03  0.00000000000E+00 0.  1.
          1   -1    0    0  501    0  0.00000000000E+00 -0.00000000000E+00 -0.14306980973E+04  0.14306980973E+04  0.00000000000E+00 0. -1.
         23    2    1    2    0    0 -0.62892998200E+03 -0.48585810289E+03 -0.40077789007E+03  0.89372868622E+03  0.80728117797E+02 0.  0.
        254    2    1    2    0    0  0.62892998200E+03  0.48585810289E+03 -0.32223278956E+03  0.12446568288E+04  0.90206742125E+03 0.  0.
        -24    2    4    4    0    0  0.28398868280E+03 -0.19027923658E+03  0.11003976582E+03  0.36746141014E+03  0.77867695804E+02 0.  0.
         24    2    4    4    0    0  0.34494129920E+03  0.67613733947E+03 -0.43227255538E+03  0.87719541869E+03  0.80411682682E+02 0.  0.
         11    1    3    3    0    0 -0.55645927894E+03 -0.40443313178E+03 -0.36659325182E+03  0.77948938381E+03  0.00000000000E+00 0. -1.
        -11    1    3    3    0    0 -0.72470703066E+02 -0.81424971114E+02 -0.34184638259E+02  0.11423930242E+03  0.00000000000E+00 0.  1.
          4    1    6    6  502    0  0.24374305323E+03  0.54968614140E+03 -0.33750080137E+03  0.68954501011E+03  0.00000000000E+00 0. -1.
          3    1    5    5  503    0  0.16578754095E+03 -0.15166169462E+03  0.54129394119E+02  0.23112068202E+03  0.00000000000E+00 0. -1.
         -4    1    5    5    0  503  0.11820114185E+03 -0.38617541964E+02  0.55910371698E+02  0.13634072813E+03  0.00000000000E+00 0.  1.
         -3    1    6    6    0  502  0.10119824596E+03  0.12645119807E+03 -0.94771754004E+02  0.18765040857E+03  0.00000000000E+00 0.  1.
<mgrwt>
<rscale>  0 0.20124483E+04</rscale>
<asrwt>0</asrwt>
<pdfrwt beam="1">  1        1 0.22010740E+00 0.20124483E+04</pdfrwt>
<pdfrwt beam="2">  1       -1 0.10887499E+00 0.20124483E+04</pdfrwt>
<totfact> 0.52976783E+00</totfact>
</mgrwt>
</event>
<event>
12    1  0.2019083E-007  0.1347584E+04  0.7818608E-02  0.8992659E-01
          2   -1    0    0  501    0  0.00000000000E+00  0.00000000000E+00  0.22833868146E+04  0.22833868146E+04  0.00000000000E+00 0. -1.
         -2   -1    0    0    0  501 -0.00000000000E+00 -0.00000000000E+00 -0.19882557411E+03  0.19882557411E+03  0.00000000000E+00 0.  1.
         23    2    1    2    0    0 -0.35722388519E+03 -0.48125693065E+02  0.45882326841E+03  0.59049142981E+03  0.90754341772E+02 0.  0.
        254    2    1    2    0    0  0.35722388519E+03  0.48125693065E+02  0.16257379721E+04  0.18917209589E+04  0.89758523050E+03 0.  0.
        -24    2    4    4    0    0  0.39894951440E+02 -0.16183411385E+03  0.14571841786E+04  0.14687746451E+04  0.78302874679E+02 0.  0.
         24    2    4    4    0    0  0.31732893375E+03  0.20995980692E+03  0.16855379348E+03  0.42294631381E+03  0.75448196446E+02 0.  0.
         13    1    3    3    0    0 -0.33749379121E+03 -0.35346645195E+02  0.45347412802E+03  0.56638346482E+03  0.00000000000E+00 0. -1.
        -13    1    3    3    0    0 -0.19730093982E+02 -0.12779047870E+02  0.53491403927E+01  0.24107964989E+02  0.00000000000E+00 0.  1.
          2    1    6    6  502    0  0.10824067896E+03  0.11260607557E+03  0.83581571283E+02  0.17714980072E+03  0.00000000000E+00 0. -1.
          3    1    5    5  503    0  0.48682938560E+02 -0.10504970409E+03  0.70942933788E+03  0.71881531306E+03  0.00000000000E+00 0. -1.
         -4    1    5    5    0  503 -0.87879871203E+01 -0.56784409764E+02  0.74775484070E+03  0.74995933203E+03  0.00000000000E+00 0.  1.
         -1    1    6    6    0  502  0.20908825479E+03  0.97353731346E+02  0.84972222198E+02  0.24579651308E+03  0.00000000000E+00 0.  1.
<mgrwt>
<rscale>  0 0.13475841E+04</rscale>
<asrwt>0</asrwt>
<pdfrwt beam="1">  1        2 0.35129026E+00 0.13475841E+04</pdfrwt>
<pdfrwt beam="2">  1       -2 0.30588551E-01 0.13475841E+04</pdfrwt>
<totfact> 0.44864544E+01</totfact>
</mgrwt>
</event>
<event>
12    1  0.2019083E-007  0.1456845E+04  0.7818608E-02  0.8913669E-01
         -3   -1    0    0    0  501 -0.00000000000E+00  0.00000000000E+00  0.11496186846E+04  0.11496186846E+04  0.00000000000E+00 0. -1.
          3   -1    0    0  501    0  0.00000000000E+00 -0.00000000000E+00 -0.46154355892E+03  0.46154355892E+03  0.00000000000E+00 0.  1.
         23    2    1    2    0    0 -0.11838861239E+03  0.42892259909E+03  0.20450119327E+03  0.49813914418E+03  0.91276554283E+02 0.  0.
        254    2    1    2    0    0  0.11838861239E+03 -0.42892259909E+03  0.48357393239E+03  0.11130230993E+04  0.89832411299E+03 0.  0.
        -24    2    4    4    0    0 -0.35971505158E+03 -0.31366259386E+02  0.23861988106E+03  0.43994078776E+03  0.78928375993E+02 0.  0.
         24    2    4    4    0    0  0.47810366397E+03 -0.39755633971E+03  0.24495405133E+03  0.67308231156E+03  0.80019710843E+02 0.  0.
         13    1    3    3    0    0 -0.55601217698E+02  0.34233519954E+03  0.16559852560E+03  0.38432766741E+03  0.00000000000E+00 0.  1.
        -13    1    3    3    0    0 -0.62787394696E+02  0.86587399549E+02  0.38902667668E+02  0.11381147677E+03  0.00000000000E+00 0. -1.
          2    1    6    6  502    0  0.29138618991E+03 -0.28101300065E+03  0.18417277053E+03  0.44474017989E+03  0.00000000000E+00 0. -1.
          3    1    5    5  503    0 -0.35567006942E+02  0.13015732136E+02  0.56374274549E+01  0.38291015319E+02  0.00000000000E+00 0. -1.
         -4    1    5    5    0  503 -0.32414804464E+03 -0.44381991523E+02  0.23298245361E+03  0.40164977244E+03  0.00000000000E+00 0.  1.
         -1    1    6    6    0  502  0.18671747406E+03 -0.11654333906E+03  0.60781280802E+02  0.22834213167E+03  0.00000000000E+00 0.  1.
<mgrwt>
<rscale>  0 0.14568447E+04</rscale>
<asrwt>0</asrwt>
<pdfrwt beam="1">  1        3 0.71006702E-01 0.14568447E+04</pdfrwt>
<pdfrwt beam="2">  1       -3 0.17686441E+00 0.14568447E+04</pdfrwt>
<totfact> 0.99712188E-01</totfact>
</mgrwt>
</event>
<event>
12    1  0.2019083E-007  0.1094326E+04  0.7818608E-02  0.9210740E-01
          2   -1    0    0  501    0  0.00000000000E+00  0.00000000000E+00  0.49638352764E+03  0.49638352764E+03  0.00000000000E+00 0.  1.
         -2   -1    0    0    0  501 -0.00000000000E+00 -0.00000000000E+00 -0.60313695524E+03  0.60313695524E+03  0.00000000000E+00 0. -1.
         23    2    1    2    0    0 -0.15116580103E+03  0.65548390633E+01 -0.68438852234E+02  0.18783441821E+03  0.87771446676E+02 0.  0.
        254    2    1    2    0    0  0.15116580103E+03 -0.65548390633E+01 -0.38314575367E+02  0.91168606466E+03  0.89822570020E+03 0.  0.
        -24    2    4    4    0    0  0.24924763091E+03 -0.40457814308E+03 -0.92460169190E+02  0.49062039471E+03  0.79697135752E+02 0.  0.
         24    2    4    4    0    0 -0.98081829882E+02  0.39802330402E+03  0.54145593824E+02  0.42106566995E+03  0.79510736291E+02 0.  0.
         11    1    3    3    0    0 -0.93746736149E+02 -0.22935130224E+02 -0.39524360061E+01  0.96592403881E+02  0.00000000000E+00 0.  1.
        -11    1    3    3    0    0 -0.57419064882E+02  0.29489969288E+02 -0.64486416228E+02  0.91242014327E+02  0.00000000000E+00 0. -1.
          2    1    6    6  502    0 -0.92112894923E+02  0.33774848321E+03  0.73030396109E+02  0.35762027638E+03  0.00000000000E+00 0. -1.
          3    1    5    5  503    0  0.22866212195E+03 -0.34530113553E+03 -0.55650722673E+02  0.41787108436E+03  0.00000000000E+00 0. -1.
         -4    1    5    5    0  503  0.20585508963E+02 -0.59277007556E+02 -0.36809446517E+02  0.72749310353E+02  0.00000000000E+00 0.  1.
         -1    1    6    6    0  502 -0.59689349584E+01  0.60274820807E+02 -0.18884802285E+02  0.63445393570E+02  0.00000000000E+00 0.  1.
<mgrwt>
<rscale>  0 0.10943258E+04</rscale>
<asrwt>0</asrwt>
<pdfrwt beam="1">  1        2 0.76366696E-01 0.10943258E+04</pdfrwt>
<pdfrwt beam="2">  1       -2 0.92790301E-01 0.10943258E+04</pdfrwt>
<totfact> 0.60756578E+01</totfact>
</mgrwt>
</event>
<event>
12    1  0.2019083E-007  0.2051821E+04  0.7818608E-02  0.8582768E-01
          1   -1    0    0  501    0  0.00000000000E+00  0.00000000000E+00  0.14442056105E+04  0.14442056105E+04  0.00000000000E+00 0. -1.
         -1   -1    0    0    0  501 -0.00000000000E+00 -0.00000000000E+00 -0.72876936748E+03  0.72876936748E+03  0.00000000000E+00 0.  1.
         23    2    1    2    0    0  0.11118929013E+03  0.79894324995E+03  0.11784300482E+03  0.82038406448E+03  0.92030780649E+02 0.  0.
        254    2    1    2    0    0 -0.11118929013E+03 -0.79894324995E+03  0.59759323823E+03  0.13525909135E+04  0.90648283279E+03 0.  0.
        -24    2    4    4    0    0 -0.33172191058E+03  0.33030071328E+02  0.10953924312E+03  0.35998321665E+03  0.80365781982E+02 0.  0.
         24    2    4    4    0    0  0.22053262045E+03 -0.83197332128E+03  0.48805399511E+03  0.99260769690E+03  0.79114434825E+02 0.  0.
         13    1    3    3    0    0  0.21132181978E+02  0.28249977786E+03  0.82025397005E+02  0.29492517586E+03  0.00000000000E+00 0. -1.
        -13    1    3    3    0    0  0.90057108154E+02  0.51644347209E+03  0.35817607819E+02  0.52545888862E+03  0.00000000000E+00 0.  1.
          4    1    6    6  502    0  0.19434283759E+03 -0.68690493695E+03  0.43486610590E+03  0.83589237404E+03  0.00000000000E+00 0. -1.
          3    1    5    5  503    0 -0.19104166226E+03 -0.20982677182E+02  0.63735026840E+02  0.20248294523E+03  0.00000000000E+00 0. -1.
         -4    1    5    5    0  503 -0.14068024832E+03  0.54012748509E+02  0.45804216280E+02  0.15750027142E+03  0.00000000000E+00 0.  1.
         -3    1    6    6    0  502  0.26189782858E+02 -0.14506838433E+03  0.53187889212E+02  0.15671532285E+03  0.00000000000E+00 0.  1.
<mgrwt>
<rscale>  0 0.20518214E+04</rscale>
<asrwt>0</asrwt>
<pdfrwt beam="1">  1        1 0.22218548E+00 0.20518214E+04</pdfrwt>
<pdfrwt beam="2">  1       -1 0.11211836E+00 0.20518214E+04</pdfrwt>
<totfact> 0.48187266E+00</totfact>
</mgrwt>
</event>
<event>
12    1  0.2019083E-007  0.1445037E+04  0.7818608E-02  0.8921849E-01
         -2   -1    0    0    0  501 -0.00000000000E+00  0.00000000000E+00  0.55866624750E+03  0.55866624750E+03  0.00000000000E+00 0.  1.
          2   -1    0    0  501    0  0.00000000000E+00 -0.00000000000E+00 -0.93442682376E+03  0.93442682376E+03  0.00000000000E+00 0. -1.
         23    2    1    2    0    0 -0.28387389656E+03  0.98017819298E+02 -0.44339809652E+03  0.54327148137E+03  0.91379146572E+02 0.  0.
        254    2    1    2    0    0  0.28387389656E+03 -0.98017819298E+02  0.67637520253E+02  0.94982158988E+03  0.89855124307E+03 0.  0.
        -24    2    4    4    0    0  0.25374883483E+03 -0.47896852499E+03  0.99446543787E+02  0.55682861248E+03  0.79807076691E+02 0.  0.
         24    2    4    4    0    0  0.30125061728E+02  0.38095070569E+03 -0.31809023534E+02  0.39299297741E+03  0.86027360771E+02 0.  0.
         11    1    3    3    0    0 -0.11978937247E+03  0.89471891653E+02 -0.21783130482E+03  0.26420671928E+03  0.00000000000E+00 0.  1.
        -11    1    3    3    0    0 -0.16408452409E+03  0.85459276450E+01 -0.22556679169E+03  0.27906476209E+03  0.00000000000E+00 0. -1.
          2    1    6    6  502    0  0.58321077043E+01  0.29199585731E+03  0.89110673129E+01  0.29219000888E+03  0.00000000000E+00 0. -1.
          1    1    5    5  503    0  0.13210369578E+03 -0.18207245168E+03  0.17201870415E+02  0.22560511618E+03  0.00000000000E+00 0. -1.
         -2    1    5    5    0  503  0.12164513905E+03 -0.29689607331E+03  0.82244673371E+02  0.33122349630E+03  0.00000000000E+00 0.  1.
         -1    1    6    6    0  502  0.24292954024E+02  0.88954848381E+02 -0.40720090847E+02  0.10080296853E+03  0.00000000000E+00 0.  1.
<mgrwt>
<rscale>  0 0.14450366E+04</rscale>
<asrwt>0</asrwt>
<pdfrwt beam="1">  1        2 0.14375797E+00 0.14450366E+04</pdfrwt>
<pdfrwt beam="2">  1       -2 0.85948654E-01 0.14450366E+04</pdfrwt>
<totfact> 0.31694715E+01</totfact>
</mgrwt>
</event>
<event>
12    1  0.2019083E-007  0.3163270E+04  0.7818608E-02  0.8198585E-01
          2   -1    0    0  501    0  0.00000000000E+00  0.00000000000E+00  0.42544547568E+04  0.42544547568E+04  0.00000000000E+00 0. -1.
         -2   -1    0    0    0  501 -0.00000000000E+00 -0.00000000000E+00 -0.58798833776E+03  0.58798833776E+03  0.00000000000E+00 0.  1.
         23    2    1    2    0    0 -0.12215336547E+04  0.14577325545E+03  0.50840997149E+03  0.13341365533E+04  0.89695776398E+02 0.  0.
        254    2    1    2    0    0  0.12215336547E+04 -0.14577325545E+03  0.31580564476E+04  0.35083065413E+04  0.90636634423E+03 0.  0.
        -24    2    4    4    0    0  0.52174382523E+03 -0.36940516623E+03  0.74490029008E+03  0.98463209893E+03  0.77117650914E+02 0.  0.
         24    2    4    4    0    0  0.69978982943E+03  0.22363191078E+03  0.24131561575E+04  0.25236744423E+04  0.76765965972E+02 0.  0.
         13    1    3    3    0    0 -0.56967376139E+03  0.24642350402E+02  0.24823389720E+03  0.62189670169E+03  0.00000000000E+00 0. -1.
        -13    1    3    3    0    0 -0.65185989327E+03  0.12113090505E+03  0.26017607429E+03  0.71223985163E+03  0.00000000000E+00 0.  1.
          4    1    6    6  502    0  0.28477385206E+03  0.57222964099E+02  0.88522234225E+03  0.93165938500E+03  0.00000000000E+00 0. -1.
          3    1    5    5  503    0  0.23335060657E+03 -0.19975184826E+03  0.31648391213E+03  0.44103897005E+03  0.00000000000E+00 0. -1.
         -4    1    5    5    0  503  0.28839321866E+03 -0.16965331798E+03  0.42841637795E+03  0.54359312888E+03  0.00000000000E+00 0.  1.
         -3    1    6    6    0  502  0.41501597737E+03  0.16640894668E+03  0.15279338153E+04  0.15920150573E+04  0.00000000000E+00 0.  1.
<mgrwt>
<rscale>  0 0.31632703E+04</rscale>
<asrwt>0</asrwt>
<pdfrwt beam="1">  1        2 0.65453148E+00 0.31632703E+04</pdfrwt>
<pdfrwt beam="2">  1       -2 0.90459747E-01 0.31632703E+04</pdfrwt>
<totfact> 0.18342331E-01</totfact>
</mgrwt>
</event>
<event>
12    1  0.2019083E-007  0.1635584E+04  0.7818608E-02  0.8798981E-01
         -2   -1    0    0    0  501 -0.00000000000E+00  0.00000000000E+00  0.30894600196E+03  0.30894600196E+03  0.00000000000E+00 0.  1.
          2   -1    0    0  501    0  0.00000000000E+00 -0.00000000000E+00 -0.21647270285E+04  0.21647270285E+04  0.00000000000E+00 0. -1.
         23    2    1    2    0    0 -0.94413910299E+02  0.52037773250E+03 -0.31039321606E+03  0.62027775430E+03  0.93239331574E+02 0.  0.
        254    2    1    2    0    0  0.94413910299E+02 -0.52037773250E+03 -0.15453878105E+04  0.18533952762E+04  0.87586733815E+03 0.  0.
        -24    2    4    4    0    0 -0.23919089068E+03 -0.40721918489E+03 -0.13704547308E+04  0.14518363382E+04  0.81503601150E+02 0.  0.
         24    2    4    4    0    0  0.33360480098E+03 -0.11315854761E+03 -0.17493307968E+03  0.40155893798E+03  0.80938113235E+02 0.  0.
         13    1    3    3    0    0 -0.10274732568E+03  0.31467580291E+03 -0.18463882831E+03  0.37903742663E+03  0.00000000000E+00 0.  1.
        -13    1    3    3    0    0  0.83334153775E+01  0.20570192960E+03 -0.12575438775E+03  0.24124032766E+03  0.00000000000E+00 0. -1.
          2    1    6    6  502    0  0.13234540142E+03 -0.55147987218E+01 -0.76840791317E+02  0.15313466456E+03  0.00000000000E+00 0. -1.
          3    1    5    5  503    0 -0.53767944993E+02 -0.16872936572E+03 -0.51865356368E+03  0.54805301741E+03  0.00000000000E+00 0. -1.
         -4    1    5    5    0  503 -0.18542294568E+03 -0.23848981917E+03 -0.85180116715E+03  0.90378332082E+03  0.00000000000E+00 0.  1.
         -1    1    6    6    0  502  0.20125939956E+03 -0.10764374889E+03 -0.98092288358E+02  0.24842427341E+03  0.00000000000E+00 0.  1.
<mgrwt>
<rscale>  0 0.16355840E+04</rscale>
<asrwt>0</asrwt>
<pdfrwt beam="1">  1        2 0.33303494E+00 0.16355840E+04</pdfrwt>
<pdfrwt beam="2">  1       -2 0.47530153E-01 0.16355840E+04</pdfrwt>
<totfact> 0.21695384E+01</totfact>
</mgrwt>
</event>
<event>
12    1  0.2019083E-007  0.1381394E+04  0.7818608E-02  0.8967398E-01
          3   -1    0    0  501    0  0.00000000000E+00  0.00000000000E+00  0.25181972745E+03  0.25181972745E+03  0.00000000000E+00 0. -1.
         -3   -1    0    0    0  501 -0.00000000000E+00 -0.00000000000E+00 -0.18944585965E+04  0.18944585965E+04  0.00000000000E+00 0.  1.
         23    2    1    2    0    0 -0.19068425614E+03 -0.31469383992E+03 -0.31528475703E+03  0.50026326147E+03  0.12436299421E+03 0.  0.
        254    2    1    2    0    0  0.19068425614E+03  0.31469383992E+03 -0.13273541121E+04  0.16460150625E+04  0.90116810242E+03 0.  0.
        -24    2    4    4    0    0 -0.26768737791E+03  0.21549274393E+03 -0.16390950646E+03  0.38906701591E+03  0.80082217663E+02 0.  0.
         24    2    4    4    0    0  0.45837163405E+03  0.99201095995E+02 -0.11634446056E+04  0.12569480466E+04  0.79809956991E+02 0.  0.
         11    1    3    3    0    0 -0.19791235162E+03 -0.27837880053E+03 -0.24343504103E+03  0.41943375485E+03  0.00000000000E+00 0. -1.
        -11    1    3    3    0    0  0.72280954739E+01 -0.36315039395E+02 -0.71849716000E+02  0.80829506616E+02  0.00000000000E+00 0.  1.
          4    1    6    6  502    0  0.45391030501E+03  0.86601969736E+02 -0.11370623060E+04  0.12273732740E+04  0.00000000000E+00 0. -1.
          1    1    5    5  503    0 -0.24196310655E+03  0.21505679477E+03 -0.13605972393E+03  0.35115212998E+03  0.00000000000E+00 0. -1.
         -2    1    5    5    0  503 -0.25724271354E+02  0.43594915425E+00 -0.27849782535E+02  0.37914885937E+02  0.00000000000E+00 0.  1.
         -3    1    6    6    0  502  0.44613290442E+01  0.12599126259E+02 -0.26382299619E+02  0.29574772570E+02  0.00000000000E+00 0.  1.
<mgrwt>
<rscale>  0 0.13813936E+04</rscale>
<asrwt>0</asrwt>
<pdfrwt beam="1">  1        3 0.38741498E-01 0.13813936E+04</pdfrwt>
<pdfrwt beam="2">  1       -3 0.29145516E+00 0.13813936E+04</pdfrwt>
<totfact> 0.72141082E-01</totfact>
</mgrwt>
</event>
<event>
12    1  0.2019083E-007  0.2051100E+04  0.7818608E-02  0.8583095E-01
         -2   -1    0    0    0  501 -0.00000000000E+00  0.00000000000E+00  0.32543120387E+03  0.32543120387E+03  0.00000000000E+00 0.  1.
          2   -1    0    0  501    0  0.00000000000E+00 -0.00000000000E+00 -0.32318751022E+04  0.32318751022E+04  0.00000000000E+00 0. -1.
         23    2    1    2    0    0 -0.35386803314E+03 -0.65726143865E+03 -0.56902186582E+03  0.94335951487E+03  0.94478076269E+02 0.  0.
        254    2    1    2    0    0  0.35386803314E+03  0.65726143865E+03 -0.23374220325E+04  0.26139467912E+04  0.90108872235E+03 0.  0.
        -24    2    4    4    0    0  0.13698761945E+03 -0.26534748210E+02 -0.14990557127E+04  0.15077114214E+04  0.80969128044E+02 0.  0.
         24    2    4    4    0    0  0.21688041369E+03  0.68379618686E+03 -0.83836631981E+03  0.11062353698E+04  0.79273376392E+02 0.  0.
         13    1    3    3    0    0 -0.86454855681E+02 -0.97877318454E+02 -0.75027051189E+02  0.15061032484E+03  0.00000000000E+00 0.  1.
        -13    1    3    3    0    0 -0.26741317746E+03 -0.55938412020E+03 -0.49399481463E+03  0.79274919003E+03  0.00000000000E+00 0. -1.
          4    1    6    6  502    0  0.59703870611E+02  0.17090926101E+03 -0.26625182739E+03  0.32196981730E+03  0.00000000000E+00 0. -1.
          3    1    5    5  503    0  0.37836258226E+02  0.65494146125E+01 -0.15842656309E+03  0.16301365943E+03  0.00000000000E+00 0. -1.
         -4    1    5    5    0  503  0.99151361224E+02 -0.33084162823E+02 -0.13406291496E+04  0.13446977620E+04  0.00000000000E+00 0.  1.
         -3    1    6    6    0  502  0.15717654308E+03  0.51288692585E+03 -0.57211449242E+03  0.78426555250E+03  0.00000000000E+00 0.  1.
<mgrwt>
<rscale>  0 0.20511002E+04</rscale>
<asrwt>0</asrwt>
<pdfrwt beam="1">  1        2 0.49721156E+00 0.20511002E+04</pdfrwt>
<pdfrwt beam="2">  1       -2 0.50066338E-01 0.20511002E+04</pdfrwt>
<totfact> 0.43295924E+00</totfact>
</mgrwt>
</event>
<event>
12    1  0.3713341E-007  0.4209339E+04  0.7818608E-02  0.7963598E-01
          1   -1    0    0  501    0  0.00000000000E+00  0.00000000000E+00  0.27668344424E+04  0.27668344424E+04  0.00000000000E+00 0. -1.
         -1   -1    0    0    0  501 -0.00000000000E+00 -0.00000000000E+00 -0.16009756864E+04  0.16009756864E+04  0.00000000000E+00 0.  1.
         23    2    1    2    0    0 -0.79542169508E+03  0.15426390944E+04  0.16030644465E+04  0.23643591802E+04  0.89149674833E+02 0.  0.
        254    2    1    2    0    0  0.79542169508E+03 -0.15426390944E+04 -0.43720569060E+03  0.20034509486E+04  0.90013101216E+03 0.  0.
        -24    2    4    4    0    0  0.86357576961E+03 -0.10273173869E+04 -0.41545558365E+02  0.13451061456E+04  0.80252017574E+02 0.  0.
         24    2    4    4    0    0 -0.68154074535E+02 -0.51532170749E+03 -0.39566013224E+03  0.65834480297E+03  0.81667002371E+02 0.  0.
         11    1    3    3    0    0 -0.28903557418E+03  0.65410943432E+03  0.67232229435E+03  0.98153857932E+03  0.00000000000E+00 0. -1.
        -11    1    3    3    0    0 -0.50638612090E+03  0.88852966008E+03  0.93074215218E+03  0.13828206008E+04  0.00000000000E+00 0.  1.
          2    1    6    6  502    0 -0.61628859134E+02 -0.51130822117E+03 -0.37723018872E+03  0.63838611248E+03  0.00000000000E+00 0. -1.
          1    1    5    5  503    0  0.67055284559E+03 -0.81317554935E+03 -0.11290197650E+01  0.10539909238E+04  0.00000000000E+00 0. -1.
         -2    1    5    5    0  503  0.19302292402E+03 -0.21414183756E+03 -0.40416538600E+02  0.29111522184E+03  0.00000000000E+00 0.  1.
         -1    1    6    6    0  502 -0.65252154010E+01 -0.40134863129E+01 -0.18429943513E+02  0.19958690496E+02  0.00000000000E+00 0.  1.
<mgrwt>
<rscale>  0 0.42093395E+04</rscale>
<asrwt>0</asrwt>
<pdfrwt beam="1">  1        1 0.42566684E+00 0.42093395E+04</pdfrwt>
<pdfrwt beam="2">  1       -1 0.24630395E+00 0.42093395E+04</pdfrwt>
<totfact> 0.49901316E-02</totfact>
</mgrwt>
</event>
<event>
12    1  0.2019083E-007  0.1516533E+04  0.7818608E-02  0.8873533E-01
          3   -1    0    0  501    0  0.00000000000E+00  0.00000000000E+00  0.12471685611E+04  0.12471685611E+04  0.00000000000E+00 0. -1.
         -3   -1    0    0    0  501 -0.00000000000E+00 -0.00000000000E+00 -0.46101846241E+03  0.46101846241E+03  0.00000000000E+00 0.  1.
         23    2    1    2    0    0  0.23190408004E+03 -0.37884369377E+03  0.35096325608E+02  0.45488060233E+03  0.91556341460E+02 0.  0.
        254    2    1    2    0    0 -0.23190408004E+03  0.37884369377E+03  0.75105377311E+03  0.12533064212E+04  0.89966280832E+03 0.  0.
        -24    2    4    4    0    0  0.99844645744E+02  0.51417692633E+03  0.15236106622E+03  0.55126106780E+03  0.79548761861E+02 0.  0.
         24    2    4    4    0    0 -0.33174872579E+03 -0.13533323257E+03  0.59869270689E+03  0.70204535340E+03  0.77861544092E+02 0.  0.
         11    1    3    3    0    0  0.18891384568E+03 -0.32644587551E+03 -0.29022739319E+01  0.37717870290E+03  0.00000000000E+00 0.  1.
        -11    1    3    3    0    0  0.42990234365E+02 -0.52397818252E+02  0.37998599540E+02  0.77701899432E+02  0.00000000000E+00 0. -1.
          2    1    6    6  502    0 -0.17417673523E+03 -0.83442532347E+02  0.25010410287E+03  0.31599407205E+03  0.00000000000E+00 0. -1.
          1    1    5    5  503    0  0.35332287145E+02  0.79790020227E+02  0.49118291615E+02  0.10013702819E+03  0.00000000000E+00 0. -1.
         -4    1    5    5    0  503  0.64512358599E+02  0.43438690611E+03  0.10324277461E+03  0.45112403961E+03  0.00000000000E+00 0.  1.
         -1    1    6    6    0  502 -0.15757199056E+03 -0.51890700221E+02  0.34858860402E+03  0.38605128135E+03  0.00000000000E+00 0.  1.
<mgrwt>
<rscale>  0 0.15165325E+04</rscale>
<asrwt>0</asrwt>
<pdfrwt beam="1">  1        3 0.19187208E+00 0.15165325E+04</pdfrwt>
<pdfrwt beam="2">  1       -3 0.70925918E-01 0.15165325E+04</pdfrwt>
<totfact> 0.79574801E-01</totfact>
</mgrwt>
</event>
<event>
12    1  0.2019083E-007  0.1787373E+04  0.7818608E-02  0.8713043E-01
          2   -1    0    0  501    0  0.00000000000E+00  0.00000000000E+00  0.11892740890E+04  0.11892740890E+04  0.00000000000E+00 0. -1.
         -2   -1    0    0    0  501 -0.00000000000E+00 -0.00000000000E+00 -0.67156589015E+03  0.67156589015E+03  0.00000000000E+00 0.  1.
         23    2    1    2    0    0 -0.19957141699E+03 -0.52333527533E+03  0.56402887959E+03  0.80087274366E+03  0.97775322222E+02 0.  0.
        254    2    1    2    0    0  0.19957141699E+03  0.52333527533E+03 -0.46320680769E+02  0.10599672355E+04  0.89870816950E+03 0.  0.
        -24    2    4    4    0    0  0.53689477174E+03  0.18522628018E+03 -0.52011003125E+02  0.57569970251E+03  0.78487146948E+02 0.  0.
         24    2    4    4    0    0 -0.33732335475E+03  0.33810899515E+03  0.56903223555E+01  0.48426753296E+03  0.79861914892E+02 0.  0.
         11    1    3    3    0    0 -0.47644857709E+02 -0.22769684944E+03  0.27681200791E+03  0.36158093898E+03  0.00000000000E+00 0. -1.
        -11    1    3    3    0    0 -0.15192655928E+03 -0.29563842589E+03  0.28721687168E+03  0.43929180468E+03  0.00000000000E+00 0.  1.
          4    1    6    6  502    0 -0.10541733181E+03  0.11006604057E+03  0.39016301177E+02  0.15732011597E+03  0.00000000000E+00 0. -1.
          1    1    5    5  503    0  0.24008393654E+03  0.11302353948E+03 -0.51093158057E+02  0.27023161892E+03  0.00000000000E+00 0. -1.
         -2    1    5    5    0  503  0.29681083520E+03  0.72202740693E+02 -0.91784506763E+00  0.30546808359E+03  0.00000000000E+00 0.  1.
         -3    1    6    6    0  502 -0.23190602294E+03  0.22804295458E+03 -0.33325978822E+02  0.32694741699E+03  0.00000000000E+00 0.  1.
<mgrwt>
<rscale>  0 0.17873734E+04</rscale>
<asrwt>0</asrwt>
<pdfrwt beam="1">  1        2 0.18296524E+00 0.17873734E+04</pdfrwt>
<pdfrwt beam="2">  1       -2 0.10331783E+00 0.17873734E+04</pdfrwt>
<totfact> 0.13883776E+01</totfact>
</mgrwt>
</event>
<event>
12    1  0.2019083E-007  0.3496503E+04  0.7818608E-02  0.8114619E-01
          2   -1    0    0  501    0  0.00000000000E+00  0.00000000000E+00  0.35195147168E+04  0.35195147168E+04  0.00000000000E+00 0. -1.
         -2   -1    0    0    0  501 -0.00000000000E+00 -0.00000000000E+00 -0.86841030934E+03  0.86841030934E+03  0.00000000000E+00 0.  1.
         23    2    1    2    0    0 -0.98066051239E+03  0.96670099230E+03  0.23341262217E+04  0.27113227074E+04  0.83185069459E+02 0.  0.
        254    2    1    2    0    0  0.98066051239E+03 -0.96670099230E+03  0.31697818572E+03  0.16766023187E+04  0.90239365901E+03 0.  0.
        -24    2    4    4    0    0 -0.57229321840E+02 -0.14400877752E+03  0.30297162087E+03  0.34969186842E+03  0.80491468513E+02 0.  0.
         24    2    4    4    0    0  0.10378898342E+04 -0.82269221478E+03  0.14006564853E+02  0.13269104503E+04  0.80357768734E+02 0.  0.
         11    1    3    3    0    0 -0.70265961783E+03  0.70058687043E+03  0.16074538078E+04  0.18890368566E+04  0.00000000000E+00 0.  1.
        -11    1    3    3    0    0 -0.27800089456E+03  0.26611412186E+03  0.72667241394E+03  0.82228585079E+03  0.00000000000E+00 0. -1.
          2    1    6    6  502    0  0.59331515864E+03 -0.41942045253E+03  0.10840568739E+02  0.72667318060E+03  0.00000000000E+00 0. -1.
          1    1    5    5  503    0 -0.73665031497E+02 -0.12942059671E+03  0.23457881433E+03  0.27785508427E+03  0.00000000000E+00 0. -1.
         -2    1    5    5    0  503  0.16435709656E+02 -0.14588180809E+02  0.68392806538E+02  0.71836784152E+02  0.00000000000E+00 0.  1.
         -1    1    6    6    0  502  0.44457467558E+03 -0.40327176225E+03  0.31659961148E+01  0.60023726969E+03  0.00000000000E+00 0.  1.
<mgrwt>
<rscale>  0 0.34965027E+04</rscale>
<asrwt>0</asrwt>
<pdfrwt beam="1">  1        2 0.54146380E+00 0.34965027E+04</pdfrwt>
<pdfrwt beam="2">  1       -2 0.13360159E+00 0.34965027E+04</pdfrwt>
<totfact> 0.26188743E-01</totfact>
</mgrwt>
</event>
<event>
12    1  0.2019083E-007  0.4021435E+04  0.7818608E-02  0.8000236E-01
          2   -1    0    0  501    0  0.00000000000E+00  0.00000000000E+00  0.34920275168E+04  0.34920275168E+04  0.00000000000E+00 0. -1.
         -2   -1    0    0    0  501 -0.00000000000E+00 -0.00000000000E+00 -0.11577755975E+04  0.11577755975E+04  0.00000000000E+00 0.  1.
         23    2    1    2    0    0 -0.18866885930E+04 -0.28497418983E+03  0.11302613360E+04  0.22196403093E+04  0.92240333513E+02 0.  0.
        254    2    1    2    0    0  0.18866885930E+04  0.28497418983E+03  0.12039905832E+04  0.24301628050E+04  0.90293620941E+03 0.  0.
        -24    2    4    4    0    0  0.48900069737E+03  0.12273191773E+03  0.82596312565E+03  0.97106798661E+03  0.81074928439E+02 0.  0.
         24    2    4    4    0    0  0.13976878957E+04  0.16224227210E+03  0.37802745755E+03  0.14590948184E+04  0.78733231671E+02 0.  0.
         13    1    3    3    0    0 -0.52593025419E+03 -0.11703572278E+03  0.29752845760E+03  0.61548612963E+03  0.00000000000E+00 0.  1.
        -13    1    3    3    0    0 -0.13607583388E+04 -0.16793846705E+03  0.83273287843E+03  0.16041541797E+04  0.00000000000E+00 0. -1.
          4    1    6    6  502    0  0.25530710795E+03  0.19953549485E+01  0.55286318994E+02  0.26123222978E+03  0.00000000000E+00 0. -1.
          1    1    5    5  503    0  0.15961447821E+03  0.39772382494E+01  0.23334900598E+03  0.28274433446E+03  0.00000000000E+00 0. -1.
         -2    1    5    5    0  503  0.32938621916E+03  0.11875467948E+03  0.59261411967E+03  0.68832365215E+03  0.00000000000E+00 0.  1.
         -3    1    6    6    0  502  0.11423807877E+04  0.16024691716E+03  0.32274113856E+03  0.11978625886E+04  0.00000000000E+00 0.  1.
<mgrwt>
<rscale>  0 0.40214347E+04</rscale>
<asrwt>0</asrwt>
<pdfrwt beam="1">  1        2 0.53723500E+00 0.40214347E+04</pdfrwt>
<pdfrwt beam="2">  1       -2 0.17811932E+00 0.40214347E+04</pdfrwt>
<totfact> 0.12096122E-01</totfact>
</mgrwt>
</event>
<event>
12    1  0.2019083E-007  0.2503376E+04  0.7818608E-02  0.8401784E-01
          2   -1    0    0  501    0  0.00000000000E+00  0.00000000000E+00  0.10235453080E+04  0.10235453080E+04  0.00000000000E+00 0. -1.
         -2   -1    0    0    0  501 -0.00000000000E+00 -0.00000000000E+00 -0.15306823756E+04  0.15306823756E+04  0.00000000000E+00 0.  1.
         23    2    1    2    0    0 -0.95789147055E+03 -0.11999069705E+03  0.29131552314E+03  0.10125705884E+04  0.92090313017E+02 0.  0.
        254    2    1    2    0    0  0.95789147055E+03  0.11999069705E+03 -0.79845259070E+03  0.15416570952E+04  0.89845769111E+03 0.  0.
        -24    2    4    4    0    0  0.11617226024E+03 -0.32969311860E+03 -0.17342744997E+03  0.39820174755E+03  0.79334764423E+02 0.  0.
         24    2    4    4    0    0  0.84171921031E+03  0.44968381565E+03 -0.62502514073E+03  0.11434553476E+04  0.78274787592E+02 0.  0.
         13    1    3    3    0    0 -0.54897581445E+03 -0.11424694548E+03  0.17429969429E+03  0.58720285492E+03  0.00000000000E+00 0. -1.
        -13    1    3    3    0    0 -0.40891565610E+03 -0.57437515738E+01  0.11701582885E+03  0.42536773348E+03  0.00000000000E+00 0.  1.
          2    1    6    6  502    0  0.79108876024E+03  0.40790168553E+03 -0.59895059851E+03  0.10728219941E+04  0.00000000000E+00 0. -1.
          3    1    5    5  503    0  0.12481049483E+03 -0.28578399641E+03 -0.16447189902E+03  0.35256369324E+03  0.00000000000E+00 0. -1.
         -4    1    5    5    0  503 -0.86382345857E+01 -0.43909122186E+02 -0.89555509434E+01  0.45638054303E+02  0.00000000000E+00 0.  1.
         -1    1    6    6    0  502  0.50630450069E+02  0.41782130121E+02 -0.26074542217E+02  0.70633353477E+02  0.00000000000E+00 0.  1.
<mgrwt>
<rscale>  0 0.25033759E+04</rscale>
<asrwt>0</asrwt>
<pdfrwt beam="1">  1        2 0.15746851E+00 0.25033759E+04</pdfrwt>
<pdfrwt beam="2">  1       -2 0.23548960E+00 0.25033759E+04</pdfrwt>
<totfact> 0.17137059E+00</totfact>
</mgrwt>
</event>
<event>
12    1  0.2019083E-007  0.3483773E+04  0.7818608E-02  0.8117646E-01
          2   -1    0    0  501    0  0.00000000000E+00  0.00000000000E+00  0.14422055764E+04  0.14422055764E+04  0.00000000000E+00 0. -1.
         -2   -1    0    0    0  501 -0.00000000000E+00 -0.00000000000E+00 -0.21038393143E+04  0.21038393143E+04  0.00000000000E+00 0.  1.
         23    2    1    2    0    0  0.13406265953E+04  0.67614969225E+03  0.31893041729E+03  0.15376219726E+04  0.90036910341E+02 0.  0.
        254    2    1    2    0    0 -0.13406265953E+04 -0.67614969225E+03 -0.98056415514E+03  0.20084229181E+04  0.90432211144E+03 0.  0.
        -24    2    4    4    0    0 -0.65862248247E+03 -0.41271933194E+03 -0.10044604230E+04  0.12725067662E+04  0.78815653238E+02 0.  0.
         24    2    4    4    0    0 -0.68200411284E+03 -0.26343036031E+03  0.23896267843E+02  0.73591615196E+03  0.80475999039E+02 0.  0.
         13    1    3    3    0    0  0.73541398078E+03  0.41441020765E+03  0.20161029593E+03  0.86788032283E+03  0.00000000000E+00 0. -1.
        -13    1    3    3    0    0  0.60521261453E+03  0.26173948461E+03  0.11732012136E+03  0.66974164979E+03  0.00000000000E+00 0.  1.
          4    1    6    6  502    0 -0.30098086572E+03 -0.15694826967E+03  0.24031713352E+02  0.34029364397E+03  0.00000000000E+00 0. -1.
          3    1    5    5  503    0 -0.53746145991E+03 -0.32718465873E+03 -0.85872464354E+03  0.10645762703E+04  0.00000000000E+00 0. -1.
         -4    1    5    5    0  503 -0.12116102256E+03 -0.85534673212E+02 -0.14573577944E+03  0.20793049588E+03  0.00000000000E+00 0.  1.
         -3    1    6    6    0  502 -0.38102324713E+03 -0.10648209064E+03 -0.13544550832E+00  0.39562250799E+03  0.00000000000E+00 0.  1.
<mgrwt>
<rscale>  0 0.34837731E+04</rscale>
<asrwt>0</asrwt>
<pdfrwt beam="1">  1        2 0.22187778E+00 0.34837731E+04</pdfrwt>
<pdfrwt beam="2">  1       -2 0.32366759E+00 0.34837731E+04</pdfrwt>
<totfact> 0.25590270E-01</totfact>
</mgrwt>
</event>
<event>
12    1  0.2019083E-007  0.2800961E+04  0.7818608E-02  0.8302970E-01
         -2   -1    0    0    0  501 -0.00000000000E+00  0.00000000000E+00  0.17760309452E+04  0.17760309452E+04  0.00000000000E+00 0.  1.
          2   -1    0    0  501    0  0.00000000000E+00 -0.00000000000E+00 -0.11043417939E+04  0.11043417939E+04  0.00000000000E+00 0. -1.
         23    2    1    2    0    0 -0.97741214648E+03 -0.50257211224E+02  0.11026886964E+04  0.14772561466E+04  0.92212092674E+02 0.  0.
        254    2    1    2    0    0  0.97741214648E+03  0.50257211224E+02 -0.43099954516E+03  0.14031165926E+04  0.90835855973E+03 0.  0.
        -24    2    4    4    0    0 -0.12808413687E+03  0.12745766722E+03 -0.17390476570E+03  0.26265041975E+03  0.78047244740E+02 0.  0.
         24    2    4    4    0    0  0.11054962833E+04 -0.77200455995E+02 -0.25709477946E+03  0.11404661728E+04  0.80519704392E+02 0.  0.
         11    1    3    3    0    0 -0.16786046056E+03 -0.34396343635E+02  0.15838284478E+03  0.23333531279E+03  0.00000000000E+00 0. -1.
        -11    1    3    3    0    0 -0.80955168591E+03 -0.15860867589E+02  0.94430585161E+03  0.12439208338E+04  0.00000000000E+00 0.  1.
          2    1    6    6  502    0  0.20054491149E+03 -0.43611133107E+02 -0.57889660500E+02  0.21324025241E+03  0.00000000000E+00 0. -1.
          1    1    5    5  503    0 -0.69199231519E+02  0.94952012845E+02 -0.63986841638E+02  0.13378615133E+03  0.00000000000E+00 0. -1.
         -2    1    5    5    0  503 -0.58884905355E+02  0.32505654374E+02 -0.10991792406E+03  0.12886426842E+03  0.00000000000E+00 0.  1.
         -1    1    6    6    0  502  0.90495137186E+03 -0.33589322888E+02 -0.19920511896E+03  0.92722592040E+03  0.00000000000E+00 0.  1.
<mgrwt>
<rscale>  0 0.28009607E+04</rscale>
<asrwt>0</asrwt>
<pdfrwt beam="1">  1        2 0.16989874E+00 0.28009607E+04</pdfrwt>
<pdfrwt beam="2">  1       -2 0.27323553E+00 0.28009607E+04</pdfrwt>
<totfact> 0.87244304E-01</totfact>
</mgrwt>
</event>
<event>
12    1  0.2019083E-007  0.2228259E+04  0.7818608E-02  0.8506757E-01
          1   -1    0    0  501    0  0.00000000000E+00  0.00000000000E+00  0.24822678049E+04  0.24822678049E+04  0.00000000000E+00 0. -1.
         -1   -1    0    0    0  501 -0.00000000000E+00 -0.00000000000E+00 -0.50006082062E+03  0.50006082062E+03  0.00000000000E+00 0.  1.
         23    2    1    2    0    0  0.68449265160E+03 -0.43907254994E+03  0.14337580415E+04  0.16507813182E+04  0.90010802553E+02 0.  0.
        254    2    1    2    0    0 -0.68449265160E+03  0.43907254994E+03  0.54844894278E+03  0.13315473074E+04  0.90050380053E+03 0.  0.
        -24    2    4    4    0    0  0.11781235499E+03  0.23506112122E+03  0.40228141998E+03  0.48714002732E+03  0.79634060914E+02 0.  0.
         24    2    4    4    0    0 -0.80230500659E+03  0.20401142871E+03  0.14616752279E+03  0.84440728006E+03  0.79653771147E+02 0.  0.
         13    1    3    3    0    0  0.62923768958E+03 -0.41726803109E+03  0.12819642961E+04  0.14877785911E+04  0.00000000000E+00 0.  1.
        -13    1    3    3    0    0  0.55254962016E+02 -0.21804518849E+02  0.15179374548E+03  0.16300272708E+03  0.00000000000E+00 0. -1.
          4    1    6    6  502    0 -0.23415883258E+03  0.78797778109E+02  0.75560079083E+02  0.25835784150E+03  0.00000000000E+00 0. -1.
          3    1    5    5  503    0  0.11638930827E+03  0.17257051870E+03  0.27078168248E+03  0.34154029714E+03  0.00000000000E+00 0. -1.
         -4    1    5    5    0  503  0.14230467175E+01  0.62490602528E+02  0.13149973751E+03  0.14559973019E+03  0.00000000000E+00 0.  1.
         -3    1    6    6    0  502 -0.56814617400E+03  0.12521365060E+03  0.70607443708E+02  0.58604943856E+03  0.00000000000E+00 0.  1.
<mgrwt>
<rscale>  0 0.22282593E+04</rscale>
<asrwt>0</asrwt>
<pdfrwt beam="1">  1        1 0.38188735E+00 0.22282593E+04</pdfrwt>
<pdfrwt beam="2">  1       -1 0.76932435E-01 0.22282593E+04</pdfrwt>
<totfact> 0.21481106E+00</totfact>
</mgrwt>
</event>
<event>
12    1  0.2019083E-007  0.1252240E+04  0.7818608E-02  0.9068321E-01
         -1   -1    0    0    0  501 -0.00000000000E+00  0.00000000000E+00  0.14980953561E+03  0.14980953561E+03  0.00000000000E+00 0.  1.
          1   -1    0    0  501    0  0.00000000000E+00 -0.00000000000E+00 -0.26168308618E+04  0.26168308618E+04  0.00000000000E+00 0. -1.
         23    2    1    2    0    0 -0.59257783904E+02  0.18212322000E+03 -0.11814997578E+03  0.24309744271E+03  0.91959761077E+02 0.  0.
        254    2    1    2    0    0  0.59257783904E+02 -0.18212322000E+03 -0.23488713504E+04  0.25235429547E+04  0.90243674084E+03 0.  0.
        -24    2    4    4    0    0  0.44006207540E+03  0.10760453854E+02 -0.15582474346E+04  0.16212278042E+04  0.80461842951E+02 0.  0.
         24    2    4    4    0    0 -0.38080429150E+03 -0.19288367386E+03 -0.79062391586E+03  0.90231515053E+03  0.82888084012E+02 0.  0.
         11    1    3    3    0    0 -0.43729455323E+02  0.14921126453E+03 -0.45769768625E+02  0.16208373900E+03  0.00000000000E+00 0.  1.
        -11    1    3    3    0    0 -0.15528328582E+02  0.32911955470E+02 -0.72380207160E+02  0.81013703717E+02  0.00000000000E+00 0. -1.
          4    1    6    6  502    0 -0.21899209119E+03 -0.15597168105E+03 -0.49231926740E+03  0.56094827065E+03  0.00000000000E+00 0. -1.
          3    1    5    5  503    0  0.31514920622E+03  0.23676989184E+02 -0.98795454101E+03  0.10372722869E+04  0.00000000000E+00 0. -1.
         -4    1    5    5    0  503  0.12491286919E+03 -0.12916535331E+02 -0.57029289357E+03  0.58395551734E+03  0.00000000000E+00 0.  1.
         -3    1    6    6    0  502 -0.16181220031E+03 -0.36911992811E+02 -0.29830464846E+03  0.34136687988E+03  0.00000000000E+00 0.  1.
<mgrwt>
<rscale>  0 0.12522399E+04</rscale>
<asrwt>0</asrwt>
<pdfrwt beam="1">  1        1 0.40258936E+00 0.12522399E+04</pdfrwt>
<pdfrwt beam="2">  1       -1 0.23047621E-01 0.12522399E+04</pdfrwt>
<totfact> 0.17940262E+01</totfact>
</mgrwt>
</event>
<event>
12    1  0.2019083E-007  0.1605061E+04  0.7818608E-02  0.8817445E-01
         -2   -1    0    0    0  501 -0.00000000000E+00  0.00000000000E+00  0.14315502730E+04  0.14315502730E+04  0.00000000000E+00 0.  1.
          2   -1    0    0  501    0  0.00000000000E+00 -0.00000000000E+00 -0.44990066216E+03  0.44990066216E+03  0.00000000000E+00 0. -1.
         23    2    1    2    0    0  0.72231908145E+01  0.44905978294E+03  0.69989320969E+03  0.83651664265E+03  0.90568898210E+02 0.  0.
        254    2    1    2    0    0 -0.72231908145E+01 -0.44905978294E+03  0.28175640117E+03  0.10449342925E+04  0.90044108245E+03 0.  0.
        -24    2    4    4    0    0 -0.22668114533E+03  0.17922221864E+03 -0.39374337825E+02  0.30153500731E+03  0.76603373630E+02 0.  0.
         24    2    4    4    0    0  0.21945795452E+03 -0.62828200158E+03  0.32113073900E+03  0.74339928522E+03  0.81347885226E+02 0.  0.
         13    1    3    3    0    0  0.44460121661E+02  0.18333573024E+03  0.31890342470E+03  0.37052407032E+03  0.00000000000E+00 0. -1.
        -13    1    3    3    0    0 -0.37236930846E+02  0.26572405270E+03  0.38098978499E+03  0.46599257233E+03  0.00000000000E+00 0.  1.
          2    1    6    6  502    0  0.53222746061E+02 -0.85191626945E+02  0.28137099382E+02  0.10431668304E+03  0.00000000000E+00 0. -1.
          3    1    5    5  503    0 -0.20432948844E+02  0.39102734826E+02  0.14494943088E+02  0.46439559047E+02  0.00000000000E+00 0. -1.
         -4    1    5    5    0  503 -0.20624819649E+03  0.14011948381E+03 -0.53869280913E+02  0.25509544826E+03  0.00000000000E+00 0.  1.
         -1    1    6    6    0  502  0.16623520845E+03 -0.54309037463E+03  0.29299363962E+03  0.63908260218E+03  0.00000000000E+00 0.  1.
<mgrwt>
<rscale>  0 0.16050613E+04</rscale>
<asrwt>0</asrwt>
<pdfrwt beam="1">  1        2 0.69215487E-01 0.16050613E+04</pdfrwt>
<pdfrwt beam="2">  1       -2 0.22023850E+00 0.16050613E+04</pdfrwt>
<totfact> 0.65632832E+00</totfact>
</mgrwt>
</event>
<event>
12    1  0.2019083E-007  0.2696729E+04  0.7818608E-02  0.8336067E-01
          2   -1    0    0  501    0  0.00000000000E+00  0.00000000000E+00  0.37573886525E+04  0.37573886525E+04  0.00000000000E+00 0. -1.
         -2   -1    0    0    0  501 -0.00000000000E+00 -0.00000000000E+00 -0.48386971292E+03  0.48386971292E+03  0.00000000000E+00 0.  1.
         23    2    1    2    0    0  0.10351401574E+03 -0.12279087740E+03  0.33231003426E+04  0.33282330522E+04  0.91359792619E+02 0.  0.
        254    2    1    2    0    0 -0.10351401574E+03  0.12279087740E+03 -0.49581402985E+02  0.91302531327E+03  0.89742083557E+03 0.  0.
        -24    2    4    4    0    0 -0.96842301156E+01 -0.14404139975E+03  0.36687595939E+03  0.40333559518E+03  0.85087740635E+02 0.  0.
         24    2    4    4    0    0 -0.93829785621E+02  0.26683227715E+03 -0.41645736238E+03  0.50968971809E+03  0.79645346666E+02 0.  0.
         13    1    3    3    0    0  0.69202724706E+02 -0.93097606697E+02  0.29651429030E+04  0.29674110967E+04  0.00000000000E+00 0. -1.
        -13    1    3    3    0    0  0.34311291031E+02 -0.29693270706E+02  0.35795743954E+03  0.36082195546E+03  0.00000000000E+00 0.  1.
          4    1    6    6  502    0 -0.44496071080E+02  0.44012634965E+02 -0.61842019496E+02  0.87985497404E+02  0.00000000000E+00 0. -1.
          3    1    5    5  503    0  0.44553820060E+00 -0.74410794707E+02  0.85738217686E+02  0.11352623858E+03  0.00000000000E+00 0. -1.
         -4    1    5    5    0  503 -0.10129768316E+02 -0.69630605039E+02  0.28113774171E+03  0.28980935661E+03  0.00000000000E+00 0.  1.
         -3    1    6    6    0  502 -0.49333714541E+02  0.22281964218E+03 -0.35461534288E+03  0.42170422068E+03  0.00000000000E+00 0.  1.
<mgrwt>
<rscale>  0 0.26967288E+04</rscale>
<asrwt>0</asrwt>
<pdfrwt beam="1">  1        2 0.57805977E+00 0.26967288E+04</pdfrwt>
<pdfrwt beam="2">  1       -2 0.74441497E-01 0.26967288E+04</pdfrwt>
<totfact> 0.75416685E-01</totfact>
</mgrwt>
</event>
<event>
12    1  0.2019083E-007  0.2178520E+04  0.7818608E-02  0.8527422E-01
          1   -1    0    0  501    0  0.00000000000E+00  0.00000000000E+00  0.14412105274E+04  0.14412105274E+04  0.00000000000E+00 0. -1.
         -1   -1    0    0    0  501 -0.00000000000E+00 -0.00000000000E+00 -0.82325783010E+03  0.82325783010E+03  0.00000000000E+00 0.  1.
         23    2    1    2    0    0  0.17105709746E+03  0.44879359117E+03  0.10491590329E+04  0.11573452557E+04  0.89650133865E+02 0.  0.
        254    2    1    2    0    0 -0.17105709746E+03 -0.44879359117E+03 -0.43120633557E+03  0.11071231018E+04  0.89950344121E+03 0.  0.
        -24    2    4    4    0    0  0.54702305803E+02 -0.80291813063E+02 -0.61699347044E+03  0.63019827411E+03  0.83843930134E+02 0.  0.
         24    2    4    4    0    0 -0.22575940326E+03 -0.36850177810E+03  0.18578713488E+03  0.47692482773E+03  0.78610197773E+02 0.  0.
         13    1    3    3    0    0  0.32018654531E+02  0.12602849195E+03  0.37801873663E+03  0.39975810219E+03  0.00000000000E+00 0. -1.
        -13    1    3    3    0    0  0.13903844293E+03  0.32276509921E+03  0.67114029628E+03  0.75758715352E+03  0.00000000000E+00 0.  1.
          4    1    6    6  502    0 -0.93879498793E+02 -0.11169667773E+03  0.30284494870E+02  0.14901898785E+03  0.00000000000E+00 0. -1.
          1    1    5    5  503    0  0.13720002367E+02  0.11292876864E+02 -0.31472051591E+02  0.36142185381E+02  0.00000000000E+00 0. -1.
         -2    1    5    5    0  503  0.40982303436E+02 -0.91584689927E+02 -0.58552141885E+03  0.59405608873E+03  0.00000000000E+00 0.  1.
         -3    1    6    6    0  502 -0.13187990447E+03 -0.25680510038E+03  0.15550264001E+03  0.32790583989E+03  0.00000000000E+00 0.  1.
<mgrwt>
<rscale>  0 0.21785205E+04</rscale>
<asrwt>0</asrwt>
<pdfrwt beam="1">  1        1 0.22172470E+00 0.21785205E+04</pdfrwt>
<pdfrwt beam="2">  1       -1 0.12665505E+00 0.21785205E+04</pdfrwt>
<totfact> 0.35558503E+00</totfact>
</mgrwt>
</event>
<event>
12    1  0.2019083E-007  0.3444380E+04  0.7818608E-02  0.8127099E-01
          2   -1    0    0  501    0  0.00000000000E+00  0.00000000000E+00  0.35312722625E+04  0.35312722625E+04  0.00000000000E+00 0. -1.
         -2   -1    0    0    0  501 -0.00000000000E+00 -0.00000000000E+00 -0.83990634340E+03  0.83990634340E+03  0.00000000000E+00 0.  1.
         23    2    1    2    0    0 -0.23398974860E+03  0.15843181833E+04  0.13470798976E+04  0.20948204625E+04  0.93985166025E+02 0.  0.
        254    2    1    2    0    0  0.23398974860E+03 -0.15843181833E+04  0.13442860215E+04  0.22763581434E+04  0.89993676502E+03 0.  0.
        -24    2    4    4    0    0 -0.69131624001E+02  0.80340911771E+02  0.42572047062E+02  0.13989534695E+03  0.80774286534E+02 0.  0.
         24    2    4    4    0    0  0.30312137260E+03 -0.16646590950E+04  0.13017139745E+04  0.21364627964E+04  0.83913884821E+02 0.  0.
         11    1    3    3    0    0 -0.64616813307E+02  0.75071052960E+03  0.61929772433E+03  0.97533138121E+03  0.00000000000E+00 0. -1.
        -11    1    3    3    0    0 -0.16937293529E+03  0.83360765366E+03  0.72778217325E+03  0.11194890813E+04  0.00000000000E+00 0.  1.
          4    1    6    6  502    0  0.21624978189E+02 -0.23682369585E+03  0.15807110174E+03  0.28555135406E+03  0.00000000000E+00 0. -1.
          3    1    5    5  503    0 -0.25303741411E+02 -0.45754201906E+01 -0.13558601044E+02  0.29069734460E+02  0.00000000000E+00 0. -1.
         -4    1    5    5    0  503 -0.43827882589E+02  0.84916331962E+02  0.56130648106E+02  0.11082561249E+03  0.00000000000E+00 0.  1.
         -3    1    6    6    0  502  0.28149639441E+03 -0.14278353992E+04  0.11436428727E+04  0.18509114424E+04  0.00000000000E+00 0.  1.
<mgrwt>
<rscale>  0 0.34443798E+04</rscale>
<asrwt>0</asrwt>
<pdfrwt beam="1">  1        2 0.54327265E+00 0.34443798E+04</pdfrwt>
<pdfrwt beam="2">  1       -2 0.12921636E+00 0.34443798E+04</pdfrwt>
<totfact> 0.28087014E-01</totfact>
</mgrwt>
</event>
<event>
12    1  0.2019083E-007  0.1764685E+04  0.7818608E-02  0.8725308E-01
         -2   -1    0    0    0  501 -0.00000000000E+00  0.00000000000E+00  0.18549381341E+04  0.18549381341E+04  0.00000000000E+00 0.  1.
          2   -1    0    0  501    0  0.00000000000E+00 -0.00000000000E+00 -0.41970599158E+03  0.41970599158E+03  0.00000000000E+00 0. -1.
         23    2    1    2    0    0 -0.32966978299E+02 -0.63299817783E+03  0.70715304986E+03  0.95393680141E+03  0.90313179348E+02 0.  0.
        254    2    1    2    0    0  0.32966978299E+02  0.63299817783E+03  0.72807909270E+03  0.13207073243E+04  0.90132966025E+03 0.  0.
        -24    2    4    4    0    0 -0.13268623471E+03  0.49270385110E+03 -0.40404938286E+02  0.51817290359E+03  0.80671415032E+02 0.  0.
         24    2    4    4    0    0  0.16565321301E+03  0.14029432673E+03  0.76848403098E+03  0.80253442072E+03  0.79814193397E+02 0.  0.
         11    1    3    3    0    0 -0.43255304205E+02 -0.49821724814E+03  0.50467691547E+03  0.71048591590E+03  0.00000000000E+00 0. -1.
        -11    1    3    3    0    0  0.10288325906E+02 -0.13478092969E+03  0.20247613438E+03  0.24345088551E+03  0.00000000000E+00 0.  1.
          4    1    6    6  502    0  0.13383415469E+03  0.71074564863E+02  0.57387948786E+03  0.59354935879E+03  0.00000000000E+00 0. -1.
          1    1    5    5  503    0 -0.11171398170E+03  0.46085272949E+03 -0.19312126753E+02  0.47459267823E+03  0.00000000000E+00 0. -1.
         -2    1    5    5    0  503 -0.20972253010E+02  0.31851121609E+02 -0.21092811533E+02  0.43580225360E+02  0.00000000000E+00 0.  1.
         -3    1    6    6    0  502  0.31819058325E+02  0.69219761870E+02  0.19460454312E+03  0.20898506193E+03  0.00000000000E+00 0.  1.
<mgrwt>
<rscale>  0 0.17646854E+04</rscale>
<asrwt>0</asrwt>
<pdfrwt beam="1">  1        2 0.64570154E-01 0.17646854E+04</pdfrwt>
<pdfrwt beam="2">  1       -2 0.28537509E+00 0.17646854E+04</pdfrwt>
<totfact> 0.27873385E+00</totfact>
</mgrwt>
</event>
<event>
12    1  0.2019083E-007  0.1744966E+04  0.7818608E-02  0.8736126E-01
         -1   -1    0    0    0  501 -0.00000000000E+00  0.00000000000E+00  0.10455228668E+04  0.10455228668E+04  0.00000000000E+00 0.  1.
          1   -1    0    0  501    0  0.00000000000E+00 -0.00000000000E+00 -0.72808217813E+03  0.72808217813E+03  0.00000000000E+00 0. -1.
         23    2    1    2    0    0  0.40769785693E+03 -0.85202963881E+02 -0.37260028516E+03  0.56619138831E+03  0.90910000005E+02 0.  0.
        254    2    1    2    0    0 -0.40769785693E+03  0.85202963881E+02  0.69004097388E+03  0.12074136567E+04  0.89900728867E+03 0.  0.
        -24    2    4    4    0    0  0.27673031531E+02 -0.17422001032E+03  0.66588481952E+03  0.69388329618E+03  0.83384813865E+02 0.  0.
         24    2    4    4    0    0 -0.43537088846E+03  0.25942297420E+03  0.24156154356E+02  0.51353036049E+03  0.79257941510E+02 0.  0.
         11    1    3    3    0    0  0.10100026636E+03 -0.59715428979E+02 -0.84143116096E+02  0.14438507627E+03  0.00000000000E+00 0.  1.
        -11    1    3    3    0    0  0.30669759056E+03 -0.25487534901E+02 -0.28845716906E+03  0.42180631204E+03  0.00000000000E+00 0. -1.
          2    1    6    6  502    0 -0.36768245275E+03  0.24414039468E+03  0.43890116133E+01  0.44137759549E+03  0.00000000000E+00 0. -1.
          1    1    5    5  503    0  0.32855944451E+02 -0.17854021325E+03  0.66120083120E+03  0.68566949765E+03  0.00000000000E+00 0. -1.
         -2    1    5    5    0  503 -0.51829129202E+01  0.43202029282E+01  0.46839883183E+01  0.82137985272E+01  0.00000000000E+00 0.  1.
         -1    1    6    6    0  502 -0.67688435705E+02  0.15282579518E+02  0.19767142743E+02  0.72152765000E+02  0.00000000000E+00 0.  1.
<mgrwt>
<rscale>  0 0.17449660E+04</rscale>
<asrwt>0</asrwt>
<pdfrwt beam="1">  1        1 0.11201264E+00 0.17449660E+04</pdfrwt>
<pdfrwt beam="2">  1       -1 0.16084967E+00 0.17449660E+04</pdfrwt>
<totfact> 0.70014212E+00</totfact>
</mgrwt>
</event>
<event>
12    1  0.2019083E-007  0.2108493E+04  0.7818608E-02  0.8557511E-01
          1   -1    0    0  501    0  0.00000000000E+00  0.00000000000E+00  0.54020777794E+03  0.54020777794E+03  0.00000000000E+00 0. -1.
         -1   -1    0    0    0  501 -0.00000000000E+00 -0.00000000000E+00 -0.20574232090E+04  0.20574232090E+04  0.00000000000E+00 0.  1.
         23    2    1    2    0    0 -0.64373653896E+03 -0.31451633457E+03 -0.12080291827E+04  0.14075165020E+04  0.91928998265E+02 0.  0.
        254    2    1    2    0    0  0.64373653896E+03  0.31451633457E+03 -0.30918624832E+03  0.11901144850E+04  0.89858727726E+03 0.  0.
        -24    2    4    4    0    0  0.76232625514E+03  0.81565563751E+02 -0.43951937494E+03  0.88755267624E+03  0.82329895549E+02 0.  0.
         24    2    4    4    0    0 -0.11858971618E+03  0.23295077082E+03  0.13033312661E+03  0.30256180871E+03  0.78913508301E+02 0.  0.
         11    1    3    3    0    0 -0.32302028597E+03 -0.13769315278E+03 -0.50916490843E+03  0.61850659936E+03  0.00000000000E+00 0. -1.
        -11    1    3    3    0    0 -0.32071625299E+03 -0.17682318178E+03 -0.69886427427E+03  0.78900990260E+03  0.00000000000E+00 0.  1.
          4    1    6    6  502    0 -0.36496050482E+02  0.47846329129E+02  0.67756621054E+02  0.90621148793E+02  0.00000000000E+00 0. -1.
          1    1    5    5  503    0  0.14243181452E+03  0.92107845913E+01 -0.11968638908E+03  0.18626994409E+03  0.00000000000E+00 0. -1.
         -2    1    5    5    0  503  0.61989444062E+03  0.72354779160E+02 -0.31983298586E+03  0.70128273216E+03  0.00000000000E+00 0.  1.
         -3    1    6    6    0  502 -0.82093665696E+02  0.18510444169E+03  0.62576505559E+02  0.21194065992E+03  0.00000000000E+00 0.  1.
<mgrwt>
<rscale>  0 0.21084933E+04</rscale>
<asrwt>0</asrwt>
<pdfrwt beam="1">  1        1 0.83108889E-01 0.21084933E+04</pdfrwt>
<pdfrwt beam="2">  1       -1 0.31652665E+00 0.21084933E+04</pdfrwt>
<totfact> 0.94355734E-01</totfact>
</mgrwt>
</event>
<event>
12    1  0.2019083E-007  0.1751961E+04  0.7818608E-02  0.8732272E-01
          1   -1    0    0  501    0  0.00000000000E+00  0.00000000000E+00  0.11417622643E+04  0.11417622643E+04  0.00000000000E+00 0. -1.
         -1   -1    0    0    0  501 -0.00000000000E+00 -0.00000000000E+00 -0.67206802794E+03  0.67206802794E+03  0.00000000000E+00 0.  1.
         23    2    1    2    0    0 -0.93582766575E+02 -0.63137287755E+03  0.23400235761E+03  0.68624011711E+03  0.93696052486E+02 0.  0.
        254    2    1    2    0    0  0.93582766575E+02  0.63137287755E+03  0.23569187877E+03  0.11275901752E+04  0.89917712198E+03 0.  0.
        -24    2    4    4    0    0  0.47870018312E+00  0.66563602369E+03  0.49801647095E+03  0.83533283115E+03  0.81786235193E+02 0.  0.
         24    2    4    4    0    0  0.93104066392E+02 -0.34263146144E+02 -0.26232459218E+03  0.29225734401E+03  0.82206040558E+02 0.  0.
         13    1    3    3    0    0 -0.37955931677E+02 -0.20724370550E+03  0.12434330055E+03  0.24464640322E+03  0.00000000000E+00 0. -1.
        -13    1    3    3    0    0 -0.55626834899E+02 -0.42412917205E+03  0.10965905707E+03  0.44159371388E+03  0.00000000000E+00 0.  1.
          2    1    6    6  502    0  0.76323211904E+02 -0.12817901582E+02 -0.94073189207E+02  0.12181664995E+03  0.00000000000E+00 0. -1.
          3    1    5    5  503    0 -0.80510048174E+01  0.58379390492E+02  0.74203049705E+02  0.94757925781E+02  0.00000000000E+00 0. -1.
         -4    1    5    5    0  503  0.85297050005E+01  0.60725663320E+03  0.42381342124E+03  0.74057490537E+03  0.00000000000E+00 0.  1.
         -1    1    6    6    0  502  0.16780854488E+02 -0.21445244563E+02 -0.16825140297E+03  0.17044069406E+03  0.00000000000E+00 0.  1.
<mgrwt>
<rscale>  0 0.17519611E+04</rscale>
<asrwt>0</asrwt>
<pdfrwt beam="1">  1        1 0.17565573E+00 0.17519611E+04</pdfrwt>
<pdfrwt beam="2">  1       -1 0.10339508E+00 0.17519611E+04</pdfrwt>
<totfact> 0.98649106E+00</totfact>
</mgrwt>
</event>
<event>
12    1  0.2019083E-007  0.2092751E+04  0.7818608E-02  0.8564443E-01
          2   -1    0    0  501    0  0.00000000000E+00  0.00000000000E+00  0.99312021573E+03  0.99312021573E+03  0.00000000000E+00 0. -1.
         -2   -1    0    0    0  501 -0.00000000000E+00 -0.00000000000E+00 -0.11024868842E+04  0.11024868842E+04  0.00000000000E+00 0.  1.
         23    2    1    2    0    0  0.66915281262E+03  0.21200809510E+03  0.43339665189E+03  0.83002041939E+03  0.91587770459E+02 0.  0.
        254    2    1    2    0    0 -0.66915281262E+03 -0.21200809510E+03 -0.54276332032E+03  0.12655866805E+04  0.90244374062E+03 0.  0.
        -24    2    4    4    0    0 -0.78747228262E+03  0.53999049558E+01 -0.60738847680E+03  0.99780196773E+03  0.80908900566E+02 0.  0.
         24    2    4    4    0    0  0.11831946999E+03 -0.21740800006E+03  0.64625156479E+02  0.26778471278E+03  0.79161266301E+02 0.  0.
         11    1    3    3    0    0  0.41822934022E+03  0.89759415795E+02  0.24043024186E+03  0.49069260739E+03  0.00000000000E+00 0.  1.
        -11    1    3    3    0    0  0.25092347240E+03  0.12224867931E+03  0.19296641003E+03  0.33932781200E+03  0.00000000000E+00 0. -1.
          4    1    6    6  502    0  0.12062895156E+03 -0.22219743446E+03  0.58195437387E+02  0.25944123182E+03  0.00000000000E+00 0. -1.
          3    1    5    5  503    0 -0.71747591625E+03  0.12549248423E+02 -0.57853615063E+03  0.92175552704E+03  0.00000000000E+00 0. -1.
         -4    1    5    5    0  503 -0.69996366363E+02 -0.71493434668E+01 -0.28852326164E+02  0.76046440686E+02  0.00000000000E+00 0.  1.
         -3    1    6    6    0  502 -0.23094815691E+01  0.47894344016E+01  0.64297190921E+01  0.83434809647E+01  0.00000000000E+00 0.  1.
<mgrwt>
<rscale>  0 0.20927513E+04</rscale>
<asrwt>0</asrwt>
<pdfrwt beam="1">  1        2 0.15278773E+00 0.20927513E+04</pdfrwt>
<pdfrwt beam="2">  1       -2 0.16961337E+00 0.20927513E+04</pdfrwt>
<totfact> 0.50319223E+00</totfact>
</mgrwt>
</event>
<event>
12    1  0.2019083E-007  0.1364171E+04  0.7818608E-02  0.8980169E-01
          1   -1    0    0  501    0  0.00000000000E+00  0.00000000000E+00  0.12628653537E+04  0.12628653537E+04  0.00000000000E+00 0. -1.
         -1   -1    0    0    0  501 -0.00000000000E+00 -0.00000000000E+00 -0.36840099988E+03  0.36840099988E+03  0.00000000000E+00 0.  1.
         23    2    1    2    0    0  0.16845032144E+03 -0.12883620868E+03  0.63438066233E+03  0.67481272339E+03  0.89213829878E+02 0.  0.
        254    2    1    2    0    0 -0.16845032144E+03  0.12883620868E+03  0.26008369150E+03  0.95645363021E+03  0.89564822375E+03 0.  0.
        -24    2    4    4    0    0 -0.38532541595E+03  0.10757100689E+03 -0.19030792439E+03  0.45026470673E+03  0.80461185313E+02 0.  0.
         24    2    4    4    0    0  0.21687509451E+03  0.21265201786E+02  0.45039161589E+03  0.50618892348E+03  0.76730718527E+02 0.  0.
         13    1    3    3    0    0  0.13090162113E+02  0.13874562804E+02  0.56162623284E+02  0.59313540539E+02  0.00000000000E+00 0.  1.
        -13    1    3    3    0    0  0.15536015933E+03 -0.14271077148E+03  0.57821803905E+03  0.61549918285E+03  0.00000000000E+00 0. -1.
          4    1    6    6  502    0  0.15325410028E+02 -0.17663156167E+02  0.27423473690E+02  0.36040285619E+02  0.00000000000E+00 0. -1.
          3    1    5    5  503    0 -0.57039740452E+02  0.31524932950E+02 -0.41942666919E+01  0.65306548381E+02  0.00000000000E+00 0. -1.
         -4    1    5    5    0  503 -0.32828567549E+03  0.76046073943E+02 -0.18611365770E+03  0.38495815835E+03  0.00000000000E+00 0.  1.
         -3    1    6    6    0  502  0.20154968448E+03  0.38928357953E+02  0.42296814220E+03  0.47014863786E+03  0.00000000000E+00 0.  1.
<mgrwt>
<rscale>  0 0.13641713E+04</rscale>
<asrwt>0</asrwt>
<pdfrwt beam="1">  1        1 0.19428698E+00 0.13641713E+04</pdfrwt>
<pdfrwt beam="2">  1       -1 0.56677078E-01 0.13641713E+04</pdfrwt>
<totfact> 0.29632404E+01</totfact>
</mgrwt>
</event>
<event>
12    1  0.2453336E-007  0.2818950E+04  0.7818608E-02  0.8297409E-01
          2   -1    0    0  501    0  0.00000000000E+00  0.00000000000E+00  0.16321577790E+04  0.16321577790E+04  0.00000000000E+00 0.  1.
         -2   -1    0    0    0  501 -0.00000000000E+00 -0.00000000000E+00 -0.12171736956E+04  0.12171736956E+04  0.00000000000E+00 0. -1.
         23    2    1    2    0    0 -0.90855579315E+03 -0.87557445340E+03  0.12323225918E+03  0.12718917847E+04  0.10206992517E+03 0.  0.
        254    2    1    2    0    0  0.90855579315E+03  0.87557445340E+03  0.29175182426E+03  0.15774396899E+04  0.90060679305E+03 0.  0.
        -24    2    4    4    0    0 -0.12425683340E+03  0.24380463177E+03 -0.10062805179E+03  0.30208513683E+03  0.79050401440E+02 0.  0.
         24    2    4    4    0    0  0.10328126265E+04  0.63176982163E+03  0.39237987605E+03  0.12753545531E+04  0.82050227942E+02 0.  0.
         13    1    3    3    0    0 -0.56281517507E+03 -0.56118505213E+03  0.12513349569E+03  0.80457937816E+03  0.00000000000E+00 0. -1.
        -13    1    3    3    0    0 -0.34574061808E+03 -0.31438940127E+03 -0.19012365122E+01  0.46731240656E+03  0.00000000000E+00 0.  1.
          4    1    6    6  502    0  0.87226159040E+03  0.53486120093E+03  0.29974296887E+03  0.10661907117E+04  0.00000000000E+00 0. -1.
          1    1    5    5  503    0 -0.13259286018E+03  0.23544227489E+03 -0.86599433360E+02  0.28374882068E+03  0.00000000000E+00 0. -1.
         -2    1    5    5    0  503  0.83360267791E+01  0.83623568751E+01 -0.14028618431E+02  0.18336316153E+02  0.00000000000E+00 0.  1.
         -3    1    6    6    0  502  0.16055103615E+03  0.96908620703E+02  0.92636907173E+02  0.20916384139E+03  0.00000000000E+00 0.  1.
<mgrwt>
<rscale>  0 0.28189498E+04</rscale>
<asrwt>0</asrwt>
<pdfrwt beam="1">  1        2 0.25110120E+00 0.28189498E+04</pdfrwt>
<pdfrwt beam="2">  1       -2 0.18725749E+00 0.28189498E+04</pdfrwt>
<totfact> 0.15037327E+00</totfact>
</mgrwt>
</event>
<event>
12    1  0.2019083E-007  0.4249409E+04  0.7818608E-02  0.7956040E-01
          1   -1    0    0  501    0  0.00000000000E+00  0.00000000000E+00  0.20465472764E+04  0.20465472764E+04  0.00000000000E+00 0. -1.
         -1   -1    0    0    0  501 -0.00000000000E+00 -0.00000000000E+00 -0.22058469102E+04  0.22058469102E+04  0.00000000000E+00 0.  1.
         23    2    1    2    0    0 -0.15975256289E+04  0.73205916187E+03  0.93523631459E+03  0.19926349129E+04  0.89040329011E+02 0.  0.
        254    2    1    2    0    0  0.15975256289E+04 -0.73205916187E+03 -0.10945359485E+04  0.22597592737E+04  0.90581691372E+03 0.  0.
        -24    2    4    4    0    0  0.13165759825E+04 -0.44464748102E+03 -0.11987816720E+04  0.18373150919E+04  0.86980169090E+02 0.  0.
         24    2    4    4    0    0  0.28094964648E+03 -0.28741168085E+03  0.10424572350E+03  0.42244418186E+03  0.77805769571E+02 0.  0.
         11    1    3    3    0    0 -0.20929605287E+02  0.22053660092E+02  0.17624827523E+02  0.35143233291E+02  0.00000000000E+00 0.  1.
        -11    1    3    3    0    0 -0.15765960237E+04  0.71000550177E+03  0.91761148707E+03  0.19574916796E+04  0.00000000000E+00 0. -1.
          2    1    6    6  502    0  0.26207994254E+03 -0.28514573828E+03  0.10996070803E+03  0.40259824348E+03  0.00000000000E+00 0. -1.
          3    1    5    5  503    0  0.94029891011E+03 -0.34716255710E+03 -0.82748018042E+03  0.12997720302E+04  0.00000000000E+00 0. -1.
         -4    1    5    5    0  503  0.37627707235E+03 -0.97484923917E+02 -0.37130149155E+03  0.53754306171E+03  0.00000000000E+00 0.  1.
         -1    1    6    6    0  502  0.18869703936E+02 -0.22659425702E+01 -0.57149845247E+01  0.19845938387E+02  0.00000000000E+00 0.  1.
<mgrwt>
<rscale>  0 0.42494094E+04</rscale>
<asrwt>0</asrwt>
<pdfrwt beam="1">  1        1 0.31485343E+00 0.42494094E+04</pdfrwt>
<pdfrwt beam="2">  1       -1 0.33936106E+00 0.42494094E+04</pdfrwt>
<totfact> 0.38817078E-02</totfact>
</mgrwt>
</event>
<event>
12    1  0.2019083E-007  0.2182276E+04  0.7818608E-02  0.8525842E-01
          2   -1    0    0  501    0  0.00000000000E+00  0.00000000000E+00  0.25906478241E+04  0.25906478241E+04  0.00000000000E+00 0. -1.
         -2   -1    0    0    0  501 -0.00000000000E+00 -0.00000000000E+00 -0.45956933976E+03  0.45956933976E+03  0.00000000000E+00 0.  1.
         23    2    1    2    0    0  0.61398047298E+03 -0.31657752445E+03  0.73760816915E+02  0.70091405247E+03  0.92986561617E+02 0.  0.
        254    2    1    2    0    0 -0.61398047298E+03  0.31657752445E+03  0.20573176675E+04  0.23493031114E+04  0.89970871637E+03 0.  0.
        -24    2    4    4    0    0  0.95855048692E+02  0.50985284937E+02 -0.19928259600E+02  0.13673445925E+03  0.80693786474E+02 0.  0.
         24    2    4    4    0    0 -0.70983552168E+03  0.26559223951E+03  0.20772459271E+04  0.22125686522E+04  0.78126138852E+02 0.  0.
         11    1    3    3    0    0  0.24992841123E+03 -0.17781959940E+03  0.17003057232E+02  0.30720209085E+03  0.00000000000E+00 0. -1.
        -11    1    3    3    0    0  0.36405206176E+03 -0.13875792505E+03  0.56757759683E+02  0.39371196161E+03  0.00000000000E+00 0.  1.
          4    1    6    6  502    0 -0.18452600658E+03  0.97588492609E+02  0.63732065646E+03  0.67063475912E+03  0.00000000000E+00 0. -1.
          1    1    5    5  503    0  0.31982719621E+01 -0.28750149033E+01  0.21430183344E+02  0.21857433802E+02  0.00000000000E+00 0. -1.
         -2    1    5    5    0  503  0.92656776730E+02  0.53860299840E+02 -0.41358442944E+02  0.11487702545E+03  0.00000000000E+00 0.  1.
         -3    1    6    6    0  502 -0.52530951510E+03  0.16800374690E+03  0.14399252706E+04  0.15419338931E+04  0.00000000000E+00 0.  1.
<mgrwt>
<rscale>  0 0.21822762E+04</rscale>
<asrwt>0</asrwt>
<pdfrwt beam="1">  1        2 0.39856119E+00 0.21822762E+04</pdfrwt>
<pdfrwt beam="2">  1       -2 0.70702977E-01 0.21822762E+04</pdfrwt>
<totfact> 0.51322176E+00</totfact>
</mgrwt>
</event>
<event>
12    1  0.2019083E-007  0.3537249E+04  0.7818608E-02  0.8105019E-01
          1   -1    0    0  501    0  0.00000000000E+00  0.00000000000E+00  0.27592764570E+04  0.27592764570E+04  0.00000000000E+00 0. -1.
         -1   -1    0    0    0  501 -0.00000000000E+00 -0.00000000000E+00 -0.11336421437E+04  0.11336421437E+04  0.00000000000E+00 0.  1.
         23    2    1    2    0    0  0.14348509213E+04 -0.63131631790E+03  0.18451800603E+03  0.15810101689E+04  0.90491988777E+02 0.  0.
        254    2    1    2    0    0 -0.14348509213E+04  0.63131631790E+03  0.14411163073E+04  0.23119084317E+04  0.90041486320E+03 0.  0.
        -24    2    4    4    0    0 -0.12530019192E+04  0.15322910667E+03  0.83840354738E+03  0.15177450162E+04  0.84477555473E+02 0.  0.
         24    2    4    4    0    0 -0.18184900214E+03  0.47808721123E+03  0.60271275990E+03  0.79416341551E+03  0.76134213444E+02 0.  0.
         13    1    3    3    0    0  0.10728728664E+03 -0.52078455872E+02  0.38119344289E+02  0.12520308243E+03  0.00000000000E+00 0. -1.
        -13    1    3    3    0    0  0.13275636347E+04 -0.57923786203E+03  0.14639866174E+03  0.14558070865E+04  0.00000000000E+00 0.  1.
          2    1    6    6  502    0 -0.29766532620E+02  0.48645157927E+02  0.37714350355E+02  0.68372290269E+02  0.00000000000E+00 0. -1.
          3    1    5    5  503    0 -0.79395984461E+03  0.13111179977E+03  0.56059249913E+03  0.98072753045E+03  0.00000000000E+00 0. -1.
         -4    1    5    5    0  503 -0.45904207458E+03  0.22117306901E+02  0.27781104825E+03  0.53701748577E+03  0.00000000000E+00 0.  1.
         -1    1    6    6    0  502 -0.15208246953E+03  0.42944205330E+03  0.56499840955E+03  0.72579112524E+03  0.00000000000E+00 0.  1.
<mgrwt>
<rscale>  0 0.35372487E+04</rscale>
<asrwt>0</asrwt>
<pdfrwt beam="1">  1        1 0.42450407E+00 0.35372487E+04</pdfrwt>
<pdfrwt beam="2">  1       -1 0.17440648E+00 0.35372487E+04</pdfrwt>
<totfact> 0.16546681E-01</totfact>
</mgrwt>
</event>
<event>
12    1  0.2019083E-007  0.2266820E+04  0.7818608E-02  0.8491120E-01
          1   -1    0    0  501    0  0.00000000000E+00  0.00000000000E+00  0.14993294882E+04  0.14993294882E+04  0.00000000000E+00 0. -1.
         -1   -1    0    0    0  501 -0.00000000000E+00 -0.00000000000E+00 -0.85679483000E+03  0.85679483000E+03  0.00000000000E+00 0.  1.
         23    2    1    2    0    0  0.16744634035E+03 -0.87273437113E+03  0.62793045705E+03  0.10921822777E+04  0.94137715129E+02 0.  0.
        254    2    1    2    0    0 -0.16744634035E+03  0.87273437113E+03  0.14604201182E+02  0.12639420405E+04  0.89868383742E+03 0.  0.
        -24    2    4    4    0    0  0.24248342217E+02  0.29399398131E+03 -0.41399524219E+03  0.51445780582E+03  0.79084323767E+02 0.  0.
         24    2    4    4    0    0 -0.19169468257E+03  0.57874038982E+03  0.42859944337E+03  0.74948423470E+03  0.79635702265E+02 0.  0.
         13    1    3    3    0    0  0.21952067578E+02 -0.10520383104E+03  0.40838347304E+02  0.11496742994E+03  0.00000000000E+00 0. -1.
        -13    1    3    3    0    0  0.14549427278E+03 -0.76753054009E+03  0.58709210974E+03  0.97721484777E+03  0.00000000000E+00 0.  1.
          2    1    6    6  502    0 -0.14908208019E+03  0.52287477402E+03  0.36640352596E+03  0.65564856423E+03  0.00000000000E+00 0. -1.
          1    1    5    5  503    0  0.26080283604E+02  0.25147250656E+03 -0.39223954299E+03  0.46665882809E+03  0.00000000000E+00 0. -1.
         -2    1    5    5    0  503 -0.18319413866E+01  0.42521474751E+02 -0.21755699195E+02  0.47798977727E+02  0.00000000000E+00 0.  1.
         -1    1    6    6    0  502 -0.42612602383E+02  0.55865615794E+02  0.62195917406E+02  0.93835670466E+02  0.00000000000E+00 0.  1.
<mgrwt>
<rscale>  0 0.22668196E+04</rscale>
<asrwt>0</asrwt>
<pdfrwt beam="1">  1        1 0.23066607E+00 0.22668196E+04</pdfrwt>
<pdfrwt beam="2">  1       -1 0.13181459E+00 0.22668196E+04</pdfrwt>
<totfact> 0.29065434E+00</totfact>
</mgrwt>
</event>
<event>
12    1  0.2019083E-007  0.2387411E+04  0.7818608E-02  0.8444232E-01
          2   -1    0    0  501    0  0.00000000000E+00  0.00000000000E+00  0.10664386989E+04  0.10664386989E+04  0.00000000000E+00 0. -1.
         -2   -1    0    0    0  501 -0.00000000000E+00 -0.00000000000E+00 -0.13361598546E+04  0.13361598546E+04  0.00000000000E+00 0.  1.
         23    2    1    2    0    0  0.35288609631E+03 -0.83921031644E+03 -0.58233139958E+03  0.10848020255E+04  0.94249792151E+02 0.  0.
        254    2    1    2    0    0 -0.35288609631E+03  0.83921031644E+03  0.31261024395E+03  0.13177965280E+04  0.90003331745E+03 0.  0.
        -24    2    4    4    0    0 -0.14628604502E+03 -0.11181987076E+03  0.27491091471E+03  0.34088272857E+03  0.81986176573E+02 0.  0.
         24    2    4    4    0    0 -0.20660005129E+03  0.95103018719E+03  0.37699329243E+02  0.97691379948E+03  0.76140226128E+02 0.  0.
         11    1    3    3    0    0  0.19892257481E+03 -0.37747452323E+03 -0.30641704601E+03  0.52530811201E+03  0.00000000000E+00 0.  1.
        -11    1    3    3    0    0  0.15396352150E+03 -0.46173579321E+03 -0.27591435357E+03  0.55949391345E+03  0.00000000000E+00 0. -1.
          4    1    6    6  502    0 -0.13634088925E+03  0.60861675101E+03  0.60469251515E+02  0.62662566024E+03  0.00000000000E+00 0. -1.
          1    1    5    5  503    0 -0.13552407644E+02 -0.14599005190E+02 -0.66128614450E+00  0.19930780337E+02  0.00000000000E+00 0. -1.
         -2    1    5    5    0  503 -0.13273363738E+03 -0.97220865566E+02  0.27557220085E+03  0.32095194824E+03  0.00000000000E+00 0.  1.
         -3    1    6    6    0  502 -0.70259162036E+02  0.34241343619E+03 -0.22769922273E+02  0.35028813924E+03  0.00000000000E+00 0.  1.
<mgrwt>
<rscale>  0 0.23874108E+04</rscale>
<asrwt>0</asrwt>
<pdfrwt beam="1">  1        2 0.16406749E+00 0.23874108E+04</pdfrwt>
<pdfrwt beam="2">  1       -2 0.20556306E+00 0.23874108E+04</pdfrwt>
<totfact> 0.25166317E+00</totfact>
</mgrwt>
</event>
<event>
12    1  0.2019083E-007  0.1470183E+04  0.7818608E-02  0.8904527E-01
         -2   -1    0    0    0  501 -0.00000000000E+00  0.00000000000E+00  0.23214000602E+03  0.23214000602E+03  0.00000000000E+00 0.  1.
          2   -1    0    0  501    0  0.00000000000E+00 -0.00000000000E+00 -0.23277305381E+04  0.23277305381E+04  0.00000000000E+00 0. -1.
         23    2    1    2    0    0 -0.41194473698E+03 -0.28712368471E+02 -0.33596320767E+03  0.54025466080E+03  0.92092101589E+02 0.  0.
        254    2    1    2    0    0  0.41194473698E+03  0.28712368471E+02 -0.17596273244E+04  0.20196158833E+04  0.90113102760E+03 0.  0.
        -24    2    4    4    0    0  0.67172836561E+03 -0.10614962927E+03 -0.12801165422E+04  0.14517474866E+04  0.79910339644E+02 0.  0.
         24    2    4    4    0    0 -0.25978362863E+03  0.13486199774E+03 -0.47951078221E+03  0.56786839668E+03  0.82877219732E+02 0.  0.
         11    1    3    3    0    0 -0.11126983056E+03 -0.46156123276E+02 -0.11664323115E+03  0.16768126396E+03  0.00000000000E+00 0. -1.
        -11    1    3    3    0    0 -0.30067490642E+03  0.17443754804E+02 -0.21931997652E+03  0.37257339684E+03  0.00000000000E+00 0.  1.
          4    1    6    6  502    0 -0.23740459424E+03  0.13596341252E+03 -0.39537147605E+03  0.48079683337E+03  0.00000000000E+00 0. -1.
          3    1    5    5  503    0  0.41719372784E+03 -0.98493176575E+02 -0.84772897630E+03  0.94994522455E+03  0.00000000000E+00 0. -1.
         -4    1    5    5    0  503  0.25453463777E+03 -0.76564526975E+01 -0.43238756587E+03  0.50180226206E+03  0.00000000000E+00 0.  1.
         -3    1    6    6    0  502 -0.22379034393E+02 -0.11014147793E+01 -0.84139306160E+02  0.87071563303E+02  0.00000000000E+00 0.  1.
<mgrwt>
<rscale>  0 0.14701828E+04</rscale>
<asrwt>0</asrwt>
<pdfrwt beam="1">  1        2 0.35811238E+00 0.14701828E+04</pdfrwt>
<pdfrwt beam="2">  1       -2 0.35713848E-01 0.14701828E+04</pdfrwt>
<totfact> 0.31259071E+01</totfact>
</mgrwt>
</event>
<event>
12    1  0.2019083E-007  0.2217587E+04  0.7818608E-02  0.8511144E-01
          2   -1    0    0  501    0  0.00000000000E+00  0.00000000000E+00  0.17945210699E+04  0.17945210699E+04  0.00000000000E+00 0. -1.
         -2   -1    0    0    0  501 -0.00000000000E+00 -0.00000000000E+00 -0.68509799352E+03  0.68509799352E+03  0.00000000000E+00 0.  1.
         23    2    1    2    0    0  0.15422203939E+02  0.89564300692E+03  0.21389729468E+03  0.92506751357E+03  0.87083935133E+02 0.  0.
        254    2    1    2    0    0 -0.15422203939E+02 -0.89564300692E+03  0.89552578175E+03  0.15545515499E+04  0.90124905288E+03 0.  0.
        -24    2    4    4    0    0  0.21697401021E+03 -0.33803498790E+02  0.54335202899E+03  0.59121689227E+03  0.78010183020E+02 0.  0.
         24    2    4    4    0    0 -0.23239621415E+03 -0.86183950813E+03  0.35217375275E+03  0.96333465764E+03  0.84923332141E+02 0.  0.
         11    1    3    3    0    0 -0.32315525537E+02  0.56527260403E+03  0.13542521378E+03  0.58216612628E+03  0.00000000000E+00 0. -1.
        -11    1    3    3    0    0  0.47737729476E+02  0.33037040290E+03  0.78472080903E+02  0.34290138729E+03  0.00000000000E+00 0.  1.
          2    1    6    6  502    0 -0.12324346462E+03 -0.60634334950E+03  0.23722199456E+03  0.66265789346E+03  0.00000000000E+00 0. -1.
          1    1    5    5  503    0  0.19701100478E+03 -0.52694827901E+01  0.43904031487E+03  0.48124578079E+03  0.00000000000E+00 0. -1.
         -2    1    5    5    0  503  0.19963005429E+02 -0.28534016000E+02  0.10431171413E+03  0.10997111147E+03  0.00000000000E+00 0.  1.
         -3    1    6    6    0  502 -0.10915274953E+03 -0.25549615863E+03  0.11495175819E+03  0.30067676418E+03  0.00000000000E+00 0.  1.
<mgrwt>
<rscale>  0 0.22175868E+04</rscale>
<asrwt>0</asrwt>
<pdfrwt beam="1">  1        2 0.27608016E+00 0.22175868E+04</pdfrwt>
<pdfrwt beam="2">  1       -2 0.10539969E+00 0.22175868E+04</pdfrwt>
<totfact> 0.57771366E+00</totfact>
</mgrwt>
</event>
<event>
12    1  0.2019083E-007  0.1289048E+04  0.7818608E-02  0.9038296E-01
         -2   -1    0    0    0  501 -0.00000000000E+00  0.00000000000E+00  0.37712204850E+03  0.37712204850E+03  0.00000000000E+00 0. -1.
          2   -1    0    0  501    0  0.00000000000E+00 -0.00000000000E+00 -0.11015295014E+04  0.11015295014E+04  0.00000000000E+00 0.  1.
         23    2    1    2    0    0 -0.24239115133E+03  0.19761770806E+03 -0.10481317347E+03  0.34170111388E+03  0.89261532077E+02 0.  0.
        254    2    1    2    0    0  0.24239115133E+03 -0.19761770806E+03 -0.61959427944E+03  0.11369504360E+04  0.90052928553E+03 0.  0.
        -24    2    4    4    0    0  0.33830438223E+03 -0.22055227882E+03  0.85010479599E+02  0.42066772850E+03  0.81494744825E+02 0.  0.
         24    2    4    4    0    0 -0.95913230900E+02  0.22934570753E+02 -0.70460475903E+03  0.71628270753E+03  0.82871637206E+02 0.  0.
         13    1    3    3    0    0 -0.35962033044E+02  0.77441165662E+02 -0.39448953494E+02  0.94056482453E+02  0.00000000000E+00 0.  1.
        -13    1    3    3    0    0 -0.20642911829E+03  0.12017654240E+03 -0.65364219973E+02  0.24764463142E+03  0.00000000000E+00 0. -1.
          2    1    6    6  502    0  0.84681739122E+01  0.77303334764E+01 -0.16221808651E+02  0.19864921369E+02  0.00000000000E+00 0. -1.
          1    1    5    5  503    0  0.68277869910E+02 -0.17453935418E+02  0.36367017298E+02  0.79303640069E+02  0.00000000000E+00 0. -1.
         -2    1    5    5    0  503  0.27002651232E+03 -0.20309834340E+03  0.48643462301E+02  0.34136408843E+03  0.00000000000E+00 0.  1.
         -3    1    6    6    0  502 -0.10438140481E+03  0.15204237276E+02 -0.68838295038E+03  0.69641778616E+03  0.00000000000E+00 0.  1.
<mgrwt>
<rscale>  0 0.12890478E+04</rscale>
<asrwt>0</asrwt>
<pdfrwt beam="1">  1        2 0.16946608E+00 0.12890478E+04</pdfrwt>
<pdfrwt beam="2">  1       -2 0.58018776E-01 0.12890478E+04</pdfrwt>
<totfact> 0.59282515E+01</totfact>
</mgrwt>
</event>
<event>
12    1  0.2019083E-007  0.1530760E+04  0.7818608E-02  0.8864252E-01
          2   -1    0    0  501    0  0.00000000000E+00  0.00000000000E+00  0.49995245118E+03  0.49995245118E+03  0.00000000000E+00 0. -1.
         -2   -1    0    0    0  501 -0.00000000000E+00 -0.00000000000E+00 -0.11717240601E+04  0.11717240601E+04  0.00000000000E+00 0.  1.
         23    2    1    2    0    0 -0.37496207993E+03  0.18090625942E+03  0.70884442438E+02  0.43203274024E+03  0.91126551441E+02 0.  0.
        254    2    1    2    0    0  0.37496207993E+03 -0.18090625942E+03 -0.74265605132E+03  0.12396437710E+04  0.90102998414E+03 0.  0.
        -24    2    4    4    0    0 -0.23515803797E+03 -0.26313686940E+03 -0.35828900046E+03  0.50916821980E+03  0.79630103238E+02 0.  0.
         24    2    4    4    0    0  0.61012011790E+03  0.82230609988E+02 -0.38436705086E+03  0.73047555120E+03  0.82753064127E+02 0.  0.
         13    1    3    3    0    0 -0.13924563874E+03  0.49534679034E+02 -0.15708999969E+02  0.14862639408E+03  0.00000000000E+00 0.  1.
        -13    1    3    3    0    0 -0.23571644119E+03  0.13137158038E+03  0.86593442407E+02  0.28340634617E+03  0.00000000000E+00 0. -1.
          4    1    6    6  502    0  0.29092105391E+03  0.31225515047E+02 -0.13508150502E+03  0.32226868510E+03  0.00000000000E+00 0. -1.
          3    1    5    5  503    0 -0.17025345686E+03 -0.14135052873E+03 -0.24911821238E+03  0.33320578519E+03  0.00000000000E+00 0. -1.
         -4    1    5    5    0  503 -0.64904581110E+02 -0.12178634067E+03 -0.10917078809E+03  0.17596243461E+03  0.00000000000E+00 0.  1.
         -3    1    6    6    0  502  0.31919906399E+03  0.51005094941E+02 -0.24928554584E+03  0.40820686609E+03  0.00000000000E+00 0.  1.
<mgrwt>
<rscale>  0 0.15307597E+04</rscale>
<asrwt>0</asrwt>
<pdfrwt beam="1">  1        2 0.76915762E-01 0.15307597E+04</pdfrwt>
<pdfrwt beam="2">  1       -2 0.18026524E+00 0.15307597E+04</pdfrwt>
<totfact> 0.10707982E+01</totfact>
</mgrwt>
</event>
<event>
12    1  0.2019083E-007  0.2597962E+04  0.7818608E-02  0.8368894E-01
         -1   -1    0    0    0  501 -0.00000000000E+00  0.00000000000E+00  0.11589501071E+04  0.11589501071E+04  0.00000000000E+00 0.  1.
          1   -1    0    0  501    0  0.00000000000E+00 -0.00000000000E+00 -0.14559311032E+04  0.14559311032E+04  0.00000000000E+00 0. -1.
         23    2    1    2    0    0 -0.51511187717E+03  0.96436678000E+03  0.19929630913E+03  0.11151715712E+04  0.92439612669E+02 0.  0.
        254    2    1    2    0    0  0.51511187717E+03 -0.96436678000E+03 -0.49627730528E+03  0.14997096391E+04  0.89860686922E+03 0.  0.
        -24    2    4    4    0    0  0.10595034147E+03 -0.22056507082E+03  0.25604706194E+03  0.36291666503E+03  0.79208474953E+02 0.  0.
         24    2    4    4    0    0  0.40916153571E+03 -0.74380170917E+03 -0.75232436722E+03  0.11367929740E+04  0.75180897997E+02 0.  0.
         11    1    3    3    0    0 -0.42725230959E+03  0.77957321679E+03  0.19699706347E+03  0.91054202506E+03  0.00000000000E+00 0. -1.
        -11    1    3    3    0    0 -0.87859567583E+02  0.18479356321E+03  0.22992456659E+01  0.20462954613E+03  0.00000000000E+00 0.  1.
          2    1    6    6  502    0  0.16022575555E+03 -0.23614200161E+03 -0.22137793082E+03  0.36116966362E+03  0.00000000000E+00 0. -1.
          1    1    5    5  503    0  0.58274293471E+02 -0.12710507344E+03  0.89305598209E+02  0.16591287727E+03  0.00000000000E+00 0. -1.
         -2    1    5    5    0  503  0.47676047996E+02 -0.93459997386E+02  0.16674146373E+03  0.19700378776E+03  0.00000000000E+00 0.  1.
         -1    1    6    6    0  502  0.24893578015E+03 -0.50765970757E+03 -0.53094643640E+03  0.77562331041E+03  0.00000000000E+00 0.  1.
<mgrwt>
<rscale>  0 0.25979619E+04</rscale>
<asrwt>0</asrwt>
<pdfrwt beam="1">  1        1 0.22398940E+00 0.25979619E+04</pdfrwt>
<pdfrwt beam="2">  1       -1 0.17830002E+00 0.25979619E+04</pdfrwt>
<totfact> 0.13238648E+00</totfact>
</mgrwt>
</event>
<event>
12    1  0.2019083E-007  0.1851642E+04  0.7818608E-02  0.8679309E-01
          2   -1    0    0  501    0  0.00000000000E+00  0.00000000000E+00  0.74846164689E+03  0.74846164689E+03  0.00000000000E+00 0. -1.
         -2   -1    0    0    0  501 -0.00000000000E+00 -0.00000000000E+00 -0.11452080980E+04  0.11452080980E+04  0.00000000000E+00 0.  1.
         23    2    1    2    0    0 -0.16045274787E+03 -0.64110550973E+03  0.94928060124E+02  0.67404331797E+03  0.92529449317E+02 0.  0.
        254    2    1    2    0    0  0.16045274787E+03  0.64110550973E+03 -0.49167451120E+03  0.12196264269E+04  0.89943506562E+03 0.  0.
        -24    2    4    4    0    0 -0.22677083280E+03  0.27552179141E+03 -0.56778319445E+03  0.67600992465E+03  0.85290059012E+02 0.  0.
         24    2    4    4    0    0  0.38722358067E+03  0.36558371832E+03  0.76108683256E+02  0.54361650223E+03  0.78312280641E+02 0.  0.
         13    1    3    3    0    0 -0.44209308006E+02 -0.10439142209E+03  0.47250330608E+02  0.12281948405E+03  0.00000000000E+00 0. -1.
        -13    1    3    3    0    0 -0.11624343987E+03 -0.53671408765E+03  0.47677729516E+02  0.55122383392E+03  0.00000000000E+00 0.  1.
          2    1    6    6  502    0  0.23118724161E+02  0.52092763387E+02 -0.99897272228E+00  0.57001134643E+02  0.00000000000E+00 0. -1.
          3    1    5    5  503    0 -0.10666109550E+03  0.17436046504E+03 -0.37761649356E+03  0.42938604690E+03  0.00000000000E+00 0. -1.
         -4    1    5    5    0  503 -0.12010973730E+03  0.10116132637E+03 -0.19016670089E+03  0.24662387775E+03  0.00000000000E+00 0.  1.
         -1    1    6    6    0  502  0.36410485651E+03  0.31349095494E+03  0.77107655978E+02  0.48661536759E+03  0.00000000000E+00 0.  1.
<mgrwt>
<rscale>  0 0.18516418E+04</rscale>
<asrwt>0</asrwt>
<pdfrwt beam="1">  1        2 0.11514795E+00 0.18516418E+04</pdfrwt>
<pdfrwt beam="2">  1       -2 0.17618586E+00 0.18516418E+04</pdfrwt>
<totfact> 0.68098056E+00</totfact>
</mgrwt>
</event>
<event>
12    1  0.2019083E-007  0.2786974E+04  0.7818608E-02  0.8307324E-01
          2   -1    0    0  501    0  0.00000000000E+00  0.00000000000E+00  0.22110997879E+04  0.22110997879E+04  0.00000000000E+00 0. -1.
         -2   -1    0    0    0  501 -0.00000000000E+00 -0.00000000000E+00 -0.87820825825E+03  0.87820825825E+03  0.00000000000E+00 0.  1.
         23    2    1    2    0    0  0.84843008584E+03  0.80572407364E+03  0.10722351284E+04  0.15898242213E+04  0.93957387030E+02 0.  0.
        254    2    1    2    0    0 -0.84843008584E+03 -0.80572407364E+03  0.26065640128E+03  0.14994838249E+04  0.90082467121E+03 0.  0.
        -24    2    4    4    0    0 -0.75661828193E+03 -0.11493464754E+03  0.20263675950E+03  0.79574407722E+03  0.80410088730E+02 0.  0.
         24    2    4    4    0    0 -0.91811803906E+02 -0.69078942609E+03  0.58019641779E+02  0.70373974770E+03  0.79144899486E+02 0.  0.
         13    1    3    3    0    0  0.57550935117E+03  0.48900658312E+03  0.66721940908E+03  0.10077302176E+04  0.00000000000E+00 0.  1.
        -13    1    3    3    0    0  0.27292073467E+03  0.31671749052E+03  0.40501571933E+03  0.58209400368E+03  0.00000000000E+00 0. -1.
          4    1    6    6  502    0  0.21486540870E+01 -0.27625002649E+03  0.26083162977E+02  0.27748698211E+03  0.00000000000E+00 0. -1.
          1    1    5    5  503    0 -0.46374539157E+03 -0.72645485021E+02  0.83593802581E+02  0.47678619792E+03  0.00000000000E+00 0. -1.
         -4    1    5    5    0  503 -0.29287289036E+03 -0.42289162523E+02  0.11904295692E+03  0.31895787930E+03  0.00000000000E+00 0.  1.
         -3    1    6    6    0  502 -0.93960457993E+02 -0.41453939960E+03  0.31936478802E+02  0.42625276558E+03  0.00000000000E+00 0.  1.
<mgrwt>
<rscale>  0 0.27869741E+04</rscale>
<asrwt>0</asrwt>
<pdfrwt beam="1">  1        2 0.34016920E+00 0.27869741E+04</pdfrwt>
<pdfrwt beam="2">  1       -2 0.13510896E+00 0.27869741E+04</pdfrwt>
<totfact> 0.17455020E+00</totfact>
</mgrwt>
</event>
<event>
12    1  0.2019083E-007  0.1693603E+04  0.7818608E-02  0.8765021E-01
          2   -1    0    0  501    0  0.00000000000E+00  0.00000000000E+00  0.19456584304E+04  0.19456584304E+04  0.00000000000E+00 0. -1.
         -2   -1    0    0    0  501 -0.00000000000E+00 -0.00000000000E+00 -0.36855028872E+03  0.36855028872E+03  0.00000000000E+00 0.  1.
         23    2    1    2    0    0 -0.19833545373E+02  0.53938074856E+03  0.20093871427E+03  0.58317817478E+03  0.91626716652E+02 0.  0.
        254    2    1    2    0    0  0.19833545373E+02 -0.53938074856E+03  0.13761694274E+04  0.17310305444E+04  0.90072165017E+03 0.  0.
        -24    2    4    4    0    0 -0.83855599146E+01 -0.73014453891E+03  0.66964921110E+03  0.99409881591E+03  0.81369678322E+02 0.  0.
         24    2    4    4    0    0  0.28219105288E+02  0.19076379035E+03  0.70652021631E+03  0.73693172844E+03  0.81917121016E+02 0.  0.
         11    1    3    3    0    0  0.32164324863E+02  0.22512860935E+03  0.62331901792E+02  0.23580224876E+03  0.00000000000E+00 0. -1.
        -11    1    3    3    0    0 -0.51997870236E+02  0.31425213921E+03  0.13860681248E+03  0.34737592601E+03  0.00000000000E+00 0.  1.
          4    1    6    6  502    0  0.29338596110E+02  0.55287595044E+02  0.34969607039E+03  0.35525316752E+03  0.00000000000E+00 0. -1.
          1    1    5    5  503    0 -0.10352845093E+02 -0.72371797555E+03  0.64818246669E+03  0.97160454901E+03  0.00000000000E+00 0. -1.
         -2    1    5    5    0  503  0.19672851781E+01 -0.64265633578E+01  0.21466744415E+02  0.22494266899E+02  0.00000000000E+00 0.  1.
         -3    1    6    6    0  502 -0.11194908219E+01  0.13547619530E+03  0.35682414593E+03  0.38167856093E+03  0.00000000000E+00 0.  1.
<mgrwt>
<rscale>  0 0.16936032E+04</rscale>
<asrwt>0</asrwt>
<pdfrwt beam="1">  1        2 0.29933206E+00 0.16936032E+04</pdfrwt>
<pdfrwt beam="2">  1       -2 0.56700045E-01 0.16936032E+04</pdfrwt>
<totfact> 0.19895503E+01</totfact>
</mgrwt>
</event>
<event>
12    1  0.2019083E-007  0.3248002E+04  0.7818608E-02  0.8176254E-01
         -1   -1    0    0    0  501 -0.00000000000E+00  0.00000000000E+00  0.11334364182E+04  0.11334364182E+04  0.00000000000E+00 0.  1.
          1   -1    0    0  501    0  0.00000000000E+00 -0.00000000000E+00 -0.23268878302E+04  0.23268878302E+04  0.00000000000E+00 0. -1.
         23    2    1    2    0    0 -0.51463844256E+03 -0.47020892619E+03  0.86140963773E+03  0.11119609471E+04  0.92094641601E+02 0.  0.
        254    2    1    2    0    0  0.51463844256E+03  0.47020892619E+03 -0.20548610497E+04  0.23483633014E+04  0.89800172658E+03 0.  0.
        -24    2    4    4    0    0  0.64108937166E+02  0.22347248014E+03 -0.17026514723E+04  0.17205534081E+04  0.85041687983E+02 0.  0.
         24    2    4    4    0    0  0.45052950539E+03  0.24673644605E+03 -0.35220957743E+03  0.62780989335E+03  0.78980799677E+02 0.  0.
         11    1    3    3    0    0 -0.45801614233E+03 -0.38341722607E+03  0.70077402569E+03  0.92079953897E+03  0.00000000000E+00 0.  1.
        -11    1    3    3    0    0 -0.56622300225E+02 -0.86791700117E+02  0.16063561203E+03  0.19116140810E+03  0.00000000000E+00 0. -1.
          4    1    6    6  502    0  0.34719608175E+03  0.16426137560E+03 -0.29225953976E+03  0.48264123040E+03  0.00000000000E+00 0. -1.
          3    1    5    5  503    0 -0.13552678796E+02  0.98232388362E+02 -0.76292540224E+03  0.76934286675E+03  0.00000000000E+00 0. -1.
         -4    1    5    5    0  503  0.77661615962E+02  0.12524009177E+03 -0.93972607004E+03  0.95121054131E+03  0.00000000000E+00 0.  1.
         -3    1    6    6    0  502  0.10333342364E+03  0.82475070455E+02 -0.59950037668E+02  0.14516866295E+03  0.00000000000E+00 0.  1.
<mgrwt>
<rscale>  0 0.32480021E+04</rscale>
<asrwt>0</asrwt>
<pdfrwt beam="1">  1        1 0.35798274E+00 0.32480021E+04</pdfrwt>
<pdfrwt beam="2">  1       -1 0.17437483E+00 0.32480021E+04</pdfrwt>
<totfact> 0.33968407E-01</totfact>
</mgrwt>
</event>
<event>
12    1  0.2019083E-007  0.1679085E+04  0.7818608E-02  0.8773384E-01
          2   -1    0    0  501    0  0.00000000000E+00  0.00000000000E+00  0.11488188699E+04  0.11488188699E+04  0.00000000000E+00 0. -1.
         -2   -1    0    0    0  501 -0.00000000000E+00 -0.00000000000E+00 -0.61352736580E+03  0.61352736580E+03  0.00000000000E+00 0.  1.
         23    2    1    2    0    0  0.22208360910E+03 -0.13101060456E+03 -0.37197339595E+03  0.46004108071E+03  0.82393450656E+02 0.  0.
        254    2    1    2    0    0 -0.22208360910E+03  0.13101060456E+03  0.90726490004E+03  0.13023051550E+04  0.89798898095E+03 0.  0.
        -24    2    4    4    0    0 -0.12145828881E+03  0.49452259307E+03  0.68680036473E+03  0.85798175387E+03  0.71646618886E+02 0.  0.
         24    2    4    4    0    0 -0.10062532029E+03 -0.36351198850E+03  0.22046453531E+03  0.44432340111E+03  0.80945985554E+02 0.  0.
         11    1    3    3    0    0  0.14041415016E+03 -0.10265712088E+03 -0.30328838558E+03  0.34962617588E+03  0.00000000000E+00 0.  1.
        -11    1    3    3    0    0  0.81669458937E+02 -0.28353483676E+02 -0.68685010378E+02  0.11041490484E+03  0.00000000000E+00 0. -1.
          2    1    6    6  502    0  0.72161060060E+01 -0.18329243411E+01  0.90864717628E+01  0.11747159939E+02  0.00000000000E+00 0. -1.
          3    1    5    5  503    0 -0.76293660546E+02  0.17032121417E+03  0.26298279543E+03  0.32247478867E+03  0.00000000000E+00 0. -1.
         -4    1    5    5    0  503 -0.45164628261E+02  0.32420137889E+03  0.42381756931E+03  0.53550696520E+03  0.00000000000E+00 0.  1.
         -1    1    6    6    0  502 -0.10784142629E+03 -0.36167906416E+03  0.21137806354E+03  0.43257624117E+03  0.00000000000E+00 0.  1.
<mgrwt>
<rscale>  0 0.16790852E+04</rscale>
<asrwt>0</asrwt>
<pdfrwt beam="1">  1        2 0.17674136E+00 0.16790852E+04</pdfrwt>
<pdfrwt beam="2">  1       -2 0.94388826E-01 0.16790852E+04</pdfrwt>
<totfact> 0.18342334E+01</totfact>
</mgrwt>
</event>
<event>
12    1  0.2019083E-007  0.1742861E+04  0.7818608E-02  0.8737290E-01
          2   -1    0    0  501    0  0.00000000000E+00  0.00000000000E+00  0.15168782620E+04  0.15168782620E+04  0.00000000000E+00 0. -1.
         -2   -1    0    0    0  501 -0.00000000000E+00 -0.00000000000E+00 -0.50062737644E+03  0.50062737644E+03  0.00000000000E+00 0.  1.
         23    2    1    2    0    0  0.53123617969E+03  0.34340779626E+03  0.43109581217E+03  0.77118170625E+03  0.93471020307E+02 0.  0.
        254    2    1    2    0    0 -0.53123617969E+03 -0.34340779626E+03  0.58515507340E+03  0.12463239322E+04  0.90043105838E+03 0.  0.
        -24    2    4    4    0    0 -0.42136060551E+03  0.85821390920E+02 -0.77571364441E+02  0.44498400616E+03  0.84162807367E+02 0.  0.
         24    2    4    4    0    0 -0.10987557418E+03 -0.42922918718E+03  0.66272643784E+03  0.80133992604E+03  0.81418724596E+02 0.  0.
         13    1    3    3    0    0  0.67966930744E+02  0.23475645503E+02  0.21854100732E+02  0.75154582863E+02  0.00000000000E+00 0.  1.
        -13    1    3    3    0    0  0.46326924895E+03  0.31993215076E+03  0.40924171143E+03  0.69602712338E+03  0.00000000000E+00 0. -1.
          2    1    6    6  502    0 -0.94269537771E+02 -0.32132308714E+03  0.43595412518E+03  0.54971926594E+03  0.00000000000E+00 0. -1.
          1    1    5    5  503    0 -0.42111151678E+02 -0.16588874006E+02 -0.10555715667E+02  0.46475401770E+02  0.00000000000E+00 0. -1.
         -2    1    5    5    0  503 -0.37924945383E+03  0.10241026493E+03 -0.67015648775E+02  0.39850860439E+03  0.00000000000E+00 0.  1.
         -1    1    6    6    0  502 -0.15606036411E+02 -0.10790610004E+03  0.22677231266E+03  0.25162066010E+03  0.00000000000E+00 0.  1.
<mgrwt>
<rscale>  0 0.17428606E+04</rscale>
<asrwt>0</asrwt>
<pdfrwt beam="1">  1        2 0.23336588E+00 0.17428606E+04</pdfrwt>
<pdfrwt beam="2">  1       -2 0.77019597E-01 0.17428606E+04</pdfrwt>
<totfact> 0.17724823E+01</totfact>
</mgrwt>
</event>
<event>
12    1  0.2019083E-007  0.2174548E+04  0.7818608E-02  0.8529097E-01
         -1   -1    0    0    0  501 -0.00000000000E+00  0.00000000000E+00  0.16444965147E+04  0.16444965147E+04  0.00000000000E+00 0.  1.
          1   -1    0    0  501    0  0.00000000000E+00 -0.00000000000E+00 -0.71886151961E+03  0.71886151961E+03  0.00000000000E+00 0. -1.
         23    2    1    2    0    0  0.14936698194E+03  0.86256734570E+03  0.60258378174E+03  0.10666590920E+04  0.91222165391E+02 0.  0.
        254    2    1    2    0    0 -0.14936698194E+03 -0.86256734570E+03  0.32305121331E+03  0.12966989422E+04  0.90040720742E+03 0.  0.
        -24    2    4    4    0    0  0.83917174291E+02 -0.66571107924E+03 -0.18319111707E+03  0.70009563539E+03  0.79759514461E+02 0.  0.
         24    2    4    4    0    0 -0.23328415623E+03 -0.19685626645E+03  0.50624233038E+03  0.59660330683E+03  0.80500443883E+02 0.  0.
         11    1    3    3    0    0  0.13238227561E+03  0.50190810684E+03  0.35258080523E+03  0.62749505083E+03  0.00000000000E+00 0.  1.
        -11    1    3    3    0    0  0.16984706329E+02  0.36065923886E+03  0.25000297651E+03  0.43916404121E+03  0.00000000000E+00 0. -1.
          4    1    6    6  502    0 -0.10902647164E+03 -0.14203429880E+03  0.30888545908E+03  0.35703044742E+03  0.00000000000E+00 0. -1.
          3    1    5    5  503    0 -0.21280293295E+01 -0.28441453056E+03 -0.65338103339E+02  0.29183080963E+03  0.00000000000E+00 0. -1.
         -4    1    5    5    0  503  0.86045203621E+02 -0.38129654868E+03 -0.11785301373E+03  0.40826482576E+03  0.00000000000E+00 0.  1.
         -3    1    6    6    0  502 -0.12425768460E+03 -0.54821967651E+02  0.19735687130E+03  0.23957285941E+03  0.00000000000E+00 0.  1.
<mgrwt>
<rscale>  0 0.21745485E+04</rscale>
<asrwt>0</asrwt>
<pdfrwt beam="1">  1        1 0.11059408E+00 0.21745485E+04</pdfrwt>
<pdfrwt beam="2">  1       -1 0.25299946E+00 0.21745485E+04</pdfrwt>
<totfact> 0.15928267E+00</totfact>
</mgrwt>
</event>
<event>
12    1  0.2019083E-007  0.2885736E+04  0.7818608E-02  0.8277134E-01
         -2   -1    0    0    0  501 -0.00000000000E+00  0.00000000000E+00  0.11477169509E+04  0.11477169509E+04  0.00000000000E+00 0.  1.
          2   -1    0    0  501    0  0.00000000000E+00 -0.00000000000E+00 -0.18139213851E+04  0.18139213851E+04  0.00000000000E+00 0. -1.
         23    2    1    2    0    0 -0.78277046836E+03  0.75753388287E+03  0.43378064806E+03  0.11757616817E+04  0.87536801622E+02 0.  0.
        254    2    1    2    0    0  0.78277046836E+03 -0.75753388287E+03 -0.10999850822E+04  0.17858766544E+04  0.89039376326E+03 0.  0.
        -24    2    4    4    0    0  0.94045809427E+03 -0.51690612324E+03 -0.68969616631E+03  0.12785568739E+04  0.85869148024E+02 0.  0.
         24    2    4    4    0    0 -0.15768762592E+03 -0.24062775963E+03 -0.41028891591E+03  0.50731978048E+03  0.79178652937E+02 0.  0.
         11    1    3    3    0    0 -0.38597612019E+02  0.17216943674E+02  0.80796959486E+01  0.43028830912E+02  0.00000000000E+00 0. -1.
        -11    1    3    3    0    0 -0.74417285634E+03  0.74031693919E+03  0.42570095211E+03  0.11327328508E+04  0.00000000000E+00 0.  1.
          2    1    6    6  502    0 -0.12689099565E+02 -0.52427492241E+02 -0.12445109163E+03  0.13563822985E+03  0.00000000000E+00 0. -1.
          1    1    5    5  503    0  0.33232889865E+03 -0.14130895696E+03 -0.25322684356E+03  0.44106071293E+03  0.00000000000E+00 0. -1.
         -4    1    5    5    0  503  0.60812919562E+03 -0.37559716628E+03 -0.43646932275E+03  0.83749616094E+03  0.00000000000E+00 0.  1.
         -1    1    6    6    0  502 -0.14499852635E+03 -0.18820026739E+03 -0.28583782428E+03  0.37168155063E+03  0.00000000000E+00 0.  1.
<mgrwt>
<rscale>  0 0.28857362E+04</rscale>
<asrwt>0</asrwt>
<pdfrwt beam="1">  1        2 0.27906483E+00 0.28857362E+04</pdfrwt>
<pdfrwt beam="2">  1       -2 0.17657184E+00 0.28857362E+04</pdfrwt>
<totfact> 0.14032314E+00</totfact>
</mgrwt>
</event>
<event>
12    1  0.2019083E-007  0.1378727E+04  0.7818608E-02  0.8969362E-01
          2   -1    0    0  501    0  0.00000000000E+00  0.00000000000E+00  0.86859821080E+03  0.86859821080E+03  0.00000000000E+00 0. -1.
         -2   -1    0    0    0  501 -0.00000000000E+00 -0.00000000000E+00 -0.54711415903E+03  0.54711415903E+03  0.00000000000E+00 0.  1.
         23    2    1    2    0    0 -0.36529481247E+03  0.71241568346E+02  0.21051146737E+03  0.43719686792E+03  0.91161188822E+02 0.  0.
        254    2    1    2    0    0  0.36529481247E+03 -0.71241568346E+02  0.11097258441E+03  0.97851550192E+03  0.89814364771E+03 0.  0.
        -24    2    4    4    0    0  0.46375092865E+03  0.11278907581E+02 -0.28809185075E+03  0.55171234336E+03  0.78723933860E+02 0.  0.
         24    2    4    4    0    0 -0.98456116186E+02 -0.82520475927E+02  0.39906443516E+03  0.42680315856E+03  0.80032974344E+02 0.  0.
         13    1    3    3    0    0 -0.14849416703E+03  0.73981084502E+02  0.10187823048E+03  0.19468665170E+03  0.00000000000E+00 0.  1.
        -13    1    3    3    0    0 -0.21680064544E+03 -0.27395161560E+01  0.10863323688E+03  0.24251021621E+03  0.00000000000E+00 0. -1.
          4    1    6    6  502    0 -0.56360541420E+02 -0.71883992785E+02  0.34793475876E+03  0.35972547227E+03  0.00000000000E+00 0. -1.
          1    1    5    5  503    0  0.41662638522E+03  0.10807542107E+02 -0.28416001173E+03  0.50442170858E+03  0.00000000000E+00 0. -1.
         -2    1    5    5    0  503  0.47124543436E+02  0.47136547441E+00 -0.39318390269E+01  0.47290634777E+02  0.00000000000E+00 0.  1.
         -3    1    6    6    0  502 -0.42095574766E+02 -0.10636483142E+02  0.51129676401E+02  0.67077686285E+02  0.00000000000E+00 0.  1.
<mgrwt>
<rscale>  0 0.13787275E+04</rscale>
<asrwt>0</asrwt>
<pdfrwt beam="1">  1        2 0.13363049E+00 0.13787275E+04</pdfrwt>
<pdfrwt beam="2">  1       -2 0.84171409E-01 0.13787275E+04</pdfrwt>
<totfact> 0.37014213E+01</totfact>
</mgrwt>
</event>
<event>
12    1  0.2019083E-007  0.1165810E+04  0.7818608E-02  0.9143321E-01
         -2   -1    0    0    0  501 -0.00000000000E+00  0.00000000000E+00  0.63968183917E+03  0.63968183917E+03  0.00000000000E+00 0. -1.
          2   -1    0    0  501    0  0.00000000000E+00 -0.00000000000E+00 -0.53116768721E+03  0.53116768721E+03  0.00000000000E+00 0.  1.
         23    2    1    2    0    0  0.29363564734E+02  0.10011083908E+03 -0.17692600258E+03  0.22626775328E+03  0.94920423240E+02 0.  0.
        254    2    1    2    0    0 -0.29363564734E+02 -0.10011083908E+03  0.28544015454E+03  0.94458177310E+03  0.89435688917E+03 0.  0.
        -24    2    4    4    0    0  0.24663365461E+03  0.24089338728E+03 -0.86111955223E+02  0.36416228699E+03  0.79631142220E+02 0.  0.
         24    2    4    4    0    0 -0.27599721935E+03 -0.34100422636E+03  0.37155210977E+03  0.58041948611E+03  0.79859013900E+02 0.  0.
         13    1    3    3    0    0 -0.14026485727E+02 -0.77835846793E+01 -0.19333731860E+01  0.16157488177E+02  0.00000000000E+00 0. -1.
        -13    1    3    3    0    0  0.43390050461E+02  0.10789442376E+03 -0.17499262940E+03  0.21011026510E+03  0.00000000000E+00 0.  1.
          4    1    6    6  502    0 -0.25831901269E+03 -0.27393920727E+03  0.31135072777E+03  0.48858026698E+03  0.00000000000E+00 0. -1.
          1    1    5    5  503    0  0.20518977718E+03  0.15258175255E+03 -0.71581420695E+02  0.26553330424E+03  0.00000000000E+00 0. -1.
         -2    1    5    5    0  503  0.41443877429E+02  0.88311634727E+02 -0.14530534528E+02  0.98628982749E+02  0.00000000000E+00 0.  1.
         -3    1    6    6    0  502 -0.17678206653E+02 -0.67065019093E+02  0.60201381994E+02  0.91839219130E+02  0.00000000000E+00 0.  1.
<mgrwt>
<rscale>  0 0.11658101E+04</rscale>
<asrwt>0</asrwt>
<pdfrwt beam="1">  1        2 0.81718107E-01 0.11658101E+04</pdfrwt>
<pdfrwt beam="2">  1       -2 0.98412590E-01 0.11658101E+04</pdfrwt>
<totfact> 0.48680302E+01</totfact>
</mgrwt>
</event>
<event>
12    1  0.2019083E-007  0.1574544E+04  0.7818608E-02  0.8836341E-01
          2   -1    0    0  501    0  0.00000000000E+00  0.00000000000E+00  0.48873091339E+03  0.48873091339E+03  0.00000000000E+00 0. -1.
         -2   -1    0    0    0  501 -0.00000000000E+00 -0.00000000000E+00 -0.12681773473E+04  0.12681773473E+04  0.00000000000E+00 0.  1.
         23    2    1    2    0    0  0.33041408321E+03 -0.38788617935E+03 -0.13350962528E+03  0.53648216256E+03  0.10177984174E+03 0.  0.
        254    2    1    2    0    0 -0.33041408321E+03  0.38788617935E+03 -0.64593680867E+03  0.12204260982E+04  0.90143016691E+03 0.  0.
        -24    2    4    4    0    0  0.91085517195E+02 -0.21493360206E+03 -0.18225435263E+02  0.25037929760E+03  0.88682588141E+02 0.  0.
         24    2    4    4    0    0 -0.42149960041E+03  0.60281978141E+03 -0.62771137341E+03  0.97004680059E+03  0.76913100492E+02 0.  0.
         11    1    3    3    0    0  0.14262654216E+03 -0.24404264860E+03 -0.83041584570E+02  0.29460999581E+03  0.00000000000E+00 0.  1.
        -11    1    3    3    0    0  0.18778754105E+03 -0.14384353075E+03 -0.50468040713E+02  0.24187216675E+03  0.00000000000E+00 0. -1.
          2    1    6    6  502    0 -0.37665026402E+03  0.53572155049E+03 -0.52448962553E+03  0.83901869368E+03  0.00000000000E+00 0. -1.
          3    1    5    5  503    0  0.73582397639E+02 -0.75552368821E+02 -0.29327880854E+02  0.10946531082E+03  0.00000000000E+00 0. -1.
         -4    1    5    5    0  503  0.17503119556E+02 -0.13938123324E+03  0.11102445591E+02  0.14091398678E+03  0.00000000000E+00 0.  1.
         -1    1    6    6    0  502 -0.44849336382E+02  0.67098230915E+02 -0.10322174787E+03  0.13102810691E+03  0.00000000000E+00 0.  1.
<mgrwt>
<rscale>  0 0.15745443E+04</rscale>
<asrwt>0</asrwt>
<pdfrwt beam="1">  1        2 0.75189371E-01 0.15745443E+04</pdfrwt>
<pdfrwt beam="2">  1       -2 0.19510421E+00 0.15745443E+04</pdfrwt>
<totfact> 0.86964561E+00</totfact>
</mgrwt>
</event>
<event>
12    1  0.2019083E-007  0.3138099E+04  0.7818608E-02  0.8205359E-01
          2   -1    0    0  501    0  0.00000000000E+00  0.00000000000E+00  0.10732315480E+04  0.10732315480E+04  0.00000000000E+00 0. -1.
         -2   -1    0    0    0  501 -0.00000000000E+00 -0.00000000000E+00 -0.22939283265E+04  0.22939283265E+04  0.00000000000E+00 0.  1.
         23    2    1    2    0    0 -0.12721141424E+04  0.67147521092E+03 -0.49384645046E+03  0.15233096153E+04  0.86223647488E+02 0.  0.
        254    2    1    2    0    0  0.12721141424E+04 -0.67147521092E+03 -0.72685032802E+03  0.18438502592E+04  0.89572262944E+03 0.  0.
        -24    2    4    4    0    0  0.69568215123E+02 -0.43914510847E+03 -0.88855797979E+02  0.46045251074E+03  0.80205978385E+02 0.  0.
         24    2    4    4    0    0  0.12025459273E+04 -0.23233010245E+03 -0.63799453004E+03  0.13833977485E+04  0.81598568667E+02 0.  0.
         13    1    3    3    0    0 -0.69658415785E+03  0.33325763137E+03 -0.29693237818E+03  0.82732035817E+03  0.00000000000E+00 0. -1.
        -13    1    3    3    0    0 -0.57552998453E+03  0.33821757956E+03 -0.19691407228E+03  0.69598925716E+03  0.00000000000E+00 0.  1.
          2    1    6    6  502    0  0.39781123323E+03 -0.56644073817E+02 -0.24647430632E+03  0.47139358509E+03  0.00000000000E+00 0. -1.
          1    1    5    5  503    0  0.58064524550E+02 -0.38617067677E+03 -0.49875716825E+02  0.39368371536E+03  0.00000000000E+00 0. -1.
         -2    1    5    5    0  503  0.11503690572E+02 -0.52974431695E+02 -0.38980081154E+02  0.66768795384E+02  0.00000000000E+00 0.  1.
         -1    1    6    6    0  502  0.80473469402E+03 -0.17568602864E+03 -0.39152022372E+03  0.91200416337E+03  0.00000000000E+00 0.  1.
<mgrwt>
<rscale>  0 0.31380989E+04</rscale>
<asrwt>0</asrwt>
<pdfrwt beam="1">  1        2 0.16511255E+00 0.31380989E+04</pdfrwt>
<pdfrwt beam="2">  1       -2 0.35291204E+00 0.31380989E+04</pdfrwt>
<totfact> 0.28560465E-01</totfact>
</mgrwt>
</event>
<event>
12    1  0.2019083E-007  0.2343877E+04  0.7818608E-02  0.8460819E-01
         -2   -1    0    0    0  501 -0.00000000000E+00  0.00000000000E+00  0.60466360860E+03  0.60466360860E+03  0.00000000000E+00 0.  1.
          2   -1    0    0  501    0  0.00000000000E+00 -0.00000000000E+00 -0.22714116709E+04  0.22714116709E+04  0.00000000000E+00 0. -1.
         23    2    1    2    0    0 -0.38591930505E+03  0.90664296743E+03 -0.91876314298E+03  0.13498685530E+04  0.84167791513E+02 0.  0.
        254    2    1    2    0    0  0.38591930505E+03 -0.90664296743E+03 -0.74798491933E+03  0.15262067265E+04  0.89380666367E+03 0.  0.
        -24    2    4    4    0    0  0.14760531499E+03 -0.73542895291E+01  0.15552907793E+03  0.22695887689E+03  0.74024476564E+02 0.  0.
         24    2    4    4    0    0  0.23831399006E+03 -0.89928867790E+03 -0.90351399726E+03  0.12992478496E+04  0.78700364523E+02 0.  0.
         11    1    3    3    0    0 -0.12004407994E+03  0.38314034722E+03 -0.38930922794E+03  0.55925734841E+03  0.00000000000E+00 0. -1.
        -11    1    3    3    0    0 -0.26587522511E+03  0.52350262021E+03 -0.52945391505E+03  0.79061120461E+03  0.00000000000E+00 0.  1.
          2    1    6    6  502    0  0.80254022378E+02 -0.39218920748E+03 -0.34471753312E+03  0.52828331434E+03  0.00000000000E+00 0. -1.
          1    1    5    5  503    0  0.15545453657E+03 -0.49834490429E+01  0.13938508043E+03  0.20885197713E+03  0.00000000000E+00 0. -1.
         -2    1    5    5    0  503 -0.78492215732E+01 -0.23708404862E+01  0.16143997496E+02  0.18106899764E+02  0.00000000000E+00 0.  1.
         -1    1    6    6    0  502  0.15805996768E+03 -0.50709947042E+03 -0.55879646414E+03  0.77096453525E+03  0.00000000000E+00 0.  1.
<mgrwt>
<rscale>  0 0.23438771E+04</rscale>
<asrwt>0</asrwt>
<pdfrwt beam="1">  1        2 0.34944796E+00 0.23438771E+04</pdfrwt>
<pdfrwt beam="2">  1       -2 0.93025169E-01 0.23438771E+04</pdfrwt>
<totfact> 0.41607054E+00</totfact>
</mgrwt>
</event>
<event>
12    1  0.2019083E-007  0.1538937E+04  0.7818608E-02  0.8858966E-01
         -2   -1    0    0    0  501 -0.00000000000E+00  0.00000000000E+00  0.15833447507E+04  0.15833447507E+04  0.00000000000E+00 0.  1.
          2   -1    0    0  501    0  0.00000000000E+00 -0.00000000000E+00 -0.37394351224E+03  0.37394351224E+03  0.00000000000E+00 0. -1.
         23    2    1    2    0    0 -0.55185828692E+01  0.41302878781E+03  0.40014562965E+02  0.42489627275E+03  0.91172600228E+02 0.  0.
        254    2    1    2    0    0  0.55185828692E+01 -0.41302878781E+03  0.11693866755E+04  0.15323919902E+04  0.90007598595E+03 0.  0.
        -24    2    4    4    0    0 -0.40134385476E+03 -0.11175345351E+03  0.28842758239E+03  0.51307991612E+03  0.80590358738E+02 0.  0.
         24    2    4    4    0    0  0.40686243762E+03 -0.30127533430E+03  0.88095909310E+03  0.10193120741E+04  0.81266908552E+02 0.  0.
         11    1    3    3    0    0 -0.29733748459E+02  0.37903655393E+03  0.45039395874E+02  0.38285944182E+03  0.00000000000E+00 0. -1.
        -11    1    3    3    0    0  0.24215165590E+02  0.33992233877E+02 -0.50248329087E+01  0.42036830925E+02  0.00000000000E+00 0.  1.
          2    1    6    6  502    0  0.34410101931E+03 -0.21513478559E+03  0.68212549704E+03  0.79371511336E+03  0.00000000000E+00 0. -1.
          1    1    5    5  503    0 -0.37526387733E+03 -0.91385326076E+02  0.28461312615E+03  0.47976961870E+03  0.00000000000E+00 0. -1.
         -2    1    5    5    0  503 -0.26079977426E+02 -0.20368127434E+02  0.38144562348E+01  0.33310297418E+02  0.00000000000E+00 0.  1.
         -3    1    6    6    0  502  0.62761418311E+02 -0.86140548707E+02  0.19883359606E+03  0.22559696071E+03  0.00000000000E+00 0.  1.
<mgrwt>
<rscale>  0 0.15389366E+04</rscale>
<asrwt>0</asrwt>
<pdfrwt beam="1">  1        2 0.57529772E-01 0.15389366E+04</pdfrwt>
<pdfrwt beam="2">  1       -2 0.24359150E+00 0.15389366E+04</pdfrwt>
<totfact> 0.58180389E+00</totfact>
</mgrwt>
</event>
<event>
12    1  0.2019083E-007  0.1631366E+04  0.7818608E-02  0.8801507E-01
          1   -1    0    0  501    0  0.00000000000E+00  0.00000000000E+00  0.18407939693E+04  0.18407939693E+04  0.00000000000E+00 0. -1.
         -1   -1    0    0    0  501 -0.00000000000E+00 -0.00000000000E+00 -0.36144116388E+03  0.36144116388E+03  0.00000000000E+00 0.  1.
         23    2    1    2    0    0  0.90912566696E+02 -0.27172975244E+03 -0.14018663184E+03  0.33281679306E+03  0.94934571403E+02 0.  0.
        254    2    1    2    0    0 -0.90912566696E+02  0.27172975244E+03  0.16195394373E+04  0.18694183401E+04  0.88865898317E+03 0.  0.
        -24    2    4    4    0    0  0.36156781761E+03  0.10582583089E+03  0.39914212336E+03  0.55494679092E+03  0.81982393802E+02 0.  0.
         24    2    4    4    0    0 -0.45248038431E+03  0.16590392155E+03  0.12203973139E+04  0.13144715492E+04  0.78760653330E+02 0.  0.
         11    1    3    3    0    0  0.43338535728E+02 -0.16078723562E+03 -0.29657829897E+02  0.16914594495E+03  0.00000000000E+00 0. -1.
        -11    1    3    3    0    0  0.47574030968E+02 -0.11094251682E+03 -0.11052880195E+03  0.16367084811E+03  0.00000000000E+00 0.  1.
          2    1    6    6  502    0 -0.11323725091E+03  0.15522422736E+02  0.22988240039E+03  0.25672853096E+03  0.00000000000E+00 0. -1.
          1    1    5    5  503    0  0.16722118566E+03  0.91597672271E+02  0.19443443834E+03  0.27231931498E+03  0.00000000000E+00 0. -1.
         -2    1    5    5    0  503  0.19434663195E+03  0.14228158623E+02  0.20470768502E+03  0.28262747594E+03  0.00000000000E+00 0.  1.
         -1    1    6    6    0  502 -0.33924313339E+03  0.15038149881E+03  0.99051491351E+03  0.10577430182E+04  0.00000000000E+00 0.  1.
<mgrwt>
<rscale>  0 0.16313659E+04</rscale>
<asrwt>0</asrwt>
<pdfrwt beam="1">  1        1 0.28319907E+00 0.16313659E+04</pdfrwt>
<pdfrwt beam="2">  1       -1 0.55606334E-01 0.16313659E+04</pdfrwt>
<totfact> 0.11965048E+01</totfact>
</mgrwt>
</event>
<event>
12    1  0.2019083E-007  0.1052306E+04  0.7818608E-02  0.9252966E-01
         -1   -1    0    0    0  501 -0.00000000000E+00  0.00000000000E+00  0.83332489950E+03  0.83332489950E+03  0.00000000000E+00 0.  1.
          1   -1    0    0  501    0  0.00000000000E+00 -0.00000000000E+00 -0.33220804378E+03  0.33220804378E+03  0.00000000000E+00 0. -1.
         23    2    1    2    0    0  0.36318435401E+02  0.10094458550E+03  0.46301266710E+02  0.15365353214E+03  0.99783578555E+02 0.  0.
        254    2    1    2    0    0 -0.36318435401E+02 -0.10094458550E+03  0.45481558901E+03  0.10118794111E+04  0.89751539518E+03 0.  0.
        -24    2    4    4    0    0 -0.39844918967E+03 -0.25886752422E+03  0.34417535621E+03  0.59311795226E+03  0.86937205089E+02 0.  0.
         24    2    4    4    0    0  0.36213075427E+03  0.15792293872E+03  0.11064023280E+03  0.41876145888E+03  0.83914006973E+02 0.  0.
         11    1    3    3    0    0  0.42613788684E+02  0.47885478779E+02  0.70250520666E+02  0.95100419125E+02  0.00000000000E+00 0.  1.
        -11    1    3    3    0    0 -0.62953532823E+01  0.53059106723E+02 -0.23949253956E+02  0.58553113019E+02  0.00000000000E+00 0. -1.
          4    1    6    6  502    0  0.29407158390E+03  0.16184808291E+03  0.89721973839E+02  0.34745205567E+03  0.00000000000E+00 0. -1.
          3    1    5    5  503    0 -0.28483546824E+03 -0.22146412903E+03  0.28432678761E+03  0.45936839962E+03  0.00000000000E+00 0. -1.
         -4    1    5    5    0  503 -0.11361372143E+03 -0.37403395191E+02  0.59848568595E+02  0.13374955264E+03  0.00000000000E+00 0.  1.
         -3    1    6    6    0  502  0.68059170367E+02 -0.39251441881E+01  0.20918258964E+02  0.71309403209E+02  0.00000000000E+00 0.  1.
<mgrwt>
<rscale>  0 0.10523065E+04</rscale>
<asrwt>0</asrwt>
<pdfrwt beam="1">  1        1 0.51108930E-01 0.10523065E+04</pdfrwt>
<pdfrwt beam="2">  1       -1 0.12820383E+00 0.10523065E+04</pdfrwt>
<totfact> 0.40284173E+01</totfact>
</mgrwt>
</event>
<event>
12    1  0.2019083E-007  0.1858555E+04  0.7818608E-02  0.8675766E-01
         -1   -1    0    0    0  501 -0.00000000000E+00  0.00000000000E+00  0.35387881166E+03  0.35387881166E+03  0.00000000000E+00 0.  1.
          1   -1    0    0  501    0  0.00000000000E+00 -0.00000000000E+00 -0.24402609337E+04  0.24402609337E+04  0.00000000000E+00 0. -1.
         23    2    1    2    0    0 -0.63736449952E+03 -0.30261073261E+03 -0.87398573034E+03  0.11268972345E+04  0.90772019418E+02 0.  0.
        254    2    1    2    0    0  0.63736449952E+03  0.30261073261E+03 -0.12123963917E+04  0.16672425108E+04  0.90110255724E+03 0.  0.
        -24    2    4    4    0    0  0.32600822705E+03  0.60704401952E+03 -0.64121440635E+03  0.94463059530E+03  0.79920215977E+02 0.  0.
         24    2    4    4    0    0  0.31135627247E+03 -0.30443328690E+03 -0.57118198533E+03  0.72261191555E+03  0.79352161548E+02 0.  0.
         11    1    3    3    0    0 -0.12422266884E+03 -0.39189254363E+02 -0.11615653012E+03  0.17452624044E+03  0.00000000000E+00 0.  1.
        -11    1    3    3    0    0 -0.51314183068E+03 -0.26342147825E+03 -0.75782920021E+03  0.95237099404E+03  0.00000000000E+00 0. -1.
          4    1    6    6  502    0  0.20337839115E+03 -0.22238314101E+03 -0.33778983085E+03  0.45267979988E+03  0.00000000000E+00 0. -1.
          1    1    5    5  503    0  0.20414450932E+03  0.36600557710E+03 -0.33666446487E+03  0.53756676335E+03  0.00000000000E+00 0. -1.
         -2    1    5    5    0  503  0.12186371774E+03  0.24103844242E+03 -0.30454994148E+03  0.40706383195E+03  0.00000000000E+00 0.  1.
         -3    1    6    6    0  502  0.10797788132E+03 -0.82050145891E+02 -0.23339215449E+03  0.26993211567E+03  0.00000000000E+00 0.  1.
<mgrwt>
<rscale>  0 0.18585550E+04</rscale>
<asrwt>0</asrwt>
<pdfrwt beam="1">  1        1 0.37542475E+00 0.18585550E+04</pdfrwt>
<pdfrwt beam="2">  1       -1 0.54442895E-01 0.18585550E+04</pdfrwt>
<totfact> 0.47715419E+00</totfact>
</mgrwt>
</event>
<event>
12    1  0.2019083E-007  0.3090953E+04  0.7818608E-02  0.8218225E-01
          2   -1    0    0  501    0  0.00000000000E+00  0.00000000000E+00  0.31762429126E+04  0.31762429126E+04  0.00000000000E+00 0. -1.
         -2   -1    0    0    0  501 -0.00000000000E+00 -0.00000000000E+00 -0.75198856496E+03  0.75198856496E+03  0.00000000000E+00 0.  1.
         23    2    1    2    0    0  0.12402901859E+04  0.43054088004E+03  0.44562223789E+03  0.13894953224E+04  0.91830699525E+02 0.  0.
        254    2    1    2    0    0 -0.12402901859E+04 -0.43054088004E+03  0.19786321097E+04  0.25387361552E+04  0.89805960016E+03 0.  0.
        -24    2    4    4    0    0 -0.38969103510E+03 -0.36045731148E+03  0.21548982978E+03  0.57823061704E+03  0.78270067771E+02 0.  0.
         24    2    4    4    0    0 -0.85059915079E+03 -0.70083568554E+02  0.17631422800E+04  0.19605055381E+04  0.80502446332E+02 0.  0.
         13    1    3    3    0    0  0.19245291478E+03  0.35029005935E+02  0.52907725055E+02  0.20264348752E+03  0.00000000000E+00 0. -1.
        -13    1    3    3    0    0  0.10478372711E+04  0.39551187410E+03  0.39271451284E+03  0.11868518348E+04  0.00000000000E+00 0.  1.
          2    1    6    6  502    0 -0.41407623020E+03  0.47158099970E+01  0.87708662813E+03  0.96992902654E+03  0.00000000000E+00 0. -1.
          1    1    5    5  503    0 -0.25061248337E+03 -0.19157218708E+03  0.15365479438E+03  0.35087934610E+03  0.00000000000E+00 0. -1.
         -2    1    5    5    0  503 -0.13907855172E+03 -0.16888512441E+03  0.61835035398E+02  0.22735127094E+03  0.00000000000E+00 0.  1.
         -1    1    6    6    0  502 -0.43652292059E+03 -0.74799378551E+02  0.88605565182E+03  0.99057651161E+03  0.00000000000E+00 0.  1.
<mgrwt>
<rscale>  0 0.30909535E+04</rscale>
<asrwt>0</asrwt>
<pdfrwt beam="1">  1        2 0.48865275E+00 0.30909535E+04</pdfrwt>
<pdfrwt beam="2">  1       -2 0.11569055E+00 0.30909535E+04</pdfrwt>
<totfact> 0.66291880E-01</totfact>
</mgrwt>
</event>
<event>
12    1  0.2019083E-007  0.1444631E+04  0.7818608E-02  0.8922131E-01
         -2   -1    0    0    0  501 -0.00000000000E+00  0.00000000000E+00  0.35442334113E+03  0.35442334113E+03  0.00000000000E+00 0.  1.
          2   -1    0    0  501    0  0.00000000000E+00 -0.00000000000E+00 -0.14720811719E+04  0.14720811719E+04  0.00000000000E+00 0. -1.
         23    2    1    2    0    0 -0.20024589318E+02  0.42126654585E+03 -0.48193900846E+03  0.64676429361E+03  0.90401088357E+02 0.  0.
        254    2    1    2    0    0  0.20024589318E+02 -0.42126654585E+03 -0.63571882234E+03  0.11797402194E+04  0.89987892378E+03 0.  0.
        -24    2    4    4    0    0 -0.22513177873E+03 -0.55281315564E+02  0.14153165061E+03  0.28275891063E+03  0.78619665309E+02 0.  0.
         24    2    4    4    0    0  0.24515636804E+03 -0.36598523029E+03 -0.77725047295E+03  0.89698130882E+03  0.80064580747E+02 0.  0.
         11    1    3    3    0    0 -0.12494205133E+02  0.19072395683E+02 -0.59559960156E+01  0.23565553835E+02  0.00000000000E+00 0.  1.
        -11    1    3    3    0    0 -0.75303841846E+01  0.40219415017E+03 -0.47598301245E+03  0.62319873977E+03  0.00000000000E+00 0. -1.
          2    1    6    6  502    0  0.15649986287E+03 -0.29539630688E+03 -0.57187444233E+03  0.66241343811E+03  0.00000000000E+00 0. -1.
          3    1    5    5  503    0 -0.14133182358E+02 -0.63387147648E+01  0.41265682825E+02  0.44077009057E+02  0.00000000000E+00 0. -1.
         -4    1    5    5    0  503 -0.21099859637E+03 -0.48942600799E+02  0.10026596778E+03  0.23868190157E+03  0.00000000000E+00 0.  1.
         -1    1    6    6    0  502  0.88656505169E+02 -0.70588923414E+02 -0.20537603062E+03  0.23456787071E+03  0.00000000000E+00 0.  1.
<mgrwt>
<rscale>  0 0.14446313E+04</rscale>
<asrwt>0</asrwt>
<pdfrwt beam="1">  1        2 0.22647403E+00 0.14446313E+04</pdfrwt>
<pdfrwt beam="2">  1       -2 0.54526668E-01 0.14446313E+04</pdfrwt>
<totfact> 0.40419576E+01</totfact>
</mgrwt>
</event>
<event>
12    1  0.2019083E-007  0.1791458E+04  0.7818608E-02  0.8710855E-01
         -1   -1    0    0    0  501 -0.00000000000E+00  0.00000000000E+00  0.51202775534E+03  0.51202775534E+03  0.00000000000E+00 0.  1.
          1   -1    0    0  501    0  0.00000000000E+00 -0.00000000000E+00 -0.15669671101E+04  0.15669671101E+04  0.00000000000E+00 0. -1.
         23    2    1    2    0    0  0.19320018396E+03 -0.40764546857E+03 -0.96230253290E+03  0.10669365068E+04  0.93947887106E+02 0.  0.
        254    2    1    2    0    0 -0.19320018396E+03  0.40764546857E+03 -0.92636821870E+02  0.10120583587E+04  0.90120996528E+03 0.  0.
        -24    2    4    4    0    0 -0.42109661414E+02  0.44323356992E+03 -0.43506710224E+03  0.62759773698E+03  0.79789190448E+02 0.  0.
         24    2    4    4    0    0 -0.15109052254E+03 -0.35588101358E+02  0.34243028037E+03  0.38446062172E+03  0.80353057043E+02 0.  0.
         13    1    3    3    0    0  0.13094612110E+03 -0.35008614546E+03 -0.82227688743E+03  0.90324220200E+03  0.00000000000E+00 0. -1.
        -13    1    3    3    0    0  0.62254062858E+02 -0.57559323102E+02 -0.14002564547E+03  0.16369430475E+03  0.00000000000E+00 0.  1.
          2    1    6    6  502    0 -0.52975490097E+02 -0.20266638669E+02  0.49938608695E+02  0.75571183875E+02  0.00000000000E+00 0. -1.
          1    1    5    5  503    0  0.55950235662E+01  0.52663140053E+02 -0.22679705640E+02  0.57611454216E+02  0.00000000000E+00 0. -1.
         -2    1    5    5    0  503 -0.47704684981E+02  0.39057042987E+03 -0.41238739660E+03  0.56998628276E+03  0.00000000000E+00 0.  1.
         -1    1    6    6    0  502 -0.98115032447E+02 -0.15321462689E+02  0.29249167168E+03  0.30888943784E+03  0.00000000000E+00 0.  1.
<mgrwt>
<rscale>  0 0.17914582E+04</rscale>
<asrwt>0</asrwt>
<pdfrwt beam="1">  1        1 0.24107186E+00 0.17914582E+04</pdfrwt>
<pdfrwt beam="2">  1       -1 0.78773500E-01 0.17914582E+04</pdfrwt>
<totfact> 0.89502979E+00</totfact>
</mgrwt>
</event>
<event>
12    1  0.2019083E-007  0.1320668E+04  0.7818608E-02  0.9013334E-01
         -2   -1    0    0    0  501 -0.00000000000E+00  0.00000000000E+00  0.18373819913E+03  0.18373819913E+03  0.00000000000E+00 0.  1.
          2   -1    0    0  501    0  0.00000000000E+00 -0.00000000000E+00 -0.23731662920E+04  0.23731662920E+04  0.00000000000E+00 0. -1.
         23    2    1    2    0    0  0.15915159258E+03  0.50105405479E+02 -0.11675967075E+04  0.11828893781E+04  0.90030152353E+02 0.  0.
        254    2    1    2    0    0 -0.15915159258E+03 -0.50105405479E+02 -0.10218313854E+04  0.13740151130E+04  0.90329306965E+03 0.  0.
        -24    2    4    4    0    0  0.21557612242E+03 -0.37057390280E+02  0.46026834472E+02  0.23938051298E+03  0.85663561530E+02 0.  0.
         24    2    4    4    0    0 -0.37472771499E+03 -0.13048015199E+02 -0.10678582198E+04  0.11346346001E+04  0.80519481461E+02 0.  0.
         11    1    3    3    0    0 -0.38718412526E+01  0.82409162297E+01 -0.11814310956E+02  0.14915823757E+02  0.00000000000E+00 0.  1.
        -11    1    3    3    0    0  0.16302343383E+03  0.41864489250E+02 -0.11557823965E+04  0.11679735543E+04  0.00000000000E+00 0. -1.
          4    1    6    6  502    0 -0.13397403009E+03 -0.21942170003E+02 -0.28765129508E+03  0.31807824057E+03  0.00000000000E+00 0. -1.
          1    1    5    5  503    0  0.21228376470E+03 -0.32002423962E+02  0.23389112744E+02  0.21595277838E+03  0.00000000000E+00 0. -1.
         -2    1    5    5    0  503  0.32923577209E+01 -0.50549663180E+01  0.22637721728E+02  0.23427734608E+02  0.00000000000E+00 0.  1.
         -3    1    6    6    0  502 -0.24075368490E+03  0.88941548038E+01 -0.78020692476E+03  0.81655635949E+03  0.00000000000E+00 0.  1.
<mgrwt>
<rscale>  0 0.13206685E+04</rscale>
<asrwt>0</asrwt>
<pdfrwt beam="1">  1        2 0.36510248E+00 0.13206685E+04</pdfrwt>
<pdfrwt beam="2">  1       -2 0.28267417E-01 0.13206685E+04</pdfrwt>
<totfact> 0.46328025E+01</totfact>
</mgrwt>
</event>
<event>
12    1  0.2019083E-007  0.1531358E+04  0.7818608E-02  0.8863864E-01
         -1   -1    0    0    0  501 -0.00000000000E+00  0.00000000000E+00  0.88263582754E+03  0.88263582754E+03  0.00000000000E+00 0.  1.
          1   -1    0    0  501    0  0.00000000000E+00 -0.00000000000E+00 -0.66421997370E+03  0.66421997370E+03  0.00000000000E+00 0. -1.
         23    2    1    2    0    0 -0.27161025837E+03 -0.41514352952E+03  0.65548612381E+02  0.50859472349E+03  0.90860825550E+02 0.  0.
        254    2    1    2    0    0  0.27161025837E+03  0.41514352952E+03  0.15286724146E+03  0.10382610777E+04  0.89916705317E+03 0.  0.
        -24    2    4    4    0    0  0.29922388697E+03 -0.12978560468E+03 -0.19231914667E+03  0.38740542476E+03  0.81957740592E+02 0.  0.
         24    2    4    4    0    0 -0.27613628593E+02  0.54492913421E+03  0.34518638814E+03  0.65085565299E+03  0.82153299882E+02 0.  0.
         13    1    3    3    0    0 -0.12543194679E+03 -0.15913971492E+03 -0.14422490319E+02  0.20314189713E+03  0.00000000000E+00 0. -1.
        -13    1    3    3    0    0 -0.14617831158E+03 -0.25600381460E+03  0.79971102699E+02  0.30545282637E+03  0.00000000000E+00 0.  1.
          2    1    6    6  502    0 -0.16152661605E+02  0.47257386425E+03  0.26420617214E+03  0.54165659513E+03  0.00000000000E+00 0. -1.
          1    1    5    5  503    0  0.21080154401E+03 -0.66552577093E+02 -0.91844934483E+02  0.23937842105E+03  0.00000000000E+00 0. -1.
         -2    1    5    5    0  503  0.88422342957E+02 -0.63233027591E+02 -0.10047421219E+03  0.14802700371E+03  0.00000000000E+00 0.  1.
         -1    1    6    6    0  502 -0.11460966987E+02  0.72355269953E+02  0.80980215994E+02  0.10919905786E+03  0.00000000000E+00 0.  1.
<mgrwt>
<rscale>  0 0.15313580E+04</rscale>
<asrwt>0</asrwt>
<pdfrwt beam="1">  1        1 0.10218769E+00 0.15313580E+04</pdfrwt>
<pdfrwt beam="2">  1       -1 0.13579013E+00 0.15313580E+04</pdfrwt>
<totfact> 0.12914674E+01</totfact>
</mgrwt>
</event>
<event>
12    1  0.2019083E-007  0.4778955E+04  0.7818608E-02  0.7863541E-01
          1   -1    0    0  501    0  0.00000000000E+00  0.00000000000E+00  0.16751993791E+04  0.16751993791E+04  0.00000000000E+00 0. -1.
         -1   -1    0    0    0  501 -0.00000000000E+00 -0.00000000000E+00 -0.34083119670E+04  0.34083119670E+04  0.00000000000E+00 0.  1.
         23    2    1    2    0    0  0.46785443596E+03 -0.22432197670E+04 -0.10860925639E+04  0.25375569005E+04  0.93141126172E+02 0.  0.
        254    2    1    2    0    0 -0.46785443596E+03  0.22432197670E+04 -0.64702002391E+03  0.25459544456E+04  0.90129153516E+03 0.  0.
        -24    2    4    4    0    0  0.21833098108E+02  0.16175885339E+04 -0.65504902625E+03  0.17471083187E+04  0.78923389709E+02 0.  0.
         24    2    4    4    0    0 -0.48968753407E+03  0.62563123315E+03  0.80290023366E+01  0.79884612690E+03  0.82959921993E+02 0.  0.
         11    1    3    3    0    0  0.22543602507E+03 -0.13016002809E+04 -0.63598716827E+03  0.14661051704E+04  0.00000000000E+00 0. -1.
        -11    1    3    3    0    0  0.24241841089E+03 -0.94161948615E+03 -0.45010539567E+03  0.10714517301E+04  0.00000000000E+00 0.  1.
          4    1    6    6  502    0 -0.17130117882E+03  0.26532681734E+03 -0.25561078257E+02  0.31685293527E+03  0.00000000000E+00 0. -1.
          1    1    5    5  503    0  0.31692405829E+02  0.81269644502E+03 -0.29298845337E+03  0.86447796625E+03  0.00000000000E+00 0. -1.
         -2    1    5    5    0  503 -0.98593077206E+01  0.80489208886E+03 -0.36206057288E+03  0.88263035246E+03  0.00000000000E+00 0.  1.
         -3    1    6    6    0  502 -0.31838635524E+03  0.36030441582E+03  0.33590080593E+02  0.48199319163E+03  0.00000000000E+00 0.  1.
<mgrwt>
<rscale>  0 0.47789547E+04</rscale>
<asrwt>0</asrwt>
<pdfrwt beam="1">  1        1 0.25772298E+00 0.47789547E+04</pdfrwt>
<pdfrwt beam="2">  1       -1 0.52435568E+00 0.47789547E+04</pdfrwt>
<totfact> 0.38473954E-03</totfact>
</mgrwt>
</event>
<event>
12    1  0.2019083E-007  0.2367699E+04  0.7818608E-02  0.8451697E-01
          1   -1    0    0  501    0  0.00000000000E+00  0.00000000000E+00  0.17671586198E+04  0.17671586198E+04  0.00000000000E+00 0. -1.
         -1   -1    0    0    0  501 -0.00000000000E+00 -0.00000000000E+00 -0.79308068267E+03  0.79308068267E+03  0.00000000000E+00 0.  1.
         23    2    1    2    0    0 -0.81000827039E+03  0.59326975337E+03  0.54014177922E+03  0.11436909329E+04  0.90517456113E+02 0.  0.
        254    2    1    2    0    0  0.81000827039E+03 -0.59326975337E+03  0.43393615792E+03  0.14165483696E+04  0.90012571123E+03 0.  0.
        -24    2    4    4    0    0  0.83930260464E+03 -0.56121545867E+03  0.41227028012E+02  0.10133627752E+04  0.76241675747E+02 0.  0.
         24    2    4    4    0    0 -0.29294334249E+02 -0.32054294699E+02  0.39270912991E+03  0.40318559444E+03  0.80327623027E+02 0.  0.
         11    1    3    3    0    0 -0.78763610730E+02  0.93926883281E+02  0.69493282665E+02  0.14090877231E+03  0.00000000000E+00 0. -1.
        -11    1    3    3    0    0 -0.73124465966E+03  0.49934287009E+03  0.47064849656E+03  0.10027821605E+04  0.00000000000E+00 0.  1.
          4    1    6    6  502    0 -0.13977029528E+02  0.23266373006E+02  0.64240091217E+02  0.69738588936E+02  0.00000000000E+00 0. -1.
          1    1    5    5  503    0  0.56080428396E+03 -0.40818961089E+03  0.50427121009E+02  0.69545891171E+03  0.00000000000E+00 0. -1.
         -2    1    5    5    0  503  0.27849832068E+03 -0.15302584778E+03 -0.92000929965E+01  0.31790386349E+03  0.00000000000E+00 0.  1.
         -3    1    6    6    0  502 -0.15317304721E+02 -0.55320667704E+02  0.32846903869E+03  0.33344700550E+03  0.00000000000E+00 0.  1.
<mgrwt>
<rscale>  0 0.23676988E+04</rscale>
<asrwt>0</asrwt>
<pdfrwt beam="1">  1        1 0.27187056E+00 0.23676988E+04</pdfrwt>
<pdfrwt beam="2">  1       -1 0.12201241E+00 0.23676988E+04</pdfrwt>
<totfact> 0.22902108E+00</totfact>
</mgrwt>
</event>
<event>
12    1  0.3599965E-007  0.2916664E+04  0.7818608E-02  0.8267937E-01
          1   -1    0    0  501    0  0.00000000000E+00  0.00000000000E+00  0.22742773822E+04  0.22742773822E+04  0.00000000000E+00 0. -1.
         -1   -1    0    0    0  501 -0.00000000000E+00 -0.00000000000E+00 -0.93512467665E+03  0.93512467665E+03  0.00000000000E+00 0.  1.
         23    2    1    2    0    0 -0.13032554391E+03  0.11551551638E+04 -0.76948198792E+02  0.11685394716E+04  0.90527739569E+02 0.  0.
        254    2    1    2    0    0  0.13032554391E+03 -0.11551551638E+04  0.14161009044E+04  0.20408625873E+04  0.89911630453E+03 0.  0.
        -24    2    4    4    0    0  0.10368379508E+03  0.61185302922E+02 -0.32587377866E+02  0.14744298906E+03  0.78635406604E+02 0.  0.
         24    2    4    4    0    0  0.26641748834E+02 -0.12163404667E+04  0.14486882822E+04  0.18934195982E+04  0.78397207799E+02 0.  0.
         13    1    3    3    0    0 -0.91827756464E+02  0.58749265649E+03 -0.17754236671E+01  0.59462854826E+03  0.00000000000E+00 0.  1.
        -13    1    3    3    0    0 -0.38497787447E+02  0.56766250727E+03 -0.75172775125E+02  0.57391092333E+03  0.00000000000E+00 0. -1.
          4    1    6    6  502    0 -0.26640279326E+02 -0.50000276101E+03  0.58162902409E+03  0.76746647300E+03  0.00000000000E+00 0. -1.
          1    1    5    5  503    0  0.85532084688E+02  0.12676124733E+02 -0.40954486340E+00  0.86467273441E+02  0.00000000000E+00 0. -1.
         -2    1    5    5    0  503  0.18151710389E+02  0.48509178189E+02 -0.32177833003E+02  0.60975715620E+02  0.00000000000E+00 0.  1.
         -3    1    6    6    0  502  0.53282028161E+02 -0.71633770567E+03  0.86705925813E+03  0.11259531252E+04  0.00000000000E+00 0.  1.
<mgrwt>
<rscale>  0 0.29166645E+04</rscale>
<asrwt>0</asrwt>
<pdfrwt beam="1">  1        1 0.34988883E+00 0.29166645E+04</pdfrwt>
<pdfrwt beam="2">  1       -1 0.14386534E+00 0.29166645E+04</pdfrwt>
<totfact> 0.64798214E-01</totfact>
</mgrwt>
</event>
<event>
12    1  0.2292918E-007  0.2531284E+04  0.7818608E-02  0.8391925E-01
          1   -1    0    0  501    0  0.00000000000E+00  0.00000000000E+00  0.15261859076E+04  0.15261859076E+04  0.00000000000E+00 0. -1.
         -1   -1    0    0    0  501 -0.00000000000E+00 -0.00000000000E+00 -0.10495766226E+04  0.10495766226E+04  0.00000000000E+00 0.  1.
         23    2    1    2    0    0 -0.92272957211E+03  0.17307653332E+03  0.79244900482E+03  0.12319451958E+04  0.91258920367E+02 0.  0.
        254    2    1    2    0    0  0.92272957211E+03 -0.17307653332E+03 -0.31583971983E+03  0.13438173344E+04  0.90813267203E+03 0.  0.
        -24    2    4    4    0    0  0.87744712962E+03  0.20956337285E+03 -0.15552008588E+03  0.91888065144E+03  0.79529126547E+02 0.  0.
         24    2    4    4    0    0  0.45282442491E+02 -0.38263990617E+03 -0.16031963395E+03  0.42493668297E+03  0.80031257086E+02 0.  0.
         13    1    3    3    0    0 -0.52702410212E+03  0.88136201479E+02  0.39302950512E+03  0.66332087720E+03  0.00000000000E+00 0.  1.
        -13    1    3    3    0    0 -0.39570546999E+03  0.84940331845E+02  0.39941949969E+03  0.56862431859E+03  0.00000000000E+00 0. -1.
          4    1    6    6  502    0  0.56997286781E+02 -0.23510442722E+03 -0.12703153388E+03  0.27323944262E+03  0.00000000000E+00 0. -1.
          1    1    5    5  503    0  0.44284191177E+03  0.12203878795E+03 -0.42125403401E+02  0.46127754574E+03  0.00000000000E+00 0. -1.
         -2    1    5    5    0  503  0.43460521784E+03  0.87524584899E+02 -0.11339468248E+03  0.45760310570E+03  0.00000000000E+00 0.  1.
         -3    1    6    6    0  502 -0.11714844290E+02 -0.14753547895E+03 -0.33288100071E+02  0.15169724035E+03  0.00000000000E+00 0.  1.
<mgrwt>
<rscale>  0 0.25312835E+04</rscale>
<asrwt>0</asrwt>
<pdfrwt beam="1">  1        1 0.23479783E+00 0.25312835E+04</pdfrwt>
<pdfrwt beam="2">  1       -1 0.16147333E+00 0.25312835E+04</pdfrwt>
<totfact> 0.15833901E+00</totfact>
</mgrwt>
</event>
<event>
12    1  0.2019083E-007  0.1543212E+04  0.7818608E-02  0.8856215E-01
          2   -1    0    0  501    0  0.00000000000E+00  0.00000000000E+00  0.17837137032E+04  0.17837137032E+04  0.00000000000E+00 0. -1.
         -2   -1    0    0    0  501 -0.00000000000E+00 -0.00000000000E+00 -0.33378442967E+03  0.33378442967E+03  0.00000000000E+00 0.  1.
         23    2    1    2    0    0 -0.36562810425E+03  0.87036458270E+02  0.22186909023E+02  0.38752800644E+03  0.91795648914E+02 0.  0.
        254    2    1    2    0    0  0.36562810425E+03 -0.87036458270E+02  0.14277423645E+04  0.17299701264E+04  0.90171454641E+03 0.  0.
        -24    2    4    4    0    0  0.60361411991E+03 -0.43451520741E+02  0.56859153787E+03  0.83422595429E+03  0.79991033591E+02 0.  0.
         24    2    4    4    0    0 -0.23798601567E+03 -0.43584937529E+02  0.85915082663E+03  0.89574417213E+03  0.75369015940E+02 0.  0.
         11    1    3    3    0    0 -0.27503800794E+03  0.32004860961E+02 -0.89987340485E+01  0.27704005875E+03  0.00000000000E+00 0.  1.
        -11    1    3    3    0    0 -0.90590096308E+02  0.55031597309E+02  0.31185643072E+02  0.11048794769E+03  0.00000000000E+00 0. -1.
          4    1    6    6  502    0 -0.68395903841E+02 -0.15205973848E+01  0.14209004735E+03  0.15770191322E+03  0.00000000000E+00 0. -1.
          3    1    5    5  503    0  0.83876229355E+02 -0.19028407328E+02  0.11739632805E+03  0.14553075268E+03  0.00000000000E+00 0. -1.
         -4    1    5    5    0  503  0.51973789056E+03 -0.24423113413E+02  0.45119520982E+03  0.68869520161E+03  0.00000000000E+00 0.  1.
         -3    1    6    6    0  502 -0.16959011182E+03 -0.42064340144E+02  0.71706077928E+03  0.73804225890E+03  0.00000000000E+00 0.  1.
<mgrwt>
<rscale>  0 0.15432121E+04</rscale>
<asrwt>0</asrwt>
<pdfrwt beam="1">  1        2 0.27441749E+00 0.15432121E+04</pdfrwt>
<pdfrwt beam="2">  1       -2 0.51351452E-01 0.15432121E+04</pdfrwt>
<totfact> 0.30400120E+01</totfact>
</mgrwt>
</event>
<event>
12    1  0.2019083E-007  0.1457195E+04  0.7818608E-02  0.8913428E-01
          3   -1    0    0  501    0  0.00000000000E+00  0.00000000000E+00  0.20264796157E+04  0.20264796157E+04  0.00000000000E+00 0. -1.
         -3   -1    0    0    0  501 -0.00000000000E+00 -0.00000000000E+00 -0.26195888312E+03  0.26195888312E+03  0.00000000000E+00 0.  1.
         23    2    1    2    0    0  0.29057925264E+03 -0.28155885181E+03  0.26189305787E+03  0.49103903502E+03  0.93913103746E+02 0.  0.
        254    2    1    2    0    0 -0.29057925264E+03  0.28155885181E+03  0.15026276747E+04  0.17973994638E+04  0.89946829548E+03 0.  0.
        -24    2    4    4    0    0 -0.57013421668E+03  0.22914870757E+03  0.66089480498E+03  0.90533095842E+03  0.72663923817E+02 0.  0.
         24    2    4    4    0    0  0.27955496404E+03  0.52410144241E+02  0.84173286975E+03  0.89206850540E+03  0.79838544333E+02 0.  0.
         13    1    3    3    0    0  0.19107607690E+03 -0.13894177371E+03  0.11199766159E+03  0.26145431694E+03  0.00000000000E+00 0.  1.
        -13    1    3    3    0    0  0.99503175733E+02 -0.14261707810E+03  0.14989539629E+03  0.22958471808E+03  0.00000000000E+00 0. -1.
          4    1    6    6  502    0  0.21951447205E+03  0.73922577497E+02  0.65652982923E+03  0.69619147335E+03  0.00000000000E+00 0. -1.
          3    1    5    5  503    0 -0.24637986248E+03  0.62903841745E+02  0.29013284727E+03  0.38579398519E+03  0.00000000000E+00 0. -1.
         -4    1    5    5    0  503 -0.32375435420E+03  0.16624486582E+03  0.37076195771E+03  0.51953697324E+03  0.00000000000E+00 0.  1.
         -3    1    6    6    0  502  0.60040491987E+02 -0.21512433256E+02  0.18520304052E+03  0.19587703204E+03  0.00000000000E+00 0.  1.
<mgrwt>
<rscale>  0 0.14571950E+04</rscale>
<asrwt>0</asrwt>
<pdfrwt beam="1">  1        3 0.31176608E+00 0.14571950E+04</pdfrwt>
<pdfrwt beam="2">  1       -3 0.40301368E-01 0.14571950E+04</pdfrwt>
<totfact> 0.52135572E-01</totfact>
</mgrwt>
</event>
<event>
12    1  0.2019083E-007  0.1745798E+04  0.7818608E-02  0.8735667E-01
         -2   -1    0    0    0  501 -0.00000000000E+00  0.00000000000E+00  0.28386132231E+03  0.28386132231E+03  0.00000000000E+00 0.  1.
          2   -1    0    0  501    0  0.00000000000E+00 -0.00000000000E+00 -0.26842425397E+04  0.26842425397E+04  0.00000000000E+00 0. -1.
         23    2    1    2    0    0 -0.29205617596E+03  0.60069272257E+02 -0.18468408819E+04  0.18728887027E+04  0.89362869659E+02 0.  0.
        254    2    1    2    0    0  0.29205617596E+03 -0.60069272257E+02 -0.55354033549E+03  0.10952151593E+04  0.89676318762E+03 0.  0.
        -24    2    4    4    0    0  0.20306447959E+03  0.16975958397E+03 -0.73050363795E+03  0.78178475001E+03  0.86592904206E+02 0.  0.
         24    2    4    4    0    0  0.88991696369E+02 -0.22982885623E+03  0.17696330246E+03  0.31343040925E+03  0.78624333677E+02 0.  0.
         11    1    3    3    0    0 -0.10824769558E+02  0.45511011010E+01 -0.16590563106E+02  0.20325721178E+02  0.00000000000E+00 0.  1.
        -11    1    3    3    0    0 -0.28123140640E+03  0.55518171155E+02 -0.18302503187E+04  0.18525629815E+04  0.00000000000E+00 0. -1.
          2    1    6    6  502    0  0.54037087342E+02 -0.60645191548E+02  0.29902412871E+02  0.86556342124E+02  0.00000000000E+00 0. -1.
          3    1    5    5  503    0  0.93782342097E+01  0.16641098585E+02 -0.13308834223E+02  0.23280947304E+02  0.00000000000E+00 0. -1.
         -4    1    5    5    0  503  0.19368624538E+03  0.15311848538E+03 -0.71719480373E+03  0.75850380270E+03  0.00000000000E+00 0.  1.
         -1    1    6    6    0  502  0.34954609027E+02 -0.16918366468E+03  0.14706088959E+03  0.22687406712E+03  0.00000000000E+00 0.  1.
<mgrwt>
<rscale>  0 0.17457980E+04</rscale>
<asrwt>0</asrwt>
<pdfrwt beam="1">  1        2 0.41296042E+00 0.17457980E+04</pdfrwt>
<pdfrwt beam="2">  1       -2 0.43670970E-01 0.17457980E+04</pdfrwt>
<totfact> 0.12821940E+01</totfact>
</mgrwt>
</event>
<event>
12    1  0.2019083E-007  0.1774050E+04  0.7818608E-02  0.8720222E-01
          1   -1    0    0  501    0  0.00000000000E+00  0.00000000000E+00  0.14616273321E+04  0.14616273321E+04  0.00000000000E+00 0. -1.
         -1   -1    0    0    0  501 -0.00000000000E+00 -0.00000000000E+00 -0.53831330990E+03  0.53831330990E+03  0.00000000000E+00 0.  1.
         23    2    1    2    0    0  0.24690021881E+00 -0.65159036380E+03  0.41352452727E+03  0.77722416690E+03  0.92221514814E+02 0.  0.
        254    2    1    2    0    0 -0.24690021881E+00  0.65159036380E+03  0.50978949492E+03  0.12227164751E+04  0.90032226796E+03 0.  0.
        -24    2    4    4    0    0 -0.20110334445E+03 -0.98609126861E+02 -0.71419653683E+02  0.24931136546E+03  0.83000451603E+02 0.  0.
         24    2    4    4    0    0  0.20085644423E+03  0.75019949066E+03  0.58120914861E+03  0.97340510964E+03  0.81060755442E+02 0.  0.
         13    1    3    3    0    0 -0.35424015636E+02 -0.28881765296E+03  0.21790995694E+03  0.36353163119E+03  0.00000000000E+00 0. -1.
        -13    1    3    3    0    0  0.35670915855E+02 -0.36277271084E+03  0.19561457032E+03  0.41369253570E+03  0.00000000000E+00 0.  1.
          2    1    6    6  502    0  0.10572892125E+03  0.25959915951E+03  0.18788850333E+03  0.33744987493E+03  0.00000000000E+00 0. -1.
          3    1    5    5  503    0 -0.16749870734E+03 -0.41507510684E+02 -0.53683539678E+02  0.18072247463E+03  0.00000000000E+00 0. -1.
         -4    1    5    5    0  503 -0.33604637107E+02 -0.57101616177E+02 -0.17736114005E+02  0.68588890829E+02  0.00000000000E+00 0.  1.
         -1    1    6    6    0  502  0.95127522978E+02  0.49060033115E+03  0.39332064528E+03  0.63595523471E+03  0.00000000000E+00 0.  1.
<mgrwt>
<rscale>  0 0.17740501E+04</rscale>
<asrwt>0</asrwt>
<pdfrwt beam="1">  1        1 0.22486574E+00 0.17740501E+04</pdfrwt>
<pdfrwt beam="2">  1       -1 0.82817433E-01 0.17740501E+04</pdfrwt>
<totfact> 0.95276667E+00</totfact>
</mgrwt>
</event>
<event>
12    1  0.2019083E-007  0.1438448E+04  0.7818608E-02  0.8926449E-01
         -2   -1    0    0    0  501 -0.00000000000E+00  0.00000000000E+00  0.53576970992E+03  0.53576970992E+03  0.00000000000E+00 0.  1.
          2   -1    0    0  501    0  0.00000000000E+00 -0.00000000000E+00 -0.96549550433E+03  0.96549550433E+03  0.00000000000E+00 0. -1.
         23    2    1    2    0    0  0.20611857399E+03  0.14204780501E+03 -0.49669365927E+03  0.56348150444E+03  0.90246159104E+02 0.  0.
        254    2    1    2    0    0 -0.20611857399E+03 -0.14204780501E+03  0.66967864855E+02  0.93778370981E+03  0.90127196007E+03 0.  0.
        -24    2    4    4    0    0  0.12606524661E+03 -0.40439092035E+03  0.21458662139E+03  0.48211434250E+03  0.83440747228E+02 0.  0.
         24    2    4    4    0    0 -0.33218382060E+03  0.26234311535E+03 -0.14761875653E+03  0.45566936731E+03  0.81690110693E+02 0.  0.
         11    1    3    3    0    0  0.17123777529E+03  0.10882240893E+03 -0.30863603035E+03  0.36935198876E+03  0.00000000000E+00 0.  1.
        -11    1    3    3    0    0  0.34880798708E+02  0.33225396077E+02 -0.18805762892E+03  0.19412951568E+03  0.00000000000E+00 0. -1.
          2    1    6    6  502    0 -0.11806379080E+02  0.27116719698E+02  0.48492321607E+01  0.29970354130E+02  0.00000000000E+00 0. -1.
          1    1    5    5  503    0  0.20229715987E+02 -0.26873613169E+02 -0.28986643354E+01  0.33761438782E+02  0.00000000000E+00 0. -1.
         -2    1    5    5    0  503  0.10583553062E+03 -0.37751730718E+03  0.21748528572E+03  0.44835290372E+03  0.00000000000E+00 0.  1.
         -1    1    6    6    0  502 -0.32037744152E+03  0.23522639565E+03 -0.15246798869E+03  0.42569901318E+03  0.00000000000E+00 0.  1.
<mgrwt>
<rscale>  0 0.14384481E+04</rscale>
<asrwt>0</asrwt>
<pdfrwt beam="1">  1        2 0.14853777E+00 0.14384481E+04</pdfrwt>
<pdfrwt beam="2">  1       -2 0.82426109E-01 0.14384481E+04</pdfrwt>
<totfact> 0.33269536E+01</totfact>
</mgrwt>
</event>
<event>
12    1  0.2019083E-007  0.2008284E+04  0.7818608E-02  0.8602758E-01
          1   -1    0    0  501    0  0.00000000000E+00  0.00000000000E+00  0.74480871878E+03  0.74480871878E+03  0.00000000000E+00 0. -1.
         -1   -1    0    0    0  501 -0.00000000000E+00 -0.00000000000E+00 -0.13537714280E+04  0.13537714280E+04  0.00000000000E+00 0.  1.
         23    2    1    2    0    0  0.40446761489E+03 -0.52317651604E+03 -0.71193307318E+03  0.97601432429E+03  0.91910511372E+02 0.  0.
        254    2    1    2    0    0 -0.40446761489E+03  0.52317651604E+03  0.10297036391E+03  0.11225658225E+04  0.90124547802E+03 0.  0.
        -24    2    4    4    0    0 -0.64488934878E+03  0.17650996099E+03 -0.28863525344E+02  0.67391700244E+03  0.79328334044E+02 0.  0.
         24    2    4    4    0    0  0.24042173389E+03  0.34666655505E+03  0.13183388926E+03  0.44864882010E+03  0.76975833222E+02 0.  0.
         11    1    3    3    0    0  0.24752698189E+03 -0.27096508070E+03 -0.34278838903E+03  0.50219076194E+03  0.00000000000E+00 0. -1.
        -11    1    3    3    0    0  0.15694063300E+03 -0.25221143534E+03 -0.36914468415E+03  0.47382356235E+03  0.00000000000E+00 0.  1.
          2    1    6    6  502    0  0.23071932681E+03  0.28904639421E+03  0.12169633118E+03  0.38934460674E+03  0.00000000000E+00 0. -1.
          3    1    5    5  503    0 -0.35230230215E+03  0.92619533870E+02  0.23665170252E+02  0.36504154618E+03  0.00000000000E+00 0. -1.
         -4    1    5    5    0  503 -0.29258704663E+03  0.83890427118E+02 -0.52528695596E+02  0.30887545626E+03  0.00000000000E+00 0.  1.
         -1    1    6    6    0  502  0.97024070741E+01  0.57620160845E+02  0.10137558073E+02  0.59304213362E+02  0.00000000000E+00 0.  1.
<mgrwt>
<rscale>  0 0.20082836E+04</rscale>
<asrwt>0</asrwt>
<pdfrwt beam="1">  1        1 0.11458596E+00 0.20082836E+04</pdfrwt>
<pdfrwt beam="2">  1       -1 0.20827253E+00 0.20082836E+04</pdfrwt>
<totfact> 0.30311523E+00</totfact>
</mgrwt>
</event>
<event>
12    1  0.2019083E-007  0.3315313E+04  0.7818608E-02  0.8159010E-01
         -1   -1    0    0    0  501 -0.00000000000E+00  0.00000000000E+00  0.12034015711E+04  0.12034015711E+04  0.00000000000E+00 0.  1.
          1   -1    0    0  501    0  0.00000000000E+00 -0.00000000000E+00 -0.22833822188E+04  0.22833822188E+04  0.00000000000E+00 0. -1.
         23    2    1    2    0    0 -0.13108230726E+04  0.29126958689E+03  0.28059468188E+03  0.13748727814E+04  0.91905873121E+02 0.  0.
        254    2    1    2    0    0  0.13108230726E+04 -0.29126958689E+03 -0.13605753296E+04  0.21119110085E+04  0.89772366585E+03 0.  0.
        -24    2    4    4    0    0  0.67095857975E+03 -0.23118131305E+03 -0.12722451193E+04  0.14584549162E+04  0.69662640716E+02 0.  0.
         24    2    4    4    0    0  0.63986449290E+03 -0.60088273838E+02 -0.88330210266E+02  0.65345609234E+03  0.78520498270E+02 0.  0.
         11    1    3    3    0    0 -0.48450223790E+03  0.14982885467E+03  0.12313911336E+03  0.52187579505E+03  0.00000000000E+00 0.  1.
        -11    1    3    3    0    0 -0.82632083475E+03  0.14144073222E+03  0.15745556853E+03  0.85299698635E+03  0.00000000000E+00 0. -1.
          4    1    6    6  502    0  0.44163128807E+03 -0.11668669163E+02 -0.38906891948E+02  0.44349531980E+03  0.00000000000E+00 0. -1.
          1    1    5    5  503    0  0.23421814494E+03 -0.92968880675E+02 -0.38910691212E+03  0.46357905610E+03  0.00000000000E+00 0. -1.
         -2    1    5    5    0  503  0.43674043481E+03 -0.13821243238E+03 -0.88313820723E+03  0.99487586006E+03  0.00000000000E+00 0.  1.
         -3    1    6    6    0  502  0.19823320482E+03 -0.48419604675E+02 -0.49423318318E+02  0.20996077254E+03  0.00000000000E+00 0.  1.
<mgrwt>
<rscale>  0 0.33153134E+04</rscale>
<asrwt>0</asrwt>
<pdfrwt beam="1">  1        1 0.35128957E+00 0.33153134E+04</pdfrwt>
<pdfrwt beam="2">  1       -1 0.18513870E+00 0.33153134E+04</pdfrwt>
<totfact> 0.30271233E-01</totfact>
</mgrwt>
</event>
<event>
12    1  0.2019083E-007  0.1266076E+04  0.7818608E-02  0.9056908E-01
          2   -1    0    0  501    0  0.00000000000E+00  0.00000000000E+00  0.17801567966E+04  0.17801567966E+04  0.00000000000E+00 0. -1.
         -2   -1    0    0    0  501 -0.00000000000E+00 -0.00000000000E+00 -0.22511348231E+03  0.22511348231E+03  0.00000000000E+00 0.  1.
         23    2    1    2    0    0  0.10168601553E+03  0.25784016819E+03  0.16379942871E+03  0.33322796349E+03  0.85959436463E+02 0.  0.
        254    2    1    2    0    0 -0.10168601553E+03 -0.25784016819E+03  0.13912438856E+04  0.16720423154E+04  0.88506743093E+03 0.  0.
        -24    2    4    4    0    0 -0.21660979220E+03 -0.55357131018E+03  0.90129509258E+03  0.10827656902E+04  0.81778349881E+02 0.  0.
         24    2    4    4    0    0  0.11492377667E+03  0.29573114199E+03  0.48994879298E+03  0.58927662517E+03  0.80825357621E+02 0.  0.
         13    1    3    3    0    0  0.76384896043E+02  0.80476260617E+02  0.58951402231E+02  0.12564373718E+03  0.00000000000E+00 0. -1.
        -13    1    3    3    0    0  0.25301119491E+02  0.17736390757E+03  0.10484802648E+03  0.20758422631E+03  0.00000000000E+00 0.  1.
          2    1    6    6  502    0  0.44807907747E+02  0.10903722995E+03  0.25616975656E+03  0.28199257133E+03  0.00000000000E+00 0. -1.
          1    1    5    5  503    0 -0.24283210190E+02 -0.74435382314E+02  0.74929299032E+02  0.10837296845E+03  0.00000000000E+00 0. -1.
         -2    1    5    5    0  503 -0.19232658201E+03 -0.47913592787E+03  0.82636579355E+03  0.97439272179E+03  0.00000000000E+00 0.  1.
         -1    1    6    6    0  502  0.70115868921E+02  0.18669391205E+03  0.23377903642E+03  0.30728405384E+03  0.00000000000E+00 0.  1.
<mgrwt>
<rscale>  0 0.12660763E+04</rscale>
<asrwt>0</asrwt>
<pdfrwt beam="1">  1        2 0.27387027E+00 0.12660763E+04</pdfrwt>
<pdfrwt beam="2">  1       -2 0.34632845E-01 0.12660763E+04</pdfrwt>
<totfact> 0.67972854E+01</totfact>
</mgrwt>
</event>
<event>
12    1  0.2019083E-007  0.1144706E+04  0.7818608E-02  0.9162681E-01
         -1   -1    0    0    0  501 -0.00000000000E+00  0.00000000000E+00  0.18888143345E+03  0.18888143345E+03  0.00000000000E+00 0.  1.
          1   -1    0    0  501    0  0.00000000000E+00 -0.00000000000E+00 -0.17343591279E+04  0.17343591279E+04  0.00000000000E+00 0. -1.
         23    2    1    2    0    0  0.63179472795E+02  0.16928366487E+03 -0.14714178053E+03  0.25022948379E+03  0.91189286671E+02 0.  0.
        254    2    1    2    0    0 -0.63179472795E+02 -0.16928366487E+03 -0.13983359139E+04  0.16730110776E+04  0.90054102213E+03 0.  0.
        -24    2    4    4    0    0  0.25729730201E+02 -0.47818000657E+03 -0.11805156044E+04  0.12766386426E+04  0.82891458416E+02 0.  0.
         24    2    4    4    0    0 -0.88909202996E+02  0.30889634170E+03 -0.21782030948E+03  0.39637243493E+03  0.79646868469E+02 0.  0.
         11    1    3    3    0    0 -0.18151318929E+00  0.11703261928E+03 -0.10800756866E+03  0.15925546086E+03  0.00000000000E+00 0. -1.
        -11    1    3    3    0    0  0.63360985984E+02  0.52251045588E+02 -0.39134211865E+02  0.90974022931E+02  0.00000000000E+00 0.  1.
          4    1    6    6  502    0  0.22578994481E+01  0.87210290955E+02 -0.87398844130E+02  0.12348801931E+03  0.00000000000E+00 0. -1.
          1    1    5    5  503    0  0.14776099789E+02 -0.39717230158E+02 -0.16696821666E+03  0.17226194261E+03  0.00000000000E+00 0. -1.
         -2    1    5    5    0  503  0.10953630412E+02 -0.43846277641E+03 -0.10135473878E+04  0.11043767000E+04  0.00000000000E+00 0.  1.
         -3    1    6    6    0  502 -0.91167102444E+02  0.22168605074E+03 -0.13042146535E+03  0.27288441562E+03  0.00000000000E+00 0.  1.
<mgrwt>
<rscale>  0 0.11447065E+04</rscale>
<asrwt>0</asrwt>
<pdfrwt beam="1">  1        1 0.26682448E+00 0.11447065E+04</pdfrwt>
<pdfrwt beam="2">  1       -1 0.29058682E-01 0.11447065E+04</pdfrwt>
<totfact> 0.48443172E+01</totfact>
</mgrwt>
</event>
<event>
12    1  0.2019083E-007  0.2931249E+04  0.7818608E-02  0.8263640E-01
          1   -1    0    0  501    0  0.00000000000E+00  0.00000000000E+00  0.23350445526E+04  0.23350445526E+04  0.00000000000E+00 0. -1.
         -1   -1    0    0    0  501 -0.00000000000E+00 -0.00000000000E+00 -0.91992031598E+03  0.91992031598E+03  0.00000000000E+00 0.  1.
         23    2    1    2    0    0 -0.12617995144E+04  0.34023530080E+03  0.37671909049E+03  0.13641974715E+04  0.10592163938E+03 0.  0.
        254    2    1    2    0    0  0.12617995144E+04 -0.34023530080E+03  0.10384051461E+04  0.18907673971E+04  0.88815428169E+03 0.  0.
        -24    2    4    4    0    0  0.12221401422E+04 -0.16619968010E+03  0.52742643757E+03  0.13438074304E+04  0.79943118310E+02 0.  0.
         24    2    4    4    0    0  0.39659372193E+02 -0.17403562070E+03  0.51097870853E+03  0.54695996670E+03  0.78769927795E+02 0.  0.
         11    1    3    3    0    0 -0.78232071746E+03  0.20272502718E+03  0.28556593124E+03  0.85712953671E+03  0.00000000000E+00 0. -1.
        -11    1    3    3    0    0 -0.47947879689E+03  0.13751027361E+03  0.91153159253E+02  0.50706793476E+03  0.00000000000E+00 0.  1.
          4    1    6    6  502    0 -0.59865482304E+01 -0.83662893381E+02  0.14789547538E+03  0.17002467506E+03  0.00000000000E+00 0. -1.
          3    1    5    5  503    0  0.52352815730E+03 -0.32561421443E+02  0.23450883157E+03  0.57457494701E+03  0.00000000000E+00 0. -1.
         -4    1    5    5    0  503  0.69861198486E+03 -0.13363825866E+03  0.29291760599E+03  0.76923248337E+03  0.00000000000E+00 0.  1.
         -3    1    6    6    0  502  0.45645920424E+02 -0.90372727315E+02  0.36308323314E+03  0.37693529164E+03  0.00000000000E+00 0.  1.
<mgrwt>
<rscale>  0 0.29312488E+04</rscale>
<asrwt>0</asrwt>
<pdfrwt beam="1">  1        1 0.35923762E+00 0.29312488E+04</pdfrwt>
<pdfrwt beam="2">  1       -1 0.14152620E+00 0.29312488E+04</pdfrwt>
<totfact> 0.61396221E-01</totfact>
</mgrwt>
</event>
<event>
12    1  0.2019083E-007  0.2946336E+04  0.7818608E-02  0.8259223E-01
         -2   -1    0    0    0  501 -0.00000000000E+00  0.00000000000E+00  0.10381144459E+04  0.10381144459E+04  0.00000000000E+00 0. -1.
          2   -1    0    0  501    0  0.00000000000E+00 -0.00000000000E+00 -0.20905438022E+04  0.20905438022E+04  0.00000000000E+00 0.  1.
         23    2    1    2    0    0  0.10548812156E+04 -0.73370204306E+02  0.38565122473E+03  0.11292264749E+04  0.90928535451E+02 0.  0.
        254    2    1    2    0    0 -0.10548812156E+04  0.73370204306E+02 -0.14380805810E+04  0.19994317732E+04  0.90082966873E+03 0.  0.
        -24    2    4    4    0    0 -0.52677336914E+03 -0.24823175597E+03 -0.11922193092E+04  0.13292587204E+04  0.80203974391E+02 0.  0.
         24    2    4    4    0    0 -0.52810784650E+03  0.32160196028E+03 -0.24586127183E+03  0.67017305275E+03  0.79739809683E+02 0.  0.
         11    1    3    3    0    0  0.33084490393E+03 -0.13518963335E+02  0.16498587404E+03  0.36994790371E+03  0.00000000000E+00 0.  1.
        -11    1    3    3    0    0  0.72403631172E+03 -0.59851240971E+02  0.22066535069E+03  0.75927857123E+03  0.00000000000E+00 0. -1.
          4    1    6    6  502    0 -0.34310515126E+03  0.19599560208E+03 -0.19594799930E+03  0.44105673023E+03  0.00000000000E+00 0. -1.
          3    1    5    5  503    0 -0.22163743683E+03 -0.14800383163E+03 -0.52617184928E+03  0.58981785541E+03  0.00000000000E+00 0. -1.
         -4    1    5    5    0  503 -0.30513593231E+03 -0.10022792435E+03 -0.66604745992E+03  0.73944086502E+03  0.00000000000E+00 0.  1.
         -3    1    6    6    0  502 -0.18500269524E+03  0.12560635820E+03 -0.49913272538E+02  0.22911632251E+03  0.00000000000E+00 0.  1.
<mgrwt>
<rscale>  0 0.29463358E+04</rscale>
<asrwt>0</asrwt>
<pdfrwt beam="1">  1        2 0.32162212E+00 0.29463358E+04</pdfrwt>
<pdfrwt beam="2">  1       -2 0.15970992E+00 0.29463358E+04</pdfrwt>
<totfact> 0.12945855E+00</totfact>
</mgrwt>
</event>
<event>
12    1  0.2019083E-007  0.3533623E+04  0.7818608E-02  0.8105868E-01
          1   -1    0    0  501    0  0.00000000000E+00  0.00000000000E+00  0.20609488170E+04  0.20609488170E+04  0.00000000000E+00 0. -1.
         -1   -1    0    0    0  501 -0.00000000000E+00 -0.00000000000E+00 -0.15146532121E+04  0.15146532121E+04  0.00000000000E+00 0.  1.
         23    2    1    2    0    0 -0.27828306691E+03  0.11977898080E+04  0.13697696246E+04  0.18441514333E+04  0.11173090459E+03 0.  0.
        254    2    1    2    0    0  0.27828306691E+03 -0.11977898080E+04 -0.82347401968E+03  0.17314505958E+04  0.89870452041E+03 0.  0.
        -24    2    4    4    0    0 -0.25818310929E+03 -0.76924224932E+03 -0.57268673305E+03  0.99627808536E+03  0.78789422476E+02 0.  0.
         24    2    4    4    0    0  0.53646617620E+03 -0.42854755869E+03 -0.25078728663E+03  0.73517251041E+03  0.78328721825E+02 0.  0.
         13    1    3    3    0    0 -0.19023602252E+03  0.65089019045E+03  0.81419034530E+03  0.10596007279E+04  0.00000000000E+00 0.  1.
        -13    1    3    3    0    0 -0.88047044394E+02  0.54689961756E+03  0.55557927929E+03  0.78455070536E+03  0.00000000000E+00 0. -1.
          4    1    6    6  502    0  0.17461369931E+03 -0.10286493615E+03 -0.96605621958E+02  0.22450787351E+03  0.00000000000E+00 0. -1.
          3    1    5    5  503    0 -0.16866456430E+03 -0.44737496349E+03 -0.29449040698E+03  0.56153066970E+03  0.00000000000E+00 0. -1.
         -4    1    5    5    0  503 -0.89518544986E+02 -0.32186728583E+03 -0.27819632607E+03  0.43474741566E+03  0.00000000000E+00 0.  1.
         -3    1    6    6    0  502  0.36185247689E+03 -0.32568262254E+03 -0.15418166468E+03  0.51066463690E+03  0.00000000000E+00 0.  1.
<mgrwt>
<rscale>  0 0.35336229E+04</rscale>
<asrwt>0</asrwt>
<pdfrwt beam="1">  1        1 0.31706905E+00 0.35336229E+04</pdfrwt>
<pdfrwt beam="2">  1       -1 0.23302357E+00 0.35336229E+04</pdfrwt>
<totfact> 0.19867324E-01</totfact>
</mgrwt>
</event>
<event>
12    1  0.2019083E-007  0.2613675E+04  0.7818608E-02  0.8363571E-01
         -2   -1    0    0    0  501 -0.00000000000E+00  0.00000000000E+00  0.51845793232E+03  0.51845793232E+03  0.00000000000E+00 0.  1.
          2   -1    0    0  501    0  0.00000000000E+00 -0.00000000000E+00 -0.32940453746E+04  0.32940453746E+04  0.00000000000E+00 0. -1.
         23    2    1    2    0    0  0.10615887264E+04 -0.26511368689E+02 -0.58526754487E+03  0.12159592445E+04  0.91352659582E+02 0.  0.
        254    2    1    2    0    0 -0.10615887264E+04  0.26511368689E+02 -0.21903198974E+04  0.25965440625E+04  0.90380658243E+03 0.  0.
        -24    2    4    4    0    0 -0.54666717256E+03 -0.41587536349E+03 -0.13113638889E+04  0.14825825271E+04  0.81107244710E+02 0.  0.
         24    2    4    4    0    0 -0.51492155386E+03  0.44238673218E+03 -0.87895600853E+03  0.11139615353E+04  0.86581809817E+02 0.  0.
         11    1    3    3    0    0  0.39037704052E+03 -0.48723749944E+02 -0.23984860346E+03  0.46075545592E+03  0.00000000000E+00 0. -1.
        -11    1    3    3    0    0  0.67121168590E+03  0.22212381255E+02 -0.34541894141E+03  0.75520378857E+03  0.00000000000E+00 0.  1.
          2    1    6    6  502    0 -0.26203624486E+03  0.25024389547E+03 -0.40491230588E+03  0.54335897553E+03  0.00000000000E+00 0. -1.
          3    1    5    5  503    0 -0.15339383866E+03 -0.12941179066E+03 -0.31030493050E+03  0.36954868583E+03  0.00000000000E+00 0. -1.
         -4    1    5    5    0  503 -0.39327333391E+03 -0.28646357283E+03 -0.10010589584E+04  0.11130338413E+04  0.00000000000E+00 0.  1.
         -1    1    6    6    0  502 -0.25288530901E+03  0.19214283671E+03 -0.47404370265E+03  0.57060255978E+03  0.00000000000E+00 0.  1.
<mgrwt>
<rscale>  0 0.26136748E+04</rscale>
<asrwt>0</asrwt>
<pdfrwt beam="1">  1        2 0.50677621E+00 0.26136748E+04</pdfrwt>
<pdfrwt beam="2">  1       -2 0.79762758E-01 0.26136748E+04</pdfrwt>
<totfact> 0.13824391E+00</totfact>
</mgrwt>
</event>
<event>
12    1  0.2019083E-007  0.2090179E+04  0.7818608E-02  0.8565582E-01
          1   -1    0    0  501    0  0.00000000000E+00  0.00000000000E+00  0.11847788306E+04  0.11847788306E+04  0.00000000000E+00 0. -1.
         -1   -1    0    0    0  501 -0.00000000000E+00 -0.00000000000E+00 -0.92187000133E+03  0.92187000133E+03  0.00000000000E+00 0.  1.
         23    2    1    2    0    0 -0.36915579715E+02 -0.80186386574E+03 -0.17191052436E+03  0.82593589900E+03  0.90931081936E+02 0.  0.
        254    2    1    2    0    0  0.36915579715E+02  0.80186386574E+03  0.43481935358E+03  0.12807129329E+04  0.89822565483E+03 0.  0.
        -24    2    4    4    0    0 -0.16470591241E+03  0.84938301037E+03  0.55264484127E+03  0.10298935335E+04  0.81760833629E+02 0.  0.
         24    2    4    4    0    0  0.20162149213E+03 -0.47519144631E+02 -0.11782548769E+03  0.25081939936E+03  0.78219117566E+02 0.  0.
         13    1    3    3    0    0  0.44840951101E+01 -0.10687682137E+03  0.66703028716E+01  0.10717861258E+03  0.00000000000E+00 0. -1.
        -13    1    3    3    0    0 -0.41399674825E+02 -0.69498704438E+03 -0.17858082723E+03  0.71875728642E+03  0.00000000000E+00 0.  1.
          2    1    6    6  502    0  0.16668166699E+03 -0.28585289184E+02 -0.57582559137E+02  0.17864951158E+03  0.00000000000E+00 0. -1.
          3    1    5    5  503    0 -0.12988072585E+03  0.52781885367E+03  0.31194019039E+03  0.62671239625E+03  0.00000000000E+00 0. -1.
         -4    1    5    5    0  503 -0.34825186566E+02  0.32156415671E+03  0.24070465088E+03  0.40318113727E+03  0.00000000000E+00 0.  1.
         -1    1    6    6    0  502  0.34939825134E+02 -0.18933855446E+02 -0.60242928553E+02  0.72169887786E+02  0.00000000000E+00 0.  1.
<mgrwt>
<rscale>  0 0.20901790E+04</rscale>
<asrwt>0</asrwt>
<pdfrwt beam="1">  1        1 0.18227367E+00 0.20901790E+04</pdfrwt>
<pdfrwt beam="2">  1       -1 0.14182615E+00 0.20901790E+04</pdfrwt>
<totfact> 0.40889359E+00</totfact>
</mgrwt>
</event>
<event>
12    1  0.2019083E-007  0.1990916E+04  0.7818608E-02  0.8610880E-01
          1   -1    0    0  501    0  0.00000000000E+00  0.00000000000E+00  0.10077747720E+04  0.10077747720E+04  0.00000000000E+00 0. -1.
         -1   -1    0    0    0  501 -0.00000000000E+00 -0.00000000000E+00 -0.98329141812E+03  0.98329141812E+03  0.00000000000E+00 0.  1.
         23    2    1    2    0    0  0.55052998798E+03 -0.51412196038E+03  0.24431901202E+03  0.79726061404E+03  0.92347437791E+02 0.  0.
        254    2    1    2    0    0 -0.55052998798E+03  0.51412196038E+03 -0.21983565811E+03  0.11938055761E+04  0.89968849006E+03 0.  0.
        -24    2    4    4    0    0 -0.55756386254E+03  0.13459368586E+03 -0.45821347214E+03  0.73851902394E+03  0.80360696811E+02 0.  0.
         24    2    4    4    0    0  0.70338745676E+01  0.37952827452E+03  0.23837781403E+03  0.45528655216E+03  0.79816513357E+02 0.  0.
         11    1    3    3    0    0  0.43267871285E+03 -0.34822905164E+03  0.18004773016E+03  0.58385916632E+03  0.00000000000E+00 0.  1.
        -11    1    3    3    0    0  0.11785127512E+03 -0.16589290874E+03  0.64271281854E+02  0.21340144772E+03  0.00000000000E+00 0. -1.
          4    1    6    6  502    0 -0.20196938274E+02  0.31924563533E+02  0.35771352194E+02  0.52025798506E+02  0.00000000000E+00 0. -1.
          1    1    5    5  503    0 -0.12074548021E+03  0.10733058259E+01 -0.11933615881E+03  0.16976967272E+03  0.00000000000E+00 0. -1.
         -2    1    5    5    0  503 -0.43681838233E+03  0.13352038003E+03 -0.33887731333E+03  0.56874935122E+03  0.00000000000E+00 0.  1.
         -3    1    6    6    0  502  0.27230812842E+02  0.34760371098E+03  0.20260646183E+03  0.40326075365E+03  0.00000000000E+00 0.  1.
<mgrwt>
<rscale>  0 0.19909157E+04</rscale>
<asrwt>0</asrwt>
<pdfrwt beam="1">  1        1 0.15504227E+00 0.19909157E+04</pdfrwt>
<pdfrwt beam="2">  1       -1 0.15127560E+00 0.19909157E+04</pdfrwt>
<totfact> 0.47239067E+00</totfact>
</mgrwt>
</event>
<event>
12    1  0.2019083E-007  0.3337869E+04  0.7818608E-02  0.8153326E-01
         -1   -1    0    0    0  501 -0.00000000000E+00  0.00000000000E+00  0.97075927266E+03  0.97075927266E+03  0.00000000000E+00 0.  1.
          1   -1    0    0  501    0  0.00000000000E+00 -0.00000000000E+00 -0.28692416208E+04  0.28692416208E+04  0.00000000000E+00 0. -1.
         23    2    1    2    0    0 -0.99786320225E+03 -0.11779825161E+04 -0.78017070825E+03  0.17321243891E+04  0.90635459147E+02 0.  0.
        254    2    1    2    0    0  0.99786320225E+03  0.11779825161E+04 -0.11183116399E+04  0.21078765044E+04  0.89952690634E+03 0.  0.
        -24    2    4    4    0    0  0.20525248483E+03  0.49688013958E+03  0.40858057529E+02  0.54512060772E+03  0.80427858722E+02 0.  0.
         24    2    4    4    0    0  0.79261071742E+03  0.68110237655E+03 -0.11591696974E+04  0.15627558967E+04  0.79996303083E+02 0.  0.
         13    1    3    3    0    0 -0.12401903291E+03 -0.16576216171E+03 -0.73736181204E+02  0.21976086821E+03  0.00000000000E+00 0. -1.
        -13    1    3    3    0    0 -0.87384416935E+03 -0.10122203544E+04 -0.70643452705E+03  0.15123635209E+04  0.00000000000E+00 0.  1.
          2    1    6    6  502    0  0.41030699109E+03  0.32982792976E+03 -0.63738790192E+03  0.82668109189E+03  0.00000000000E+00 0. -1.
          1    1    5    5  503    0  0.45973750532E+02  0.51821541717E+02 -0.87384230636E+01  0.69824193239E+02  0.00000000000E+00 0. -1.
         -2    1    5    5    0  503  0.15927873430E+03  0.44505859786E+03  0.49596480592E+02  0.47529641448E+03  0.00000000000E+00 0.  1.
         -1    1    6    6    0  502  0.38230372633E+03  0.35127444679E+03 -0.52178179552E+03  0.73607480481E+03  0.00000000000E+00 0.  1.
<mgrwt>
<rscale>  0 0.33378693E+04</rscale>
<asrwt>0</asrwt>
<pdfrwt beam="1">  1        1 0.44142178E+00 0.33378693E+04</pdfrwt>
<pdfrwt beam="2">  1       -1 0.14934758E+00 0.33378693E+04</pdfrwt>
<totfact> 0.21690894E-01</totfact>
</mgrwt>
</event>
<event>
12    1  0.2019083E-007  0.1379892E+04  0.7818608E-02  0.8968504E-01
          1   -1    0    0  501    0  0.00000000000E+00  0.00000000000E+00  0.20985223976E+04  0.20985223976E+04  0.00000000000E+00 0. -1.
         -1   -1    0    0    0  501 -0.00000000000E+00 -0.00000000000E+00 -0.22683837477E+03  0.22683837477E+03  0.00000000000E+00 0.  1.
         23    2    1    2    0    0  0.22853688909E+03  0.23476391691E+03  0.19877602168E+03  0.39596325010E+03  0.99658327709E+02 0.  0.
        254    2    1    2    0    0 -0.22853688909E+03 -0.23476391691E+03  0.16729080012E+04  0.19293975223E+04  0.90366498894E+03 0.  0.
        -24    2    4    4    0    0 -0.54071176289E+03 -0.11801087387E+03  0.13381882273E+04  0.14502808615E+04  0.79190079266E+02 0.  0.
         24    2    4    4    0    0  0.31217487381E+03 -0.11675304305E+03  0.33471977395E+03  0.47911666085E+03  0.80193657730E+02 0.  0.
         11    1    3    3    0    0  0.20377399499E+03  0.23804215068E+03  0.16554518424E+03  0.35439118860E+03  0.00000000000E+00 0.  1.
        -11    1    3    3    0    0  0.24762894101E+02 -0.32782337697E+01  0.33230837432E+02  0.41572061499E+02  0.00000000000E+00 0. -1.
          2    1    6    6  502    0  0.30033979283E+03 -0.12482569967E+03  0.33154450943E+03  0.46444290089E+03  0.00000000000E+00 0. -1.
          1    1    5    5  503    0 -0.47534208242E+03 -0.83662788819E+02  0.11085800787E+04  0.12090902979E+04  0.00000000000E+00 0. -1.
         -2    1    5    5    0  503 -0.65369680475E+02 -0.34348085046E+02  0.22960814854E+03  0.24119056356E+03  0.00000000000E+00 0.  1.
         -1    1    6    6    0  502  0.11835080977E+02  0.80726566240E+01  0.31752645175E+01  0.14673759963E+02  0.00000000000E+00 0.  1.
<mgrwt>
<rscale>  0 0.13798919E+04</rscale>
<asrwt>0</asrwt>
<pdfrwt beam="1">  1        1 0.32284959E+00 0.13798919E+04</pdfrwt>
<pdfrwt beam="2">  1       -1 0.34898213E-01 0.13798919E+04</pdfrwt>
<totfact> 0.19485688E+01</totfact>
</mgrwt>
</event>
<event>
12    1  0.2019083E-007  0.1712123E+04  0.7818608E-02  0.8754480E-01
         -2   -1    0    0    0  501 -0.00000000000E+00  0.00000000000E+00  0.16365225451E+04  0.16365225451E+04  0.00000000000E+00 0.  1.
          2   -1    0    0  501    0  0.00000000000E+00 -0.00000000000E+00 -0.44780399143E+03  0.44780399143E+03  0.00000000000E+00 0. -1.
         23    2    1    2    0    0  0.55888104321E+03 -0.15833246330E+03  0.19402956984E+03  0.61961550081E+03  0.94120696361E+02 0.  0.
        254    2    1    2    0    0 -0.55888104321E+03  0.15833246330E+03  0.99468898387E+03  0.14647110357E+04  0.90474032419E+03 0.  0.
        -24    2    4    4    0    0 -0.57411834103E+03 -0.17160755477E+03  0.94530788910E+03  0.11224338476E+04  0.84792184931E+02 0.  0.
         24    2    4    4    0    0  0.15237297816E+02  0.32994001807E+03  0.49381094773E+02  0.34227718818E+03  0.74983933345E+02 0.  0.
         13    1    3    3    0    0  0.26510303989E+03 -0.11971249699E+03  0.75801270612E+02  0.30059363986E+03  0.00000000000E+00 0. -1.
        -13    1    3    3    0    0  0.29377800332E+03 -0.38619966309E+02  0.11822829923E+03  0.31902186096E+03  0.00000000000E+00 0.  1.
          4    1    6    6  502    0 -0.28269465091E+02  0.12900184823E+03  0.62711091877E+01  0.13221182365E+03  0.00000000000E+00 0. -1.
          3    1    5    5  503    0 -0.22150383508E+03 -0.70784292216E+02  0.44510109748E+03  0.50218457957E+03  0.00000000000E+00 0. -1.
         -4    1    5    5    0  503 -0.35261450594E+03 -0.10082326255E+03  0.50020679162E+03  0.62024926800E+03  0.00000000000E+00 0.  1.
         -3    1    6    6    0  502  0.43506762907E+02  0.20093816984E+03  0.43109985585E+02  0.21006536453E+03  0.00000000000E+00 0.  1.
<mgrwt>
<rscale>  0 0.17121230E+04</rscale>
<asrwt>0</asrwt>
<pdfrwt beam="1">  1        2 0.68892922E-01 0.17121230E+04</pdfrwt>
<pdfrwt beam="2">  1       -2 0.25177270E+00 0.17121230E+04</pdfrwt>
<totfact> 0.41670934E+00</totfact>
</mgrwt>
</event>
<event>
12    1  0.2019083E-007  0.1569228E+04  0.7818608E-02  0.8839678E-01
         -2   -1    0    0    0  501 -0.00000000000E+00  0.00000000000E+00  0.51792811215E+03  0.51792811215E+03  0.00000000000E+00 0.  1.
          2   -1    0    0  501    0  0.00000000000E+00 -0.00000000000E+00 -0.11886195638E+04  0.11886195638E+04  0.00000000000E+00 0. -1.
         23    2    1    2    0    0  0.49801423248E+03 -0.31744660201E+02 -0.61608711488E+02  0.51109904449E+03  0.91655336662E+02 0.  0.
        254    2    1    2    0    0 -0.49801423248E+03  0.31744660201E+02 -0.60908274021E+03  0.11954486315E+04  0.89949416172E+03 0.  0.
        -24    2    4    4    0    0 -0.59992989228E+03  0.22453117242E+03 -0.69475153619E+03  0.94830008500E+03  0.79140578205E+02 0.  0.
         24    2    4    4    0    0  0.10191565980E+03 -0.19278651222E+03  0.85668795984E+02  0.24714854652E+03  0.78675411856E+02 0.  0.
         11    1    3    3    0    0  0.45920032338E+03 -0.34076374898E+02 -0.30804812226E+02  0.46149222395E+03  0.00000000000E+00 0.  1.
        -11    1    3    3    0    0  0.38813909105E+02  0.23317146968E+01 -0.30803899263E+02  0.49606820531E+02  0.00000000000E+00 0. -1.
          4    1    6    6  502    0  0.60191345199E+02 -0.38544403029E+02  0.18584571671E+02  0.73851576462E+02  0.00000000000E+00 0. -1.
          3    1    5    5  503    0 -0.48518252104E+03  0.17121817613E+03 -0.59895854272E+03  0.78960058160E+03  0.00000000000E+00 0. -1.
         -4    1    5    5    0  503 -0.11474737124E+03  0.53312996296E+02 -0.95792993468E+02  0.15869950340E+03  0.00000000000E+00 0.  1.
         -3    1    6    6    0  502  0.41724314605E+02 -0.15424210919E+03  0.67084224314E+02  0.17329697005E+03  0.00000000000E+00 0.  1.
<mgrwt>
<rscale>  0 0.15692285E+04</rscale>
<asrwt>0</asrwt>
<pdfrwt beam="1">  1        2 0.18286455E+00 0.15692285E+04</pdfrwt>
<pdfrwt beam="2">  1       -2 0.79681249E-01 0.15692285E+04</pdfrwt>
<totfact> 0.25798152E+01</totfact>
</mgrwt>
</event>
<event>
12    1  0.2019083E-007  0.1560191E+04  0.7818608E-02  0.8845384E-01
         -1   -1    0    0    0  501 -0.00000000000E+00  0.00000000000E+00  0.60987477519E+03  0.60987477519E+03  0.00000000000E+00 0.  1.
          1   -1    0    0  501    0  0.00000000000E+00 -0.00000000000E+00 -0.99782613171E+03  0.99782613171E+03  0.00000000000E+00 0. -1.
         23    2    1    2    0    0  0.36883338451E+03  0.74858224130E+01  0.23913203886E+03  0.44881317787E+03  0.90305224384E+02 0.  0.
        254    2    1    2    0    0 -0.36883338451E+03 -0.74858224130E+01 -0.62708339539E+03  0.11588877290E+04  0.90204937818E+03 0.  0.
        -24    2    4    4    0    0  0.19112798188E+03  0.85988263001E+02  0.89372281459E+02  0.24151437149E+03  0.80111797598E+02 0.  0.
         24    2    4    4    0    0 -0.55996136639E+03 -0.93474085414E+02 -0.71645567685E+03  0.91737335754E+03  0.77272270256E+02 0.  0.
         11    1    3    3    0    0  0.22072608141E+03 -0.15312083819E+02  0.18841727417E+03  0.29061233995E+03  0.00000000000E+00 0.  1.
        -11    1    3    3    0    0  0.14810730310E+03  0.22797906232E+02  0.50714764692E+02  0.15820083792E+03  0.00000000000E+00 0. -1.
          4    1    6    6  502    0 -0.72320598041E+02  0.54264079160E+01 -0.63147239224E+02  0.96162823510E+02  0.00000000000E+00 0. -1.
          1    1    5    5  503    0  0.76296656405E+02 -0.63982739623E+01  0.23574816406E+02  0.80111732330E+02  0.00000000000E+00 0. -1.
         -2    1    5    5    0  503  0.11483132547E+03  0.92386536963E+02  0.65797465053E+02  0.16140263916E+03  0.00000000000E+00 0.  1.
         -3    1    6    6    0  502 -0.48764076834E+03 -0.98900493330E+02 -0.65330843763E+03  0.82121053403E+03  0.00000000000E+00 0.  1.
<mgrwt>
<rscale>  0 0.15601910E+04</rscale>
<asrwt>0</asrwt>
<pdfrwt beam="1">  1        1 0.15351171E+00 0.15601910E+04</pdfrwt>
<pdfrwt beam="2">  1       -1 0.93826890E-01 0.15601910E+04</pdfrwt>
<totfact> 0.16104633E+01</totfact>
</mgrwt>
</event>
<event>
12    1  0.2019083E-007  0.1921338E+04  0.7818608E-02  0.8644307E-01
         -2   -1    0    0    0  501 -0.00000000000E+00  0.00000000000E+00  0.44316773916E+03  0.44316773916E+03  0.00000000000E+00 0.  1.
          2   -1    0    0  501    0  0.00000000000E+00 -0.00000000000E+00 -0.20824734591E+04  0.20824734591E+04  0.00000000000E+00 0. -1.
         23    2    1    2    0    0  0.26975277624E+03 -0.69438626749E+03 -0.56891528608E+03  0.94080979989E+03  0.80744213920E+02 0.  0.
        254    2    1    2    0    0 -0.26975277624E+03  0.69438626749E+03 -0.10703904339E+04  0.15848313984E+04  0.90056428512E+03 0.  0.
        -24    2    4    4    0    0 -0.40040024812E+03  0.17080460064E+03 -0.73623626256E+02  0.44871858203E+03  0.80208211682E+02 0.  0.
         24    2    4    4    0    0  0.13064747189E+03  0.52358166685E+03 -0.99676680764E+03  0.11361128164E+04  0.77470891021E+02 0.  0.
         13    1    3    3    0    0  0.99203835908E+02 -0.15904194457E+03 -0.14075791021E+03  0.23441102892E+03  0.00000000000E+00 0.  1.
        -13    1    3    3    0    0  0.17054894033E+03 -0.53534432292E+03 -0.42815737586E+03  0.70639877097E+03  0.00000000000E+00 0. -1.
          2    1    6    6  502    0  0.58787664118E+02  0.12024093138E+03 -0.20906270459E+03  0.24823594720E+03  0.00000000000E+00 0. -1.
          1    1    5    5  503    0 -0.19678883492E+03  0.50399824120E+02 -0.59834456033E+02  0.21176909583E+03  0.00000000000E+00 0. -1.
         -2    1    5    5    0  503 -0.20361141320E+03  0.12040477652E+03 -0.13789170223E+02  0.23694948620E+03  0.00000000000E+00 0.  1.
         -1    1    6    6    0  502  0.71859807768E+02  0.40334073547E+03 -0.78770410305E+03  0.88787686918E+03  0.00000000000E+00 0.  1.
<mgrwt>
<rscale>  0 0.19213381E+04</rscale>
<asrwt>0</asrwt>
<pdfrwt beam="1">  1        2 0.32038053E+00 0.19213381E+04</pdfrwt>
<pdfrwt beam="2">  1       -2 0.68179652E-01 0.19213381E+04</pdfrwt>
<totfact> 0.11062883E+01</totfact>
</mgrwt>
</event>
<event>
12    1  0.2019083E-007  0.1381265E+04  0.7818608E-02  0.8967493E-01
          2   -1    0    0  501    0  0.00000000000E+00  0.00000000000E+00  0.59255474971E+03  0.59255474971E+03  0.00000000000E+00 0. -1.
         -2   -1    0    0    0  501 -0.00000000000E+00 -0.00000000000E+00 -0.80494331539E+03  0.80494331539E+03  0.00000000000E+00 0.  1.
         23    2    1    2    0    0  0.33693388119E+03 -0.74267733573E+02 -0.24599068796E+03  0.43362673458E+03  0.92090118006E+02 0.  0.
        254    2    1    2    0    0 -0.33693388119E+03  0.74267733573E+02  0.33602122283E+02  0.96387133052E+03  0.89937684128E+03 0.  0.
        -24    2    4    4    0    0 -0.40653293473E+03  0.16091969817E+03 -0.34416476685E+03  0.56197514462E+03  0.78755953056E+02 0.  0.
         24    2    4    4    0    0  0.69599053544E+02 -0.86651964601E+02  0.37776688913E+03  0.40189618590E+03  0.80374936979E+02 0.  0.
         11    1    3    3    0    0  0.25926067000E+03 -0.46940571430E+02 -0.13681087498E+03  0.29687830464E+03  0.00000000000E+00 0. -1.
        -11    1    3    3    0    0  0.77673211189E+02 -0.27327162143E+02 -0.10917981298E+03  0.13674842994E+03  0.00000000000E+00 0.  1.
          4    1    6    6  502    0 -0.21774368379E+01  0.52633749143E+01 -0.81969886944E+00  0.57546722676E+01  0.00000000000E+00 0. -1.
          3    1    5    5  503    0 -0.79673599911E+02  0.11204347369E+01 -0.49679117004E+02  0.93899694159E+02  0.00000000000E+00 0. -1.
         -4    1    5    5    0  503 -0.32685933482E+03  0.15979926344E+03 -0.29448564985E+03  0.46807545046E+03  0.00000000000E+00 0.  1.
         -3    1    6    6    0  502  0.71776490382E+02 -0.91915339515E+02  0.37858658800E+03  0.39614151363E+03  0.00000000000E+00 0.  1.
<mgrwt>
<rscale>  0 0.13812646E+04</rscale>
<asrwt>0</asrwt>
<pdfrwt beam="1">  1        2 0.91162270E-01 0.13812646E+04</pdfrwt>
<pdfrwt beam="2">  1       -2 0.12383743E+00 0.13812646E+04</pdfrwt>
<totfact> 0.24080860E+01</totfact>
</mgrwt>
</event>
<event>
12    1  0.2019083E-007  0.1574251E+04  0.7818608E-02  0.8836524E-01
         -1   -1    0    0    0  501 -0.00000000000E+00  0.00000000000E+00  0.21261733231E+04  0.21261733231E+04  0.00000000000E+00 0.  1.
          1   -1    0    0  501    0  0.00000000000E+00 -0.00000000000E+00 -0.29139994646E+03  0.29139994646E+03  0.00000000000E+00 0. -1.
         23    2    1    2    0    0 -0.20003924420E+03  0.34013619101E+03  0.11569105287E+04  0.12253105372E+04  0.85062409810E+02 0.  0.
        254    2    1    2    0    0  0.20003924420E+03 -0.34013619101E+03  0.67786284802E+03  0.11922627324E+04  0.89793321284E+03 0.  0.
        -24    2    4    4    0    0 -0.14061435593E+02 -0.19278584661E+03 -0.19085066639E+03  0.28239873148E+03  0.77207253909E+02 0.  0.
         24    2    4    4    0    0  0.21410067979E+03 -0.14735034440E+03  0.86871351441E+03  0.90986400093E+03  0.75087315764E+02 0.  0.
         13    1    3    3    0    0 -0.14215843165E+03  0.17268803697E+03  0.57283093257E+03  0.61495158762E+03  0.00000000000E+00 0.  1.
        -13    1    3    3    0    0 -0.57880812545E+02  0.16744815404E+03  0.58407959610E+03  0.61035894958E+03  0.00000000000E+00 0. -1.
          4    1    6    6  502    0  0.32935199968E+02 -0.51149508869E+02  0.13613348837E+03  0.14910843809E+03  0.00000000000E+00 0. -1.
          1    1    5    5  503    0  0.85622592644E+01 -0.51019520202E+00  0.23440344333E+01  0.88919671771E+01  0.00000000000E+00 0. -1.
         -2    1    5    5    0  503 -0.22623694857E+02 -0.19227565141E+03 -0.19319470083E+03  0.27350676430E+03  0.00000000000E+00 0.  1.
         -3    1    6    6    0  502  0.18116547982E+03 -0.96200835531E+02  0.73258002604E+03  0.76075556284E+03  0.00000000000E+00 0.  1.
<mgrwt>
<rscale>  0 0.15742513E+04</rscale>
<asrwt>0</asrwt>
<pdfrwt beam="1">  1        1 0.44830762E-01 0.15742513E+04</pdfrwt>
<pdfrwt beam="2">  1       -1 0.32710358E+00 0.15742513E+04</pdfrwt>
<totfact> 0.19321455E+00</totfact>
</mgrwt>
</event>
<event>
12    1  0.2019083E-007  0.1142610E+04  0.7818608E-02  0.9164628E-01
         -2   -1    0    0    0  501 -0.00000000000E+00  0.00000000000E+00  0.17188427040E+03  0.17188427040E+03  0.00000000000E+00 0. -1.
          2   -1    0    0  501    0  0.00000000000E+00 -0.00000000000E+00 -0.18988916050E+04  0.18988916050E+04  0.00000000000E+00 0.  1.
         23    2    1    2    0    0 -0.59816505020E+02  0.20374998607E+02 -0.67763297663E+03  0.68635090182E+03  0.88870437009E+02 0.  0.
        254    2    1    2    0    0  0.59816505020E+02 -0.20374998607E+02 -0.10493743580E+04  0.13844249736E+04  0.90080675479E+03 0.  0.
        -24    2    4    4    0    0  0.39804614594E+03  0.17657210009E+03 -0.29945154012E+03  0.53463066193E+03  0.80871991239E+02 0.  0.
         24    2    4    4    0    0 -0.33822964092E+03 -0.19694709870E+03 -0.74992281787E+03  0.84979431167E+03  0.81109122181E+02 0.  0.
         11    1    3    3    0    0  0.51403674081E+01 -0.24586605405E+02 -0.90286176865E+02  0.93715090969E+02  0.00000000000E+00 0. -1.
        -11    1    3    3    0    0 -0.64956872428E+02  0.44961604012E+02 -0.58734679977E+03  0.59263581085E+03  0.00000000000E+00 0.  1.
          4    1    6    6  502    0 -0.44424277850E+01 -0.19733181303E+02 -0.23959249655E+02  0.31355689324E+02  0.00000000000E+00 0. -1.
          3    1    5    5  503    0  0.17344297439E+02  0.25696068819E+02 -0.80645952774E+01  0.32033580870E+02  0.00000000000E+00 0. -1.
         -4    1    5    5    0  503  0.38070184850E+03  0.15087603127E+03 -0.29138694484E+03  0.50259708106E+03  0.00000000000E+00 0.  1.
         -3    1    6    6    0  502 -0.33378721314E+03 -0.17721391740E+03 -0.72596356822E+03  0.81843862235E+03  0.00000000000E+00 0.  1.
<mgrwt>
<rscale>  0 0.11426103E+04</rscale>
<asrwt>0</asrwt>
<pdfrwt beam="1">  1        2 0.29213715E+00 0.11426103E+04</pdfrwt>
<pdfrwt beam="2">  1       -2 0.26443735E-01 0.11426103E+04</pdfrwt>
<totfact> 0.97620816E+01</totfact>
</mgrwt>
</event>
<event>
12    1  0.2019083E-007  0.3264641E+04  0.7818608E-02  0.8171951E-01
          1   -1    0    0  501    0  0.00000000000E+00  0.00000000000E+00  0.27208661641E+04  0.27208661641E+04  0.00000000000E+00 0. -1.
         -1   -1    0    0    0  501 -0.00000000000E+00 -0.00000000000E+00 -0.97927273062E+03  0.97927273062E+03  0.00000000000E+00 0.  1.
         23    2    1    2    0    0  0.11701468685E+04 -0.94783378163E+03  0.73540483465E+03  0.16782692864E+04  0.90193986951E+02 0.  0.
        254    2    1    2    0    0 -0.11701468685E+04  0.94783378163E+03  0.10061885989E+04  0.20218696084E+04  0.89883738526E+03 0.  0.
        -24    2    4    4    0    0 -0.86212961552E+03  0.25524387678E+03  0.22433317882E+03  0.93006330107E+03  0.79217790218E+02 0.  0.
         24    2    4    4    0    0 -0.30801725302E+03  0.69258990485E+03  0.78185542005E+03  0.10918063073E+04  0.78662000396E+02 0.  0.
         13    1    3    3    0    0  0.93721908248E+03 -0.72333464003E+03  0.60440986417E+03  0.13292493724E+04  0.00000000000E+00 0.  1.
        -13    1    3    3    0    0  0.23292778606E+03 -0.22449914160E+03  0.13099497048E+03  0.34901991403E+03  0.00000000000E+00 0. -1.
          4    1    6    6  502    0 -0.15347163862E+03  0.34095692126E+03  0.44202058622E+03  0.57895368093E+03  0.00000000000E+00 0. -1.
          3    1    5    5  503    0 -0.73767695833E+03  0.24429562079E+03  0.18149842014E+03  0.79799080302E+03  0.00000000000E+00 0. -1.
         -4    1    5    5    0  503 -0.12445265720E+03  0.10948255996E+02  0.42834758676E+02  0.13207249806E+03  0.00000000000E+00 0.  1.
         -3    1    6    6    0  502 -0.15454561440E+03  0.35163298358E+03  0.33983483383E+03  0.51285262636E+03  0.00000000000E+00 0.  1.
<mgrwt>
<rscale>  0 0.32646409E+04</rscale>
<asrwt>0</asrwt>
<pdfrwt beam="1">  1        1 0.41859479E+00 0.32646409E+04</pdfrwt>
<pdfrwt beam="2">  1       -1 0.15065734E+00 0.32646409E+04</pdfrwt>
<totfact> 0.27201493E-01</totfact>
</mgrwt>
</event>
<event>
12    1  0.2019083E-007  0.1441021E+04  0.7818608E-02  0.8924649E-01
         -2   -1    0    0    0  501 -0.00000000000E+00  0.00000000000E+00  0.21820276006E+03  0.21820276006E+03  0.00000000000E+00 0.  1.
          2   -1    0    0  501    0  0.00000000000E+00 -0.00000000000E+00 -0.23791437068E+04  0.23791437068E+04  0.00000000000E+00 0. -1.
         23    2    1    2    0    0 -0.37545663510E+03 -0.17643436352E+03 -0.45397269032E+03  0.62301671946E+03  0.99809116340E+02 0.  0.
        254    2    1    2    0    0  0.37545663510E+03  0.17643436352E+03 -0.17069682564E+04  0.19743297474E+04  0.90118841181E+03 0.  0.
        -24    2    4    4    0    0 -0.18748830521E+02 -0.16535171639E+03  0.26812051738E+01  0.18502779004E+03  0.80841730969E+02 0.  0.
         24    2    4    4    0    0  0.39420546562E+03  0.34178607991E+03 -0.17096494616E+04  0.17893019574E+04  0.80526638772E+02 0.  0.
         11    1    3    3    0    0 -0.37547627486E+02 -0.11428267724E+02 -0.87048632927E+01  0.40202043206E+02  0.00000000000E+00 0.  1.
        -11    1    3    3    0    0 -0.33790900761E+03 -0.16500609579E+03 -0.44526782703E+03  0.58281467626E+03  0.00000000000E+00 0. -1.
          2    1    6    6  502    0  0.15734509854E+02 -0.19419036764E+01 -0.70924686424E+02  0.72675009010E+02  0.00000000000E+00 0. -1.
          3    1    5    5  503    0  0.31885307739E+02 -0.56495618200E+02 -0.16535226498E+01  0.64893465485E+02  0.00000000000E+00 0. -1.
         -4    1    5    5    0  503 -0.50634138260E+02 -0.10885609819E+03  0.43347278236E+01  0.12013432455E+03  0.00000000000E+00 0.  1.
         -1    1    6    6    0  502  0.37847095577E+03  0.34372798358E+03 -0.16387247752E+04  0.17166269483E+04  0.00000000000E+00 0.  1.
<mgrwt>
<rscale>  0 0.14410215E+04</rscale>
<asrwt>0</asrwt>
<pdfrwt beam="1">  1        2 0.36602211E+00 0.14410215E+04</pdfrwt>
<pdfrwt beam="2">  1       -2 0.33569655E-01 0.14410215E+04</pdfrwt>
<totfact> 0.32977021E+01</totfact>
</mgrwt>
</event>
<event>
12    1  0.2019083E-007  0.2006925E+04  0.7818608E-02  0.8603390E-01
          2   -1    0    0  501    0  0.00000000000E+00  0.00000000000E+00  0.14152633306E+04  0.14152633306E+04  0.00000000000E+00 0.  1.
         -2   -1    0    0    0  501 -0.00000000000E+00 -0.00000000000E+00 -0.71148351892E+03  0.71148351892E+03  0.00000000000E+00 0. -1.
         23    2    1    2    0    0  0.76795949709E+02 -0.63869263432E+03  0.78215162004E+03  0.10168366569E+04  0.91486234456E+02 0.  0.
        254    2    1    2    0    0 -0.76795949709E+02  0.63869263432E+03 -0.78371808329E+02  0.11099101926E+04  0.90107302498E+03 0.  0.
        -24    2    4    4    0    0  0.39143381407E+03  0.17670368006E+03 -0.92480068388E+02  0.44721503461E+03  0.83690517884E+02 0.  0.
         24    2    4    4    0    0 -0.46822976378E+03  0.46198895426E+03  0.14108260059E+02  0.66269515802E+03  0.79327951694E+02 0.  0.
         13    1    3    3    0    0  0.27982564057E+01 -0.26712036087E+03  0.37803236749E+03  0.46289263150E+03  0.00000000000E+00 0. -1.
        -13    1    3    3    0    0  0.73997693303E+02 -0.37157227345E+03  0.40411925255E+03  0.55394402542E+03  0.00000000000E+00 0.  1.
          4    1    6    6  502    0 -0.28484602017E+03  0.29757298436E+03  0.45371611849E+02  0.41442190988E+03  0.00000000000E+00 0. -1.
          3    1    5    5  503    0  0.37208073265E+03  0.18436522910E+03 -0.95741187382E+02  0.42614666990E+03  0.00000000000E+00 0. -1.
         -4    1    5    5    0  503  0.19353081425E+02 -0.76615490357E+01  0.32611189940E+01  0.21068364705E+02  0.00000000000E+00 0.  1.
         -3    1    6    6    0  502 -0.18338374361E+03  0.16441596990E+03 -0.31263351790E+02  0.24827324814E+03  0.00000000000E+00 0.  1.
<mgrwt>
<rscale>  0 0.20069245E+04</rscale>
<asrwt>0</asrwt>
<pdfrwt beam="1">  1        2 0.21773282E+00 0.20069245E+04</pdfrwt>
<pdfrwt beam="2">  1       -2 0.10945900E+00 0.20069245E+04</pdfrwt>
<totfact> 0.87576434E+00</totfact>
</mgrwt>
</event>
<event>
12    1  0.2019083E-007  0.1612493E+04  0.7818608E-02  0.8812909E-01
          2   -1    0    0  501    0  0.00000000000E+00  0.00000000000E+00  0.11635884140E+04  0.11635884140E+04  0.00000000000E+00 0. -1.
         -2   -1    0    0    0  501 -0.00000000000E+00 -0.00000000000E+00 -0.55864582308E+03  0.55864582308E+03  0.00000000000E+00 0.  1.
         23    2    1    2    0    0  0.55634762791E+02  0.54186113718E+03  0.50836631734E+02  0.55470126678E+03  0.91653769267E+02 0.  0.
        254    2    1    2    0    0 -0.55634762791E+02 -0.54186113718E+03  0.55410595921E+03  0.11675329703E+04  0.87143049289E+03 0.  0.
        -24    2    4    4    0    0 -0.38612513746E+03 -0.17662513838E+02  0.15400766194E+03  0.42549280648E+03  0.89001023892E+02 0.  0.
         24    2    4    4    0    0  0.33049037467E+03 -0.52419862334E+03  0.40009829726E+03  0.74204016384E+03  0.80850929621E+02 0.  0.
         13    1    3    3    0    0  0.75725637305E+02  0.30816621648E+03  0.40606233007E+02  0.31992132671E+03  0.00000000000E+00 0.  1.
        -13    1    3    3    0    0 -0.20090874514E+02  0.23369492070E+03  0.10230398728E+02  0.23477994006E+03  0.00000000000E+00 0. -1.
          2    1    6    6  502    0  0.23597263886E+03 -0.31563887131E+03  0.22513666527E+03  0.45386947619E+03  0.00000000000E+00 0. -1.
          1    1    5    5  503    0 -0.33861637008E+03 -0.28935108827E+02  0.16119112434E+03  0.37613942252E+03  0.00000000000E+00 0. -1.
         -2    1    5    5    0  503 -0.47508767381E+02  0.11272594989E+02 -0.71834624001E+01  0.49353383956E+02  0.00000000000E+00 0.  1.
         -1    1    6    6    0  502  0.94517735813E+02 -0.20855975203E+03  0.17496163200E+03  0.28817068765E+03  0.00000000000E+00 0.  1.
<mgrwt>
<rscale>  0 0.16124935E+04</rscale>
<asrwt>0</asrwt>
<pdfrwt beam="1">  1        2 0.17901360E+00 0.16124935E+04</pdfrwt>
<pdfrwt beam="2">  1       -2 0.85945511E-01 0.16124935E+04</pdfrwt>
<totfact> 0.22425542E+01</totfact>
</mgrwt>
</event>
<event>
12    1  0.2019083E-007  0.2540212E+04  0.7818608E-02  0.8388798E-01
          1   -1    0    0  501    0  0.00000000000E+00  0.00000000000E+00  0.30570026220E+04  0.30570026220E+04  0.00000000000E+00 0. -1.
         -1   -1    0    0    0  501 -0.00000000000E+00 -0.00000000000E+00 -0.52769629661E+03  0.52769629661E+03  0.00000000000E+00 0.  1.
         23    2    1    2    0    0  0.98135131970E+03 -0.89593886116E+02  0.39313771197E+03  0.10653786706E+04  0.96937990500E+02 0.  0.
        254    2    1    2    0    0 -0.98135131970E+03  0.89593886116E+02  0.21361686134E+04  0.25193202480E+04  0.90148804218E+03 0.  0.
        -24    2    4    4    0    0 -0.55930848719E+02  0.35295890741E+03  0.50898311129E+03  0.62727678906E+03  0.81878644047E+02 0.  0.
         24    2    4    4    0    0 -0.92542047098E+03 -0.26336502130E+03  0.16271855021E+04  0.18920434590E+04  0.79571413508E+02 0.  0.
         13    1    3    3    0    0  0.32009486185E+03 -0.60083966929E+02  0.16620729789E+03  0.36564418434E+03  0.00000000000E+00 0. -1.
        -13    1    3    3    0    0  0.66125645785E+03 -0.29509919187E+02  0.22693041408E+03  0.69973448622E+03  0.00000000000E+00 0.  1.
          4    1    6    6  502    0 -0.66353674891E+03 -0.16336388455E+03  0.12046721370E+04  0.13849923225E+04  0.00000000000E+00 0. -1.
          1    1    5    5  503    0 -0.70788646612E+02  0.32452797331E+03  0.44091728193E+03  0.55203033201E+03  0.00000000000E+00 0. -1.
         -2    1    5    5    0  503  0.14857797893E+02  0.28430934098E+02  0.68065829360E+02  0.75246457048E+02  0.00000000000E+00 0.  1.
         -3    1    6    6    0  502 -0.26188372207E+03 -0.10000113674E+03  0.42251336515E+03  0.50705113644E+03  0.00000000000E+00 0.  1.
<mgrwt>
<rscale>  0 0.25402118E+04</rscale>
<asrwt>0</asrwt>
<pdfrwt beam="1">  1        1 0.47030808E+00 0.25402118E+04</pdfrwt>
<pdfrwt beam="2">  1       -1 0.81184048E-01 0.25402118E+04</pdfrwt>
<totfact> 0.72653818E-01</totfact>
</mgrwt>
</event>
<event>
12    1  0.2019083E-007  0.1827889E+04  0.7818608E-02  0.8691608E-01
         -1   -1    0    0    0  501 -0.00000000000E+00  0.00000000000E+00  0.32074098603E+03  0.32074098603E+03  0.00000000000E+00 0.  1.
          1   -1    0    0  501    0  0.00000000000E+00 -0.00000000000E+00 -0.26042646126E+04  0.26042646126E+04  0.00000000000E+00 0. -1.
         23    2    1    2    0    0 -0.33195615416E+03 -0.91186558841E+02  0.86087491807E+02  0.36603331161E+03  0.89774451608E+02 0.  0.
        254    2    1    2    0    0  0.33195615416E+03  0.91186558841E+02 -0.23696111184E+04  0.25589722870E+04  0.90264745974E+03 0.  0.
        -24    2    4    4    0    0  0.56035177572E+03  0.30520762643E+03 -0.16277649627E+04  0.17501984887E+04  0.80188328573E+02 0.  0.
         24    2    4    4    0    0 -0.22839562156E+03 -0.21402106759E+03 -0.74184615565E+03  0.80877379836E+03  0.76221787778E+02 0.  0.
         13    1    3    3    0    0 -0.15324729441E+03 -0.71462089526E+02  0.59679573580E+01  0.16919568552E+03  0.00000000000E+00 0. -1.
        -13    1    3    3    0    0 -0.17870885975E+03 -0.19724469314E+02  0.80119534449E+02  0.19683762609E+03  0.00000000000E+00 0.  1.
          2    1    6    6  502    0 -0.11755517929E+03 -0.86930683055E+02 -0.43112079571E+03  0.45523763500E+03  0.00000000000E+00 0. -1.
          3    1    5    5  503    0  0.41455016071E+03  0.25809358910E+03 -0.11851979936E+04  0.12818574103E+04  0.00000000000E+00 0. -1.
         -2    1    5    5    0  503  0.14580161501E+03  0.47114037333E+02 -0.44256696917E+03  0.46834107833E+03  0.00000000000E+00 0.  1.
         -1    1    6    6    0  502 -0.11084044227E+03 -0.12709038454E+03 -0.31072535995E+03  0.35353616336E+03  0.00000000000E+00 0.  1.
<mgrwt>
<rscale>  0 0.18278888E+04</rscale>
<asrwt>0</asrwt>
<pdfrwt beam="1">  1        1 0.40065608E+00 0.18278888E+04</pdfrwt>
<pdfrwt beam="2">  1       -1 0.49344769E-01 0.18278888E+04</pdfrwt>
<totfact> 0.44458874E+00</totfact>
</mgrwt>
</event>
<event>
12    1  0.2673512E-007  0.4402358E+04  0.7818608E-02  0.7927958E-01
         -2   -1    0    0    0  501 -0.00000000000E+00  0.00000000000E+00  0.20082755668E+04  0.20082755668E+04  0.00000000000E+00 0.  1.
          2   -1    0    0  501    0  0.00000000000E+00 -0.00000000000E+00 -0.24126117940E+04  0.24126117940E+04  0.00000000000E+00 0. -1.
         23    2    1    2    0    0  0.88205957556E+03 -0.16102443857E+04 -0.12307040555E+04  0.22118000009E+04  0.80688880208E+02 0.  0.
        254    2    1    2    0    0 -0.88205957556E+03  0.16102443857E+04  0.82636782823E+03  0.22090873599E+04  0.90899235397E+03 0.  0.
        -24    2    4    4    0    0 -0.35867272016E+03  0.66994030497E+03  0.83265904027E+03  0.11301223369E+04  0.79933013406E+02 0.  0.
         24    2    4    4    0    0 -0.52338685540E+03  0.94030408073E+03 -0.62912120392E+01  0.10789650230E+04  0.77591087243E+02 0.  0.
         11    1    3    3    0    0  0.56151663886E+03 -0.10060255789E+04 -0.72631715379E+03  0.13619563169E+04  0.00000000000E+00 0.  1.
        -11    1    3    3    0    0  0.32054293670E+03 -0.60421880677E+03 -0.50438690169E+03  0.84984368405E+03  0.00000000000E+00 0. -1.
          2    1    6    6  502    0 -0.49474634905E+03  0.86574793025E+03  0.11193862125E+02  0.99720546086E+03  0.00000000000E+00 0. -1.
          1    1    5    5  503    0 -0.32472658249E+03  0.64106283738E+03  0.77008574714E+03  0.10533000393E+04  0.00000000000E+00 0. -1.
         -2    1    5    5    0  503 -0.33946137672E+02  0.28877467599E+02  0.62573293127E+02  0.76822297613E+02  0.00000000000E+00 0.  1.
         -1    1    6    6    0  502 -0.28640506348E+02  0.74556150482E+02 -0.17485074164E+02  0.81759562114E+02  0.00000000000E+00 0.  1.
<mgrwt>
<rscale>  0 0.44023581E+04</rscale>
<asrwt>0</asrwt>
<pdfrwt beam="1">  1        2 0.37117104E+00 0.44023581E+04</pdfrwt>
<pdfrwt beam="2">  1       -2 0.30896547E+00 0.44023581E+04</pdfrwt>
<totfact> 0.83614071E-02</totfact>
</mgrwt>
</event>
<event>
12    1  0.2019083E-007  0.2212255E+04  0.7818608E-02  0.8513345E-01
          2   -1    0    0  501    0  0.00000000000E+00  0.00000000000E+00  0.12965222639E+04  0.12965222639E+04  0.00000000000E+00 0. -1.
         -2   -1    0    0    0  501 -0.00000000000E+00 -0.00000000000E+00 -0.94369205721E+03  0.94369205721E+03  0.00000000000E+00 0.  1.
         23    2    1    2    0    0  0.86770485817E+03 -0.99403175360E+02  0.44060795843E+03  0.98243962736E+03  0.90881990604E+02 0.  0.
        254    2    1    2    0    0 -0.86770485817E+03  0.99403175360E+02 -0.87777751730E+02  0.12577746938E+04  0.90083268946E+03 0.  0.
        -24    2    4    4    0    0  0.12415259718E+03 -0.61883374282E+02 -0.18542068726E+03  0.24509684962E+03  0.80300778510E+02 0.  0.
         24    2    4    4    0    0 -0.99185745535E+03  0.16128654964E+03  0.97642935534E+02  0.10126778441E+04  0.78662000445E+02 0.  0.
         11    1    3    3    0    0  0.15434228661E+03  0.75887365640E+01  0.51762720035E+02  0.16296781751E+03  0.00000000000E+00 0. -1.
        -11    1    3    3    0    0  0.71336257156E+03 -0.10699191192E+03  0.38884523839E+03  0.81947180985E+03  0.00000000000E+00 0.  1.
          2    1    6    6  502    0 -0.47004386655E+03  0.10902057067E+03  0.24111181237E+02  0.48312324553E+03  0.00000000000E+00 0. -1.
          1    1    5    5  503    0  0.18283743173E+02  0.70980345546E+01 -0.74243742645E+02  0.76790693973E+02  0.00000000000E+00 0. -1.
         -2    1    5    5    0  503  0.10586885401E+03 -0.68981408836E+02 -0.11117694462E+03  0.16830615565E+03  0.00000000000E+00 0.  1.
         -1    1    6    6    0  502 -0.52181358880E+03  0.52265978971E+02  0.73531754297E+02  0.52955459861E+03  0.00000000000E+00 0.  1.
<mgrwt>
<rscale>  0 0.22122547E+04</rscale>
<asrwt>0</asrwt>
<pdfrwt beam="1">  1        2 0.19946496E+00 0.22122547E+04</pdfrwt>
<pdfrwt beam="2">  1       -2 0.14518339E+00 0.22122547E+04</pdfrwt>
<totfact> 0.49537800E+00</totfact>
</mgrwt>
</event>
<event>
12    1  0.2019083E-007  0.2787020E+04  0.7818608E-02  0.8307309E-01
          1   -1    0    0  501    0  0.00000000000E+00  0.00000000000E+00  0.13572284007E+04  0.13572284007E+04  0.00000000000E+00 0. -1.
         -1   -1    0    0    0  501 -0.00000000000E+00 -0.00000000000E+00 -0.14307619732E+04  0.14307619732E+04  0.00000000000E+00 0.  1.
         23    2    1    2    0    0  0.78195736150E+03  0.95456819553E+03  0.14017609224E+03  0.12448982408E+04  0.86397558356E+02 0.  0.
        254    2    1    2    0    0 -0.78195736150E+03 -0.95456819553E+03 -0.21370966475E+03  0.15430921331E+04  0.90155629626E+03 0.  0.
        -24    2    4    4    0    0 -0.23545230400E+03 -0.53746652389E+02 -0.39610834072E+03  0.47082322065E+03  0.80288214672E+02 0.  0.
         24    2    4    4    0    0 -0.54650505749E+03 -0.90082154314E+03  0.18239867597E+03  0.10722689125E+04  0.79649941383E+02 0.  0.
         13    1    3    3    0    0  0.69351120870E+03  0.85237483608E+03  0.15156505962E+03  0.11092667060E+04  0.00000000000E+00 0. -1.
        -13    1    3    3    0    0  0.88446152793E+02  0.10219335945E+03 -0.11388967387E+02  0.13563153482E+03  0.00000000000E+00 0.  1.
          4    1    6    6  502    0 -0.50922470690E+03 -0.85268548581E+03  0.15381286114E+03  0.10050078289E+04  0.00000000000E+00 0. -1.
          3    1    5    5  503    0 -0.23054790260E+03 -0.64288884145E+02 -0.39025983498E+03  0.45780796718E+03  0.00000000000E+00 0. -1.
         -4    1    5    5    0  503 -0.49044014078E+01  0.10542231755E+02 -0.58485057385E+01  0.13015253471E+02  0.00000000000E+00 0.  1.
         -3    1    6    6    0  502 -0.37280350594E+02 -0.48136057328E+02  0.28585814829E+02  0.67261083585E+02  0.00000000000E+00 0.  1.
<mgrwt>
<rscale>  0 0.27870205E+04</rscale>
<asrwt>0</asrwt>
<pdfrwt beam="1">  1        1 0.20880437E+00 0.27870205E+04</pdfrwt>
<pdfrwt beam="2">  1       -1 0.22011723E+00 0.27870205E+04</pdfrwt>
<totfact> 0.78411525E-01</totfact>
</mgrwt>
</event>
<event>
12    1  0.2019083E-007  0.1538054E+04  0.7818608E-02  0.8859534E-01
         -2   -1    0    0    0  501 -0.00000000000E+00  0.00000000000E+00  0.12685706017E+04  0.12685706017E+04  0.00000000000E+00 0.  1.
          2   -1    0    0  501    0  0.00000000000E+00 -0.00000000000E+00 -0.46619600313E+03  0.46619600313E+03  0.00000000000E+00 0. -1.
         23    2    1    2    0    0  0.44802532722E+03 -0.88646971626E+02  0.33846429686E+02  0.46655951386E+03  0.89147180337E+02 0.  0.
        254    2    1    2    0    0 -0.44802532722E+03  0.88646971626E+02  0.76852816884E+03  0.12682070909E+04  0.89951581406E+03 0.  0.
        -24    2    4    4    0    0  0.11387084604E+03  0.34941160824E+03  0.36883611878E+03  0.52673744418E+03  0.79732120504E+02 0.  0.
         24    2    4    4    0    0 -0.56189617326E+03 -0.26076463662E+03  0.39969205006E+03  0.74146964673E+03  0.79359920047E+02 0.  0.
         13    1    3    3    0    0  0.20378480654E+03 -0.66471517377E+02 -0.20612321295E+02  0.21534060878E+03  0.00000000000E+00 0. -1.
        -13    1    3    3    0    0  0.24424052068E+03 -0.22175454248E+02  0.54458750981E+02  0.25121890508E+03  0.00000000000E+00 0.  1.
          4    1    6    6  502    0 -0.54288972001E+03 -0.23564415602E+03  0.36869481054E+03  0.69727561242E+03  0.00000000000E+00 0. -1.
          1    1    5    5  503    0  0.56537144748E+02  0.25946682936E+03  0.22756874108E+03  0.34972420018E+03  0.00000000000E+00 0. -1.
         -2    1    5    5    0  503  0.57333701292E+02  0.89944778881E+02  0.14126737770E+03  0.17701324401E+03  0.00000000000E+00 0.  1.
         -3    1    6    6    0  502 -0.19006453247E+02 -0.25120480598E+02  0.30997239527E+02  0.44194034312E+02  0.00000000000E+00 0.  1.
<mgrwt>
<rscale>  0 0.15380540E+04</rscale>
<asrwt>0</asrwt>
<pdfrwt beam="1">  1        2 0.71722462E-01 0.15380540E+04</pdfrwt>
<pdfrwt beam="2">  1       -2 0.19516471E+00 0.15380540E+04</pdfrwt>
<totfact> 0.92007862E+00</totfact>
</mgrwt>
</event>
<event>
12    1  0.2019083E-007  0.1232426E+04  0.7818608E-02  0.9084938E-01
          1   -1    0    0  501    0  0.00000000000E+00  0.00000000000E+00  0.10736809334E+04  0.10736809334E+04  0.00000000000E+00 0.  1.
         -1   -1    0    0    0  501 -0.00000000000E+00 -0.00000000000E+00 -0.35366064353E+03  0.35366064353E+03  0.00000000000E+00 0. -1.
         23    2    1    2    0    0  0.74546881663E+02  0.19620314437E+03  0.37467346663E+03  0.43957187148E+03  0.93756664727E+02 0.  0.
        254    2    1    2    0    0 -0.74546881663E+02 -0.19620314437E+03  0.34534682322E+03  0.98776970541E+03  0.90131662095E+03 0.  0.
        -24    2    4    4    0    0  0.29261794054E+03 -0.36889947051E+03  0.31752754685E+03  0.57344825215E+03  0.79417104080E+02 0.  0.
         24    2    4    4    0    0 -0.36716482220E+03  0.17269632614E+03  0.27819276374E+02  0.41432145326E+03  0.79084301673E+02 0.  0.
         11    1    3    3    0    0 -0.40744807066E+01  0.69926922829E+02  0.18962392462E+03  0.20214749248E+03  0.00000000000E+00 0.  1.
        -11    1    3    3    0    0  0.78621362369E+02  0.12627622154E+03  0.18504954201E+03  0.23742437900E+03  0.00000000000E+00 0. -1.
          2    1    6    6  502    0 -0.34606511148E+03  0.18120487425E+03  0.26241824078E+02  0.39151615696E+03  0.00000000000E+00 0. -1.
          1    1    5    5  503    0  0.22159595118E+03 -0.28846187651E+03  0.20323236934E+03  0.41667543211E+03  0.00000000000E+00 0. -1.
         -2    1    5    5    0  503  0.71021989355E+02 -0.80437593999E+02  0.11429517751E+03  0.15677282004E+03  0.00000000000E+00 0.  1.
         -1    1    6    6    0  502 -0.21099710724E+02 -0.85085481069E+01  0.15774522958E+01  0.22805296298E+02  0.00000000000E+00 0.  1.
<mgrwt>
<rscale>  0 0.12324264E+04</rscale>
<asrwt>0</asrwt>
<pdfrwt beam="1">  1        1 0.16518168E+00 0.12324264E+04</pdfrwt>
<pdfrwt beam="2">  1       -1 0.54409330E-01 0.12324264E+04</pdfrwt>
<totfact> 0.44713678E+01</totfact>
</mgrwt>
</event>
<event>
12    1  0.2019083E-007  0.2090119E+04  0.7818608E-02  0.8565608E-01
         -2   -1    0    0    0  501 -0.00000000000E+00  0.00000000000E+00  0.53772618503E+03  0.53772618503E+03  0.00000000000E+00 0.  1.
          2   -1    0    0  501    0  0.00000000000E+00 -0.00000000000E+00 -0.20310520625E+04  0.20310520625E+04  0.00000000000E+00 0. -1.
         23    2    1    2    0    0  0.34480119620E+03 -0.31456663594E+03  0.26079853786E+03  0.54287329764E+03  0.94103701286E+02 0.  0.
        254    2    1    2    0    0 -0.34480119620E+03  0.31456663594E+03 -0.17541244153E+04  0.20259049498E+04  0.89972127248E+03 0.  0.
        -24    2    4    4    0    0 -0.38694853415E+02 -0.29864437695E+03 -0.40653549729E+03  0.51205474058E+03  0.79013867308E+02 0.  0.
         24    2    4    4    0    0 -0.30610634279E+03  0.61321101289E+03 -0.13475889180E+04  0.15138502093E+04  0.77573995433E+02 0.  0.
         13    1    3    3    0    0  0.11373460344E+03 -0.13018899040E+03  0.50526846974E+02  0.18010467930E+03  0.00000000000E+00 0. -1.
        -13    1    3    3    0    0  0.23106659277E+03 -0.18437764553E+03  0.21027169088E+03  0.36276861834E+03  0.00000000000E+00 0.  1.
          4    1    6    6  502    0 -0.22895906218E+02  0.37651963343E+02 -0.13552719912E+03  0.14251145416E+03  0.00000000000E+00 0. -1.
          3    1    5    5  503    0 -0.38915255390E+02 -0.66564584883E+02 -0.76740082733E+02  0.10878548323E+03  0.00000000000E+00 0. -1.
         -4    1    5    5    0  503  0.22040197527E+00 -0.23207979207E+03 -0.32979541456E+03  0.40326925736E+03  0.00000000000E+00 0.  1.
         -3    1    6    6    0  502 -0.28321043657E+03  0.57555904954E+03 -0.12120617189E+04  0.13713387551E+04  0.00000000000E+00 0.  1.
<mgrwt>
<rscale>  0 0.20901195E+04</rscale>
<asrwt>0</asrwt>
<pdfrwt beam="1">  1        2 0.31246955E+00 0.20901195E+04</pdfrwt>
<pdfrwt beam="2">  1       -2 0.82727104E-01 0.20901195E+04</pdfrwt>
<totfact> 0.75874777E+00</totfact>
</mgrwt>
</event>
<event>
12    1  0.2019083E-007  0.2787636E+04  0.7818608E-02  0.8307117E-01
         -1   -1    0    0    0  501 -0.00000000000E+00  0.00000000000E+00  0.97660248215E+03  0.97660248215E+03  0.00000000000E+00 0.  1.
          1   -1    0    0  501    0  0.00000000000E+00 -0.00000000000E+00 -0.19892728878E+04  0.19892728878E+04  0.00000000000E+00 0. -1.
         23    2    1    2    0    0 -0.11037914733E+04 -0.56941950059E+03 -0.55910817970E+03  0.13652334973E+04  0.93093294168E+02 0.  0.
        254    2    1    2    0    0  0.11037914733E+04  0.56941950059E+03 -0.45356222598E+03  0.16006418726E+04  0.90207623145E+03 0.  0.
        -24    2    4    4    0    0  0.28251125744E+02  0.43628808558E+03 -0.81714843634E+02  0.45199731718E+03  0.80491237669E+02 0.  0.
         24    2    4    4    0    0  0.10755403476E+04  0.13313141501E+03 -0.37184738234E+03  0.11486445555E+04  0.81257775454E+02 0.  0.
         13    1    3    3    0    0 -0.45982556434E+03 -0.23866515897E+03 -0.28377575873E+03  0.59070236919E+03  0.00000000000E+00 0. -1.
        -13    1    3    3    0    0 -0.64396590899E+03 -0.33075434163E+03 -0.27533242097E+03  0.77453112816E+03  0.00000000000E+00 0.  1.
          2    1    6    6  502    0  0.77170205896E+03  0.13151835919E+03 -0.27548998941E+03  0.82988907746E+03  0.00000000000E+00 0. -1.
          3    1    5    5  503    0 -0.16221412714E+02  0.31402583800E+03 -0.56773678384E+02  0.31952873379E+03  0.00000000000E+00 0. -1.
         -4    1    5    5    0  503  0.44472538459E+02  0.12226224759E+03 -0.24941165249E+02  0.13246858339E+03  0.00000000000E+00 0.  1.
         -1    1    6    6    0  502  0.30383828862E+03  0.16130558176E+01 -0.96357392935E+02  0.31875547800E+03  0.00000000000E+00 0.  1.
<mgrwt>
<rscale>  0 0.27876362E+04</rscale>
<asrwt>0</asrwt>
<pdfrwt beam="1">  1        1 0.30604198E+00 0.27876362E+04</pdfrwt>
<pdfrwt beam="2">  1       -1 0.15024654E+00 0.27876362E+04</pdfrwt>
<totfact> 0.91216168E-01</totfact>
</mgrwt>
</event>
<event>
12    1  0.2019083E-007  0.3181481E+04  0.7818608E-02  0.8193725E-01
         -1   -1    0    0    0  501 -0.00000000000E+00  0.00000000000E+00  0.92732837263E+03  0.92732837263E+03  0.00000000000E+00 0.  1.
          1   -1    0    0  501    0  0.00000000000E+00 -0.00000000000E+00 -0.27287584786E+04  0.27287584786E+04  0.00000000000E+00 0. -1.
         23    2    1    2    0    0  0.49136866639E+03  0.11333923352E+04 -0.17282505244E+04  0.21263720277E+04  0.92664843986E+02 0.  0.
        254    2    1    2    0    0 -0.49136866639E+03 -0.11333923352E+04 -0.73179581526E+02  0.15297148235E+04  0.89925015341E+03 0.  0.
        -24    2    4    4    0    0 -0.69826074003E+03 -0.10867361002E+04 -0.11475146314E+03  0.12993851171E+04  0.81672343003E+02 0.  0.
         24    2    4    4    0    0  0.20689207364E+03 -0.46656234908E+02  0.41571881613E+02  0.23032970641E+03  0.79639298853E+02 0.  0.
         11    1    3    3    0    0  0.49756888518E+02  0.64709021569E+02 -0.13435549386E+03  0.15720815550E+03  0.00000000000E+00 0.  1.
        -11    1    3    3    0    0  0.44161177787E+03  0.10686833136E+04 -0.15938950306E+04  0.19691638722E+04  0.00000000000E+00 0. -1.
          4    1    6    6  502    0  0.20356360093E+03 -0.45677771312E+02  0.21239963233E+02  0.20970392093E+03  0.00000000000E+00 0. -1.
          1    1    5    5  503    0 -0.59900881436E+03 -0.88983464316E+03 -0.74617390293E+02  0.10752604367E+04  0.00000000000E+00 0. -1.
         -2    1    5    5    0  503 -0.99251925663E+02 -0.19690145708E+03 -0.40134072847E+02  0.22412468037E+03  0.00000000000E+00 0.  1.
         -3    1    6    6    0  502  0.33284727132E+01 -0.97846359558E+00  0.20331918380E+02  0.20625785479E+02  0.00000000000E+00 0.  1.
<mgrwt>
<rscale>  0 0.31814809E+04</rscale>
<asrwt>0</asrwt>
<pdfrwt beam="1">  1        1 0.41980899E+00 0.31814809E+04</pdfrwt>
<pdfrwt beam="2">  1       -1 0.14266591E+00 0.31814809E+04</pdfrwt>
<totfact> 0.31283680E-01</totfact>
</mgrwt>
</event>
<event>
12    1  0.2019083E-007  0.1714031E+04  0.7818608E-02  0.8753402E-01
          2   -1    0    0  501    0  0.00000000000E+00  0.00000000000E+00  0.54308655214E+03  0.54308655214E+03  0.00000000000E+00 0. -1.
         -2   -1    0    0    0  501 -0.00000000000E+00 -0.00000000000E+00 -0.13524097830E+04  0.13524097830E+04  0.00000000000E+00 0.  1.
         23    2    1    2    0    0 -0.78291807522E+02 -0.15843954928E+03 -0.94811495920E+03  0.96852482669E+03  0.88801273377E+02 0.  0.
        254    2    1    2    0    0  0.78291807522E+02  0.15843954928E+03  0.13879172837E+03  0.92697150842E+03  0.89932215343E+03 0.  0.
        -24    2    4    4    0    0 -0.40461468166E+03  0.93834949740E+02  0.65675371710E+02  0.42810666653E+03  0.80274685111E+02 0.  0.
         24    2    4    4    0    0  0.48290648918E+03  0.64604599543E+02  0.73116356660E+02  0.49886484189E+03  0.78407252771E+02 0.  0.
         13    1    3    3    0    0 -0.50903405353E+02 -0.37471699647E+02 -0.48450765012E+03  0.48861329083E+03  0.00000000000E+00 0. -1.
        -13    1    3    3    0    0 -0.27388402169E+02 -0.12096784964E+03 -0.46360730909E+03  0.47991153587E+03  0.00000000000E+00 0.  1.
          2    1    6    6  502    0  0.21245665881E+03  0.50221206057E+02  0.65499048771E+02  0.22792570456E+03  0.00000000000E+00 0. -1.
          3    1    5    5  503    0 -0.40014001829E+03  0.93874046722E+02  0.52684900542E+02  0.41436707112E+03  0.00000000000E+00 0. -1.
         -4    1    5    5    0  503 -0.44746633739E+01 -0.39096982084E-01  0.12990471168E+02  0.13739595411E+02  0.00000000000E+00 0.  1.
         -1    1    6    6    0  502  0.27044983037E+03  0.14383393486E+02  0.76173078886E+01  0.27093913733E+03  0.00000000000E+00 0.  1.
<mgrwt>
<rscale>  0 0.17140310E+04</rscale>
<asrwt>0</asrwt>
<pdfrwt beam="1">  1        2 0.83551779E-01 0.17140310E+04</pdfrwt>
<pdfrwt beam="2">  1       -2 0.20806304E+00 0.17140310E+04</pdfrwt>
<totfact> 0.62545681E+00</totfact>
</mgrwt>
</event>
<event>
12    1  0.2019083E-007  0.2032510E+04  0.7818608E-02  0.8591570E-01
         -1   -1    0    0    0  501 -0.00000000000E+00  0.00000000000E+00  0.46665118012E+03  0.46665118012E+03  0.00000000000E+00 0.  1.
          1   -1    0    0  501    0  0.00000000000E+00 -0.00000000000E+00 -0.22131613385E+04  0.22131613385E+04  0.00000000000E+00 0. -1.
         23    2    1    2    0    0  0.47897961822E+03  0.56352040450E+03 -0.25378540404E+03  0.78821396195E+03  0.99486167651E+02 0.  0.
        254    2    1    2    0    0 -0.47897961822E+03 -0.56352040450E+03 -0.14927247544E+04  0.18915985567E+04  0.89606985580E+03 0.  0.
        -24    2    4    4    0    0  0.22791271859E+03  0.90719086909E+01 -0.23393935299E+03  0.33638662789E+03  0.80011472483E+02 0.  0.
         24    2    4    4    0    0 -0.70689233681E+03 -0.57259231319E+03 -0.12587854014E+04  0.15552119288E+04  0.81146311155E+02 0.  0.
         13    1    3    3    0    0  0.24356950242E+03  0.35281907200E+03 -0.12069042309E+03  0.44539148881E+03  0.00000000000E+00 0.  1.
        -13    1    3    3    0    0  0.23541011580E+03  0.21070133249E+03 -0.13309498095E+03  0.34282247314E+03  0.00000000000E+00 0. -1.
          2    1    6    6  502    0 -0.53349079845E+03 -0.47496506207E+03 -0.97899901985E+03  0.12118759520E+04  0.00000000000E+00 0. -1.
          3    1    5    5  503    0  0.13134347941E+03  0.10909981013E+01 -0.77907450198E+02  0.15271499814E+03  0.00000000000E+00 0. -1.
         -4    1    5    5    0  503  0.96569239181E+02  0.79809105895E+01 -0.15603190279E+03  0.18367162976E+03  0.00000000000E+00 0.  1.
         -1    1    6    6    0  502 -0.17340153836E+03 -0.97627251120E+02 -0.27978638154E+03  0.34333597680E+03  0.00000000000E+00 0.  1.
<mgrwt>
<rscale>  0 0.20325101E+04</rscale>
<asrwt>0</asrwt>
<pdfrwt beam="1">  1        1 0.34048636E+00 0.20325101E+04</pdfrwt>
<pdfrwt beam="2">  1       -1 0.71792489E-01 0.20325101E+04</pdfrwt>
<totfact> 0.38658782E+00</totfact>
</mgrwt>
</event>
<event>
12    1  0.2019083E-007  0.2027034E+04  0.7818608E-02  0.8594085E-01
          2   -1    0    0  501    0  0.00000000000E+00  0.00000000000E+00  0.97017077842E+03  0.97017077842E+03  0.00000000000E+00 0.  1.
         -2   -1    0    0    0  501 -0.00000000000E+00 -0.00000000000E+00 -0.10587996860E+04  0.10587996860E+04  0.00000000000E+00 0. -1.
         23    2    1    2    0    0  0.51145560231E+03 -0.43375605408E+03  0.41543952169E+03  0.79416066648E+03  0.91487815700E+02 0.  0.
        254    2    1    2    0    0 -0.51145560231E+03  0.43375605408E+03 -0.50406842922E+03  0.12348097979E+04  0.90605690111E+03 0.  0.
        -24    2    4    4    0    0  0.15427005460E+03  0.41449337599E+03 -0.27085699326E+03  0.52508909364E+03  0.82164694218E+02 0.  0.
         24    2    4    4    0    0 -0.66572565691E+03  0.19262678088E+02 -0.23321143596E+03  0.70972070426E+03  0.75856464129E+02 0.  0.
         13    1    3    3    0    0  0.33780647350E+03 -0.25248660735E+03  0.30187611068E+03  0.51864427754E+03  0.00000000000E+00 0.  1.
        -13    1    3    3    0    0  0.17364912882E+03 -0.18126944673E+03  0.11356341101E+03  0.27551638894E+03  0.00000000000E+00 0. -1.
          2    1    6    6  502    0 -0.50296793488E+03 -0.17986559040E+02 -0.17117291417E+03  0.53160175542E+03  0.00000000000E+00 0. -1.
          1    1    5    5  503    0  0.16176824225E+03  0.35887884285E+03 -0.23401854583E+03  0.45796033435E+03  0.00000000000E+00 0. -1.
         -2    1    5    5    0  503 -0.74981876546E+01  0.55614533141E+02 -0.36838447431E+02  0.67128759290E+02  0.00000000000E+00 0.  1.
         -1    1    6    6    0  502 -0.16275772204E+03  0.37249237129E+02 -0.62038521790E+02  0.17811894884E+03  0.00000000000E+00 0.  1.
<mgrwt>
<rscale>  0 0.20270338E+04</rscale>
<asrwt>0</asrwt>
<pdfrwt beam="1">  1        2 0.14925704E+00 0.20270338E+04</pdfrwt>
<pdfrwt beam="2">  1       -2 0.16289226E+00 0.20270338E+04</pdfrwt>
<totfact> 0.58543596E+00</totfact>
</mgrwt>
</event>
<event>
12    1  0.2019083E-007  0.1118407E+04  0.7818608E-02  0.9187434E-01
          1   -1    0    0  501    0  0.00000000000E+00  0.00000000000E+00  0.14702055293E+04  0.14702055293E+04  0.00000000000E+00 0. -1.
         -1   -1    0    0    0  501 -0.00000000000E+00 -0.00000000000E+00 -0.21269727292E+03  0.21269727292E+03  0.00000000000E+00 0.  1.
         23    2    1    2    0    0  0.12257074563E+01 -0.17495768810E+03  0.28101630471E+03  0.34328979147E+03  0.90917668392E+02 0.  0.
        254    2    1    2    0    0 -0.12257074563E+01  0.17495768810E+03  0.97649195170E+03  0.13396130108E+04  0.90023041049E+03 0.  0.
        -24    2    4    4    0    0 -0.13864934864E+03  0.11107105540E+03 -0.12050660421E+03  0.22930144846E+03  0.80603296363E+02 0.  0.
         24    2    4    4    0    0  0.13742364118E+03  0.63886632699E+02  0.10969985559E+04  0.11103115623E+04  0.80119752816E+02 0.  0.
         11    1    3    3    0    0 -0.29132431665E+02 -0.15883274957E+03  0.24562288184E+03  0.29395091596E+03  0.00000000000E+00 0. -1.
        -11    1    3    3    0    0  0.30358139121E+02 -0.16124938533E+02  0.35393422871E+02  0.49338875505E+02  0.00000000000E+00 0.  1.
          4    1    6    6  502    0  0.90437282305E+01  0.30818343451E+02  0.36456743047E+03  0.36597946755E+03  0.00000000000E+00 0. -1.
          3    1    5    5  503    0 -0.13187306445E+03  0.11425428165E+03 -0.12972647356E+03  0.21742470868E+03  0.00000000000E+00 0. -1.
         -4    1    5    5    0  503 -0.67762841928E+01 -0.31832262504E+01  0.92198693596E+01  0.11876739781E+02  0.00000000000E+00 0.  1.
         -3    1    6    6    0  502  0.12837991295E+03  0.33068289249E+02  0.73243112544E+03  0.74433209478E+03  0.00000000000E+00 0.  1.
<mgrwt>
<rscale>  0 0.11184073E+04</rscale>
<asrwt>0</asrwt>
<pdfrwt beam="1">  1        1 0.22618546E+00 0.11184073E+04</pdfrwt>
<pdfrwt beam="2">  1       -1 0.32722658E-01 0.11184073E+04</pdfrwt>
<totfact> 0.59739144E+01</totfact>
</mgrwt>
</event>
<event>
12    1  0.2019083E-007  0.2715237E+04  0.7818608E-02  0.8330078E-01
         -1   -1    0    0    0  501 -0.00000000000E+00  0.00000000000E+00  0.21018951107E+04  0.21018951107E+04  0.00000000000E+00 0.  1.
          1   -1    0    0  501    0  0.00000000000E+00 -0.00000000000E+00 -0.87688848528E+03  0.87688848528E+03  0.00000000000E+00 0. -1.
         23    2    1    2    0    0  0.54845311887E+03 -0.10222330232E+04  0.18215050655E+03  0.11778292899E+04  0.91333738092E+02 0.  0.
        254    2    1    2    0    0 -0.54845311887E+03  0.10222330232E+04  0.10428561189E+04  0.18009543061E+04  0.90007019213E+03 0.  0.
        -24    2    4    4    0    0  0.16684517525E+03  0.70288759931E+02 -0.25255445628E+02  0.19943377156E+03  0.79738130329E+02 0.  0.
         24    2    4    4    0    0 -0.71529829412E+03  0.95194426326E+03  0.10681115645E+04  0.16015205346E+04  0.78461318311E+02 0.  0.
         13    1    3    3    0    0  0.20056509673E+03 -0.41023312570E+03  0.11343827479E+03  0.47051654342E+03  0.00000000000E+00 0.  1.
        -13    1    3    3    0    0  0.34788802214E+03 -0.61199989749E+03  0.68712231760E+02  0.70731274644E+03  0.00000000000E+00 0. -1.
          4    1    6    6  502    0 -0.17900328591E+03  0.19517913101E+03  0.21105712262E+03  0.33864757279E+03  0.00000000000E+00 0. -1.
          3    1    5    5  503    0 -0.97305763803E+00  0.19581227500E+01  0.13886949427E+02  0.14058038635E+02  0.00000000000E+00 0. -1.
         -4    1    5    5    0  503  0.16781823289E+03  0.68330637181E+02 -0.39142395055E+02  0.18537573293E+03  0.00000000000E+00 0.  1.
         -1    1    6    6    0  502 -0.53629500821E+03  0.75676513225E+03  0.85705444186E+03  0.12628729618E+04  0.00000000000E+00 0.  1.
<mgrwt>
<rscale>  0 0.27152367E+04</rscale>
<asrwt>0</asrwt>
<pdfrwt beam="1">  1        1 0.13490592E+00 0.27152367E+04</pdfrwt>
<pdfrwt beam="2">  1       -1 0.32336848E+00 0.27152367E+04</pdfrwt>
<totfact> 0.38576675E-01</totfact>
</mgrwt>
</event>
<event>
12    1  0.2019083E-007  0.2460986E+04  0.7818608E-02  0.8417018E-01
         -4   -1    0    0    0  501 -0.00000000000E+00  0.00000000000E+00  0.10338544343E+04  0.10338544343E+04  0.00000000000E+00 0. -1.
          4   -1    0    0  501    0  0.00000000000E+00 -0.00000000000E+00 -0.14645317158E+04  0.14645317158E+04  0.00000000000E+00 0.  1.
         23    2    1    2    0    0  0.81299504960E+03  0.39388214799E+03 -0.75437466066E+03  0.11804566785E+04  0.91064505016E+02 0.  0.
        254    2    1    2    0    0 -0.81299504960E+03 -0.39388214799E+03  0.32369737910E+03  0.13179294716E+04  0.90335707315E+03 0.  0.
        -24    2    4    4    0    0 -0.75481859815E+03 -0.24118576215E+03  0.59333123224E+03  0.99310940201E+03  0.79389200990E+02 0.  0.
         24    2    4    4    0    0 -0.58176451452E+02 -0.15269638584E+03 -0.26963385314E+03  0.32482006956E+03  0.78134352721E+02 0.  0.
         11    1    3    3    0    0  0.46517136173E+03  0.23689813479E+03 -0.49214615344E+03  0.71743498548E+03  0.00000000000E+00 0.  1.
        -11    1    3    3    0    0  0.34782368787E+03  0.15698401321E+03 -0.26222850722E+03  0.46302169306E+03  0.00000000000E+00 0. -1.
          2    1    6    6  502    0  0.10358623981E+01  0.75263237952E+01 -0.27286819020E+02  0.28324707465E+02  0.00000000000E+00 0. -1.
          1    1    5    5  503    0 -0.17083255126E+03 -0.25254025484E+02  0.10810351551E+03  0.20373486800E+03  0.00000000000E+00 0. -1.
         -2    1    5    5    0  503 -0.58398604689E+03 -0.21593173667E+03  0.48522771673E+03  0.78937453401E+03  0.00000000000E+00 0.  1.
         -1    1    6    6    0  502 -0.59212313850E+02 -0.16022270964E+03 -0.24234703412E+03  0.29649536209E+03  0.00000000000E+00 0.  1.
<mgrwt>
<rscale>  0 0.24609857E+04</rscale>
<asrwt>0</asrwt>
<pdfrwt beam="1">  1        4 0.22531257E+00 0.24609857E+04</pdfrwt>
<pdfrwt beam="2">  1       -4 0.15905453E+00 0.24609857E+04</pdfrwt>
<totfact> 0.40963972E-02</totfact>
</mgrwt>
</event>
<event>
12    1  0.2019083E-007  0.1490533E+04  0.7818608E-02  0.8890773E-01
         -4   -1    0    0    0  501 -0.00000000000E+00  0.00000000000E+00  0.22162534099E+03  0.22162534099E+03  0.00000000000E+00 0.  1.
          4   -1    0    0  501    0  0.00000000000E+00 -0.00000000000E+00 -0.25061318343E+04  0.25061318343E+04  0.00000000000E+00 0. -1.
         23    2    1    2    0    0 -0.15048278007E+03 -0.63476268984E+02  0.61404247850E+02  0.20999307151E+03  0.11684307684E+03 0.  0.
        254    2    1    2    0    0  0.15048278007E+03  0.63476268984E+02 -0.23459107411E+04  0.25177641037E+04  0.89953575414E+03 0.  0.
        -24    2    4    4    0    0 -0.32334837349E+02  0.45890897267E+02 -0.23126638706E+04  0.23149301547E+04  0.85650021576E+02 0.  0.
         24    2    4    4    0    0  0.18281761742E+03  0.17585371717E+02 -0.33246870474E+02  0.20283394909E+03  0.79402329748E+02 0.  0.
         13    1    3    3    0    0 -0.16249193188E+02  0.20357669262E+02  0.43526141399E+02  0.50724707610E+02  0.00000000000E+00 0.  1.
        -13    1    3    3    0    0 -0.13423358688E+03 -0.83833938246E+02  0.17878106452E+02  0.15926836390E+03  0.00000000000E+00 0. -1.
          2    1    6    6  502    0  0.13398294934E+02 -0.13897779023E+02 -0.23256821789E+02  0.30224862756E+02  0.00000000000E+00 0. -1.
          3    1    5    5  503    0 -0.97901443571E+01  0.52522823793E+02 -0.67949334863E+03  0.68159056976E+03  0.00000000000E+00 0. -1.
         -4    1    5    5    0  503 -0.22544692992E+02 -0.66319265263E+01 -0.16331705220E+04  0.16333395849E+04  0.00000000000E+00 0.  1.
         -1    1    6    6    0  502  0.16941932248E+03  0.31483150740E+02 -0.99900486851E+01  0.17260908633E+03  0.00000000000E+00 0.  1.
<mgrwt>
<rscale>  0 0.14905332E+04</rscale>
<asrwt>0</asrwt>
<pdfrwt beam="1">  1        4 0.38555877E+00 0.14905332E+04</pdfrwt>
<pdfrwt beam="2">  1       -4 0.34096204E-01 0.14905332E+04</pdfrwt>
<totfact> 0.14116136E-01</totfact>
</mgrwt>
</event>
<event>
12    1  0.2019083E-007  0.3974676E+04  0.7818608E-02  0.8009675E-01
          2   -1    0    0  501    0  0.00000000000E+00  0.00000000000E+00  0.12013967553E+04  0.12013967553E+04  0.00000000000E+00 0. -1.
         -2   -1    0    0    0  501 -0.00000000000E+00 -0.00000000000E+00 -0.32874342111E+04  0.32874342111E+04  0.00000000000E+00 0.  1.
         23    2    1    2    0    0  0.14106465455E+04 -0.54435535527E+03 -0.22594169935E+04  0.27203542714E+04  0.95476605879E+02 0.  0.
        254    2    1    2    0    0 -0.14106465455E+04  0.54435535527E+03  0.17337953768E+03  0.17684766950E+04  0.90066804524E+03 0.  0.
        -24    2    4    4    0    0 -0.32222252764E+03 -0.21937095662E+03 -0.96373152716E+02  0.40943717157E+03  0.80000243561E+02 0.  0.
         24    2    4    4    0    0 -0.10884240178E+04  0.76372631189E+03  0.26975269040E+03  0.13590395234E+04  0.79228721346E+02 0.  0.
         11    1    3    3    0    0  0.78671853883E+03 -0.26577550946E+03 -0.12964480149E+04  0.15395908989E+04  0.00000000000E+00 0. -1.
        -11    1    3    3    0    0  0.62392800662E+03 -0.27857984581E+03 -0.96296897868E+03  0.11807633725E+04  0.00000000000E+00 0.  1.
          2    1    6    6  502    0 -0.82363212604E+02  0.57884205846E+02 -0.65296034798E+00  0.10067127909E+03  0.00000000000E+00 0. -1.
          3    1    5    5  503    0 -0.78327921117E+02 -0.47068917492E+02 -0.58315369760E+02  0.10840400625E+03  0.00000000000E+00 0. -1.
         -4    1    5    5    0  503 -0.24389460653E+03 -0.17230203913E+03 -0.38057782956E+02  0.30103316532E+03  0.00000000000E+00 0.  1.
         -1    1    6    6    0  502 -0.10060608052E+04  0.70584210604E+03  0.27040565075E+03  0.12583682443E+04  0.00000000000E+00 0.  1.
<mgrwt>
<rscale>  0 0.39746762E+04</rscale>
<asrwt>0</asrwt>
<pdfrwt beam="1">  1        2 0.18483027E+00 0.39746762E+04</pdfrwt>
<pdfrwt beam="2">  1       -2 0.50575911E+00 0.39746762E+04</pdfrwt>
<totfact> 0.22743988E-02</totfact>
</mgrwt>
</event>
<event>
12    1  0.2019083E-007  0.1222018E+04  0.7818608E-02  0.9093800E-01
          2   -1    0    0  501    0  0.00000000000E+00  0.00000000000E+00  0.17816169436E+04  0.17816169436E+04  0.00000000000E+00 0. -1.
         -2   -1    0    0    0  501 -0.00000000000E+00 -0.00000000000E+00 -0.20954658133E+03  0.20954658133E+03  0.00000000000E+00 0.  1.
         23    2    1    2    0    0  0.19314778066E+03  0.14217059265E+03  0.55183719071E+03  0.60858694242E+03  0.91297529238E+02 0.  0.
        254    2    1    2    0    0 -0.19314778066E+03 -0.14217059265E+03  0.10202331716E+04  0.13825765825E+04  0.90173374095E+03 0.  0.
        -24    2    4    4    0    0 -0.10732745465E+02 -0.84836136302E+02 -0.15209849819E+03  0.19210728000E+03  0.80367232296E+02 0.  0.
         24    2    4    4    0    0 -0.18241503520E+03 -0.57334456349E+02  0.11723316698E+04  0.11904693025E+04  0.79329259267E+02 0.  0.
         11    1    3    3    0    0  0.94449055913E+02  0.86300516378E+02  0.18738399817E+03  0.22689461444E+03  0.00000000000E+00 0.  1.
        -11    1    3    3    0    0  0.98698724750E+02  0.55870076274E+02  0.36445319254E+03  0.38169232798E+03  0.00000000000E+00 0. -1.
          2    1    6    6  502    0 -0.12927650801E+03 -0.64809566589E+00  0.72093749240E+03  0.73243682560E+03  0.00000000000E+00 0. -1.
          1    1    5    5  503    0 -0.44204922467E+01 -0.57310884513E+02 -0.26360864966E+02  0.63237436990E+02  0.00000000000E+00 0. -1.
         -2    1    5    5    0  503 -0.63122532184E+01 -0.27525251790E+02 -0.12573763323E+03  0.12886984301E+03  0.00000000000E+00 0.  1.
         -1    1    6    6    0  502 -0.53138527193E+02 -0.56686360683E+02  0.45139417735E+03  0.45803247691E+03  0.00000000000E+00 0.  1.
<mgrwt>
<rscale>  0 0.12220176E+04</rscale>
<asrwt>0</asrwt>
<pdfrwt beam="1">  1        2 0.27409490E+00 0.12220176E+04</pdfrwt>
<pdfrwt beam="2">  1       -2 0.32237937E-01 0.12220176E+04</pdfrwt>
<totfact> 0.77981458E+01</totfact>
</mgrwt>
</event>
<event>
12    1  0.2019083E-007  0.1525853E+04  0.7818608E-02  0.8867441E-01
          1   -1    0    0  501    0  0.00000000000E+00  0.00000000000E+00  0.74344880979E+03  0.74344880979E+03  0.00000000000E+00 0. -1.
         -1   -1    0    0    0  501 -0.00000000000E+00 -0.00000000000E+00 -0.78291410944E+03  0.78291410944E+03  0.00000000000E+00 0.  1.
         23    2    1    2    0    0 -0.55866264786E+02  0.29909112003E+03 -0.39446535391E+03  0.51313119625E+03  0.12298037040E+03 0.  0.
        254    2    1    2    0    0  0.55866264786E+02 -0.29909112003E+03  0.35500005427E+03  0.10132317230E+04  0.89890875416E+03 0.  0.
        -24    2    4    4    0    0  0.23841547413E+03  0.10026334274E+03  0.47887788838E+03  0.55008918580E+03  0.79871172212E+02 0.  0.
         24    2    4    4    0    0 -0.18254920935E+03 -0.39935446277E+03 -0.12387783411E+03  0.46314253718E+03  0.79668633716E+02 0.  0.
         11    1    3    3    0    0  0.36023372192E+02  0.79852387472E+02 -0.77750222656E+02  0.11712892150E+03  0.00000000000E+00 0. -1.
        -11    1    3    3    0    0 -0.91889636978E+02  0.21923873256E+03 -0.31671513126E+03  0.39600227475E+03  0.00000000000E+00 0.  1.
          2    1    6    6  502    0 -0.85371044707E+02 -0.11590345513E+03 -0.64166527733E+02  0.15760447159E+03  0.00000000000E+00 0. -1.
          3    1    5    5  503    0  0.80316751608E+02 -0.42430219416E+01  0.12453770286E+03  0.14825121672E+03  0.00000000000E+00 0. -1.
         -4    1    5    5    0  503  0.15809872253E+03  0.10450636468E+03  0.35434018552E+03  0.40183796908E+03  0.00000000000E+00 0.  1.
         -1    1    6    6    0  502 -0.97178164641E+02 -0.28345100764E+03 -0.59711306376E+02  0.30553806559E+03  0.00000000000E+00 0.  1.
<mgrwt>
<rscale>  0 0.15258526E+04</rscale>
<asrwt>0</asrwt>
<pdfrwt beam="1">  1        1 0.11437674E+00 0.15258526E+04</pdfrwt>
<pdfrwt beam="2">  1       -1 0.12044832E+00 0.15258526E+04</pdfrwt>
<totfact> 0.14708099E+01</totfact>
</mgrwt>
</event>
<event>
12    1  0.2019083E-007  0.1164917E+04  0.7818608E-02  0.9144131E-01
          2   -1    0    0  501    0  0.00000000000E+00  0.00000000000E+00  0.18030027762E+04  0.18030027762E+04  0.00000000000E+00 0. -1.
         -2   -1    0    0    0  501 -0.00000000000E+00 -0.00000000000E+00 -0.18816278703E+03  0.18816278703E+03  0.00000000000E+00 0.  1.
         23    2    1    2    0    0 -0.37581370836E+02 -0.15800769999E+01 -0.43787988754E+02  0.10808004170E+03  0.91373143634E+02 0.  0.
        254    2    1    2    0    0  0.37581370836E+02  0.15800769999E+01  0.16586279779E+04  0.18830855215E+04  0.89081392904E+03 0.  0.
        -24    2    4    4    0    0 -0.30480776755E+03 -0.25737711475E+03  0.50085825144E+03  0.64537490848E+03  0.80616562245E+02 0.  0.
         24    2    4    4    0    0  0.34238913838E+03  0.25895719175E+03  0.11577697264E+04  0.12377106130E+04  0.84898014494E+02 0.  0.
         13    1    3    3    0    0 -0.17805993992E+02  0.38901452901E+02  0.33003680293E+01  0.42910009193E+02  0.00000000000E+00 0. -1.
        -13    1    3    3    0    0 -0.19775376844E+02 -0.40481529900E+02 -0.47088356783E+02  0.65170032507E+02  0.00000000000E+00 0.  1.
          4    1    6    6  502    0  0.52351306210E+02  0.59406269609E+02  0.30539535207E+03  0.31549339961E+03  0.00000000000E+00 0. -1.
          3    1    5    5  503    0 -0.43681231567E+02 -0.77879165627E+02  0.93528430922E+02  0.12930886211E+03  0.00000000000E+00 0. -1.
         -4    1    5    5    0  503 -0.26112653598E+03 -0.17949794912E+03  0.40732982051E+03  0.51606604637E+03  0.00000000000E+00 0.  1.
         -3    1    6    6    0  502  0.29003783217E+03  0.19955092214E+03  0.85237437438E+03  0.92221721342E+03  0.00000000000E+00 0.  1.
<mgrwt>
<rscale>  0 0.11649172E+04</rscale>
<asrwt>0</asrwt>
<pdfrwt beam="1">  1        2 0.27738503E+00 0.11649172E+04</pdfrwt>
<pdfrwt beam="2">  1       -2 0.28948122E-01 0.11649172E+04</pdfrwt>
<totfact> 0.93195164E+01</totfact>
</mgrwt>
</event>
<event>
12    1  0.2019083E-007  0.1904339E+04  0.7818608E-02  0.8652700E-01
         -2   -1    0    0    0  501 -0.00000000000E+00  0.00000000000E+00  0.81752436892E+03  0.81752436892E+03  0.00000000000E+00 0.  1.
          2   -1    0    0  501    0  0.00000000000E+00 -0.00000000000E+00 -0.11089900748E+04  0.11089900748E+04  0.00000000000E+00 0. -1.
         23    2    1    2    0    0 -0.40723269674E+03 -0.54867923122E+03  0.16091855689E+03  0.70790718127E+03  0.91380672345E+02 0.  0.
        254    2    1    2    0    0  0.40723269674E+03  0.54867923122E+03 -0.45238426273E+03  0.12186072624E+04  0.90192281863E+03 0.  0.
        -24    2    4    4    0    0  0.31325119554E+03  0.71979111099E+03 -0.57378458630E+03  0.97560942953E+03  0.79746175792E+02 0.  0.
         24    2    4    4    0    0  0.93981501197E+02 -0.17111187976E+03  0.12140032357E+03  0.24299783288E+03  0.78728077953E+02 0.  0.
         11    1    3    3    0    0 -0.22766164514E+03 -0.36281376473E+03  0.13001938114E+03  0.44762561591E+03  0.00000000000E+00 0.  1.
        -11    1    3    3    0    0 -0.17957105160E+03 -0.18586546649E+03  0.30899175751E+02  0.26028156536E+03  0.00000000000E+00 0. -1.
          2    1    6    6  502    0  0.81943031714E+02 -0.70811175194E+02  0.75619258089E+02  0.13208767987E+03  0.00000000000E+00 0. -1.
          1    1    5    5  503    0  0.87035365836E+02  0.12633320056E+03 -0.97870459106E+02  0.18197213863E+03  0.00000000000E+00 0. -1.
         -2    1    5    5    0  503  0.22621582971E+03  0.59345791042E+03 -0.47591412719E+03  0.79363729090E+03  0.00000000000E+00 0.  1.
         -1    1    6    6    0  502  0.12038469483E+02 -0.10030070457E+03  0.45781065477E+02  0.11091015301E+03  0.00000000000E+00 0.  1.
<mgrwt>
<rscale>  0 0.19043386E+04</rscale>
<asrwt>0</asrwt>
<pdfrwt beam="1">  1        2 0.17061386E+00 0.19043386E+04</pdfrwt>
<pdfrwt beam="2">  1       -2 0.12577298E+00 0.19043386E+04</pdfrwt>
<totfact> 0.95084036E+00</totfact>
</mgrwt>
</event>
<event>
12    1  0.2019083E-007  0.2628256E+04  0.7818608E-02  0.8358666E-01
          1   -1    0    0  501    0  0.00000000000E+00  0.00000000000E+00  0.12771008851E+04  0.12771008851E+04  0.00000000000E+00 0. -1.
         -1   -1    0    0    0  501 -0.00000000000E+00 -0.00000000000E+00 -0.13522287482E+04  0.13522287482E+04  0.00000000000E+00 0.  1.
         23    2    1    2    0    0  0.10489830346E+04 -0.22287003143E+03  0.40132869739E+03  0.11486015636E+04  0.90467512634E+02 0.  0.
        254    2    1    2    0    0 -0.10489830346E+04  0.22287003143E+03 -0.47645656058E+03  0.14807280697E+04  0.90305498417E+03 0.  0.
        -24    2    4    4    0    0 -0.56879009062E+03  0.70858819942E+02 -0.71307019908E+03  0.91841335627E+03  0.80441560121E+02 0.  0.
         24    2    4    4    0    0 -0.48019294397E+03  0.15201121149E+03  0.23661363850E+03  0.56231471341E+03  0.80741260438E+02 0.  0.
         13    1    3    3    0    0  0.11651560134E+03 -0.73709921605E+01  0.68352746354E+02  0.13528604812E+03  0.00000000000E+00 0. -1.
        -13    1    3    3    0    0  0.93246743325E+03 -0.21549903927E+03  0.33297595104E+03  0.10133155155E+04  0.00000000000E+00 0.  1.
          4    1    6    6  502    0 -0.61248425510E+02  0.92365597860E+01  0.58551700557E+02  0.85234883130E+02  0.00000000000E+00 0. -1.
          1    1    5    5  503    0 -0.23933020257E+03  0.16896315119E+02 -0.35877824515E+03  0.43160892081E+03  0.00000000000E+00 0. -1.
         -2    1    5    5    0  503 -0.32945988805E+03  0.53962504823E+02 -0.35429195393E+03  0.48680443546E+03  0.00000000000E+00 0.  1.
         -3    1    6    6    0  502 -0.41894451846E+03  0.14277465170E+03  0.17806193795E+03  0.47707983028E+03  0.00000000000E+00 0.  1.
<mgrwt>
<rscale>  0 0.26282561E+04</rscale>
<asrwt>0</asrwt>
<pdfrwt beam="1">  1        1 0.19647706E+00 0.26282561E+04</pdfrwt>
<pdfrwt beam="2">  1       -1 0.20803519E+00 0.26282561E+04</pdfrwt>
<totfact> 0.10942716E+00</totfact>
</mgrwt>
</event>
<event>
12    1  0.2019083E-007  0.1904917E+04  0.7818608E-02  0.8652413E-01
         -1   -1    0    0    0  501 -0.00000000000E+00  0.00000000000E+00  0.77608068896E+03  0.77608068896E+03  0.00000000000E+00 0.  1.
          1   -1    0    0  501    0  0.00000000000E+00 -0.00000000000E+00 -0.11689212878E+04  0.11689212878E+04  0.00000000000E+00 0. -1.
         23    2    1    2    0    0 -0.56886072872E+03  0.26982697076E+03 -0.54167698651E+03  0.83566330663E+03  0.92250103038E+02 0.  0.
        254    2    1    2    0    0  0.56886072872E+03 -0.26982697076E+03  0.14883638771E+03  0.11093386701E+04  0.90114976104E+03 0.  0.
        -24    2    4    4    0    0 -0.21178792958E+03 -0.20034856140E+03 -0.23334355581E+02  0.30305636266E+03  0.79403989987E+02 0.  0.
         24    2    4    4    0    0  0.78064865830E+03 -0.69478409357E+02  0.17217074329E+03  0.80628230743E+03  0.78796049060E+02 0.  0.
         11    1    3    3    0    0 -0.22133892323E+03  0.80023516573E+02 -0.25357794493E+03  0.34597175650E+03  0.00000000000E+00 0. -1.
        -11    1    3    3    0    0 -0.34752180549E+03  0.18980345418E+03 -0.28809904158E+03  0.48969155013E+03  0.00000000000E+00 0.  1.
          2    1    6    6  502    0  0.41398020365E+03 -0.68830216129E+02  0.11543441618E+03  0.43524971235E+03  0.00000000000E+00 0. -1.
          3    1    5    5  503    0 -0.20032851420E+03 -0.18625730874E+03 -0.42307733479E+02  0.27679097343E+03  0.00000000000E+00 0. -1.
         -4    1    5    5    0  503 -0.11459415381E+02 -0.14091252663E+02  0.18973377898E+02  0.26265389229E+02  0.00000000000E+00 0.  1.
         -1    1    6    6    0  502  0.36666845465E+03 -0.64819322876E+00  0.56736327115E+02  0.37103259507E+03  0.00000000000E+00 0.  1.
<mgrwt>
<rscale>  0 0.19049170E+04</rscale>
<asrwt>0</asrwt>
<pdfrwt beam="1">  1        1 0.17983404E+00 0.19049170E+04</pdfrwt>
<pdfrwt beam="2">  1       -1 0.11939703E+00 0.19049170E+04</pdfrwt>
<totfact> 0.66028666E+00</totfact>
</mgrwt>
</event>
<event>
12    1  0.2019083E-007  0.2464842E+04  0.7818608E-02  0.8415619E-01
         -1   -1    0    0    0  501 -0.00000000000E+00  0.00000000000E+00  0.10304772171E+04  0.10304772171E+04  0.00000000000E+00 0. -1.
          1   -1    0    0  501    0  0.00000000000E+00 -0.00000000000E+00 -0.14739402119E+04  0.14739402119E+04  0.00000000000E+00 0.  1.
         23    2    1    2    0    0 -0.54886690045E+03  0.91258912666E+03 -0.17520697925E+03  0.10830609151E+04  0.90827704095E+02 0.  0.
        254    2    1    2    0    0  0.54886690045E+03 -0.91258912666E+03 -0.26825601549E+03  0.14213565139E+04  0.90234098939E+03 0.  0.
        -24    2    4    4    0    0  0.30285952744E+03 -0.20908843320E+03 -0.50967066303E+03  0.63368596073E+03  0.79698468090E+02 0.  0.
         24    2    4    4    0    0  0.24600737301E+03 -0.70350069345E+03  0.24141464754E+03  0.78767055312E+03  0.81920784572E+02 0.  0.
         13    1    3    3    0    0 -0.31243022675E+03  0.45090214226E+03 -0.11892066707E+03  0.56130875064E+03  0.00000000000E+00 0.  1.
        -13    1    3    3    0    0 -0.23643667370E+03  0.46168698440E+03 -0.56286312181E+02  0.52175216451E+03  0.00000000000E+00 0. -1.
          4    1    6    6  502    0  0.18283742900E+03 -0.60373404360E+03  0.21696618842E+03  0.66708218966E+03  0.00000000000E+00 0. -1.
          3    1    5    5  503    0  0.21981159483E+03 -0.10559666352E+03 -0.32918749923E+03  0.40967328717E+03  0.00000000000E+00 0. -1.
         -4    1    5    5    0  503  0.83047932609E+02 -0.10349176968E+03 -0.18048316380E+03  0.22401267356E+03  0.00000000000E+00 0.  1.
         -3    1    6    6    0  502  0.63169944010E+02 -0.99766649860E+02  0.24448459120E+02  0.12058836347E+03  0.00000000000E+00 0.  1.
<mgrwt>
<rscale>  0 0.24648422E+04</rscale>
<asrwt>0</asrwt>
<pdfrwt beam="1">  1        1 0.22676003E+00 0.24648422E+04</pdfrwt>
<pdfrwt beam="2">  1       -1 0.15853496E+00 0.24648422E+04</pdfrwt>
<totfact> 0.18223474E+00</totfact>
</mgrwt>
</event>
<event>
12    1  0.2019083E-007  0.2379819E+04  0.7818608E-02  0.8447098E-01
         -2   -1    0    0    0  501 -0.00000000000E+00  0.00000000000E+00  0.85154584885E+03  0.85154584885E+03  0.00000000000E+00 0.  1.
          2   -1    0    0  501    0  0.00000000000E+00 -0.00000000000E+00 -0.16627221679E+04  0.16627221679E+04  0.00000000000E+00 0. -1.
         23    2    1    2    0    0  0.15209588631E+03  0.86134879738E+03  0.20076825618E+03  0.90191618321E+03  0.89944424364E+02 0.  0.
        254    2    1    2    0    0 -0.15209588631E+03 -0.86134879738E+03 -0.10119445752E+04  0.16123518335E+04  0.90032866352E+03 0.  0.
        -24    2    4    4    0    0  0.42985134160E+02  0.30917138309E+02 -0.59751674859E+03  0.60642923249E+03  0.89031219038E+02 0.  0.
         24    2    4    4    0    0 -0.19508102047E+03 -0.89226593568E+03 -0.41442782659E+03  0.10059226010E+04  0.77037336643E+02 0.  0.
         13    1    3    3    0    0  0.11042074039E+03  0.50748395374E+03  0.78762776773E+02  0.52529637179E+03  0.00000000000E+00 0. -1.
        -13    1    3    3    0    0  0.41675145923E+02  0.35386484363E+03  0.12200547940E+03  0.37661981142E+03  0.00000000000E+00 0.  1.
          4    1    6    6  502    0 -0.15771578287E+03 -0.66424693189E+03 -0.34326211693E+03  0.76415125179E+03  0.00000000000E+00 0. -1.
          1    1    5    5  503    0 -0.11828308189E+02  0.37908612862E+02 -0.13793815634E+03  0.14354061020E+03  0.00000000000E+00 0. -1.
         -2    1    5    5    0  503  0.54813442348E+02 -0.69914745530E+01 -0.45957859226E+03  0.46288862228E+03  0.00000000000E+00 0.  1.
         -1    1    6    6    0  502 -0.37365237604E+02 -0.22801900379E+03 -0.71165709663E+02  0.24177134922E+03  0.00000000000E+00 0.  1.
<mgrwt>
<rscale>  0 0.23798186E+04</rscale>
<asrwt>0</asrwt>
<pdfrwt beam="1">  1        2 0.25580341E+00 0.23798186E+04</pdfrwt>
<pdfrwt beam="2">  1       -2 0.13100705E+00 0.23798186E+04</pdfrwt>
<totfact> 0.39468018E+00</totfact>
</mgrwt>
</event>
<event>
12    1  0.2019083E-007  0.1627967E+04  0.7818608E-02  0.8803549E-01
         -2   -1    0    0    0  501 -0.00000000000E+00  0.00000000000E+00  0.38359794937E+03  0.38359794937E+03  0.00000000000E+00 0. -1.
          2   -1    0    0  501    0  0.00000000000E+00 -0.00000000000E+00 -0.17272490482E+04  0.17272490482E+04  0.00000000000E+00 0.  1.
         23    2    1    2    0    0 -0.51267980504E+03 -0.65792667985E+02 -0.74716177725E+03  0.91295381225E+03  0.89803587095E+02 0.  0.
        254    2    1    2    0    0  0.51267980504E+03  0.65792667985E+02 -0.59648932159E+03  0.11978931853E+04  0.90109894853E+03 0.  0.
        -24    2    4    4    0    0  0.14799745876E+02 -0.25017018579E+03  0.10064592422E+03  0.28162103913E+03  0.79853949679E+02 0.  0.
         24    2    4    4    0    0  0.49788005917E+03  0.31596285378E+03 -0.69713524581E+03  0.91627214621E+03  0.76420001888E+02 0.  0.
         11    1    3    3    0    0 -0.21644001620E+03 -0.71901217668E+02 -0.31092482367E+03  0.38560382738E+03  0.00000000000E+00 0.  1.
        -11    1    3    3    0    0 -0.29623978884E+03  0.61085496832E+01 -0.43623695358E+03  0.52734998487E+03  0.00000000000E+00 0. -1.
          4    1    6    6  502    0  0.30739492457E+02  0.20402753645E+01 -0.25473578273E+02  0.39974770920E+02  0.00000000000E+00 0. -1.
          1    1    5    5  503    0 -0.29579713453E+02 -0.52790103012E+02  0.18564791963E+02  0.63296176225E+02  0.00000000000E+00 0. -1.
         -2    1    5    5    0  503  0.44379459330E+02 -0.19738008278E+03  0.82081132255E+02  0.21832486290E+03  0.00000000000E+00 0.  1.
         -3    1    6    6    0  502  0.46714056671E+03  0.31392257841E+03 -0.67166166754E+03  0.87629737529E+03  0.00000000000E+00 0.  1.
<mgrwt>
<rscale>  0 0.16279671E+04</rscale>
<asrwt>0</asrwt>
<pdfrwt beam="1">  1        2 0.26573062E+00 0.16279671E+04</pdfrwt>
<pdfrwt beam="2">  1       -2 0.59015069E-01 0.16279671E+04</pdfrwt>
<totfact> 0.24303255E+01</totfact>
</mgrwt>
</event>
<event>
12    1  0.2019083E-007  0.1789261E+04  0.7818608E-02  0.8712031E-01
         -2   -1    0    0    0  501 -0.00000000000E+00  0.00000000000E+00  0.83983610234E+03  0.83983610234E+03  0.00000000000E+00 0.  1.
          2   -1    0    0  501    0  0.00000000000E+00 -0.00000000000E+00 -0.95299973769E+03  0.95299973769E+03  0.00000000000E+00 0. -1.
         23    2    1    2    0    0  0.21623715846E+03  0.60432280270E+03  0.10367842024E+03  0.65688741639E+03  0.93740623098E+02 0.  0.
        254    2    1    2    0    0 -0.21623715846E+03 -0.60432280270E+03 -0.21684205559E+03  0.11359484236E+04  0.91180797625E+03 0.  0.
        -24    2    4    4    0    0 -0.38925373080E+03 -0.19352273954E+03  0.23156061428E+03  0.49906057138E+03  0.80446368208E+02 0.  0.
         24    2    4    4    0    0  0.17301657234E+03 -0.41080006316E+03 -0.44840266988E+03  0.63688785227E+03  0.76614331680E+02 0.  0.
         11    1    3    3    0    0  0.87312565660E+02  0.29450101254E+03  0.93770437859E+02  0.32116541770E+03  0.00000000000E+00 0.  1.
        -11    1    3    3    0    0  0.12892459280E+03  0.30982179017E+03  0.99079823801E+01  0.33572199869E+03  0.00000000000E+00 0. -1.
          2    1    6    6  502    0  0.16796393823E+03 -0.32057896107E+03 -0.36017944421E+03  0.51059963461E+03  0.00000000000E+00 0. -1.
          3    1    5    5  503    0 -0.25210712540E+03 -0.15834647025E+03  0.13022057518E+03  0.32494461915E+03  0.00000000000E+00 0. -1.
         -4    1    5    5    0  503 -0.13714660540E+03 -0.35176269298E+02  0.10134003911E+03  0.17411595223E+03  0.00000000000E+00 0.  1.
         -1    1    6    6    0  502  0.50526341065E+01 -0.90221102087E+02 -0.88223225661E+02  0.12628821766E+03  0.00000000000E+00 0.  1.
<mgrwt>
<rscale>  0 0.17892608E+04</rscale>
<asrwt>0</asrwt>
<pdfrwt beam="1">  1        2 0.14661534E+00 0.17892608E+04</pdfrwt>
<pdfrwt beam="2">  1       -2 0.12920555E+00 0.17892608E+04</pdfrwt>
<totfact> 0.11263875E+01</totfact>
</mgrwt>
</event>
<event>
12    1  0.2019083E-007  0.2243914E+04  0.7818608E-02  0.8500369E-01
         -1   -1    0    0    0  501 -0.00000000000E+00  0.00000000000E+00  0.64004198562E+03  0.64004198562E+03  0.00000000000E+00 0.  1.
          1   -1    0    0  501    0  0.00000000000E+00 -0.00000000000E+00 -0.19667272134E+04  0.19667272134E+04  0.00000000000E+00 0. -1.
         23    2    1    2    0    0 -0.91204137884E+03 -0.22095363655E+03 -0.54046784568E+03  0.10870002391E+04  0.93936369176E+02 0.  0.
        254    2    1    2    0    0  0.91204137884E+03  0.22095363655E+03 -0.78621738212E+03  0.15197689599E+04  0.90051092906E+03 0.  0.
        -24    2    4    4    0    0  0.34223820264E+03  0.22441371241E+03  0.13083551754E+03  0.43707154304E+03  0.80156717849E+02 0.  0.
         24    2    4    4    0    0  0.56980317619E+03 -0.34600758592E+01 -0.91705289966E+03  0.10826974169E+04  0.80994098586E+02 0.  0.
         11    1    3    3    0    0 -0.45338805396E+03 -0.12550411229E+03 -0.32200336443E+03  0.57008611313E+03  0.00000000000E+00 0. -1.
        -11    1    3    3    0    0 -0.45865332487E+03 -0.95449524257E+02 -0.21846448126E+03  0.51691412601E+03  0.00000000000E+00 0.  1.
          2    1    6    6  502    0  0.55054896099E+03 -0.18069262110E+02 -0.88707411809E+03  0.10441892298E+04  0.00000000000E+00 0. -1.
          1    1    5    5  503    0  0.32395358813E+03  0.18400695287E+03  0.11374398741E+03  0.38954098711E+03  0.00000000000E+00 0. -1.
         -2    1    5    5    0  503  0.18284614513E+02  0.40406759541E+02  0.17091530134E+02  0.47530555928E+02  0.00000000000E+00 0.  1.
         -1    1    6    6    0  502  0.19254215199E+02  0.14609186251E+02 -0.29978781574E+02  0.38508187058E+02  0.00000000000E+00 0.  1.
<mgrwt>
<rscale>  0 0.22439144E+04</rscale>
<asrwt>0</asrwt>
<pdfrwt beam="1">  1        1 0.30257341E+00 0.22439144E+04</pdfrwt>
<pdfrwt beam="2">  1       -1 0.98468000E-01 0.22439144E+04</pdfrwt>
<totfact> 0.28144378E+00</totfact>
</mgrwt>
</event>
<event>
12    1  0.2019083E-007  0.1311106E+04  0.7818608E-02  0.9020804E-01
          2   -1    0    0  501    0  0.00000000000E+00  0.00000000000E+00  0.22619703190E+04  0.22619703190E+04  0.00000000000E+00 0. -1.
         -2   -1    0    0    0  501 -0.00000000000E+00 -0.00000000000E+00 -0.18998900391E+03  0.18998900391E+03  0.00000000000E+00 0.  1.
         23    2    1    2    0    0 -0.39975033393E+02 -0.30443328941E+03  0.28840642949E+03  0.43109449262E+03  0.91578174277E+02 0.  0.
        254    2    1    2    0    0  0.39975033393E+02  0.30443328941E+03  0.17835748856E+04  0.20208648303E+04  0.89915385708E+03 0.  0.
        -24    2    4    4    0    0 -0.39179922802E+03  0.16064836477E+02  0.54941842011E+03  0.67958761526E+03  0.78829007388E+02 0.  0.
         24    2    4    4    0    0  0.43177426141E+03  0.28836845294E+03  0.12341564655E+04  0.13412772150E+04  0.79353693960E+02 0.  0.
         13    1    3    3    0    0  0.23564879112E+01  0.31177726893E+01  0.20985536747E+02  0.21346341475E+02  0.00000000000E+00 0. -1.
        -13    1    3    3    0    0 -0.42331521304E+02 -0.30755106210E+03  0.26742089274E+03  0.40974815115E+03  0.00000000000E+00 0.  1.
          4    1    6    6  502    0  0.30818592988E+02  0.10644250454E+02  0.13293132616E+03  0.13687155737E+03  0.00000000000E+00 0. -1.
          3    1    5    5  503    0 -0.18696064392E+03  0.46540952277E+02  0.25370716649E+03  0.31857129334E+03  0.00000000000E+00 0. -1.
         -4    1    5    5    0  503 -0.20483858410E+03 -0.30476115801E+02  0.29571125363E+03  0.36101632192E+03  0.00000000000E+00 0.  1.
         -3    1    6    6    0  502  0.40095566843E+03  0.27772420248E+03  0.11012251393E+04  0.12044056577E+04  0.00000000000E+00 0.  1.
<mgrwt>
<rscale>  0 0.13111056E+04</rscale>
<asrwt>0</asrwt>
<pdfrwt beam="1">  1        2 0.34799541E+00 0.13111056E+04</pdfrwt>
<pdfrwt beam="2">  1       -2 0.29229079E-01 0.13111056E+04</pdfrwt>
<totfact> 0.50355490E+01</totfact>
</mgrwt>
</event>
<event>
12    1  0.2019083E-007  0.2146043E+04  0.7818608E-02  0.8541228E-01
         -2   -1    0    0    0  501 -0.00000000000E+00  0.00000000000E+00  0.28132090344E+03  0.28132090344E+03  0.00000000000E+00 0.  1.
          2   -1    0    0  501    0  0.00000000000E+00 -0.00000000000E+00 -0.40927457679E+04  0.40927457679E+04  0.00000000000E+00 0. -1.
         23    2    1    2    0    0 -0.32910031403E+03 -0.21922492502E+03 -0.31816362695E+04  0.32071828046E+04  0.82738179987E+02 0.  0.
        254    2    1    2    0    0  0.32910031403E+03  0.21922492502E+03 -0.62978859501E+03  0.11668838668E+04  0.89923172745E+03 0.  0.
        -24    2    4    4    0    0 -0.13415496020E+03  0.33767303184E+03 -0.56734424028E+03  0.67879479731E+03  0.82838759634E+02 0.  0.
         24    2    4    4    0    0  0.46325527423E+03 -0.11844810682E+03 -0.62444354731E+02  0.48808906945E+03  0.75473433514E+02 0.  0.
         13    1    3    3    0    0 -0.10751893823E+03 -0.76201163350E+02 -0.77323395164E+03  0.78438363276E+03  0.00000000000E+00 0.  1.
        -13    1    3    3    0    0 -0.22158137580E+03 -0.14302376167E+03 -0.24084023178E+04  0.24227991718E+04  0.00000000000E+00 0. -1.
          2    1    6    6  502    0  0.85342596505E+02 -0.46815706746E+02  0.54884499302E+01  0.97494575536E+02  0.00000000000E+00 0. -1.
          1    1    5    5  503    0 -0.63550811175E+02  0.24882209927E+03 -0.42737010839E+03  0.49859437645E+03  0.00000000000E+00 0. -1.
         -2    1    5    5    0  503 -0.70604149027E+02  0.88850932568E+02 -0.13997413189E+03  0.18020042085E+03  0.00000000000E+00 0.  1.
         -1    1    6    6    0  502  0.37791267773E+03 -0.71632400074E+02 -0.67932804661E+02  0.39059449391E+03  0.00000000000E+00 0.  1.
<mgrwt>
<rscale>  0 0.21460428E+04</rscale>
<asrwt>0</asrwt>
<pdfrwt beam="1">  1        2 0.62965314E+00 0.21460428E+04</pdfrwt>
<pdfrwt beam="2">  1       -2 0.43280143E-01 0.21460428E+04</pdfrwt>
<totfact> 0.13456028E+00</totfact>
</mgrwt>
</event>
<event>
12    1  0.2019083E-007  0.1877086E+04  0.7818608E-02  0.8666347E-01
          1   -1    0    0  501    0  0.00000000000E+00  0.00000000000E+00  0.13776920769E+04  0.13776920769E+04  0.00000000000E+00 0. -1.
         -1   -1    0    0    0  501 -0.00000000000E+00 -0.00000000000E+00 -0.63937581999E+03  0.63937581999E+03  0.00000000000E+00 0.  1.
         23    2    1    2    0    0 -0.41542322742E+03 -0.73874795908E+02  0.90318427558E+03  0.10008299426E+04  0.88796367805E+02 0.  0.
        254    2    1    2    0    0  0.41542322742E+03  0.73874795908E+02 -0.16486801869E+03  0.10162379543E+04  0.90968355641E+03 0.  0.
        -24    2    4    4    0    0  0.63092860992E+03  0.27845372287E+03 -0.12857302752E+03  0.70609644421E+03  0.80210838009E+02 0.  0.
         24    2    4    4    0    0 -0.21550538250E+03 -0.20457892697E+03 -0.36294991173E+02  0.31014151007E+03  0.81088363183E+02 0.  0.
         13    1    3    3    0    0 -0.14716172249E+03 -0.69806898448E+02  0.34474918588E+03  0.38128936099E+03  0.00000000000E+00 0.  1.
        -13    1    3    3    0    0 -0.26826150493E+03 -0.40678974600E+01  0.55843508969E+03  0.61954058158E+03  0.00000000000E+00 0. -1.
          4    1    6    6  502    0 -0.21678940631E+03 -0.20821644309E+03 -0.29116933216E+02  0.30199259869E+03  0.00000000000E+00 0. -1.
          1    1    5    5  503    0  0.55190060338E+03  0.21498913635E+03 -0.12041116519E+03  0.60441165894E+03  0.00000000000E+00 0. -1.
         -2    1    5    5    0  503  0.79028006533E+02  0.63464586522E+02 -0.81618623284E+01  0.10168478527E+03  0.00000000000E+00 0.  1.
         -3    1    6    6    0  502  0.12840238152E+01  0.36375161270E+01 -0.71780579570E+01  0.81489113854E+01  0.00000000000E+00 0.  1.
<mgrwt>
<rscale>  0 0.18770860E+04</rscale>
<asrwt>0</asrwt>
<pdfrwt beam="1">  1        1 0.21195263E+00 0.18770860E+04</pdfrwt>
<pdfrwt beam="2">  1       -1 0.98365511E-01 0.18770860E+04</pdfrwt>
<totfact> 0.73904839E+00</totfact>
</mgrwt>
</event>
<event>
12    1  0.2019083E-007  0.3364067E+04  0.7818608E-02  0.8146782E-01
          2   -1    0    0  501    0  0.00000000000E+00  0.00000000000E+00  0.17625606049E+04  0.17625606049E+04  0.00000000000E+00 0. -1.
         -2   -1    0    0    0  501 -0.00000000000E+00 -0.00000000000E+00 -0.16051858628E+04  0.16051858628E+04  0.00000000000E+00 0.  1.
         23    2    1    2    0    0 -0.15203062586E+04  0.10745347302E+03 -0.26034485759E+03  0.15487991369E+04  0.90121877374E+02 0.  0.
        254    2    1    2    0    0  0.15203062586E+04 -0.10745347302E+03  0.41771959966E+03  0.18189473308E+04  0.90066772977E+03 0.  0.
        -24    2    4    4    0    0  0.10437587401E+04 -0.39244248700E+03  0.54526242590E+03  0.12436405784E+04  0.76729146926E+02 0.  0.
         24    2    4    4    0    0  0.47654751851E+03  0.28498901397E+03 -0.12754282625E+03  0.57530675241E+03  0.79965063351E+02 0.  0.
         13    1    3    3    0    0 -0.21983570658E+03  0.60822274061E+01 -0.71405356468E+01  0.22003572125E+03  0.00000000000E+00 0. -1.
        -13    1    3    3    0    0 -0.13004705520E+04  0.10137124562E+03 -0.25320432194E+03  0.13287634156E+04  0.00000000000E+00 0.  1.
          2    1    6    6  502    0  0.93254561905E+02  0.83444103971E+02 -0.49421989394E+01  0.12523480800E+03  0.00000000000E+00 0. -1.
          3    1    5    5  503    0  0.93759897695E+02 -0.38391111594E+02  0.26140727849E+02  0.10463332890E+03  0.00000000000E+00 0. -1.
         -4    1    5    5    0  503  0.94999884238E+03 -0.35405137540E+03  0.51912169805E+03  0.11390072495E+04  0.00000000000E+00 0.  1.
         -1    1    6    6    0  502  0.38329295660E+03  0.20154491000E+03 -0.12260062731E+03  0.45007194441E+03  0.00000000000E+00 0.  1.
<mgrwt>
<rscale>  0 0.33640674E+04</rscale>
<asrwt>0</asrwt>
<pdfrwt beam="1">  1        2 0.27116317E+00 0.33640674E+04</pdfrwt>
<pdfrwt beam="2">  1       -2 0.24695167E+00 0.33640674E+04</pdfrwt>
<totfact> 0.50469886E-01</totfact>
</mgrwt>
</event>
<event>
12    1  0.2615079E-007  0.3704553E+04  0.7818608E-02  0.8066954E-01
          2   -1    0    0  501    0  0.00000000000E+00  0.00000000000E+00  0.23185269350E+04  0.23185269350E+04  0.00000000000E+00 0. -1.
         -2   -1    0    0    0  501 -0.00000000000E+00 -0.00000000000E+00 -0.14797878653E+04  0.14797878653E+04  0.00000000000E+00 0.  1.
         23    2    1    2    0    0  0.10697878441E+04  0.56485985681E+03 -0.88921522356E+03  0.15041697562E+04  0.91160587056E+02 0.  0.
        254    2    1    2    0    0 -0.10697878441E+04 -0.56485985681E+03  0.17279542933E+04  0.22941450441E+04  0.90208799695E+03 0.  0.
        -24    2    4    4    0    0 -0.25822866241E+02 -0.38109283930E+03  0.21652579991E+03  0.44634431842E+03  0.80257435618E+02 0.  0.
         24    2    4    4    0    0 -0.10439649778E+04 -0.18376701751E+03  0.15114284934E+04  0.18478007256E+04  0.79487353392E+02 0.  0.
         13    1    3    3    0    0  0.51705117378E+03  0.23834926454E+03 -0.37634094899E+03  0.68248428414E+03  0.00000000000E+00 0.  1.
        -13    1    3    3    0    0  0.55273667029E+03  0.32651059227E+03 -0.51287427457E+03  0.82168547211E+03  0.00000000000E+00 0. -1.
          2    1    6    6  502    0 -0.26530228411E+03 -0.11972782197E+02  0.37156424042E+03  0.45671504708E+03  0.00000000000E+00 0. -1.
          1    1    5    5  503    0 -0.46297105744E+02 -0.18089411415E+03  0.12864271128E+03  0.22674886923E+03  0.00000000000E+00 0. -1.
         -2    1    5    5    0  503  0.20474239504E+02 -0.20019872515E+03  0.87883088634E+02  0.21959544919E+03  0.00000000000E+00 0.  1.
         -1    1    6    6    0  502 -0.77866269372E+03 -0.17179423532E+03  0.11398642530E+04  0.13910856786E+04  0.00000000000E+00 0.  1.
<mgrwt>
<rscale>  0 0.37045529E+04</rscale>
<asrwt>0</asrwt>
<pdfrwt beam="1">  1        2 0.35669645E+00 0.37045529E+04</pdfrwt>
<pdfrwt beam="2">  1       -2 0.22765967E+00 0.37045529E+04</pdfrwt>
<totfact> 0.31624358E-01</totfact>
</mgrwt>
</event>
<event>
12    1  0.2019083E-007  0.1643745E+04  0.7818608E-02  0.8794116E-01
          2   -1    0    0  501    0  0.00000000000E+00  0.00000000000E+00  0.63317620781E+03  0.63317620781E+03  0.00000000000E+00 0.  1.
         -2   -1    0    0    0  501 -0.00000000000E+00 -0.00000000000E+00 -0.10668027509E+04  0.10668027509E+04  0.00000000000E+00 0. -1.
         23    2    1    2    0    0  0.29161329273E+03  0.49110773884E+03 -0.14127929277E+03  0.59519427566E+03  0.89840211313E+02 0.  0.
        254    2    1    2    0    0 -0.29161329273E+03 -0.49110773884E+03 -0.29234725032E+03  0.11047846831E+04  0.89936486339E+03 0.  0.
        -24    2    4    4    0    0 -0.54732552789E+03 -0.52461036822E+03 -0.33169378342E+03  0.83143638384E+03  0.80525911943E+02 0.  0.
         24    2    4    4    0    0  0.25571223516E+03  0.33502629378E+02  0.39346533101E+02  0.27334829922E+03  0.81608637005E+02 0.  0.
         13    1    3    3    0    0  0.23518539187E+03  0.31441206344E+03 -0.92100899338E+02  0.40329851208E+03  0.00000000000E+00 0.  1.
        -13    1    3    3    0    0  0.56427900858E+02  0.17669567540E+03 -0.49178393435E+02  0.19189576358E+03  0.00000000000E+00 0. -1.
          4    1    6    6  502    0  0.11048646678E+02 -0.17098618770E+02  0.64228438553E+01  0.21346856453E+02  0.00000000000E+00 0. -1.
          1    1    5    5  503    0 -0.99253513251E+02 -0.10348677326E+03 -0.29962829917E+02  0.14648734863E+03  0.00000000000E+00 0. -1.
         -2    1    5    5    0  503 -0.44807201463E+03 -0.42112359496E+03 -0.30173095351E+03  0.68494903521E+03  0.00000000000E+00 0.  1.
         -3    1    6    6    0  502  0.24466358848E+03  0.50601248148E+02  0.32923689246E+02  0.25200144277E+03  0.00000000000E+00 0.  1.
<mgrwt>
<rscale>  0 0.16437447E+04</rscale>
<asrwt>0</asrwt>
<pdfrwt beam="1">  1        2 0.97411726E-01 0.16437447E+04</pdfrwt>
<pdfrwt beam="2">  1       -2 0.16412350E+00 0.16437447E+04</pdfrwt>
<totfact> 0.10419543E+01</totfact>
</mgrwt>
</event>
<event>
12    1  0.2019083E-007  0.3529934E+04  0.7818608E-02  0.8106732E-01
          2   -1    0    0  501    0  0.00000000000E+00  0.00000000000E+00  0.20884528143E+04  0.20884528143E+04  0.00000000000E+00 0. -1.
         -2   -1    0    0    0  501 -0.00000000000E+00 -0.00000000000E+00 -0.14915866919E+04  0.14915866919E+04  0.00000000000E+00 0.  1.
         23    2    1    2    0    0  0.13837208322E+04 -0.62937783500E+03  0.92579614477E+03  0.17821492013E+04  0.90318731714E+02 0.  0.
        254    2    1    2    0    0 -0.13837208322E+04  0.62937783500E+03 -0.32893002235E+03  0.17978903049E+04  0.90189510926E+03 0.  0.
        -24    2    4    4    0    0 -0.94049594654E+03  0.23865419456E+03  0.20804687920E+03  0.99576346390E+03  0.82297764510E+02 0.  0.
         24    2    4    4    0    0 -0.44322488566E+03  0.39072364044E+03 -0.53697690156E+03  0.80212684098E+03  0.77136332216E+02 0.  0.
         13    1    3    3    0    0  0.14219146880E+03 -0.35696987468E+02  0.92734418219E+02  0.17347149921E+03  0.00000000000E+00 0.  1.
        -13    1    3    3    0    0  0.12415293634E+04 -0.59368084753E+03  0.83306172655E+03  0.16086777021E+04  0.00000000000E+00 0. -1.
          4    1    6    6  502    0 -0.34474425568E+02  0.29166234682E+02 -0.72981056976E+02  0.85821850021E+02  0.00000000000E+00 0. -1.
          1    1    5    5  503    0 -0.43571481476E+02  0.28579006406E+02  0.18292378103E+02  0.55225399064E+02  0.00000000000E+00 0. -1.
         -2    1    5    5    0  503 -0.89692446507E+03  0.21007518816E+03  0.18975450110E+03  0.94053806483E+03  0.00000000000E+00 0.  1.
         -3    1    6    6    0  502 -0.40875046009E+03  0.36155740575E+03 -0.46399584458E+03  0.71630499095E+03  0.00000000000E+00 0.  1.
<mgrwt>
<rscale>  0 0.35299340E+04</rscale>
<asrwt>0</asrwt>
<pdfrwt beam="1">  1        2 0.32130043E+00 0.35299340E+04</pdfrwt>
<pdfrwt beam="2">  1       -2 0.22947488E+00 0.35299340E+04</pdfrwt>
<totfact> 0.42117525E-01</totfact>
</mgrwt>
</event>
<event>
12    1  0.2019083E-007  0.1676770E+04  0.7818608E-02  0.8774725E-01
          1   -1    0    0  501    0  0.00000000000E+00  0.00000000000E+00  0.82384923671E+03  0.82384923671E+03  0.00000000000E+00 0. -1.
         -1   -1    0    0    0  501 -0.00000000000E+00 -0.00000000000E+00 -0.85317768845E+03  0.85317768845E+03  0.00000000000E+00 0.  1.
         23    2    1    2    0    0  0.36601909266E+03  0.45986862894E+03  0.57289768106E+02  0.59747678190E+03  0.90814400291E+02 0.  0.
        254    2    1    2    0    0 -0.36601909266E+03 -0.45986862894E+03 -0.86618219847E+02  0.10795501433E+04  0.90137487414E+03 0.  0.
        -24    2    4    4    0    0 -0.54592820376E+03 -0.29787161805E+03  0.23428413832E+03  0.66943795835E+03  0.80579265997E+02 0.  0.
         24    2    4    4    0    0  0.17990911110E+03 -0.16199701089E+03 -0.32090235816E+03  0.41011218492E+03  0.81261066640E+02 0.  0.
         13    1    3    3    0    0  0.30443326574E+03  0.31989402017E+03  0.49292611885E+02  0.44434396476E+03  0.00000000000E+00 0. -1.
        -13    1    3    3    0    0  0.61585826924E+02  0.13997460877E+03  0.79971562208E+01  0.15313281714E+03  0.00000000000E+00 0.  1.
          4    1    6    6  502    0  0.57962317003E+02 -0.15591813173E+02 -0.45953418403E+02  0.75593991119E+02  0.00000000000E+00 0. -1.
          3    1    5    5  503    0 -0.54959187676E+02 -0.18189623206E+02  0.45703030938E+02  0.73757316514E+02  0.00000000000E+00 0. -1.
         -4    1    5    5    0  503 -0.49096901608E+03 -0.27968199485E+03  0.18858110738E+03  0.59568064183E+03  0.00000000000E+00 0.  1.
         -3    1    6    6    0  502  0.12194679409E+03 -0.14640519771E+03 -0.27494893976E+03  0.33451819380E+03  0.00000000000E+00 0.  1.
<mgrwt>
<rscale>  0 0.16767705E+04</rscale>
<asrwt>0</asrwt>
<pdfrwt beam="1">  1        1 0.12674604E+00 0.16767705E+04</pdfrwt>
<pdfrwt beam="2">  1       -1 0.13125811E+00 0.16767705E+04</pdfrwt>
<totfact> 0.99502503E+00</totfact>
</mgrwt>
</event>
<event>
12    1  0.2019083E-007  0.1738702E+04  0.7818608E-02  0.8739594E-01
          2   -1    0    0  501    0  0.00000000000E+00  0.00000000000E+00  0.16944164523E+04  0.16944164523E+04  0.00000000000E+00 0. -1.
         -2   -1    0    0    0  501 -0.00000000000E+00 -0.00000000000E+00 -0.44603633701E+03  0.44603633701E+03  0.00000000000E+00 0.  1.
         23    2    1    2    0    0  0.88896092573E+02  0.60997956220E+03  0.62917008399E+03  0.88543437471E+03  0.90340775706E+02 0.  0.
        254    2    1    2    0    0 -0.88896092573E+02 -0.60997956220E+03  0.61921003131E+03  0.12550184146E+04  0.90092873001E+03 0.  0.
        -24    2    4    4    0    0  0.22879814874E+03 -0.70439773566E+03  0.46911794159E+03  0.88042046348E+03  0.80893674191E+02 0.  0.
         24    2    4    4    0    0 -0.31769424131E+03  0.94418173457E+02  0.15009208972E+03  0.37459795113E+03  0.89171560214E+02 0.  0.
         13    1    3    3    0    0  0.36128896796E+02  0.15178274436E+03  0.10954069094E+03  0.19063698917E+03  0.00000000000E+00 0. -1.
        -13    1    3    3    0    0  0.52767195777E+02  0.45819681784E+03  0.51962939305E+03  0.69479738554E+03  0.00000000000E+00 0.  1.
          2    1    6    6  502    0  0.75505048588E+00  0.13819736989E+02  0.11786273731E+02  0.18178874556E+02  0.00000000000E+00 0. -1.
          3    1    5    5  503    0  0.16293204151E+02 -0.44587985838E+02  0.56212765957E+02  0.73576028971E+02  0.00000000000E+00 0. -1.
         -4    1    5    5    0  503  0.21250494459E+03 -0.65980974982E+03  0.41290517564E+03  0.80684443451E+03  0.00000000000E+00 0.  1.
         -3    1    6    6    0  502 -0.31844929180E+03  0.80598436468E+02  0.13830581599E+03  0.35641907657E+03  0.00000000000E+00 0.  1.
<mgrwt>
<rscale>  0 0.17387022E+04</rscale>
<asrwt>0</asrwt>
<pdfrwt beam="1">  1        2 0.26067945E+00 0.17387022E+04</pdfrwt>
<pdfrwt beam="2">  1       -2 0.68620976E-01 0.17387022E+04</pdfrwt>
<totfact> 0.18189598E+01</totfact>
</mgrwt>
</event>
<event>
12    1  0.2019083E-007  0.2124260E+04  0.7818608E-02  0.8550631E-01
          2   -1    0    0  501    0  0.00000000000E+00  0.00000000000E+00  0.23633417074E+04  0.23633417074E+04  0.00000000000E+00 0. -1.
         -2   -1    0    0    0  501 -0.00000000000E+00 -0.00000000000E+00 -0.47734131591E+03  0.47734131591E+03  0.00000000000E+00 0.  1.
         23    2    1    2    0    0  0.10587925746E+03 -0.78504597519E+03  0.12515311239E+04  0.14839596474E+04  0.91095997390E+02 0.  0.
        254    2    1    2    0    0 -0.10587925746E+03  0.78504597519E+03  0.63446926769E+03  0.13567233760E+04  0.90035518934E+03 0.  0.
        -24    2    4    4    0    0  0.30154440115E+03  0.68499756672E+02  0.36676166630E+03  0.48613733578E+03  0.78702902333E+02 0.  0.
         24    2    4    4    0    0 -0.40742365861E+03  0.71654621852E+03  0.26770760138E+03  0.87058604021E+03  0.82584336842E+02 0.  0.
         13    1    3    3    0    0  0.18358959364E+02 -0.31365894874E+03  0.56687189881E+03  0.64812247082E+03  0.00000000000E+00 0. -1.
        -13    1    3    3    0    0  0.87520298095E+02 -0.47138702645E+03  0.68465922504E+03  0.83583717656E+03  0.00000000000E+00 0.  1.
          4    1    6    6  502    0 -0.59751029886E+02  0.57126765182E+02  0.33559886402E+02  0.89218377299E+02  0.00000000000E+00 0. -1.
          3    1    5    5  503    0  0.14716468832E+03  0.69996791858E+02  0.21358769700E+03  0.26865721779E+03  0.00000000000E+00 0. -1.
         -4    1    5    5    0  503  0.15437971284E+03 -0.14970351855E+01  0.15317396930E+03  0.21748011799E+03  0.00000000000E+00 0.  1.
         -3    1    6    6    0  502 -0.34767262873E+03  0.65941945334E+03  0.23414771498E+03  0.78136766291E+03  0.00000000000E+00 0.  1.
<mgrwt>
<rscale>  0 0.21242605E+04</rscale>
<asrwt>0</asrwt>
<pdfrwt beam="1">  1        2 0.36359103E+00 0.21242605E+04</pdfrwt>
<pdfrwt beam="2">  1       -2 0.73437126E-01 0.21242605E+04</pdfrwt>
<totfact> 0.64203912E+00</totfact>
</mgrwt>
</event>
<event>
12    1  0.2019083E-007  0.2265163E+04  0.7818608E-02  0.8491785E-01
          2   -1    0    0  501    0  0.00000000000E+00  0.00000000000E+00  0.30577450579E+04  0.30577450579E+04  0.00000000000E+00 0. -1.
         -2   -1    0    0    0  501 -0.00000000000E+00 -0.00000000000E+00 -0.41950532129E+03  0.41950532129E+03  0.00000000000E+00 0.  1.
         23    2    1    2    0    0 -0.56165983906E+03  0.65808941577E+03  0.17186098156E+04  0.19265999279E+04  0.98102650990E+02 0.  0.
        254    2    1    2    0    0  0.56165983906E+03 -0.65808941577E+03  0.91962992103E+03  0.15506504513E+04  0.90014119801E+03 0.  0.
        -24    2    4    4    0    0  0.12151235480E+03 -0.73075770450E+03  0.34975032803E+03  0.82283400789E+03  0.77190916108E+02 0.  0.
         24    2    4    4    0    0  0.44014748427E+03  0.72668288735E+02  0.56987959299E+03  0.72781644336E+03  0.77094335848E+02 0.  0.
         13    1    3    3    0    0 -0.47195175221E+03  0.58866777707E+03  0.14377185300E+04  0.16236695414E+04  0.00000000000E+00 0.  1.
        -13    1    3    3    0    0 -0.89708086852E+02  0.69421638693E+02  0.28089128558E+03  0.30293038652E+03  0.00000000000E+00 0. -1.
          2    1    6    6  502    0  0.16119842115E+03  0.41629310541E+02  0.15893166734E+03  0.23016777655E+03  0.00000000000E+00 0. -1.
          1    1    5    5  503    0  0.91530025103E+01 -0.86833320788E+02  0.69664243204E+02  0.11170008879E+03  0.00000000000E+00 0. -1.
         -2    1    5    5    0  503  0.11235935229E+03 -0.64392438371E+03  0.28008608483E+03  0.71113391910E+03  0.00000000000E+00 0.  1.
         -1    1    6    6    0  502  0.27894906312E+03  0.31038978194E+02  0.41094792565E+03  0.49764866681E+03  0.00000000000E+00 0.  1.
<mgrwt>
<rscale>  0 0.22651625E+04</rscale>
<asrwt>0</asrwt>
<pdfrwt beam="1">  1        2 0.47042230E+00 0.22651625E+04</pdfrwt>
<pdfrwt beam="2">  1       -2 0.64539282E-01 0.22651625E+04</pdfrwt>
<totfact> 0.32305719E+00</totfact>
</mgrwt>
</event>
<event>
12    1  0.2019083E-007  0.1732556E+04  0.7818608E-02  0.8743011E-01
         -1   -1    0    0    0  501 -0.00000000000E+00  0.00000000000E+00  0.88802347861E+03  0.88802347861E+03  0.00000000000E+00 0.  1.
          1   -1    0    0  501    0  0.00000000000E+00 -0.00000000000E+00 -0.84506513114E+03  0.84506513114E+03  0.00000000000E+00 0. -1.
         23    2    1    2    0    0  0.27860809770E+03  0.17004794335E+02 -0.54643741822E+03  0.61986302893E+03  0.87890201148E+02 0.  0.
        254    2    1    2    0    0 -0.27860809770E+03 -0.17004794335E+02  0.58939576570E+03  0.11132255808E+04  0.90220407339E+03 0.  0.
        -24    2    4    4    0    0 -0.35360699342E+03 -0.39995926785E+03  0.27511604953E+03  0.60592711039E+03  0.80333683249E+02 0.  0.
         24    2    4    4    0    0  0.74998895718E+02  0.38295447352E+03  0.31427971617E+03  0.50729847043E+03  0.79379058661E+02 0.  0.
         11    1    3    3    0    0  0.22512573850E+03  0.30206738713E+02 -0.49440570468E+03  0.54408735146E+03  0.00000000000E+00 0. -1.
        -11    1    3    3    0    0  0.53482359200E+02 -0.13201944378E+02 -0.52031713546E+02  0.75775677466E+02  0.00000000000E+00 0.  1.
          2    1    6    6  502    0  0.21443843026E+02  0.67480844221E+02  0.22609743685E+02  0.74328347553E+02  0.00000000000E+00 0. -1.
          3    1    5    5  503    0 -0.15856564935E+03 -0.20564017365E+03  0.17421172072E+03  0.31269900832E+03  0.00000000000E+00 0. -1.
         -4    1    5    5    0  503 -0.19504134407E+03 -0.19431909421E+03  0.10090432881E+03  0.29322810207E+03  0.00000000000E+00 0.  1.
         -1    1    6    6    0  502  0.53555052692E+02  0.31547362930E+03  0.29166997249E+03  0.43297012288E+03  0.00000000000E+00 0.  1.
<mgrwt>
<rscale>  0 0.17325561E+04</rscale>
<asrwt>0</asrwt>
<pdfrwt beam="1">  1        1 0.13001002E+00 0.17325561E+04</pdfrwt>
<pdfrwt beam="2">  1       -1 0.13661900E+00 0.17325561E+04</pdfrwt>
<totfact> 0.85740562E+00</totfact>
</mgrwt>
</event>
<event>
12    1  0.2019083E-007  0.1503934E+04  0.7818608E-02  0.8881841E-01
         -1   -1    0    0    0  501 -0.00000000000E+00  0.00000000000E+00  0.45028542207E+03  0.45028542207E+03  0.00000000000E+00 0.  1.
          1   -1    0    0  501    0  0.00000000000E+00 -0.00000000000E+00 -0.12557690629E+04  0.12557690629E+04  0.00000000000E+00 0. -1.
         23    2    1    2    0    0 -0.10274878730E+02 -0.25580755129E+03 -0.72118131019E+03  0.77113989177E+03  0.94927204108E+02 0.  0.
        254    2    1    2    0    0  0.10274878730E+02  0.25580755129E+03 -0.84302330601E+02  0.93491459317E+03  0.89521803889E+03 0.  0.
        -24    2    4    4    0    0  0.10328612293E+03  0.57255200231E+03 -0.81888941014E+01  0.58724824143E+03  0.79433119940E+02 0.  0.
         24    2    4    4    0    0 -0.93011244195E+02 -0.31674445102E+03 -0.76113436499E+02  0.34766635174E+03  0.78105685550E+02 0.  0.
         11    1    3    3    0    0 -0.34168130322E+02 -0.10939521912E+03 -0.42072877224E+03  0.43605902684E+03  0.00000000000E+00 0. -1.
        -11    1    3    3    0    0  0.23893251592E+02 -0.14641233216E+03 -0.30045253795E+03  0.33508086493E+03  0.00000000000E+00 0.  1.
          4    1    6    6  502    0 -0.43571578845E+02 -0.55292729650E+02 -0.34325438606E+02  0.78319883623E+02  0.00000000000E+00 0. -1.
          1    1    5    5  503    0  0.26866528532E+01  0.10583675305E+03 -0.27635272536E+02  0.10941821004E+03  0.00000000000E+00 0. -1.
         -4    1    5    5    0  503  0.10059947007E+03  0.46671524926E+03  0.19446378435E+02  0.47783003139E+03  0.00000000000E+00 0.  1.
         -3    1    6    6    0  502 -0.49439665350E+02 -0.26145172137E+03 -0.41787997893E+02  0.26934646811E+03  0.00000000000E+00 0.  1.
<mgrwt>
<rscale>  0 0.15039342E+04</rscale>
<asrwt>0</asrwt>
<pdfrwt beam="1">  1        1 0.19319524E+00 0.15039342E+04</pdfrwt>
<pdfrwt beam="2">  1       -1 0.69274681E-01 0.15039342E+04</pdfrwt>
<totfact> 0.19839894E+01</totfact>
</mgrwt>
</event>
<event>
12    1  0.2019083E-007  0.1318965E+04  0.7818608E-02  0.9014659E-01
         -2   -1    0    0    0  501 -0.00000000000E+00  0.00000000000E+00  0.55969102637E+03  0.55969102637E+03  0.00000000000E+00 0.  1.
          2   -1    0    0  501    0  0.00000000000E+00 -0.00000000000E+00 -0.77706699677E+03  0.77706699677E+03  0.00000000000E+00 0. -1.
         23    2    1    2    0    0  0.25224888792E+03  0.76393420125E+02 -0.28195042723E+03  0.39611312853E+03  0.89129742966E+02 0.  0.
        254    2    1    2    0    0 -0.25224888792E+03 -0.76393420125E+02  0.64574456840E+02  0.94064489461E+03  0.90065392976E+03 0.  0.
        -24    2    4    4    0    0  0.30330365875E+03 -0.16496370840E+03  0.11000714522E+03  0.37079522304E+03  0.78621822209E+02 0.  0.
         24    2    4    4    0    0 -0.55555254667E+03  0.88570288279E+02 -0.45432688383E+02  0.56984967158E+03  0.78620550413E+02 0.  0.
         13    1    3    3    0    0  0.23396238753E+03  0.79389697413E+02 -0.28516447698E+03  0.37730611149E+03  0.00000000000E+00 0. -1.
        -13    1    3    3    0    0  0.18286500389E+02 -0.29962772883E+01  0.32140497519E+01  0.18807017038E+02  0.00000000000E+00 0.  1.
          2    1    6    6  502    0 -0.18911871972E+03  0.67505579867E+02 -0.90010443494E+01  0.20100724430E+03  0.00000000000E+00 0. -1.
          3    1    5    5  503    0  0.11833465109E+03 -0.97640927130E+02  0.75370026055E+02  0.17093121753E+03  0.00000000000E+00 0. -1.
         -4    1    5    5    0  503  0.18496900766E+03 -0.67322781274E+02  0.34637119167E+02  0.19986400551E+03  0.00000000000E+00 0.  1.
         -1    1    6    6    0  502 -0.36643382695E+03  0.21064708412E+02 -0.36431644033E+02  0.36884242728E+03  0.00000000000E+00 0.  1.
<mgrwt>
<rscale>  0 0.13189654E+04</rscale>
<asrwt>0</asrwt>
<pdfrwt beam="1">  1        2 0.11954877E+00 0.13189654E+04</pdfrwt>
<pdfrwt beam="2">  1       -2 0.86106312E-01 0.13189654E+04</pdfrwt>
<totfact> 0.41013076E+01</totfact>
</mgrwt>
</event>
<event>
12    1  0.2019083E-007  0.1958953E+04  0.7818608E-02  0.8626056E-01
          1   -1    0    0  501    0  0.00000000000E+00  0.00000000000E+00  0.12113101119E+04  0.12113101119E+04  0.00000000000E+00 0. -1.
         -1   -1    0    0    0  501 -0.00000000000E+00 -0.00000000000E+00 -0.79201383099E+03  0.79201383099E+03  0.00000000000E+00 0.  1.
         23    2    1    2    0    0  0.67473733587E+03 -0.16011708851E+03 -0.17447275422E+03  0.72104428834E+03  0.92499563943E+02 0.  0.
        254    2    1    2    0    0 -0.67473733587E+03  0.16011708851E+03  0.59376903512E+03  0.12822796545E+04  0.90042850406E+03 0.  0.
        -24    2    4    4    0    0 -0.50110046191E+03 -0.22064247399E+03  0.64748342670E+03  0.85161311897E+03  0.78900838290E+02 0.  0.
         24    2    4    4    0    0 -0.17363687396E+03  0.38075956249E+03 -0.53714391588E+02  0.43066653557E+03  0.86376041643E+02 0.  0.
         13    1    3    3    0    0  0.33955724571E+03 -0.11364716792E+03 -0.55465850322E+02  0.36234136176E+03  0.00000000000E+00 0. -1.
        -13    1    3    3    0    0  0.33518009016E+03 -0.46469920584E+02 -0.11900690390E+03  0.35870292657E+03  0.00000000000E+00 0.  1.
          2    1    6    6  502    0 -0.10641156643E+02  0.55642480652E+02 -0.34803327302E+02  0.66487528599E+02  0.00000000000E+00 0. -1.
          1    1    5    5  503    0 -0.12490287836E+03 -0.61355904243E+02  0.11538241384E+03  0.18077161677E+03  0.00000000000E+00 0. -1.
         -2    1    5    5    0  503 -0.37619758356E+03 -0.15928656974E+03  0.53210101286E+03  0.67084150219E+03  0.00000000000E+00 0.  1.
         -1    1    6    6    0  502 -0.16299571731E+03  0.32511708184E+03 -0.18911064285E+02  0.36417900697E+03  0.00000000000E+00 0.  1.
<mgrwt>
<rscale>  0 0.19589532E+04</rscale>
<asrwt>0</asrwt>
<pdfrwt beam="1">  1        1 0.18635540E+00 0.19589532E+04</pdfrwt>
<pdfrwt beam="2">  1       -1 0.12184828E+00 0.19589532E+04</pdfrwt>
<totfact> 0.58196106E+00</totfact>
</mgrwt>
</event>
<event>
12    1  0.2019083E-007  0.1307024E+04  0.7818608E-02  0.9024014E-01
          1   -1    0    0  501    0  0.00000000000E+00  0.00000000000E+00  0.75743677088E+03  0.75743677088E+03  0.00000000000E+00 0. -1.
         -1   -1    0    0    0  501 -0.00000000000E+00 -0.00000000000E+00 -0.56384601598E+03  0.56384601598E+03  0.00000000000E+00 0.  1.
         23    2    1    2    0    0 -0.21507575653E+03  0.21946464766E+03 -0.85298515979E+02  0.33131619447E+03  0.89845819415E+02 0.  0.
        254    2    1    2    0    0  0.21507575653E+03 -0.21946464766E+03  0.27888927088E+03  0.98996659240E+03  0.89879492435E+03 0.  0.
        -24    2    4    4    0    0 -0.26651569111E+03  0.13501432421E+03  0.22951213991E+03  0.38468946165E+03  0.77786105370E+02 0.  0.
         24    2    4    4    0    0  0.48159144764E+03 -0.35447897188E+03  0.49377130976E+02  0.60527713075E+03  0.79603015020E+02 0.  0.
         13    1    3    3    0    0 -0.16224529382E+03  0.14901458133E+03 -0.19039450575E+02  0.22111395590E+03  0.00000000000E+00 0. -1.
        -13    1    3    3    0    0 -0.52830462708E+02  0.70450066332E+02 -0.66259065404E+02  0.11020223856E+03  0.00000000000E+00 0.  1.
          2    1    6    6  502    0  0.11531473448E+03 -0.51034818909E+02 -0.70372747850E+01  0.12629950105E+03  0.00000000000E+00 0. -1.
          1    1    5    5  503    0 -0.10815404299E+03  0.61316029214E+02  0.14389195564E+03  0.19016268654E+03  0.00000000000E+00 0. -1.
         -2    1    5    5    0  503 -0.15836164812E+03  0.73698295001E+02  0.85620184265E+02  0.19452677511E+03  0.00000000000E+00 0.  1.
         -1    1    6    6    0  502  0.36627671317E+03 -0.30344415297E+03  0.56414405761E+02  0.47897762970E+03  0.00000000000E+00 0.  1.
<mgrwt>
<rscale>  0 0.13070237E+04</rscale>
<asrwt>0</asrwt>
<pdfrwt beam="1">  1        1 0.11652873E+00 0.13070237E+04</pdfrwt>
<pdfrwt beam="2">  1       -1 0.86745541E-01 0.13070237E+04</pdfrwt>
<totfact> 0.31033899E+01</totfact>
</mgrwt>
</event>
<event>
12    1  0.2019083E-007  0.2415055E+04  0.7818608E-02  0.8433889E-01
         -1   -1    0    0    0  501 -0.00000000000E+00  0.00000000000E+00  0.13914526249E+04  0.13914526249E+04  0.00000000000E+00 0.  1.
          1   -1    0    0  501    0  0.00000000000E+00 -0.00000000000E+00 -0.10479135864E+04  0.10479135864E+04  0.00000000000E+00 0. -1.
         23    2    1    2    0    0 -0.50814549540E+03  0.84023007815E+03 -0.19111301448E+03  0.10043297700E+04  0.89194584279E+02 0.  0.
        254    2    1    2    0    0  0.50814549540E+03 -0.84023007815E+03  0.53465205301E+03  0.14350364413E+04  0.89959898919E+03 0.  0.
        -24    2    4    4    0    0  0.29883791458E+03  0.99464948197E+02  0.29592590084E+03  0.43993298073E+03  0.82289207300E+02 0.  0.
         24    2    4    4    0    0  0.20930758082E+03 -0.93969502634E+03  0.23872615217E+03  0.99510346057E+03  0.80026967815E+02 0.  0.
         13    1    3    3    0    0 -0.22499680960E+03  0.34603510423E+03 -0.12311847366E+03  0.43072266743E+03  0.00000000000E+00 0.  1.
        -13    1    3    3    0    0 -0.28314868581E+03  0.49419497392E+03 -0.67994540821E+02  0.57360710255E+03  0.00000000000E+00 0. -1.
          2    1    6    6  502    0  0.13285096505E+03 -0.42057947567E+03  0.97414775327E+02  0.45169249797E+03  0.00000000000E+00 0. -1.
          3    1    5    5  503    0  0.59483386537E+02  0.24452046647E+01  0.97502789014E+02  0.11424117544E+03  0.00000000000E+00 0. -1.
         -4    1    5    5    0  503  0.23935452804E+03  0.97019743532E+02  0.19842311182E+03  0.32569180529E+03  0.00000000000E+00 0.  1.
         -3    1    6    6    0  502  0.76456615773E+02 -0.51911555067E+03  0.14131137684E+03  0.54341096260E+03  0.00000000000E+00 0.  1.
<mgrwt>
<rscale>  0 0.24150545E+04</rscale>
<asrwt>0</asrwt>
<pdfrwt beam="1">  1        1 0.16121748E+00 0.24150545E+04</pdfrwt>
<pdfrwt beam="2">  1       -1 0.21406963E+00 0.24150545E+04</pdfrwt>
<totfact> 0.14997522E+00</totfact>
</mgrwt>
</event>
<event>
12    1  0.2019083E-007  0.1604701E+04  0.7818608E-02  0.8817665E-01
          2   -1    0    0  501    0  0.00000000000E+00  0.00000000000E+00  0.60437350455E+03  0.60437350455E+03  0.00000000000E+00 0.  1.
         -2   -1    0    0    0  501 -0.00000000000E+00 -0.00000000000E+00 -0.10651790235E+04  0.10651790235E+04  0.00000000000E+00 0. -1.
         23    2    1    2    0    0  0.41201986164E+03  0.35220320292E+03 -0.98329835767E+02  0.55831670665E+03  0.90781748133E+02 0.  0.
        254    2    1    2    0    0 -0.41201986164E+03 -0.35220320292E+03 -0.36247568320E+03  0.11112358214E+04  0.89980496073E+03 0.  0.
        -24    2    4    4    0    0 -0.20283388175E+03 -0.39872424128E+03 -0.61914762401E+03  0.76788482056E+03  0.78617511763E+02 0.  0.
         24    2    4    4    0    0 -0.20918597990E+03  0.46521038357E+02  0.25667194081E+03  0.34335100086E+03  0.78015661249E+02 0.  0.
         13    1    3    3    0    0  0.17252099999E+02  0.21301483824E+02 -0.26673358644E+02  0.38247303550E+02  0.00000000000E+00 0. -1.
        -13    1    3    3    0    0  0.39476776164E+03  0.33090171909E+03 -0.71656477124E+02  0.52006940310E+03  0.00000000000E+00 0.  1.
          4    1    6    6  502    0 -0.33159023706E+02 -0.10177717279E+02  0.81717994309E+02  0.88774643767E+02  0.00000000000E+00 0. -1.
          1    1    5    5  503    0 -0.19721420611E+03 -0.39043882137E+03 -0.61889524406E+03  0.75787019960E+03  0.00000000000E+00 0. -1.
         -2    1    5    5    0  503 -0.56196756371E+01 -0.82854199078E+01 -0.25237995630E+00  0.10014620959E+02  0.00000000000E+00 0.  1.
         -3    1    6    6    0  502 -0.17602695619E+03  0.56698755636E+02  0.17495394650E+03  0.25457635710E+03  0.00000000000E+00 0.  1.
<mgrwt>
<rscale>  0 0.16047006E+04</rscale>
<asrwt>0</asrwt>
<pdfrwt beam="1">  1        2 0.92980540E-01 0.16047006E+04</pdfrwt>
<pdfrwt beam="2">  1       -2 0.16387370E+00 0.16047006E+04</pdfrwt>
<totfact> 0.11108569E+01</totfact>
</mgrwt>
</event>
<event>
12    1  0.2019083E-007  0.3380525E+04  0.7818608E-02  0.8142703E-01
         -2   -1    0    0    0  501 -0.00000000000E+00  0.00000000000E+00  0.17581913969E+04  0.17581913969E+04  0.00000000000E+00 0.  1.
          2   -1    0    0  501    0  0.00000000000E+00 -0.00000000000E+00 -0.16249579011E+04  0.16249579011E+04  0.00000000000E+00 0. -1.
         23    2    1    2    0    0 -0.67928974582E+03  0.76285512777E+03 -0.11300521042E+04  0.15276322297E+04  0.11515192650E+03 0.  0.
        254    2    1    2    0    0  0.67928974582E+03 -0.76285512777E+03  0.12632856000E+04  0.18555170682E+04  0.89647675854E+03 0.  0.
        -24    2    4    4    0    0 -0.12191940704E+02 -0.58789679704E+03  0.33320493403E+03  0.68067717388E+03  0.80774993641E+02 0.  0.
         24    2    4    4    0    0  0.69148168653E+03 -0.17495833074E+03  0.93008066598E+03  0.11748398944E+04  0.80258282193E+02 0.  0.
         11    1    3    3    0    0 -0.21610664113E+03  0.29121435144E+03 -0.33532911087E+03  0.49391648223E+03  0.00000000000E+00 0. -1.
        -11    1    3    3    0    0 -0.46318310469E+03  0.47164077633E+03 -0.79472299337E+03  0.10337157475E+04  0.00000000000E+00 0.  1.
          4    1    6    6  502    0  0.56523571421E+03 -0.17268843200E+03  0.78232667271E+03  0.98048341648E+03  0.00000000000E+00 0. -1.
          3    1    5    5  503    0  0.25636765140E+02 -0.44295950523E+03  0.24518610143E+03  0.50693844926E+03  0.00000000000E+00 0. -1.
         -4    1    5    5    0  503 -0.37828705843E+02 -0.14493729180E+03  0.88018832597E+02  0.17373872462E+03  0.00000000000E+00 0.  1.
         -3    1    6    6    0  502  0.12624597232E+03 -0.22698987351E+01  0.14775399327E+03  0.19435647788E+03  0.00000000000E+00 0.  1.
<mgrwt>
<rscale>  0 0.33805248E+04</rscale>
<asrwt>0</asrwt>
<pdfrwt beam="1">  1        2 0.24999352E+00 0.33805248E+04</pdfrwt>
<pdfrwt beam="2">  1       -2 0.27049098E+00 0.33805248E+04</pdfrwt>
<totfact> 0.43130081E-01</totfact>
</mgrwt>
</event>
<event>
12    1  0.2019083E-007  0.3384658E+04  0.7818608E-02  0.8141682E-01
         -2   -1    0    0    0  501 -0.00000000000E+00  0.00000000000E+00  0.16529931614E+04  0.16529931614E+04  0.00000000000E+00 0.  1.
          2   -1    0    0  501    0  0.00000000000E+00 -0.00000000000E+00 -0.17326006149E+04  0.17326006149E+04  0.00000000000E+00 0. -1.
         23    2    1    2    0    0  0.48877835231E+03 -0.14897257830E+04  0.61516532637E+02  0.15717032508E+04  0.90992520290E+02 0.  0.
        254    2    1    2    0    0 -0.48877835231E+03  0.14897257830E+04 -0.14112398620E+03  0.18138905255E+04  0.90116351055E+03 0.  0.
        -24    2    4    4    0    0 -0.35161977155E+03  0.10836814651E+04 -0.50241029488E+03  0.12476762083E+04  0.79232789052E+02 0.  0.
         24    2    4    4    0    0 -0.13715858076E+03  0.40604431791E+03  0.36128630868E+03  0.56621431718E+03  0.79914903207E+02 0.  0.
         11    1    3    3    0    0  0.16191857338E+03 -0.59330884492E+03  0.55850253182E+02  0.61753725446E+03  0.00000000000E+00 0. -1.
        -11    1    3    3    0    0  0.32685977893E+03 -0.89641693806E+03  0.56662794549E+01  0.95416599638E+03  0.00000000000E+00 0.  1.
          2    1    6    6  502    0 -0.77681023168E+02  0.33215017309E+03  0.28311833364E+03  0.44329907477E+03  0.00000000000E+00 0. -1.
          1    1    5    5  503    0 -0.34986656804E+03  0.10823554246E+04 -0.50475808438E+03  0.12444599649E+04  0.00000000000E+00 0. -1.
         -2    1    5    5    0  503 -0.17532035111E+01  0.13260405032E+01  0.23477894991E+01  0.32162433832E+01  0.00000000000E+00 0.  1.
         -3    1    6    6    0  502 -0.59477557591E+02  0.73894144823E+02  0.78167975042E+02  0.12291524242E+03  0.00000000000E+00 0.  1.
<mgrwt>
<rscale>  0 0.33846577E+04</rscale>
<asrwt>0</asrwt>
<pdfrwt beam="1">  1        2 0.26655394E+00 0.33846577E+04</pdfrwt>
<pdfrwt beam="2">  1       -2 0.25430664E+00 0.33846577E+04</pdfrwt>
<totfact> 0.47172734E-01</totfact>
</mgrwt>
</event>
<event>
12    1  0.2019083E-007  0.2278875E+04  0.7818608E-02  0.8486297E-01
         -1   -1    0    0    0  501 -0.00000000000E+00  0.00000000000E+00  0.98586503483E+03  0.98586503483E+03  0.00000000000E+00 0.  1.
          1   -1    0    0  501    0  0.00000000000E+00 -0.00000000000E+00 -0.13169328317E+04  0.13169328317E+04  0.00000000000E+00 0. -1.
         23    2    1    2    0    0 -0.29650503612E+03 -0.35906860124E+03  0.70773649346E+03  0.85203167003E+03  0.90672629409E+02 0.  0.
        254    2    1    2    0    0  0.29650503612E+03  0.35906860124E+03 -0.10388042903E+04  0.14507661965E+04  0.89931235198E+03 0.  0.
        -24    2    4    4    0    0  0.11635737029E+03  0.24031987772E+03  0.94027475144E+02  0.29472789552E+03  0.82040752470E+02 0.  0.
         24    2    4    4    0    0  0.18014766583E+03  0.11874872352E+03 -0.11328317654E+04  0.11560383009E+04  0.81008046776E+02 0.  0.
         13    1    3    3    0    0 -0.69098747630E+02 -0.42951572949E+02  0.16589419164E+03  0.18477109450E+03  0.00000000000E+00 0.  1.
        -13    1    3    3    0    0 -0.22740628850E+03 -0.31611702829E+03  0.54184230182E+03  0.66726057553E+03  0.00000000000E+00 0. -1.
          2    1    6    6  502    0  0.63167700248E+02  0.57991748785E+02 -0.27269780584E+03  0.28586237002E+03  0.00000000000E+00 0. -1.
          3    1    5    5  503    0 -0.30859558149E+01  0.37143512054E+02  0.36406075746E+02  0.52101496737E+02  0.00000000000E+00 0. -1.
         -4    1    5    5    0  503  0.11944332611E+03  0.20317636566E+03  0.57621399398E+02  0.24262639878E+03  0.00000000000E+00 0.  1.
         -1    1    6    6    0  502  0.11697996558E+03  0.60756974736E+02 -0.86013395958E+03  0.87017593092E+03  0.00000000000E+00 0.  1.
<mgrwt>
<rscale>  0 0.22788752E+04</rscale>
<asrwt>0</asrwt>
<pdfrwt beam="1">  1        1 0.20260505E+00 0.22788752E+04</pdfrwt>
<pdfrwt beam="2">  1       -1 0.15167154E+00 0.22788752E+04</pdfrwt>
<totfact> 0.26974296E+00</totfact>
</mgrwt>
</event>
<event>
12    1  0.2019083E-007  0.1551935E+04  0.7818608E-02  0.8850633E-01
         -1   -1    0    0    0  501 -0.00000000000E+00  0.00000000000E+00  0.59752867723E+03  0.59752867723E+03  0.00000000000E+00 0.  1.
          1   -1    0    0  501    0  0.00000000000E+00 -0.00000000000E+00 -0.10076930672E+04  0.10076930672E+04  0.00000000000E+00 0. -1.
         23    2    1    2    0    0 -0.31861720320E+03 -0.31972527006E+03 -0.38534980292E+03  0.60010726659E+03  0.88843065634E+02 0.  0.
        254    2    1    2    0    0  0.31861720320E+03  0.31972527006E+03 -0.24814587003E+02  0.10051144778E+04  0.89771831843E+03 0.  0.
        -24    2    4    4    0    0  0.21337618106E+03  0.60866768710E+03  0.11400206977E+03  0.65947273200E+03  0.76824894230E+02 0.  0.
         24    2    4    4    0    0  0.10524102214E+03 -0.28894241704E+03 -0.13881665678E+03  0.34564174579E+03  0.75065032648E+02 0.  0.
         13    1    3    3    0    0 -0.27109376345E+03 -0.23306219227E+03 -0.33152311443E+03  0.48756270310E+03  0.00000000000E+00 0. -1.
        -13    1    3    3    0    0 -0.47523439741E+02 -0.86663077792E+02 -0.53826688487E+02  0.11254456349E+03  0.00000000000E+00 0.  1.
          2    1    6    6  502    0  0.72407530479E+02 -0.24625086035E+03 -0.13876534288E+03  0.29178443597E+03  0.00000000000E+00 0. -1.
          3    1    5    5  503    0  0.14421698125E+03  0.29633698658E+03  0.63078335407E+02  0.33554883950E+03  0.00000000000E+00 0. -1.
         -4    1    5    5    0  503  0.69159199811E+02  0.31233070053E+03  0.50923734368E+02  0.32392389250E+03  0.00000000000E+00 0.  1.
         -1    1    6    6    0  502  0.32833491659E+02 -0.42691556699E+02 -0.51313899562E-01  0.53857309819E+02  0.00000000000E+00 0.  1.
<mgrwt>
<rscale>  0 0.15519349E+04</rscale>
<asrwt>0</asrwt>
<pdfrwt beam="1">  1        1 0.15502970E+00 0.15519349E+04</pdfrwt>
<pdfrwt beam="2">  1       -1 0.91927490E-01 0.15519349E+04</pdfrwt>
<totfact> 0.16571209E+01</totfact>
</mgrwt>
</event>
<event>
12    1  0.2019083E-007  0.1469792E+04  0.7818608E-02  0.8904793E-01
         -2   -1    0    0    0  501 -0.00000000000E+00  0.00000000000E+00  0.32493065267E+03  0.32493065267E+03  0.00000000000E+00 0.  1.
          2   -1    0    0  501    0  0.00000000000E+00 -0.00000000000E+00 -0.16621155912E+04  0.16621155912E+04  0.00000000000E+00 0. -1.
         23    2    1    2    0    0 -0.30223470666E+02 -0.27324279422E+03  0.68285865530E+02  0.29790628702E+03  0.92250277191E+02 0.  0.
        254    2    1    2    0    0  0.30223470666E+02  0.27324279422E+03 -0.14054708040E+04  0.16891399568E+04  0.89569555651E+03 0.  0.
        -24    2    4    4    0    0 -0.24001475426E+03  0.50800453263E+03 -0.91354586713E+03  0.10754673546E+04  0.79926791562E+02 0.  0.
         24    2    4    4    0    0  0.27023822492E+03 -0.23476173842E+03 -0.49192493690E+03  0.61367260222E+03  0.80387481251E+02 0.  0.
         13    1    3    3    0    0 -0.12747141085E+02 -0.24123394122E+03  0.27400642268E+02  0.24311951629E+03  0.00000000000E+00 0. -1.
        -13    1    3    3    0    0 -0.17476329582E+02 -0.32008852997E+02  0.40885223262E+02  0.54786770730E+02  0.00000000000E+00 0.  1.
          2    1    6    6  502    0  0.97223139628E+02 -0.13636578083E+03 -0.23857130502E+03  0.29148624777E+03  0.00000000000E+00 0. -1.
          1    1    5    5  503    0 -0.14427942835E+03  0.38339450290E+03 -0.68405599230E+03  0.79733336748E+03  0.00000000000E+00 0. -1.
         -2    1    5    5    0  503 -0.95735325910E+02  0.12461002973E+03 -0.22948987482E+03  0.27813398711E+03  0.00000000000E+00 0.  1.
         -3    1    6    6    0  502  0.17301508529E+03 -0.98395957588E+02 -0.25335363188E+03  0.32218635445E+03  0.00000000000E+00 0.  1.
<mgrwt>
<rscale>  0 0.14697922E+04</rscale>
<asrwt>0</asrwt>
<pdfrwt beam="1">  1        2 0.25571009E+00 0.14697922E+04</pdfrwt>
<pdfrwt beam="2">  1       -2 0.49989331E-01 0.14697922E+04</pdfrwt>
<totfact> 0.37738510E+01</totfact>
</mgrwt>
</event>
<event>
12    1  0.2019083E-007  0.1379672E+04  0.7818608E-02  0.8968666E-01
         -4   -1    0    0    0  501 -0.00000000000E+00  0.00000000000E+00  0.17258454492E+04  0.17258454492E+04  0.00000000000E+00 0. -1.
          4   -1    0    0  501    0  0.00000000000E+00 -0.00000000000E+00 -0.27573385404E+03  0.27573385404E+03  0.00000000000E+00 0.  1.
         23    2    1    2    0    0 -0.25296931579E+03 -0.19223489111E+03  0.74201237121E+03  0.81242004558E+03  0.92175068952E+02 0.  0.
        254    2    1    2    0    0  0.25296931579E+03  0.19223489111E+03  0.70809922390E+03  0.11891592576E+04  0.90097031084E+03 0.  0.
        -24    2    4    4    0    0  0.21775772516E+03  0.52865072670E+02 -0.17226868582E+03  0.29354352949E+03  0.79234845972E+02 0.  0.
         24    2    4    4    0    0  0.35211590626E+02  0.13936981844E+03  0.88036790972E+03  0.89561572814E+03  0.80100397054E+02 0.  0.
         11    1    3    3    0    0 -0.13343309846E+03 -0.11371762611E+03  0.51589288242E+03  0.54486838446E+03  0.00000000000E+00 0. -1.
        -11    1    3    3    0    0 -0.11953621732E+03 -0.78517264999E+02  0.22611948879E+03  0.26755166111E+03  0.00000000000E+00 0.  1.
          4    1    6    6  502    0 -0.10734220797E+02  0.10858735190E+03  0.56664015787E+03  0.57705069535E+03  0.00000000000E+00 0. -1.
          3    1    5    5  503    0  0.13921387994E+03  0.34032965568E+02 -0.60299560492E+02  0.15548242379E+03  0.00000000000E+00 0. -1.
         -4    1    5    5    0  503  0.78543845225E+02  0.18832107103E+02 -0.11196912533E+03  0.13806110570E+03  0.00000000000E+00 0.  1.
         -3    1    6    6    0  502  0.45945811424E+02  0.30782466541E+02  0.31372775185E+03  0.31856503279E+03  0.00000000000E+00 0.  1.
<mgrwt>
<rscale>  0 0.13796724E+04</rscale>
<asrwt>0</asrwt>
<pdfrwt beam="1">  1        4 0.42420594E-01 0.13796724E+04</pdfrwt>
<pdfrwt beam="2">  1       -4 0.26551468E+00 0.13796724E+04</pdfrwt>
<totfact> 0.53630516E-01</totfact>
</mgrwt>
</event>
<event>
12    1  0.2019083E-007  0.2966815E+04  0.7818608E-02  0.8253271E-01
         -4   -1    0    0    0  501 -0.00000000000E+00  0.00000000000E+00  0.29545333151E+04  0.29545333151E+04  0.00000000000E+00 0.  1.
          4   -1    0    0  501    0  0.00000000000E+00 -0.00000000000E+00 -0.74478679052E+03  0.74478679052E+03  0.00000000000E+00 0. -1.
         23    2    1    2    0    0  0.92988696966E+02  0.10482775597E+04 -0.42273705414E+02  0.10572051755E+04  0.91449314121E+02 0.  0.
        254    2    1    2    0    0 -0.92988696966E+02 -0.10482775597E+04  0.22520202300E+04  0.26421149301E+04  0.89534543493E+03 0.  0.
        -24    2    4    4    0    0 -0.42954406337E+03 -0.26378237785E+03  0.10243275284E+04  0.11446115584E+04  0.82459012985E+02 0.  0.
         24    2    4    4    0    0  0.33655536641E+03 -0.78449518182E+03  0.12276927016E+04  0.14975033718E+04  0.81146620369E+02 0.  0.
         13    1    3    3    0    0  0.22161978964E+02  0.20401554565E+03  0.27774028121E+02  0.20708667948E+03  0.00000000000E+00 0.  1.
        -13    1    3    3    0    0  0.70826718002E+02  0.84426201402E+03 -0.70047733534E+02  0.85011849601E+03  0.00000000000E+00 0. -1.
          2    1    6    6  502    0  0.27728056878E+03 -0.66228141956E+03  0.97796177117E+03  0.12132231528E+04  0.00000000000E+00 0. -1.
          3    1    5    5  503    0 -0.22421442418E+03 -0.12754111090E+03  0.61389659937E+03  0.66588878779E+03  0.00000000000E+00 0. -1.
         -4    1    5    5    0  503 -0.20532963920E+03 -0.13624126695E+03  0.41043092904E+03  0.47872277057E+03  0.00000000000E+00 0.  1.
         -1    1    6    6    0  502  0.59274797627E+02 -0.12221376226E+03  0.24973093040E+03  0.28428021900E+03  0.00000000000E+00 0.  1.
<mgrwt>
<rscale>  0 0.29668147E+04</rscale>
<asrwt>0</asrwt>
<pdfrwt beam="1">  1        4 0.11458258E+00 0.29668147E+04</pdfrwt>
<pdfrwt beam="2">  1       -4 0.45454358E+00 0.29668147E+04</pdfrwt>
<totfact> 0.27642280E-03</totfact>
</mgrwt>
</event>
<event>
12    1  0.2019083E-007  0.2609157E+04  0.7818608E-02  0.8365097E-01
          2   -1    0    0  501    0  0.00000000000E+00  0.00000000000E+00  0.16272031099E+04  0.16272031099E+04  0.00000000000E+00 0. -1.
         -2   -1    0    0    0  501 -0.00000000000E+00 -0.00000000000E+00 -0.10459203498E+04  0.10459203498E+04  0.00000000000E+00 0.  1.
         23    2    1    2    0    0  0.76020889547E+03  0.83293469119E+03  0.37210850105E+02  0.11317458078E+04  0.88125828450E+02 0.  0.
        254    2    1    2    0    0 -0.76020889547E+03 -0.83293469119E+03  0.54407191000E+03  0.15413776519E+04  0.89896221172E+03 0.  0.
        -24    2    4    4    0    0  0.17225392412E+03 -0.18510593827E+03 -0.27034363490E+02  0.26772790414E+03  0.83736199382E+02 0.  0.
         24    2    4    4    0    0 -0.93246281959E+03 -0.64782875292E+03  0.57110627349E+03  0.12736497478E+04  0.82778629070E+02 0.  0.
         11    1    3    3    0    0  0.56430759078E+03  0.57085444696E+03  0.24372982730E+01  0.80269782424E+03  0.00000000000E+00 0. -1.
        -11    1    3    3    0    0  0.19590130469E+03  0.26208024424E+03  0.34773551832E+02  0.32904798359E+03  0.00000000000E+00 0.  1.
          2    1    6    6  502    0 -0.40019699401E+03 -0.26090705402E+03  0.19750645870E+03  0.51695157035E+03  0.00000000000E+00 0. -1.
          3    1    5    5  503    0  0.66364263038E+02 -0.21305005384E+02  0.57812517472E+01  0.69939556295E+02  0.00000000000E+00 0. -1.
         -4    1    5    5    0  503  0.10588966108E+03 -0.16380093289E+03 -0.32815615238E+02  0.19778834784E+03  0.00000000000E+00 0.  1.
         -1    1    6    6    0  502 -0.53226582558E+03 -0.38692169890E+03  0.37359981478E+03  0.75669817745E+03  0.00000000000E+00 0.  1.
<mgrwt>
<rscale>  0 0.26091568E+04</rscale>
<asrwt>0</asrwt>
<pdfrwt beam="1">  1        2 0.25033894E+00 0.26091568E+04</pdfrwt>
<pdfrwt beam="2">  1       -2 0.16091082E+00 0.26091568E+04</pdfrwt>
<totfact> 0.23609764E+00</totfact>
</mgrwt>
</event>
<event>
12    1  0.2027773E-007  0.1892118E+04  0.7818608E-02  0.8658790E-01
         -1   -1    0    0    0  501 -0.00000000000E+00  0.00000000000E+00  0.64848647090E+03  0.64848647090E+03  0.00000000000E+00 0.  1.
          1   -1    0    0  501    0  0.00000000000E+00 -0.00000000000E+00 -0.13801788322E+04  0.13801788322E+04  0.00000000000E+00 0. -1.
         23    2    1    2    0    0  0.60727593130E+03 -0.38960978353E+03 -0.18018624746E+03  0.74930449089E+03  0.91707666684E+02 0.  0.
        254    2    1    2    0    0 -0.60727593130E+03  0.38960978353E+03 -0.55150611388E+03  0.12793608123E+04  0.90112443875E+03 0.  0.
        -24    2    4    4    0    0 -0.31396924945E+02  0.52985590650E+03 -0.37839589913E+03  0.65670680060E+03  0.79670050327E+02 0.  0.
         24    2    4    4    0    0 -0.57587900635E+03 -0.14024612297E+03 -0.17311021476E+03  0.62265401166E+03  0.80157762018E+02 0.  0.
         13    1    3    3    0    0  0.42172438834E+03 -0.31790153743E+03 -0.13994686190E+03  0.54634967866E+03  0.00000000000E+00 0.  1.
        -13    1    3    3    0    0  0.18555154296E+03 -0.71708246101E+02 -0.40239385569E+02  0.20295481222E+03  0.00000000000E+00 0. -1.
          4    1    6    6  502    0 -0.12400064930E+02 -0.11723872949E+02 -0.16782770293E+02  0.23934748503E+02  0.00000000000E+00 0. -1.
          1    1    5    5  503    0  0.99154998739E+01  0.72931296217E+01 -0.11720494868E+02  0.16996378361E+02  0.00000000000E+00 0. -1.
         -2    1    5    5    0  503 -0.41312424819E+02  0.52256277688E+03 -0.36667540426E+03  0.63971042224E+03  0.00000000000E+00 0.  1.
         -3    1    6    6    0  502 -0.56347894142E+03 -0.12852225002E+03 -0.15632744446E+03  0.59871926315E+03  0.00000000000E+00 0.  1.
<mgrwt>
<rscale>  0 0.18921176E+04</rscale>
<asrwt>0</asrwt>
<pdfrwt beam="1">  1        1 0.21233521E+00 0.18921176E+04</pdfrwt>
<pdfrwt beam="2">  1       -1 0.99767149E-01 0.18921176E+04</pdfrwt>
<totfact> 0.71178103E+00</totfact>
</mgrwt>
</event>
<event>
12    1  0.2019083E-007  0.3789080E+04  0.7818608E-02  0.8048502E-01
          2   -1    0    0  501    0  0.00000000000E+00  0.00000000000E+00  0.24519159704E+04  0.24519159704E+04  0.00000000000E+00 0. -1.
         -2   -1    0    0    0  501 -0.00000000000E+00 -0.00000000000E+00 -0.14638685660E+04  0.14638685660E+04  0.00000000000E+00 0.  1.
         23    2    1    2    0    0  0.13729095507E+04 -0.43940366634E+03 -0.62381333190E+03  0.15741659273E+04  0.10439864689E+03 0.  0.
        254    2    1    2    0    0 -0.13729095507E+04  0.43940366634E+03  0.16118607363E+04  0.23416186091E+04  0.89840217096E+03 0.  0.
        -24    2    4    4    0    0 -0.89292838401E+03  0.48985970594E+03  0.15387344903E+04  0.18470155571E+04  0.80492272920E+02 0.  0.
         24    2    4    4    0    0 -0.47998116665E+03 -0.50456039596E+02  0.73126246040E+02  0.49460305200E+03  0.79730790295E+02 0.  0.
         11    1    3    3    0    0  0.33979685666E+03 -0.10274185410E+03 -0.10579440481E+03  0.37041901742E+03  0.00000000000E+00 0. -1.
        -11    1    3    3    0    0  0.10331126940E+04 -0.33666181225E+03 -0.51801892709E+03  0.12037469099E+04  0.00000000000E+00 0.  1.
          4    1    6    6  502    0 -0.13290829244E+02  0.87981304053E+01  0.12540254320E+02  0.20280809131E+02  0.00000000000E+00 0. -1.
          1    1    5    5  503    0 -0.26952604547E+03  0.13840540921E+03  0.52437213664E+03  0.60561248680E+03  0.00000000000E+00 0. -1.
         -2    1    5    5    0  503 -0.62340233854E+03  0.35145429673E+03  0.10143623537E+04  0.12414030703E+04  0.00000000000E+00 0.  1.
         -1    1    6    6    0  502 -0.46669033740E+03 -0.59254170001E+02  0.60585991721E+02  0.47432224287E+03  0.00000000000E+00 0.  1.
<mgrwt>
<rscale>  0 0.37890805E+04</rscale>
<asrwt>0</asrwt>
<pdfrwt beam="1">  1        2 0.37721784E+00 0.37890805E+04</pdfrwt>
<pdfrwt beam="2">  1       -2 0.22521055E+00 0.37890805E+04</pdfrwt>
<totfact> 0.27289727E-01</totfact>
</mgrwt>
</event>
<event>
12    1  0.2019083E-007  0.1126930E+04  0.7818608E-02  0.9179334E-01
         -2   -1    0    0    0  501 -0.00000000000E+00  0.00000000000E+00  0.14084260859E+04  0.14084260859E+04  0.00000000000E+00 0.  1.
          2   -1    0    0  501    0  0.00000000000E+00 -0.00000000000E+00 -0.22542395429E+03  0.22542395429E+03  0.00000000000E+00 0. -1.
         23    2    1    2    0    0  0.15993560474E+03 -0.26153907209E+02  0.35343494103E+03  0.39938663868E+03  0.91268861556E+02 0.  0.
        254    2    1    2    0    0 -0.15993560474E+03  0.26153907209E+02  0.82956719054E+03  0.12344634015E+04  0.89969702758E+03 0.  0.
        -24    2    4    4    0    0  0.67613445514E+02 -0.30547248247E+03  0.74993055530E+03  0.81669408996E+03  0.81904720487E+02 0.  0.
         24    2    4    4    0    0 -0.22754905026E+03  0.33162638968E+03  0.79636635242E+02  0.41776931152E+03  0.80215780066E+02 0.  0.
         11    1    3    3    0    0  0.20256898704E+01  0.19260835617E+02  0.21033077536E+02  0.28591494518E+02  0.00000000000E+00 0. -1.
        -11    1    3    3    0    0  0.15790991487E+03 -0.45414742827E+02  0.33240186349E+03  0.37079514416E+03  0.00000000000E+00 0.  1.
          4    1    6    6  502    0  0.10777839657E+01  0.37242509175E+02  0.10096660841E+02  0.38601925705E+02  0.00000000000E+00 0. -1.
          1    1    5    5  503    0 -0.49679323919E+01 -0.21457259676E+01  0.11192133866E+01  0.55260411492E+01  0.00000000000E+00 0. -1.
         -4    1    5    5    0  503  0.72581377906E+02 -0.30332675650E+03  0.74881134191E+03  0.81116804881E+03  0.00000000000E+00 0.  1.
         -3    1    6    6    0  502 -0.22862683422E+03  0.29438388050E+03  0.69539974401E+02  0.37916738582E+03  0.00000000000E+00 0.  1.
<mgrwt>
<rscale>  0 0.11269303E+04</rscale>
<asrwt>0</asrwt>
<pdfrwt beam="1">  1        2 0.34680609E-01 0.11269303E+04</pdfrwt>
<pdfrwt beam="2">  1       -2 0.21668093E+00 0.11269303E+04</pdfrwt>
<totfact> 0.15561003E+01</totfact>
</mgrwt>
</event>
<event>
12    1  0.2019083E-007  0.1456917E+04  0.7818608E-02  0.8913619E-01
         -2   -1    0    0    0  501 -0.00000000000E+00  0.00000000000E+00  0.15293931729E+03  0.15293931729E+03  0.00000000000E+00 0.  1.
          2   -1    0    0  501    0  0.00000000000E+00 -0.00000000000E+00 -0.34696879526E+04  0.34696879526E+04  0.00000000000E+00 0. -1.
         23    2    1    2    0    0  0.57520976545E+02  0.41521384124E+03 -0.14051964247E+04  0.14692257451E+04  0.91302252473E+02 0.  0.
        254    2    1    2    0    0 -0.57520976545E+02 -0.41521384124E+03 -0.19115522106E+04  0.21534015248E+04  0.89855165487E+03 0.  0.
        -24    2    4    4    0    0  0.27171909363E+03  0.15077533058E+03 -0.48055720344E+03  0.57771545009E+03  0.79091398637E+02 0.  0.
         24    2    4    4    0    0 -0.32924007018E+03 -0.56598917182E+03 -0.14309950072E+04  0.15756860747E+04  0.79354452241E+02 0.  0.
         13    1    3    3    0    0  0.10496987774E+02  0.32656740838E+03 -0.10126584693E+04  0.10640646758E+04  0.00000000000E+00 0. -1.
        -13    1    3    3    0    0  0.47023988771E+02  0.88646432862E+02 -0.39253795544E+03  0.40516106926E+03  0.00000000000E+00 0.  1.
          4    1    6    6  502    0 -0.67219356962E+02 -0.13033308089E+03 -0.24856595379E+03  0.28860039381E+03  0.00000000000E+00 0. -1.
          3    1    5    5  503    0  0.66170801611E+02  0.30990633409E+02 -0.18091880012E+03  0.19511690491E+03  0.00000000000E+00 0. -1.
         -4    1    5    5    0  503  0.20554829202E+03  0.11978469717E+03 -0.29963840332E+03  0.38259854518E+03  0.00000000000E+00 0.  1.
         -3    1    6    6    0  502 -0.26202071321E+03 -0.43565609093E+03 -0.11824290534E+04  0.12870856809E+04  0.00000000000E+00 0.  1.
<mgrwt>
<rscale>  0 0.14569169E+04</rscale>
<asrwt>0</asrwt>
<pdfrwt beam="1">  1        2 0.53379814E+00 0.14569169E+04</pdfrwt>
<pdfrwt beam="2">  1       -2 0.23529126E-01 0.14569169E+04</pdfrwt>
<totfact> 0.13443341E+01</totfact>
</mgrwt>
</event>
<event>
12    1  0.2019083E-007  0.2139600E+04  0.7818608E-02  0.8543997E-01
          2   -1    0    0  501    0  0.00000000000E+00  0.00000000000E+00  0.15662670718E+04  0.15662670718E+04  0.00000000000E+00 0. -1.
         -2   -1    0    0    0  501 -0.00000000000E+00 -0.00000000000E+00 -0.73070074647E+03  0.73070074647E+03  0.00000000000E+00 0.  1.
         23    2    1    2    0    0 -0.28391112273E+03 -0.27060423396E+03 -0.49813120225E+03  0.64039346487E+03  0.90204867626E+02 0.  0.
        254    2    1    2    0    0  0.28391112273E+03  0.27060423396E+03  0.13336975276E+04  0.16565743534E+04  0.90092026074E+03 0.  0.
        -24    2    4    4    0    0 -0.27908829528E+03  0.25451642189E+03  0.35468252247E+03  0.52424084701E+03  0.79748908221E+02 0.  0.
         24    2    4    4    0    0  0.56299941801E+03  0.16087812077E+02  0.97901500516E+03  0.11323335064E+04  0.80508552700E+02 0.  0.
         13    1    3    3    0    0 -0.28931714591E+03 -0.26029805861E+03 -0.49175792706E+03  0.62712466788E+03  0.00000000000E+00 0.  1.
        -13    1    3    3    0    0  0.54060231740E+01 -0.10306175360E+02 -0.63732751890E+01  0.13268796997E+02  0.00000000000E+00 0. -1.
          2    1    6    6  502    0  0.36633319859E+02 -0.18408435896E+02  0.83089772311E+02  0.92654092725E+02  0.00000000000E+00 0. -1.
          1    1    5    5  503    0 -0.84813918646E+02  0.12160228008E+03  0.16595465958E+03  0.22253418693E+03  0.00000000000E+00 0. -1.
         -2    1    5    5    0  503 -0.19427437663E+03  0.13291414180E+03  0.18872786289E+03  0.30170666008E+03  0.00000000000E+00 0.  1.
         -1    1    6    6    0  502  0.52636609815E+03  0.34496247973E+02  0.89592523285E+03  0.10396794137E+04  0.00000000000E+00 0.  1.
<mgrwt>
<rscale>  0 0.21396004E+04</rscale>
<asrwt>0</asrwt>
<pdfrwt beam="1">  1        2 0.24096416E+00 0.21396004E+04</pdfrwt>
<pdfrwt beam="2">  1       -2 0.11241550E+00 0.21396004E+04</pdfrwt>
<totfact> 0.66696483E+00</totfact>
</mgrwt>
</event>
<event>
12    1  0.2019083E-007  0.2149358E+04  0.7818608E-02  0.8539807E-01
         -2   -1    0    0    0  501 -0.00000000000E+00  0.00000000000E+00  0.17415624173E+04  0.17415624173E+04  0.00000000000E+00 0.  1.
          2   -1    0    0  501    0  0.00000000000E+00 -0.00000000000E+00 -0.66316001509E+03  0.66316001509E+03  0.00000000000E+00 0. -1.
         23    2    1    2    0    0  0.56731843935E+02  0.86789625665E+03  0.27207915191E+03  0.91586500297E+03  0.91209781993E+02 0.  0.
        254    2    1    2    0    0 -0.56731843935E+02 -0.86789625665E+03  0.80632325032E+03  0.14888574294E+04  0.90004269165E+03 0.  0.
        -24    2    4    4    0    0 -0.40371619650E+03 -0.30295557734E+03  0.60422880923E+03  0.79131628380E+03  0.79499421022E+02 0.  0.
         24    2    4    4    0    0  0.34698435257E+03 -0.56494067931E+03  0.20209444109E+03  0.69754114565E+03  0.78519899977E+02 0.  0.
         11    1    3    3    0    0 -0.19667907762E+02  0.86970234787E+02  0.39019672479E+02  0.97330278819E+02  0.00000000000E+00 0.  1.
        -11    1    3    3    0    0  0.76399751697E+02  0.78092602187E+03  0.23305947943E+03  0.81853472415E+03  0.00000000000E+00 0. -1.
          4    1    6    6  502    0  0.31773611238E+03 -0.51159713988E+03  0.15864006774E+03  0.62277968956E+03  0.00000000000E+00 0. -1.
          1    1    5    5  503    0 -0.19212589926E+03 -0.18150131811E+03  0.35463813975E+03  0.44229322831E+03  0.00000000000E+00 0. -1.
         -2    1    5    5    0  503 -0.21159029724E+03 -0.12145425923E+03  0.24959066948E+03  0.34902305549E+03  0.00000000000E+00 0.  1.
         -3    1    6    6    0  502  0.29248240190E+02 -0.53343539432E+02  0.43454373349E+02  0.74761456088E+02  0.00000000000E+00 0.  1.
<mgrwt>
<rscale>  0 0.21493576E+04</rscale>
<asrwt>0</asrwt>
<pdfrwt beam="1">  1        2 0.10202462E+00 0.21493576E+04</pdfrwt>
<pdfrwt beam="2">  1       -2 0.26793268E+00 0.21493576E+04</pdfrwt>
<totfact> 0.20085993E+00</totfact>
</mgrwt>
</event>
<event>
12    1  0.2019083E-007  0.1028983E+04  0.7818608E-02  0.9277315E-01
         -1   -1    0    0    0  501 -0.00000000000E+00  0.00000000000E+00  0.41943127634E+03  0.41943127634E+03  0.00000000000E+00 0.  1.
          1   -1    0    0  501    0  0.00000000000E+00 -0.00000000000E+00 -0.63109684425E+03  0.63109684425E+03  0.00000000000E+00 0. -1.
         23    2    1    2    0    0  0.77389648449E+01 -0.33273815781E+02 -0.10285203488E+03  0.14252722510E+03  0.92565816705E+02 0.  0.
        254    2    1    2    0    0 -0.77389648449E+01  0.33273815781E+02 -0.10881353303E+03  0.90800089549E+03  0.90080974842E+03 0.  0.
        -24    2    4    4    0    0 -0.92006205498E+02  0.34045038274E+03 -0.34788641470E+03  0.50173841892E+03  0.79654745814E+02 0.  0.
         24    2    4    4    0    0  0.84267240653E+02 -0.30717656696E+03  0.23907288167E+03  0.40626247657E+03  0.80218115049E+02 0.  0.
         13    1    3    3    0    0  0.27065726851E+02 -0.40039785614E+02 -0.11054892182E+03  0.12065157321E+03  0.00000000000E+00 0. -1.
        -13    1    3    3    0    0 -0.19326762006E+02  0.67659698324E+01  0.76968869346E+01  0.21875651896E+02  0.00000000000E+00 0.  1.
          2    1    6    6  502    0  0.59117519841E+02 -0.78399312404E+02  0.76671550494E+02  0.12457873010E+03  0.00000000000E+00 0. -1.
          3    1    5    5  503    0 -0.10157277748E+03  0.29971789619E+03 -0.32669230228E+03  0.45483591194E+03  0.00000000000E+00 0. -1.
         -4    1    5    5    0  503  0.95665719780E+01  0.40732486551E+02 -0.21194112424E+02  0.46902506985E+02  0.00000000000E+00 0.  1.
         -1    1    6    6    0  502  0.25149720812E+02 -0.22877725455E+03  0.16240133118E+03  0.28168374647E+03  0.00000000000E+00 0.  1.
<mgrwt>
<rscale>  0 0.10289835E+04</rscale>
<asrwt>0</asrwt>
<pdfrwt beam="1">  1        1 0.97091822E-01 0.10289835E+04</pdfrwt>
<pdfrwt beam="2">  1       -1 0.64527889E-01 0.10289835E+04</pdfrwt>
<totfact> 0.77568567E+01</totfact>
</mgrwt>
</event>
<event>
12    1  0.2019083E-007  0.1580031E+04  0.7818608E-02  0.8832910E-01
         -1   -1    0    0    0  501 -0.00000000000E+00  0.00000000000E+00  0.31538344682E+03  0.31538344682E+03  0.00000000000E+00 0.  1.
          1   -1    0    0  501    0  0.00000000000E+00 -0.00000000000E+00 -0.19789392951E+04  0.19789392951E+04  0.00000000000E+00 0. -1.
         23    2    1    2    0    0  0.14142545754E+03  0.46068975047E+03 -0.87054830271E+03  0.99908138044E+03  0.89850159569E+02 0.  0.
        254    2    1    2    0    0 -0.14142545754E+03 -0.46068975047E+03 -0.79300754558E+03  0.12952413615E+04  0.90363322811E+03 0.  0.
        -24    2    4    4    0    0 -0.10554465748E+03  0.25358976029E+03 -0.34236860946E+03  0.44616264288E+03  0.79983735330E+02 0.  0.
         24    2    4    4    0    0 -0.35880800065E+02 -0.71427951076E+03 -0.45063893612E+03  0.84907871861E+03  0.79853417868E+02 0.  0.
         13    1    3    3    0    0  0.56673404126E+02  0.27887281951E+03 -0.43867531659E+03  0.52289383013E+03  0.00000000000E+00 0.  1.
        -13    1    3    3    0    0  0.84752053415E+02  0.18181693096E+03 -0.43187298611E+03  0.47618755032E+03  0.00000000000E+00 0. -1.
          2    1    6    6  502    0 -0.41622132267E+02 -0.64180196506E+03 -0.42944962347E+03  0.77334930229E+03  0.00000000000E+00 0. -1.
          1    1    5    5  503    0 -0.63810470061E+02  0.14451317881E+03 -0.25634645159E+03  0.30111349718E+03  0.00000000000E+00 0. -1.
         -2    1    5    5    0  503 -0.41734187415E+02  0.10907658147E+03 -0.86022157868E+02  0.14504914570E+03  0.00000000000E+00 0.  1.
         -1    1    6    6    0  502  0.57413322023E+01 -0.72477545697E+02 -0.21189312650E+02  0.75729416320E+02  0.00000000000E+00 0.  1.
<mgrwt>
<rscale>  0 0.15800313E+04</rscale>
<asrwt>0</asrwt>
<pdfrwt beam="1">  1        1 0.30445219E+00 0.15800313E+04</pdfrwt>
<pdfrwt beam="2">  1       -1 0.48520531E-01 0.15800313E+04</pdfrwt>
<totfact> 0.12584348E+01</totfact>
</mgrwt>
</event>
<event>
12    1  0.2019083E-007  0.1829073E+04  0.7818608E-02  0.8690990E-01
         -2   -1    0    0    0  501 -0.00000000000E+00  0.00000000000E+00  0.96750584241E+03  0.96750584241E+03  0.00000000000E+00 0. -1.
          2   -1    0    0  501    0  0.00000000000E+00 -0.00000000000E+00 -0.86446667688E+03  0.86446667688E+03  0.00000000000E+00 0.  1.
         23    2    1    2    0    0  0.43582947995E+03 -0.35037156687E+03 -0.36443202900E+03  0.67372353131E+03  0.91570314039E+02 0.  0.
        254    2    1    2    0    0 -0.43582947995E+03  0.35037156687E+03  0.46747119453E+03  0.11582489880E+04  0.90016877860E+03 0.  0.
        -24    2    4    4    0    0 -0.20039632785E+03  0.37221166909E+03 -0.17785148154E+03  0.46527152823E+03  0.78397899628E+02 0.  0.
         24    2    4    4    0    0 -0.23543315210E+03 -0.21840102227E+02  0.64532267608E+03  0.69297745975E+03  0.88716651726E+02 0.  0.
         13    1    3    3    0    0  0.61125183230E+02 -0.74843903652E+02 -0.31117045915E+02  0.10151930105E+03  0.00000000000E+00 0. -1.
        -13    1    3    3    0    0  0.37470429672E+03 -0.27552766322E+03 -0.33331498309E+03  0.57220423026E+03  0.00000000000E+00 0.  1.
          2    1    6    6  502    0 -0.16655479754E+03  0.21464709116E+02  0.48387752492E+03  0.51219009503E+03  0.00000000000E+00 0. -1.
          3    1    5    5  503    0 -0.19814442973E+03  0.33117316979E+03 -0.14361315249E+03  0.41177860676E+03  0.00000000000E+00 0. -1.
         -2    1    5    5    0  503 -0.22518981245E+01  0.41038499306E+02 -0.34238329054E+02  0.53492921465E+02  0.00000000000E+00 0.  1.
         -1    1    6    6    0  502 -0.68878354556E+02 -0.43304811344E+02  0.16144515115E+03  0.18078736472E+03  0.00000000000E+00 0.  1.
<mgrwt>
<rscale>  0 0.18290725E+04</rscale>
<asrwt>0</asrwt>
<pdfrwt beam="1">  1        2 0.13299487E+00 0.18290725E+04</pdfrwt>
<pdfrwt beam="2">  1       -2 0.14884705E+00 0.18290725E+04</pdfrwt>
<totfact> 0.89299944E+00</totfact>
</mgrwt>
</event>
<event>
12    1  0.2019083E-007  0.2059695E+04  0.7818608E-02  0.8579209E-01
         -2   -1    0    0    0  501 -0.00000000000E+00  0.00000000000E+00  0.53122008119E+03  0.53122008119E+03  0.00000000000E+00 0.  1.
          2   -1    0    0  501    0  0.00000000000E+00 -0.00000000000E+00 -0.19965098467E+04  0.19965098467E+04  0.00000000000E+00 0. -1.
         23    2    1    2    0    0 -0.36067131747E+03  0.48310988649E+03 -0.12944038813E+04  0.14308123679E+04  0.90904688553E+02 0.  0.
        254    2    1    2    0    0  0.36067131747E+03 -0.48310988649E+03 -0.17088588416E+03  0.10969175600E+04  0.90030394107E+03 0.  0.
        -24    2    4    4    0    0  0.34143288759E+03  0.16617691898E+03 -0.20790137921E+03  0.44073669238E+03  0.82672023075E+02 0.  0.
         24    2    4    4    0    0  0.19238429883E+02 -0.64928680547E+03  0.37015495056E+02  0.65618086760E+03  0.85203938771E+02 0.  0.
         11    1    3    3    0    0 -0.24373053025E+03  0.25430793707E+03 -0.71945987449E+03  0.80106155146E+03  0.00000000000E+00 0.  1.
        -11    1    3    3    0    0 -0.11694078723E+03  0.22880194942E+03 -0.57494400682E+03  0.62975081640E+03  0.00000000000E+00 0. -1.
          2    1    6    6  502    0 -0.29491050113E+02 -0.13785639002E+03  0.17571249331E+02  0.14206637572E+03  0.00000000000E+00 0. -1.
          1    1    5    5  503    0  0.13997500891E+03  0.27173663593E+02 -0.93904265653E+02  0.17073201873E+03  0.00000000000E+00 0. -1.
         -2    1    5    5    0  503  0.20145787868E+03  0.13900325539E+03 -0.11399711356E+03  0.27000467365E+03  0.00000000000E+00 0.  1.
         -1    1    6    6    0  502  0.48729479996E+02 -0.51143041545E+03  0.19444245725E+02  0.51411449188E+03  0.00000000000E+00 0.  1.
<mgrwt>
<rscale>  0 0.20596952E+04</rscale>
<asrwt>0</asrwt>
<pdfrwt beam="1">  1        2 0.30715536E+00 0.20596952E+04</pdfrwt>
<pdfrwt beam="2">  1       -2 0.81726166E-01 0.20596952E+04</pdfrwt>
<totfact> 0.81730556E+00</totfact>
</mgrwt>
</event>
<event>
12    1  0.2019083E-007  0.2559144E+04  0.7818608E-02  0.8382213E-01
          1   -1    0    0  501    0  0.00000000000E+00  0.00000000000E+00  0.12721698036E+04  0.12721698036E+04  0.00000000000E+00 0. -1.
         -1   -1    0    0    0  501 -0.00000000000E+00 -0.00000000000E+00 -0.12870176989E+04  0.12870176989E+04  0.00000000000E+00 0.  1.
         23    2    1    2    0    0  0.27899846540E+03  0.98145408733E+03 -0.46818216582E+03  0.11260259857E+04  0.87451190879E+02 0.  0.
        254    2    1    2    0    0 -0.27899846540E+03 -0.98145408733E+03  0.45333427052E+03  0.14331615168E+04  0.89852529358E+03 0.  0.
        -24    2    4    4    0    0  0.32136626522E+03 -0.40575268903E+03  0.16423371377E+03  0.54889250125E+03  0.79992150350E+02 0.  0.
         24    2    4    4    0    0 -0.60036473061E+03 -0.57570139830E+03  0.28910055676E+03  0.88426901556E+03  0.80514906674E+02 0.  0.
         13    1    3    3    0    0  0.77373633196E+02  0.41533572982E+03 -0.17361125652E+03  0.45676177157E+03  0.00000000000E+00 0. -1.
        -13    1    3    3    0    0  0.20162483220E+03  0.56611835752E+03 -0.29457090930E+03  0.66926421410E+03  0.00000000000E+00 0.  1.
          4    1    6    6  502    0 -0.35459926171E+03 -0.37822293674E+03  0.15035412940E+03  0.53981440376E+03  0.00000000000E+00 0. -1.
          1    1    5    5  503    0  0.75353509965E+01 -0.44544379130E+02  0.11663796786E+02  0.46658626021E+02  0.00000000000E+00 0. -1.
         -2    1    5    5    0  503  0.31383091422E+03 -0.36120830990E+03  0.15256991698E+03  0.50223387523E+03  0.00000000000E+00 0.  1.
         -3    1    6    6    0  502 -0.24576546890E+03 -0.19747846156E+03  0.13874642736E+03  0.34445461180E+03  0.00000000000E+00 0.  1.
<mgrwt>
<rscale>  0 0.25591444E+04</rscale>
<asrwt>0</asrwt>
<pdfrwt beam="1">  1        1 0.19571843E+00 0.25591444E+04</pdfrwt>
<pdfrwt beam="2">  1       -1 0.19800272E+00 0.25591444E+04</pdfrwt>
<totfact> 0.13007120E+00</totfact>
</mgrwt>
</event>
<event>
12    1  0.2019083E-007  0.1297361E+04  0.7818608E-02  0.9031660E-01
         -1   -1    0    0    0  501 -0.00000000000E+00  0.00000000000E+00  0.32408804149E+03  0.32408804149E+03  0.00000000000E+00 0. -1.
          1   -1    0    0  501    0  0.00000000000E+00 -0.00000000000E+00 -0.12983713208E+04  0.12983713208E+04  0.00000000000E+00 0.  1.
         23    2    1    2    0    0 -0.14315560645E+03  0.29175984859E+03 -0.30264401381E+03  0.45307424729E+03  0.89808337893E+02 0.  0.
        254    2    1    2    0    0  0.14315560645E+03 -0.29175984859E+03 -0.67163926554E+03  0.11693851150E+04  0.90041374232E+03 0.  0.
        -24    2    4    4    0    0  0.16772688888E+03 -0.59828054441E+03 -0.35185624528E+03  0.71858416080E+03  0.80550976013E+02 0.  0.
         24    2    4    4    0    0 -0.24571282436E+02  0.30652069582E+03 -0.31978302026E+03  0.45080095424E+03  0.80010220657E+02 0.  0.
         13    1    3    3    0    0 -0.11133230551E+03  0.23739846327E+03 -0.28582296184E+03  0.38787585402E+03  0.00000000000E+00 0.  1.
        -13    1    3    3    0    0 -0.31823300942E+02  0.54361385312E+02 -0.16821051974E+02  0.65198393274E+02  0.00000000000E+00 0. -1.
          2    1    6    6  502    0 -0.69462542251E+01  0.29664853279E+03 -0.29076054313E+03  0.41543988241E+03  0.00000000000E+00 0. -1.
          1    1    5    5  503    0  0.16180205996E+03 -0.59761654117E+03 -0.35272539493E+03  0.71255921937E+03  0.00000000000E+00 0. -1.
         -2    1    5    5    0  503  0.59248289200E+01 -0.66400324006E+00  0.86914965358E+00  0.60249414233E+01  0.00000000000E+00 0.  1.
         -1    1    6    6    0  502 -0.17625028210E+02  0.98721630325E+01 -0.29022477131E+02  0.35361071833E+02  0.00000000000E+00 0.  1.
<mgrwt>
<rscale>  0 0.12973614E+04</rscale>
<asrwt>0</asrwt>
<pdfrwt beam="1">  1        1 0.19974943E+00 0.12973614E+04</pdfrwt>
<pdfrwt beam="2">  1       -1 0.49859699E-01 0.12973614E+04</pdfrwt>
<totfact> 0.35961084E+01</totfact>
</mgrwt>
</event>
<event>
12    1  0.2019083E-007  0.1524973E+04  0.7818608E-02  0.8868014E-01
          2   -1    0    0  501    0  0.00000000000E+00  0.00000000000E+00  0.65666983321E+03  0.65666983321E+03  0.00000000000E+00 0. -1.
         -2   -1    0    0    0  501 -0.00000000000E+00 -0.00000000000E+00 -0.88535454320E+03  0.88535454320E+03  0.00000000000E+00 0.  1.
         23    2    1    2    0    0 -0.12840166340E+00 -0.43585122647E+03  0.15643774086E+03  0.47220770492E+03  0.92417756498E+02 0.  0.
        254    2    1    2    0    0  0.12840166340E+00  0.43585122647E+03 -0.38512245085E+03  0.10698166715E+04  0.89789871385E+03 0.  0.
        -24    2    4    4    0    0 -0.22624719109E+03  0.20975217437E+03 -0.59784258512E+03  0.67741540485E+03  0.79322808904E+02 0.  0.
         24    2    4    4    0    0  0.22637559276E+03  0.22609905210E+03  0.21272013427E+03  0.39240126663E+03  0.79763451366E+02 0.  0.
         11    1    3    3    0    0  0.44715983896E+01 -0.12681438223E+03  0.24886302518E+01  0.12691759537E+03  0.00000000000E+00 0.  1.
        -11    1    3    3    0    0 -0.46000000530E+01 -0.30903684424E+03  0.15394911061E+03  0.34529010956E+03  0.00000000000E+00 0. -1.
          4    1    6    6  502    0  0.13506630887E+03  0.10770348648E+03  0.72251658697E+02  0.18725183838E+03  0.00000000000E+00 0. -1.
          3    1    5    5  503    0 -0.69416793362E+02  0.39982394700E+02 -0.96894969727E+02  0.12572159021E+03  0.00000000000E+00 0. -1.
         -4    1    5    5    0  503 -0.15683039773E+03  0.16976977967E+03 -0.50094761539E+03  0.55169381464E+03  0.00000000000E+00 0.  1.
         -3    1    6    6    0  502  0.91309283886E+02  0.11839556562E+03  0.14046847558E+03  0.20514942826E+03  0.00000000000E+00 0.  1.
<mgrwt>
<rscale>  0 0.15249729E+04</rscale>
<asrwt>0</asrwt>
<pdfrwt beam="1">  1        2 0.10102613E+00 0.15249729E+04</pdfrwt>
<pdfrwt beam="2">  1       -2 0.13620839E+00 0.15249729E+04</pdfrwt>
<totfact> 0.16502651E+01</totfact>
</mgrwt>
</event>
<event>
12    1  0.2019083E-007  0.1584776E+04  0.7818608E-02  0.8829956E-01
          2   -1    0    0  501    0  0.00000000000E+00  0.00000000000E+00  0.22052027469E+04  0.22052027469E+04  0.00000000000E+00 0. -1.
         -2   -1    0    0    0  501 -0.00000000000E+00 -0.00000000000E+00 -0.28472603956E+03  0.28472603956E+03  0.00000000000E+00 0.  1.
         23    2    1    2    0    0 -0.45804866729E+03  0.75750262052E+02  0.25081232427E+03  0.53540969126E+03  0.90609225208E+02 0.  0.
        254    2    1    2    0    0  0.45804866729E+03 -0.75750262052E+02  0.16696643831E+04  0.19545190952E+04  0.90378042554E+03 0.  0.
        -24    2    4    4    0    0  0.41506879728E+03 -0.32837950256E+03  0.15821409937E+04  0.16701650249E+04  0.78523132224E+02 0.  0.
         24    2    4    4    0    0  0.42979870010E+02  0.25262924051E+03  0.87523389462E+02  0.28435407037E+03  0.86764573693E+02 0.  0.
         11    1    3    3    0    0 -0.24806791167E+03  0.43414175695E+02  0.18668544783E+03  0.31348673957E+03  0.00000000000E+00 0.  1.
        -11    1    3    3    0    0 -0.20998075561E+03  0.32336086357E+02  0.64126876438E+02  0.22192295170E+03  0.00000000000E+00 0. -1.
          2    1    6    6  502    0 -0.15898790810E+02  0.62079990949E+02 -0.54387818032E+01  0.64313895644E+02  0.00000000000E+00 0. -1.
          3    1    5    5  503    0  0.16011586095E+03 -0.91818804618E+02  0.63048615833E+03  0.65694792614E+03  0.00000000000E+00 0. -1.
         -4    1    5    5    0  503  0.25495293632E+03 -0.23656069794E+03  0.95165483533E+03  0.10132170987E+04  0.00000000000E+00 0.  1.
         -1    1    6    6    0  502  0.58878660821E+02  0.19054924956E+03  0.92962171265E+02  0.22004017473E+03  0.00000000000E+00 0.  1.
<mgrwt>
<rscale>  0 0.15847759E+04</rscale>
<asrwt>0</asrwt>
<pdfrwt beam="1">  1        2 0.33926195E+00 0.15847759E+04</pdfrwt>
<pdfrwt beam="2">  1       -2 0.43804008E-01 0.15847759E+04</pdfrwt>
<totfact> 0.24356089E+01</totfact>
</mgrwt>
</event>
<event>
12    1  0.2019083E-007  0.1243449E+04  0.7818608E-02  0.9075653E-01
          2   -1    0    0  501    0  0.00000000000E+00  0.00000000000E+00  0.10684408477E+04  0.10684408477E+04  0.00000000000E+00 0. -1.
         -2   -1    0    0    0  501 -0.00000000000E+00 -0.00000000000E+00 -0.36178082624E+03  0.36178082624E+03  0.00000000000E+00 0.  1.
         23    2    1    2    0    0  0.16169035248E+03  0.13275766350E+03  0.39158627611E+03  0.45311741165E+03  0.90593652099E+02 0.  0.
        254    2    1    2    0    0 -0.16169035248E+03 -0.13275766350E+03  0.31507374541E+03  0.97710426233E+03  0.90094001305E+03 0.  0.
        -24    2    4    4    0    0 -0.52288984370E+03 -0.43938411435E+02  0.10279801794E+03  0.54118166504E+03  0.83461305036E+02 0.  0.
         24    2    4    4    0    0  0.36119949121E+03 -0.88819252067E+02  0.21227572747E+03  0.43592259730E+03  0.81324008596E+02 0.  0.
         11    1    3    3    0    0  0.10022170448E+03  0.48942684146E+02  0.27592997703E+03  0.29761909987E+03  0.00000000000E+00 0. -1.
        -11    1    3    3    0    0  0.61468648005E+02  0.83814979356E+02  0.11565629907E+03  0.15549831178E+03  0.00000000000E+00 0.  1.
          4    1    6    6  502    0  0.20278679481E+03 -0.58184097244E+02  0.74443449598E+02  0.22371790387E+03  0.00000000000E+00 0. -1.
          3    1    5    5  503    0 -0.25048816267E+02  0.14818518343E+02  0.13131568594E+02  0.31929136788E+02  0.00000000000E+00 0. -1.
         -2    1    5    5    0  503 -0.49784102743E+03 -0.58756929779E+02  0.89666449344E+02  0.50925252825E+03  0.00000000000E+00 0.  1.
         -3    1    6    6    0  502  0.15841269640E+03 -0.30635154823E+02  0.13783227787E+03  0.21220469343E+03  0.00000000000E+00 0.  1.
<mgrwt>
<rscale>  0 0.12434491E+04</rscale>
<asrwt>0</asrwt>
<pdfrwt beam="1">  1        2 0.16437551E+00 0.12434491E+04</pdfrwt>
<pdfrwt beam="2">  1       -2 0.55658589E-01 0.12434491E+04</pdfrwt>
<totfact> 0.68013105E+01</totfact>
</mgrwt>
</event>
<event>
12    1  0.2019083E-007  0.2106117E+04  0.7818608E-02  0.8558554E-01
         -2   -1    0    0    0  501 -0.00000000000E+00  0.00000000000E+00  0.35897690565E+03  0.35897690565E+03  0.00000000000E+00 0. -1.
          2   -1    0    0  501    0  0.00000000000E+00 -0.00000000000E+00 -0.30891456539E+04  0.30891456539E+04  0.00000000000E+00 0.  1.
         23    2    1    2    0    0 -0.49705296122E+03  0.59610727290E+03 -0.17185630169E+04  0.18880016084E+04  0.93197118779E+02 0.  0.
        254    2    1    2    0    0  0.49705296122E+03 -0.59610727290E+03 -0.10116057314E+04  0.15601209512E+04  0.89901373723E+03 0.  0.
        -24    2    4    4    0    0 -0.64391807441E+02 -0.52356180466E+03 -0.77629183873E+03  0.94228973635E+03  0.83771475952E+02 0.  0.
         24    2    4    4    0    0  0.56144476866E+03 -0.72545468240E+02 -0.23531389263E+03  0.61783121489E+03  0.76548734892E+02 0.  0.
         13    1    3    3    0    0 -0.36479735133E+03  0.40141939643E+03 -0.12822179073E+04  0.13922274962E+04  0.00000000000E+00 0. -1.
        -13    1    3    3    0    0 -0.13225560989E+03  0.19468787647E+03 -0.43634510960E+03  0.49577411214E+03  0.00000000000E+00 0.  1.
          4    1    6    6  502    0  0.20106672302E+03 -0.48483539495E+02 -0.54346919724E+02  0.21385057491E+03  0.00000000000E+00 0. -1.
          3    1    5    5  503    0 -0.67830821271E+02 -0.26859471855E+03 -0.44579364569E+03  0.52485818816E+03  0.00000000000E+00 0. -1.
         -4    1    5    5    0  503  0.34390138295E+01 -0.25496708610E+03 -0.33049819305E+03  0.41743154818E+03  0.00000000000E+00 0.  1.
         -3    1    6    6    0  502  0.36037804564E+03 -0.24061928745E+02 -0.18096697291E+03  0.40398063998E+03  0.00000000000E+00 0.  1.
<mgrwt>
<rscale>  0 0.21061168E+04</rscale>
<asrwt>0</asrwt>
<pdfrwt beam="1">  1        2 0.47525318E+00 0.21061168E+04</pdfrwt>
<pdfrwt beam="2">  1       -2 0.55227216E-01 0.21061168E+04</pdfrwt>
<totfact> 0.43506007E+00</totfact>
</mgrwt>
</event>
<event>
12    1  0.2019083E-007  0.5747956E+04  0.7818608E-02  0.7722462E-01
          1   -1    0    0  501    0  0.00000000000E+00  0.00000000000E+00  0.19855323147E+04  0.19855323147E+04  0.00000000000E+00 0. -1.
         -1   -1    0    0    0  501 -0.00000000000E+00 -0.00000000000E+00 -0.41599678755E+04  0.41599678755E+04  0.00000000000E+00 0.  1.
         23    2    1    2    0    0  0.20320189634E+03  0.25109702724E+04  0.25250621646E+03  0.25334494875E+04  0.91346576198E+02 0.  0.
        254    2    1    2    0    0 -0.20320189634E+03 -0.25109702724E+04 -0.24269417772E+04  0.36120507026E+04  0.90033392056E+03 0.  0.
        -24    2    4    4    0    0 -0.22357629873E+02 -0.14456258654E+02 -0.34535834492E+03  0.35554406559E+03  0.80189457836E+02 0.  0.
         24    2    4    4    0    0 -0.18084426646E+03 -0.24965140137E+04 -0.20815834323E+04  0.32565066370E+04  0.80987786901E+02 0.  0.
         13    1    3    3    0    0 -0.25616411448E+01  0.35552646634E+03  0.41496612344E+02  0.35794915716E+03  0.00000000000E+00 0. -1.
        -13    1    3    3    0    0  0.20576353748E+03  0.21554438060E+04  0.21100960412E+03  0.21755003304E+04  0.00000000000E+00 0.  1.
          4    1    6    6  502    0 -0.17606925946E+03 -0.19773242233E+04 -0.16471545920E+04  0.25795212188E+04  0.00000000000E+00 0. -1.
          3    1    5    5  503    0  0.12569658795E+02 -0.20447133426E+01 -0.28089521850E+03  0.28118374944E+03  0.00000000000E+00 0. -1.
         -4    1    5    5    0  503 -0.34927288668E+02 -0.12411545312E+02 -0.64463126419E+02  0.74360316153E+02  0.00000000000E+00 0.  1.
         -3    1    6    6    0  502 -0.47750070015E+01 -0.51918979044E+03 -0.43442884037E+03  0.67698541825E+03  0.00000000000E+00 0.  1.
<mgrwt>
<rscale>  0 0.57479564E+04</rscale>
<asrwt>0</asrwt>
<pdfrwt beam="1">  1        1 0.30546651E+00 0.57479564E+04</pdfrwt>
<pdfrwt beam="2">  1       -1 0.63999505E+00 0.57479564E+04</pdfrwt>
<totfact> 0.66828577E-04</totfact>
</mgrwt>
</event>
<event>
12    1  0.2019083E-007  0.2059781E+04  0.7818608E-02  0.8579170E-01
          2   -1    0    0  501    0  0.00000000000E+00  0.00000000000E+00  0.95360421900E+03  0.95360421900E+03  0.00000000000E+00 0. -1.
         -2   -1    0    0    0  501 -0.00000000000E+00 -0.00000000000E+00 -0.11122794965E+04  0.11122794965E+04  0.00000000000E+00 0.  1.
         23    2    1    2    0    0 -0.77026902140E+03  0.30885534101E+03 -0.82010442545E+02  0.83902818686E+03  0.92393715508E+02 0.  0.
        254    2    1    2    0    0  0.77026902140E+03 -0.30885534101E+03 -0.76664834947E+02  0.12268555286E+04  0.90032827580E+03 0.  0.
        -24    2    4    4    0    0  0.59782542295E+03  0.22732771470E+03  0.42343973195E+02  0.64556280473E+03  0.76715034940E+02 0.  0.
         24    2    4    4    0    0  0.17244359845E+03 -0.53618305570E+03 -0.11900880814E+03  0.58129272389E+03  0.80678811145E+02 0.  0.
         11    1    3    3    0    0 -0.29619729561E+03  0.16631026045E+03 -0.44017499362E+02  0.34253391206E+03  0.00000000000E+00 0.  1.
        -11    1    3    3    0    0 -0.47407172579E+03  0.14254508056E+03 -0.37992943183E+02  0.49649427481E+03  0.00000000000E+00 0. -1.
          4    1    6    6  502    0  0.84095456296E+02 -0.16351891482E+03 -0.62185200942E+02  0.19410687904E+03  0.00000000000E+00 0. -1.
          3    1    5    5  503    0  0.19397690851E+03  0.92547521483E+02 -0.17486956908E+02  0.21563366720E+03  0.00000000000E+00 0. -1.
         -4    1    5    5    0  503  0.40384851445E+03  0.13478019321E+03  0.59830930103E+02  0.42992913753E+03  0.00000000000E+00 0.  1.
         -3    1    6    6    0  502  0.88348142149E+02 -0.37266414088E+03 -0.56823607201E+02  0.38718584485E+03  0.00000000000E+00 0.  1.
<mgrwt>
<rscale>  0 0.20597810E+04</rscale>
<asrwt>0</asrwt>
<pdfrwt beam="1">  1        2 0.14670834E+00 0.20597810E+04</pdfrwt>
<pdfrwt beam="2">  1       -2 0.17111992E+00 0.20597810E+04</pdfrwt>
<totfact> 0.52229602E+00</totfact>
</mgrwt>
</event>
<event>
12    1  0.2019083E-007  0.4886894E+04  0.7818608E-02  0.7846196E-01
         -2   -1    0    0    0  501 -0.00000000000E+00  0.00000000000E+00  0.22973964080E+04  0.22973964080E+04  0.00000000000E+00 0.  1.
          2   -1    0    0  501    0  0.00000000000E+00 -0.00000000000E+00 -0.25987821046E+04  0.25987821046E+04  0.00000000000E+00 0. -1.
         23    2    1    2    0    0  0.22071282291E+04  0.50833098777E+03  0.51904809483E+03  0.23249775132E+04  0.79335358073E+02 0.  0.
        254    2    1    2    0    0 -0.22071282291E+04 -0.50833098777E+03 -0.82043379140E+03  0.25712009994E+04  0.89897027765E+03 0.  0.
        -24    2    4    4    0    0 -0.80622623500E+03  0.24200280168E+03 -0.27364337804E+03  0.88874154419E+03  0.80092047087E+02 0.  0.
         24    2    4    4    0    0 -0.14009019941E+04 -0.75033378945E+03 -0.54679041336E+03  0.16824594552E+04  0.78503945120E+02 0.  0.
         13    1    3    3    0    0  0.16579520852E+04  0.36257408374E+03  0.41830692351E+03  0.17479261326E+04  0.00000000000E+00 0. -1.
        -13    1    3    3    0    0  0.54917614399E+03  0.14575690403E+03  0.10074117132E+03  0.57705138055E+03  0.00000000000E+00 0.  1.
          2    1    6    6  502    0 -0.33403031221E+03 -0.21192189335E+03 -0.15451638390E+03  0.42469100679E+03  0.00000000000E+00 0. -1.
          3    1    5    5  503    0 -0.10059705160E+03  0.26085096682E+02 -0.71469556135E+01  0.10416946786E+03  0.00000000000E+00 0. -1.
         -4    1    5    5    0  503 -0.70562918340E+03  0.21591770499E+03 -0.26649642243E+03  0.78457207634E+03  0.00000000000E+00 0.  1.
         -1    1    6    6    0  502 -0.10668716819E+04 -0.53841189610E+03 -0.39227402946E+03  0.12577684484E+04  0.00000000000E+00 0.  1.
<mgrwt>
<rscale>  0 0.48868938E+04</rscale>
<asrwt>0</asrwt>
<pdfrwt beam="1">  1        2 0.39981263E+00 0.48868938E+04</pdfrwt>
<pdfrwt beam="2">  1       -2 0.35344560E+00 0.48868938E+04</pdfrwt>
<totfact> 0.33137116E-02</totfact>
</mgrwt>
</event>
<event>
12    1  0.2019083E-007  0.2717368E+04  0.7818608E-02  0.8329392E-01
         -1   -1    0    0    0  501 -0.00000000000E+00  0.00000000000E+00  0.11719779261E+04  0.11719779261E+04  0.00000000000E+00 0.  1.
          1   -1    0    0  501    0  0.00000000000E+00 -0.00000000000E+00 -0.15751342051E+04  0.15751342051E+04  0.00000000000E+00 0. -1.
         23    2    1    2    0    0  0.53463077144E+03  0.14362601762E+03 -0.12701225153E+04  0.13886534995E+04  0.93213964615E+02 0.  0.
        254    2    1    2    0    0 -0.53463077144E+03 -0.14362601762E+03  0.86696623632E+03  0.13584586317E+04  0.88731105277E+03 0.  0.
        -24    2    4    4    0    0  0.23181501956E+03 -0.72993326855E+02  0.11703072112E+03  0.28092059466E+03  0.78447190906E+02 0.  0.
         24    2    4    4    0    0 -0.76644579100E+03 -0.70632690769E+02  0.74993551520E+03  0.10775380370E+04  0.79100042422E+02 0.  0.
         11    1    3    3    0    0  0.18598719049E+03  0.96503302160E+02 -0.46683077087E+03  0.51169824212E+03  0.00000000000E+00 0. -1.
        -11    1    3    3    0    0  0.34864358095E+03  0.47122715464E+02 -0.80329174444E+03  0.87695525743E+03  0.00000000000E+00 0.  1.
          4    1    6    6  502    0 -0.16983967501E+03  0.20956168893E+01  0.12828321975E+03  0.21285321535E+03  0.00000000000E+00 0. -1.
          1    1    5    5  503    0  0.33603700314E+02  0.11999633068E+02  0.35571866259E+02  0.50384100049E+02  0.00000000000E+00 0. -1.
         -2    1    5    5    0  503  0.19821131925E+03 -0.84992959923E+02  0.81458854856E+02  0.23053649461E+03  0.00000000000E+00 0.  1.
         -3    1    6    6    0  502 -0.59660611599E+03 -0.72728307658E+02  0.62165229546E+03  0.86468482167E+03  0.00000000000E+00 0.  1.
<mgrwt>
<rscale>  0 0.27173682E+04</rscale>
<asrwt>0</asrwt>
<pdfrwt beam="1">  1        1 0.24232834E+00 0.27173682E+04</pdfrwt>
<pdfrwt beam="2">  1       -1 0.18030430E+00 0.27173682E+04</pdfrwt>
<totfact> 0.10479189E+00</totfact>
</mgrwt>
</event>
<event>
12    1  0.2019083E-007  0.1952976E+04  0.7818608E-02  0.8628927E-01
         -1   -1    0    0    0  501 -0.00000000000E+00  0.00000000000E+00  0.92697561476E+03  0.92697561476E+03  0.00000000000E+00 0.  1.
          1   -1    0    0  501    0  0.00000000000E+00 -0.00000000000E+00 -0.10286451229E+04  0.10286451229E+04  0.00000000000E+00 0. -1.
         23    2    1    2    0    0 -0.72063712391E+03 -0.11679306444E+03 -0.27099275707E+03  0.78492546395E+03  0.98551637807E+02 0.  0.
        254    2    1    2    0    0  0.72063712391E+03  0.11679306444E+03  0.16932324894E+03  0.11706952737E+04  0.89938789016E+03 0.  0.
        -24    2    4    4    0    0  0.42691153725E+03  0.46095991278E+03 -0.95749675089E+02  0.64008742830E+03  0.76199827893E+02 0.  0.
         24    2    4    4    0    0  0.29372558666E+03 -0.34416684834E+03  0.26507292403E+03  0.53060784539E+03  0.80965985365E+02 0.  0.
         11    1    3    3    0    0 -0.26160444161E+03 -0.12397829698E+02 -0.13650557335E+03  0.29533770773E+03  0.00000000000E+00 0. -1.
        -11    1    3    3    0    0 -0.45903268230E+03 -0.10439523474E+03 -0.13448718372E+03  0.48958775622E+03  0.00000000000E+00 0.  1.
          4    1    6    6  502    0  0.24634409337E+03 -0.31505066932E+03  0.20746921351E+03  0.45053946678E+03  0.00000000000E+00 0. -1.
          1    1    5    5  503    0  0.25787777871E+03  0.27905111299E+03 -0.20071985612E+02  0.38049094210E+03  0.00000000000E+00 0. -1.
         -2    1    5    5    0  503  0.16903375854E+03  0.18190879979E+03 -0.75677689477E+02  0.25959648621E+03  0.00000000000E+00 0.  1.
         -3    1    6    6    0  502  0.47381493289E+02 -0.29116179016E+02  0.57603710525E+02  0.80068378609E+02  0.00000000000E+00 0.  1.
<mgrwt>
<rscale>  0 0.19529761E+04</rscale>
<asrwt>0</asrwt>
<pdfrwt beam="1">  1        1 0.15825310E+00 0.19529761E+04</pdfrwt>
<pdfrwt beam="2">  1       -1 0.14261163E+00 0.19529761E+04</pdfrwt>
<totfact> 0.53458888E+00</totfact>
</mgrwt>
</event>
<event>
12    1  0.2019083E-007  0.2216353E+04  0.7818608E-02  0.8511652E-01
         -2   -1    0    0    0  501 -0.00000000000E+00  0.00000000000E+00  0.83771602184E+03  0.83771602184E+03  0.00000000000E+00 0.  1.
          2   -1    0    0  501    0  0.00000000000E+00 -0.00000000000E+00 -0.14659569036E+04  0.14659569036E+04  0.00000000000E+00 0. -1.
         23    2    1    2    0    0  0.82596344013E+03 -0.37941451969E+03 -0.98083679496E+02  0.91880041481E+03  0.91666852730E+02 0.  0.
        254    2    1    2    0    0 -0.82596344013E+03  0.37941451969E+03 -0.53015720222E+03  0.13848725106E+04  0.90035228069E+03 0.  0.
        -24    2    4    4    0    0  0.97675195911E+02  0.32700308959E+03 -0.16501376950E+03  0.38702801848E+03  0.78036391942E+02 0.  0.
         24    2    4    4    0    0 -0.92363863604E+03  0.52411430106E+02 -0.36514343272E+03  0.99784449211E+03  0.80675993888E+02 0.  0.
         11    1    3    3    0    0  0.60150163408E+03 -0.23142553030E+03 -0.78131808312E+02  0.64920456818E+03  0.00000000000E+00 0. -1.
        -11    1    3    3    0    0  0.22446180605E+03 -0.14798898940E+03 -0.19951871185E+02  0.26959584663E+03  0.00000000000E+00 0.  1.
          2    1    6    6  502    0 -0.35076033437E+03 -0.20910839668E+01 -0.17331926191E+03  0.39125024134E+03  0.00000000000E+00 0. -1.
          3    1    5    5  503    0  0.63530309302E+02  0.22188882216E+03 -0.69741305839E+02  0.24111117630E+03  0.00000000000E+00 0. -1.
         -4    1    5    5    0  503  0.34144886609E+02  0.10511426743E+03 -0.95272463657E+02  0.14591684218E+03  0.00000000000E+00 0.  1.
         -3    1    6    6    0  502 -0.57287830166E+03  0.54502514073E+02 -0.19182417081E+03  0.60659425077E+03  0.00000000000E+00 0.  1.
<mgrwt>
<rscale>  0 0.22163534E+04</rscale>
<asrwt>0</asrwt>
<pdfrwt beam="1">  1        2 0.22553183E+00 0.22163534E+04</pdfrwt>
<pdfrwt beam="2">  1       -2 0.12887939E+00 0.22163534E+04</pdfrwt>
<totfact> 0.53783319E+00</totfact>
</mgrwt>
</event>
<event>
12    1  0.2019083E-007  0.3365400E+04  0.7818608E-02  0.8146451E-01
         -2   -1    0    0    0  501 -0.00000000000E+00  0.00000000000E+00  0.15834582152E+04  0.15834582152E+04  0.00000000000E+00 0.  1.
          2   -1    0    0  501    0  0.00000000000E+00 -0.00000000000E+00 -0.17881619755E+04  0.17881619755E+04  0.00000000000E+00 0. -1.
         23    2    1    2    0    0 -0.18592035379E+03 -0.11154613685E+04  0.98459443902E+03  0.15023004056E+04  0.93058351116E+02 0.  0.
        254    2    1    2    0    0  0.18592035379E+03  0.11154613685E+04 -0.11892981994E+04  0.18693197851E+04  0.89504514381E+03 0.  0.
        -24    2    4    4    0    0  0.37677722657E+03  0.36138121376E+03 -0.88539870040E+03  0.10302560402E+04  0.70279368748E+02 0.  0.
         24    2    4    4    0    0 -0.19085687278E+03  0.75408015476E+03 -0.30389949897E+03  0.83906374490E+03  0.81300903008E+02 0.  0.
         13    1    3    3    0    0 -0.75289548145E+02 -0.35592433629E+03  0.37129520760E+03  0.51981802625E+03  0.00000000000E+00 0. -1.
        -13    1    3    3    0    0 -0.11063080564E+03 -0.75953703223E+03  0.61329923142E+03  0.98248237936E+03  0.00000000000E+00 0.  1.
          4    1    6    6  502    0 -0.11554036464E+03  0.40150847674E+03 -0.12200958394E+03  0.43525276717E+03  0.00000000000E+00 0. -1.
          3    1    5    5  503    0  0.19387285952E+03  0.22191510591E+03 -0.45128069745E+03  0.53896870761E+03  0.00000000000E+00 0. -1.
         -4    1    5    5    0  503  0.18290436705E+03  0.13946610785E+03 -0.43411800295E+03  0.49128733263E+03  0.00000000000E+00 0.  1.
         -3    1    6    6    0  502 -0.75316508135E+02  0.35257167802E+03 -0.18188991503E+03  0.40381097772E+03  0.00000000000E+00 0.  1.
<mgrwt>
<rscale>  0 0.33654003E+04</rscale>
<asrwt>0</asrwt>
<pdfrwt beam="1">  1        2 0.27510184E+00 0.33654003E+04</pdfrwt>
<pdfrwt beam="2">  1       -2 0.24360896E+00 0.33654003E+04</pdfrwt>
<totfact> 0.51213288E-01</totfact>
</mgrwt>
</event>
<event>
12    1  0.2019083E-007  0.1682572E+04  0.7818608E-02  0.8771367E-01
          1   -1    0    0  501    0  0.00000000000E+00  0.00000000000E+00  0.46398335645E+03  0.46398335645E+03  0.00000000000E+00 0. -1.
         -1   -1    0    0    0  501 -0.00000000000E+00 -0.00000000000E+00 -0.15254046745E+04  0.15254046745E+04  0.00000000000E+00 0.  1.
         23    2    1    2    0    0  0.45584658772E+03  0.27674330133E+03 -0.69685734681E+03  0.88395067027E+03  0.10665673579E+03 0.  0.
        254    2    1    2    0    0 -0.45584658772E+03 -0.27674330133E+03 -0.36456397124E+03  0.11054373607E+04  0.89705178386E+03 0.  0.
        -24    2    4    4    0    0 -0.55412712544E+03 -0.18604797379E+03 -0.58814620483E+03  0.83306633718E+03  0.80080235842E+02 0.  0.
         24    2    4    4    0    0  0.98280537721E+02 -0.90695327535E+02  0.22358223359E+03  0.27237102351E+03  0.79449686846E+02 0.  0.
         13    1    3    3    0    0  0.24977896065E+03  0.16390850681E+03 -0.30417886788E+03  0.42635702346E+03  0.00000000000E+00 0.  1.
        -13    1    3    3    0    0  0.20606762707E+03  0.11283479452E+03 -0.39267847894E+03  0.45759364681E+03  0.00000000000E+00 0. -1.
          4    1    6    6  502    0  0.17868605356E+02 -0.60676408114E+02  0.13469069863E+03  0.14880355458E+03  0.00000000000E+00 0. -1.
          3    1    5    5  503    0 -0.19962712667E+03 -0.27055465821E+02 -0.20340245816E+03  0.28627879405E+03  0.00000000000E+00 0. -1.
         -4    1    5    5    0  503 -0.35449999877E+03 -0.15899250797E+03 -0.38474374667E+03  0.54678754313E+03  0.00000000000E+00 0.  1.
         -3    1    6    6    0  502  0.80411932365E+02 -0.30018919421E+02  0.88891534962E+02  0.12356746893E+03  0.00000000000E+00 0.  1.
<mgrwt>
<rscale>  0 0.16825723E+04</rscale>
<asrwt>0</asrwt>
<pdfrwt beam="1">  1        1 0.71382055E-01 0.16825723E+04</pdfrwt>
<pdfrwt beam="2">  1       -1 0.23467764E+00 0.16825723E+04</pdfrwt>
<totfact> 0.41141810E+00</totfact>
</mgrwt>
</event>
<event>
12    1  0.2019083E-007  0.1843418E+04  0.7818608E-02  0.8683545E-01
          1   -1    0    0  501    0  0.00000000000E+00  0.00000000000E+00  0.14693632615E+04  0.14693632615E+04  0.00000000000E+00 0. -1.
         -1   -1    0    0    0  501 -0.00000000000E+00 -0.00000000000E+00 -0.57817367255E+03  0.57817367255E+03  0.00000000000E+00 0.  1.
         23    2    1    2    0    0  0.37888117394E+03  0.58106926750E+03  0.41696244860E+03  0.81524604246E+03  0.97856980428E+02 0.  0.
        254    2    1    2    0    0 -0.37888117394E+03 -0.58106926750E+03  0.47422714039E+03  0.12322908916E+04  0.90136397936E+03 0.  0.
        -24    2    4    4    0    0 -0.61239741061E+03 -0.44806515637E+03  0.10718882767E+03  0.77045444574E+03  0.79483553683E+02 0.  0.
         24    2    4    4    0    0  0.23351623668E+03 -0.13300411112E+03  0.36703831272E+03  0.46183644587E+03  0.79723606105E+02 0.  0.
         11    1    3    3    0    0  0.19493456324E+03  0.38517873908E+03  0.24922987501E+03  0.49847535103E+03  0.00000000000E+00 0.  1.
        -11    1    3    3    0    0  0.18394661069E+03  0.19589052841E+03  0.16773257358E+03  0.31677069143E+03  0.00000000000E+00 0. -1.
          2    1    6    6  502    0  0.70900440675E+02 -0.67096421200E+01  0.65846505220E+02  0.96993061788E+02  0.00000000000E+00 0. -1.
          1    1    5    5  503    0 -0.14821496701E+03 -0.11917730874E+03  0.60847090542E+02  0.19968293816E+03  0.00000000000E+00 0. -1.
         -2    1    5    5    0  503 -0.46418244360E+03 -0.32888784764E+03  0.46341737132E+02  0.57077150758E+03  0.00000000000E+00 0.  1.
         -1    1    6    6    0  502  0.16261579600E+03 -0.12629446900E+03  0.30119180750E+03  0.36484338409E+03  0.00000000000E+00 0.  1.
<mgrwt>
<rscale>  0 0.18434176E+04</rscale>
<asrwt>0</asrwt>
<pdfrwt beam="1">  1        1 0.22605588E+00 0.18434176E+04</pdfrwt>
<pdfrwt beam="2">  1       -1 0.88949796E-01 0.18434176E+04</pdfrwt>
<totfact> 0.80065878E+00</totfact>
</mgrwt>
</event>
<event>
12    1  0.2019083E-007  0.1356648E+04  0.7818608E-02  0.8985811E-01
         -2   -1    0    0    0  501 -0.00000000000E+00  0.00000000000E+00  0.12286174899E+04  0.12286174899E+04  0.00000000000E+00 0.  1.
          2   -1    0    0  501    0  0.00000000000E+00 -0.00000000000E+00 -0.37450494575E+03  0.37450494575E+03  0.00000000000E+00 0. -1.
         23    2    1    2    0    0 -0.15200343530E+03  0.27108736581E+03  0.47733272346E+03  0.57706210583E+03  0.92524271663E+02 0.  0.
        254    2    1    2    0    0  0.15200343530E+03 -0.27108736581E+03  0.37677982066E+03  0.10260603298E+04  0.90235434441E+03 0.  0.
        -24    2    4    4    0    0  0.22972789711E+03  0.22350653757E+03 -0.82357844091E+02  0.34200521231E+03  0.86340440803E+02 0.  0.
         24    2    4    4    0    0 -0.77724461807E+02 -0.49459390338E+03  0.45913766475E+03  0.68405511748E+03  0.80372802225E+02 0.  0.
         13    1    3    3    0    0 -0.71538504260E+02  0.57994491224E+02  0.97119520808E+02  0.13384065125E+03  0.00000000000E+00 0. -1.
        -13    1    3    3    0    0 -0.80464931042E+02  0.21309287458E+03  0.38021320266E+03  0.44322145458E+03  0.00000000000E+00 0.  1.
          2    1    6    6  502    0 -0.22182783736E+02 -0.87288354797E+02  0.45544436474E+02  0.10092387463E+03  0.00000000000E+00 0. -1.
          1    1    5    5  503    0  0.22643353043E+01  0.37482183151E+02 -0.32083573626E+01  0.37687329769E+02  0.00000000000E+00 0. -1.
         -2    1    5    5    0  503  0.22746356180E+03  0.18602435442E+03 -0.79149486728E+02  0.30431788255E+03  0.00000000000E+00 0.  1.
         -1    1    6    6    0  502 -0.55541678071E+02 -0.40730554858E+03  0.41359322828E+03  0.58313124285E+03  0.00000000000E+00 0.  1.
<mgrwt>
<rscale>  0 0.13566478E+04</rscale>
<asrwt>0</asrwt>
<pdfrwt beam="1">  1        2 0.57616146E-01 0.13566478E+04</pdfrwt>
<pdfrwt beam="2">  1       -2 0.18901807E+00 0.13566478E+04</pdfrwt>
<totfact> 0.13144831E+01</totfact>
</mgrwt>
</event>
<event>
12    1  0.2019083E-007  0.2201830E+04  0.7818608E-02  0.8517667E-01
         -1   -1    0    0    0  501 -0.00000000000E+00  0.00000000000E+00  0.18428638661E+04  0.18428638661E+04  0.00000000000E+00 0.  1.
          1   -1    0    0  501    0  0.00000000000E+00 -0.00000000000E+00 -0.65767967527E+03  0.65767967527E+03  0.00000000000E+00 0. -1.
         23    2    1    2    0    0 -0.70175416029E+03 -0.33241086643E+03 -0.52583076849E+02  0.78457073571E+03  0.99148241300E+02 0.  0.
        254    2    1    2    0    0  0.70175416029E+03  0.33241086643E+03  0.12377672676E+04  0.17159728056E+04  0.89974383866E+03 0.  0.
        -24    2    4    4    0    0  0.34779774105E+03  0.93379778745E+02  0.12274813769E+04  0.12818159475E+04  0.81599883875E+02 0.  0.
         24    2    4    4    0    0  0.35395641924E+03  0.23903108768E+03  0.10285890762E+02  0.43415685808E+03  0.77235809524E+02 0.  0.
         11    1    3    3    0    0 -0.39515108444E+03 -0.14296149767E+03  0.86272088505E+00  0.42021793589E+03  0.00000000000E+00 0. -1.
        -11    1    3    3    0    0 -0.30660307585E+03 -0.18944936876E+03 -0.53445797734E+02  0.36435279982E+03  0.00000000000E+00 0.  1.
          2    1    6    6  502    0  0.13360611571E+03  0.13408654208E+03  0.16567555053E+02  0.19001125967E+03  0.00000000000E+00 0. -1.
          1    1    5    5  503    0  0.27982761127E+03  0.44618543313E+02  0.10028482081E+04  0.10421126786E+04  0.00000000000E+00 0. -1.
         -2    1    5    5    0  503  0.67970129778E+02  0.48761235432E+02  0.22463316879E+03  0.23970326895E+03  0.00000000000E+00 0.  1.
         -1    1    6    6    0  502  0.22035030353E+03  0.10494454561E+03 -0.62816642915E+01  0.24414559842E+03  0.00000000000E+00 0.  1.
<mgrwt>
<rscale>  0 0.22018302E+04</rscale>
<asrwt>0</asrwt>
<pdfrwt beam="1">  1        1 0.10118149E+00 0.22018302E+04</pdfrwt>
<pdfrwt beam="2">  1       -1 0.28351752E+00 0.22018302E+04</pdfrwt>
<totfact> 0.11524509E+00</totfact>
</mgrwt>
</event>
<event>
12    1  0.2019083E-007  0.1625478E+04  0.7818608E-02  0.8805047E-01
          2   -1    0    0  501    0  0.00000000000E+00  0.00000000000E+00  0.11121044264E+04  0.11121044264E+04  0.00000000000E+00 0.  1.
         -2   -1    0    0    0  501 -0.00000000000E+00 -0.00000000000E+00 -0.59395917574E+03  0.59395917574E+03  0.00000000000E+00 0. -1.
         23    2    1    2    0    0 -0.68972353455E+01 -0.37952654649E+03 -0.24945454481E+03  0.46325740551E+03  0.91059774204E+02 0.  0.
        254    2    1    2    0    0  0.68972353455E+01  0.37952654649E+03  0.76759979548E+03  0.12428061966E+04  0.90070518208E+03 0.  0.
        -24    2    4    4    0    0  0.20563615258E+02  0.40983160487E+03 -0.49683303624E+02  0.42089432318E+03  0.79364941897E+02 0.  0.
         24    2    4    4    0    0 -0.13666379912E+02 -0.30305058373E+02  0.81728309910E+03  0.82191187346E+03  0.80512714211E+02 0.  0.
         11    1    3    3    0    0 -0.19141935260E+02 -0.37698510380E+03 -0.24486221332E+03  0.44993520165E+03  0.00000000000E+00 0. -1.
        -11    1    3    3    0    0  0.12244699915E+02 -0.25414426911E+01 -0.45923314982E+01  0.13322203854E+02  0.00000000000E+00 0.  1.
          4    1    6    6  502    0 -0.27801145326E+02 -0.38646621906E+02  0.25601224816E+03  0.26040110652E+03  0.00000000000E+00 0. -1.
          3    1    5    5  503    0  0.33305306444E+02  0.32954621016E+03 -0.12386682682E+02  0.33145644959E+03  0.00000000000E+00 0. -1.
         -4    1    5    5    0  503 -0.12741691187E+02  0.80285394708E+02 -0.37296620942E+02  0.89437873586E+02  0.00000000000E+00 0.  1.
         -3    1    6    6    0  502  0.14134765413E+02  0.83415635330E+01  0.56127085094E+03  0.56151076694E+03  0.00000000000E+00 0.  1.
<mgrwt>
<rscale>  0 0.16254779E+04</rscale>
<asrwt>0</asrwt>
<pdfrwt beam="1">  1        2 0.17109299E+00 0.16254779E+04</pdfrwt>
<pdfrwt beam="2">  1       -2 0.91378334E-01 0.16254779E+04</pdfrwt>
<totfact> 0.20915301E+01</totfact>
</mgrwt>
</event>
<event>
12    1  0.2019083E-007  0.3042526E+04  0.7818608E-02  0.8231690E-01
         -2   -1    0    0    0  501 -0.00000000000E+00  0.00000000000E+00  0.20115838869E+04  0.20115838869E+04  0.00000000000E+00 0.  1.
          2   -1    0    0  501    0  0.00000000000E+00 -0.00000000000E+00 -0.11504573648E+04  0.11504573648E+04  0.00000000000E+00 0. -1.
         23    2    1    2    0    0 -0.49265685101E+03 -0.10898479592E+04  0.11225642234E+04  0.16427224425E+04  0.88922664866E+02 0.  0.
        254    2    1    2    0    0  0.49265685101E+03  0.10898479592E+04 -0.26143770132E+03  0.15193188092E+04  0.89972252698E+03 0.  0.
        -24    2    4    4    0    0  0.38966822152E+03  0.20025738376E+01 -0.29545133752E+02  0.39948015521E+03  0.82862212823E+02 0.  0.
         24    2    4    4    0    0  0.10298862949E+03  0.10878453853E+04 -0.23189256757E+03  0.11198386540E+04  0.79058257232E+02 0.  0.
         11    1    3    3    0    0 -0.12910121482E+03 -0.37749490988E+03  0.34922070784E+03  0.53021187599E+03  0.00000000000E+00 0. -1.
        -11    1    3    3    0    0 -0.36355563618E+03 -0.71235304927E+03  0.77334351559E+03  0.11125105665E+04  0.00000000000E+00 0.  1.
          4    1    6    6  502    0  0.11802516836E+02  0.23124820605E+02 -0.12986834250E+02  0.29029546939E+02  0.00000000000E+00 0. -1.
          1    1    5    5  503    0  0.12794404187E+03 -0.15878581581E+02  0.25524666389E+02  0.13142798711E+03  0.00000000000E+00 0. -1.
         -2    1    5    5    0  503  0.26172417965E+03  0.17881155418E+02 -0.55069800141E+02  0.26805216810E+03  0.00000000000E+00 0.  1.
         -3    1    6    6    0  502  0.91186112654E+02  0.10647205647E+04 -0.21890573332E+03  0.10908091071E+04  0.00000000000E+00 0.  1.
<mgrwt>
<rscale>  0 0.30425263E+04</rscale>
<asrwt>0</asrwt>
<pdfrwt beam="1">  1        2 0.17699344E+00 0.30425263E+04</pdfrwt>
<pdfrwt beam="2">  1       -2 0.30947444E+00 0.30425263E+04</pdfrwt>
<totfact> 0.48112103E-01</totfact>
</mgrwt>
</event>
<event>
12    1  0.2019083E-007  0.1400399E+04  0.7818608E-02  0.8953530E-01
          2   -1    0    0  501    0  0.00000000000E+00  0.00000000000E+00  0.18621179612E+04  0.18621179612E+04  0.00000000000E+00 0. -1.
         -2   -1    0    0    0  501 -0.00000000000E+00 -0.00000000000E+00 -0.26329128991E+03  0.26329128991E+03  0.00000000000E+00 0.  1.
         23    2    1    2    0    0  0.16946474053E+03  0.25666450082E+03  0.87258025987E+03  0.92964820336E+03  0.90854322095E+02 0.  0.
        254    2    1    2    0    0 -0.16946474053E+03 -0.25666450082E+03  0.72624641147E+03  0.11957610478E+04  0.89878566353E+03 0.  0.
        -24    2    4    4    0    0  0.27739406117E+03 -0.58113225154E+02 -0.25251355904E+02  0.29568931098E+03  0.80435847389E+02 0.  0.
         24    2    4    4    0    0 -0.44685880169E+03 -0.19855127567E+03  0.75149776738E+03  0.90007173681E+03  0.79213883288E+02 0.  0.
         13    1    3    3    0    0  0.30451125555E+02  0.12282341474E+03  0.38534900789E+03  0.40559428021E+03  0.00000000000E+00 0. -1.
        -13    1    3    3    0    0  0.13901361497E+03  0.13384108608E+03  0.48723125197E+03  0.52405392315E+03  0.00000000000E+00 0.  1.
          4    1    6    6  502    0 -0.14351255298E+03 -0.64276343259E+02  0.17774842236E+03  0.23732214987E+03  0.00000000000E+00 0. -1.
          1    1    5    5  503    0  0.70330235750E+02 -0.44249759010E+02  0.14612982618E+02  0.84367781137E+02  0.00000000000E+00 0. -1.
         -2    1    5    5    0  503  0.20706382542E+03 -0.13863466145E+02 -0.39864338523E+02  0.21132152984E+03  0.00000000000E+00 0.  1.
         -3    1    6    6    0  502 -0.30334624871E+03 -0.13427493241E+03  0.57374934502E+03  0.66274958694E+03  0.00000000000E+00 0.  1.
<mgrwt>
<rscale>  0 0.14003991E+04</rscale>
<asrwt>0</asrwt>
<pdfrwt beam="1">  1        2 0.28647968E+00 0.14003991E+04</pdfrwt>
<pdfrwt beam="2">  1       -2 0.40506353E-01 0.14003991E+04</pdfrwt>
<totfact> 0.44767267E+01</totfact>
</mgrwt>
</event>
<event>
12    1  0.2019083E-007  0.1580939E+04  0.7818608E-02  0.8832344E-01
         -1   -1    0    0    0  501 -0.00000000000E+00  0.00000000000E+00  0.98173010405E+03  0.98173010405E+03  0.00000000000E+00 0.  1.
          1   -1    0    0  501    0  0.00000000000E+00 -0.00000000000E+00 -0.63647011257E+03  0.63647011257E+03  0.00000000000E+00 0. -1.
         23    2    1    2    0    0  0.36186828645E+03 -0.38176207155E+03  0.17356944730E+03  0.56135077388E+03  0.91090077870E+02 0.  0.
        254    2    1    2    0    0 -0.36186828645E+03  0.38176207155E+03  0.17169054418E+03  0.10568494427E+04  0.90042332581E+03 0.  0.
        -24    2    4    4    0    0  0.23030906030E+03  0.21193638473E+03  0.27841471182E+03  0.42648115158E+03  0.80075754548E+02 0.  0.
         24    2    4    4    0    0 -0.59217734675E+03  0.16982568681E+03 -0.10672416763E+03  0.63036829117E+03  0.80370147756E+02 0.  0.
         13    1    3    3    0    0  0.18127789984E+03 -0.25324018701E+03  0.11604548385E+03  0.33235346186E+03  0.00000000000E+00 0.  1.
        -13    1    3    3    0    0  0.18059038661E+03 -0.12852188453E+03  0.57523963451E+02  0.22899731201E+03  0.00000000000E+00 0. -1.
          4    1    6    6  502    0 -0.59391805675E+03  0.16991788583E+03 -0.10302449066E+03  0.62627852568E+03  0.00000000000E+00 0. -1.
          3    1    5    5  503    0  0.16645219272E+03  0.19141867679E+03  0.23988074478E+03  0.34912779036E+03  0.00000000000E+00 0. -1.
         -4    1    5    5    0  503  0.63856867581E+02  0.20517707941E+02  0.38533967042E+02  0.77353361222E+02  0.00000000000E+00 0.  1.
         -3    1    6    6    0  502  0.17407100021E+01 -0.92199014951E-01 -0.36996769789E+01  0.40897654845E+01  0.00000000000E+00 0.  1.
<mgrwt>
<rscale>  0 0.15809388E+04</rscale>
<asrwt>0</asrwt>
<pdfrwt beam="1">  1        1 0.97918479E-01 0.15809388E+04</pdfrwt>
<pdfrwt beam="2">  1       -1 0.15103540E+00 0.15809388E+04</pdfrwt>
<totfact> 0.10341487E+01</totfact>
</mgrwt>
</event>
<event>
12    1  0.2019083E-007  0.1312811E+04  0.7818608E-02  0.9019467E-01
          2   -1    0    0  501    0  0.00000000000E+00  0.00000000000E+00  0.17241178989E+04  0.17241178989E+04  0.00000000000E+00 0. -1.
         -2   -1    0    0    0  501 -0.00000000000E+00 -0.00000000000E+00 -0.24990632340E+03  0.24990632340E+03  0.00000000000E+00 0.  1.
         23    2    1    2    0    0 -0.27612836801E+03 -0.22578704141E+02  0.99248692962E+02  0.30754707266E+03  0.89320912160E+02 0.  0.
        254    2    1    2    0    0  0.27612836801E+03  0.22578704141E+02  0.13749628826E+04  0.16664771497E+04  0.89992582383E+03 0.  0.
        -24    2    4    4    0    0  0.30399151960E+03 -0.37716886300E+03  0.49924207604E+03  0.70010079821E+03  0.78938469447E+02 0.  0.
         24    2    4    4    0    0 -0.27863151590E+02  0.39974756714E+03  0.87572080654E+03  0.96637635146E+03  0.80136439947E+02 0.  0.
         11    1    3    3    0    0 -0.14776210579E+03 -0.55982203502E+02  0.45524831864E+02  0.16443891672E+03  0.00000000000E+00 0.  1.
        -11    1    3    3    0    0 -0.12836626222E+03  0.33403499361E+02  0.53723861098E+02  0.14310815594E+03  0.00000000000E+00 0. -1.
          4    1    6    6  502    0 -0.28744488201E+02  0.61443109613E+02  0.18993697210E+03  0.20168677371E+03  0.00000000000E+00 0. -1.
          3    1    5    5  503    0  0.70534039123E+02 -0.89419979582E+02  0.72830345017E+02  0.13518595555E+03  0.00000000000E+00 0. -1.
         -4    1    5    5    0  503  0.23345748047E+03 -0.28774888342E+03  0.42641173102E+03  0.56491484266E+03  0.00000000000E+00 0.  1.
         -3    1    6    6    0  502  0.88133661086E+00  0.33830445753E+03  0.68578383444E+03  0.76468957775E+03  0.00000000000E+00 0.  1.
<mgrwt>
<rscale>  0 0.13128107E+04</rscale>
<asrwt>0</asrwt>
<pdfrwt beam="1">  1        2 0.26524890E+00 0.13128107E+04</pdfrwt>
<pdfrwt beam="2">  1       -2 0.38447128E-01 0.13128107E+04</pdfrwt>
<totfact> 0.59495183E+01</totfact>
</mgrwt>
</event>
<event>
12    1  0.2019083E-007  0.2194513E+04  0.7818608E-02  0.8520715E-01
          2   -1    0    0  501    0  0.00000000000E+00  0.00000000000E+00  0.99580970160E+03  0.99580970160E+03  0.00000000000E+00 0. -1.
         -2   -1    0    0    0  501 -0.00000000000E+00 -0.00000000000E+00 -0.12090378624E+04  0.12090378624E+04  0.00000000000E+00 0.  1.
         23    2    1    2    0    0 -0.65848158773E+03 -0.59432814699E+03  0.11655644877E+03  0.89930665772E+03  0.91340632730E+02 0.  0.
        254    2    1    2    0    0  0.65848158773E+03  0.59432814699E+03 -0.32978460953E+03  0.13055409063E+04  0.89936378709E+03 0.  0.
        -24    2    4    4    0    0  0.57971363224E+03  0.42665450692E+03  0.18916621226E+03  0.74812605254E+03  0.76202171569E+02 0.  0.
         24    2    4    4    0    0  0.78767955493E+02  0.16767364007E+03 -0.51895082179E+03  0.55741485371E+03  0.84157728767E+02 0.  0.
         13    1    3    3    0    0 -0.45974472824E+03 -0.39504228347E+03  0.11962025598E+03  0.61784514768E+03  0.00000000000E+00 0. -1.
        -13    1    3    3    0    0 -0.19873685949E+03 -0.19928586352E+03 -0.30638072089E+01  0.28146151004E+03  0.00000000000E+00 0.  1.
          4    1    6    6  502    0  0.94797355050E+02  0.14010748842E+03 -0.40081284812E+03  0.43504894673E+03  0.00000000000E+00 0. -1.
          1    1    5    5  503    0  0.42900218329E+03  0.30479811490E+03  0.17157175166E+03  0.55351750657E+03  0.00000000000E+00 0. -1.
         -2    1    5    5    0  503  0.15071144894E+03  0.12185639202E+03  0.17594460600E+02  0.19460854597E+03  0.00000000000E+00 0.  1.
         -3    1    6    6    0  502 -0.16029399557E+02  0.27566151652E+02 -0.11813797367E+03  0.12236590698E+03  0.00000000000E+00 0.  1.
<mgrwt>
<rscale>  0 0.21945128E+04</rscale>
<asrwt>0</asrwt>
<pdfrwt beam="1">  1        2 0.15320149E+00 0.21945128E+04</pdfrwt>
<pdfrwt beam="2">  1       -2 0.18600583E+00 0.21945128E+04</pdfrwt>
<totfact> 0.38218534E+00</totfact>
</mgrwt>
</event>
<event>
12    1  0.2019083E-007  0.1493924E+04  0.7818608E-02  0.8888503E-01
         -2   -1    0    0    0  501 -0.00000000000E+00  0.00000000000E+00  0.41655788723E+03  0.41655788723E+03  0.00000000000E+00 0. -1.
          2   -1    0    0  501    0  0.00000000000E+00 -0.00000000000E+00 -0.13394351316E+04  0.13394351316E+04  0.00000000000E+00 0.  1.
         23    2    1    2    0    0 -0.38800382226E+03 -0.28108073897E+03 -0.28768770214E+03  0.56619065831E+03  0.90853176515E+02 0.  0.
        254    2    1    2    0    0  0.38800382226E+03  0.28108073897E+03 -0.63518954228E+03  0.11898023606E+04  0.88465278765E+03 0.  0.
        -24    2    4    4    0    0  0.66421973918E+03  0.22955422251E+03 -0.38777265596E+03  0.80679622452E+03  0.81667081521E+02 0.  0.
         24    2    4    4    0    0 -0.27621591692E+03  0.51526516462E+02 -0.24741688632E+03  0.38300613605E+03  0.80798328911E+02 0.  0.
         13    1    3    3    0    0 -0.22653229110E+02 -0.11046069775E+02  0.50886509049E+01  0.25711452986E+02  0.00000000000E+00 0. -1.
        -13    1    3    3    0    0 -0.36535059315E+03 -0.27003466919E+03 -0.29277635305E+03  0.54047920532E+03  0.00000000000E+00 0.  1.
          4    1    6    6  502    0 -0.15882633050E+03  0.53765124568E+02 -0.10262243362E+03  0.19659057903E+03  0.00000000000E+00 0. -1.
          1    1    5    5  503    0  0.34371831246E+03  0.84458056832E+02 -0.22273626400E+03  0.41819479311E+03  0.00000000000E+00 0. -1.
         -2    1    5    5    0  503  0.32050142673E+03  0.14509616567E+03 -0.16503639196E+03  0.38860143141E+03  0.00000000000E+00 0.  1.
         -3    1    6    6    0  502 -0.11738958642E+03 -0.22386081058E+01 -0.14479445270E+03  0.18641555702E+03  0.00000000000E+00 0.  1.
<mgrwt>
<rscale>  0 0.14939241E+04</rscale>
<asrwt>0</asrwt>
<pdfrwt beam="1">  1        2 0.20606695E+00 0.14939241E+04</pdfrwt>
<pdfrwt beam="2">  1       -2 0.64085827E-01 0.14939241E+04</pdfrwt>
<totfact> 0.34113279E+01</totfact>
</mgrwt>
</event>
<event>
12    1  0.2019083E-007  0.2203481E+04  0.7818608E-02  0.8516980E-01
         -1   -1    0    0    0  501 -0.00000000000E+00  0.00000000000E+00  0.11509177361E+04  0.11509177361E+04  0.00000000000E+00 0.  1.
          1   -1    0    0  501    0  0.00000000000E+00 -0.00000000000E+00 -0.10546649673E+04  0.10546649673E+04  0.00000000000E+00 0. -1.
         23    2    1    2    0    0 -0.78163387909E+03  0.44953961975E+03  0.19702181003E+03  0.92772821157E+03  0.93939609633E+02 0.  0.
        254    2    1    2    0    0  0.78163387909E+03 -0.44953961975E+03 -0.10076904116E+03  0.12778544918E+04  0.89984460434E+03 0.  0.
        -24    2    4    4    0    0  0.43023597357E+03 -0.67820731108E+03 -0.21574748558E+03  0.83565915615E+03  0.81921291282E+02 0.  0.
         24    2    4    4    0    0  0.35139790552E+03  0.22866769132E+03  0.11497844442E+03  0.44219533568E+03  0.80915209693E+02 0.  0.
         13    1    3    3    0    0 -0.31040332694E+03  0.23069975080E+03  0.94935314504E+02  0.39822771668E+03  0.00000000000E+00 0.  1.
        -13    1    3    3    0    0 -0.47123055215E+03  0.21883986895E+03  0.10208649552E+03  0.52950049489E+03  0.00000000000E+00 0. -1.
          4    1    6    6  502    0  0.18246075679E+03  0.14542947036E+03  0.28847766850E+02  0.23510391802E+03  0.00000000000E+00 0. -1.
          3    1    5    5  503    0  0.21675756196E+03 -0.27957105298E+03 -0.70568175692E+02  0.36072660250E+03  0.00000000000E+00 0. -1.
         -2    1    5    5    0  503  0.21347841161E+03 -0.39863625810E+03 -0.14517930989E+03  0.47493255364E+03  0.00000000000E+00 0.  1.
         -3    1    6    6    0  502  0.16893714873E+03  0.83238220965E+02  0.86130677567E+02  0.20709141766E+03  0.00000000000E+00 0.  1.
<mgrwt>
<rscale>  0 0.22034814E+04</rscale>
<asrwt>0</asrwt>
<pdfrwt beam="1">  1        1 0.16225615E+00 0.22034814E+04</pdfrwt>
<pdfrwt beam="2">  1       -1 0.17706427E+00 0.22034814E+04</pdfrwt>
<totfact> 0.27337451E+00</totfact>
</mgrwt>
</event>
<event>
12    1  0.2120894E-007  0.2719596E+04  0.7818608E-02  0.8328675E-01
          1   -1    0    0  501    0  0.00000000000E+00  0.00000000000E+00  0.21442088093E+04  0.21442088093E+04  0.00000000000E+00 0. -1.
         -1   -1    0    0    0  501 -0.00000000000E+00 -0.00000000000E+00 -0.86234631612E+03  0.86234631612E+03  0.00000000000E+00 0.  1.
         23    2    1    2    0    0 -0.24699045529E+03 -0.10617466702E+04  0.11621060743E+04  0.15959531424E+04  0.90915499493E+02 0.  0.
        254    2    1    2    0    0  0.24699045529E+03  0.10617466702E+04  0.11975641892E+03  0.14106019831E+04  0.88721253258E+03 0.  0.
        -24    2    4    4    0    0 -0.85387157553E+01  0.58083278441E+02  0.33538813478E+03  0.34970029963E+03  0.79740339266E+02 0.  0.
         24    2    4    4    0    0  0.25552917105E+03  0.10036633918E+04 -0.21563171586E+03  0.10609016834E+04  0.79874800346E+02 0.  0.
         11    1    3    3    0    0 -0.90784514761E+02 -0.22486217524E+03  0.26376016645E+03  0.35829352685E+03  0.00000000000E+00 0.  1.
        -11    1    3    3    0    0 -0.15620594053E+03 -0.83688449499E+03  0.89834590782E+03  0.12376596155E+04  0.00000000000E+00 0. -1.
          2    1    6    6  502    0  0.25283197925E+03  0.98134823239E+03 -0.22223117683E+03  0.10374753293E+04  0.00000000000E+00 0. -1.
          1    1    5    5  503    0  0.12139388046E+01  0.27250996896E+02  0.30196237918E+03  0.30319196711E+03  0.00000000000E+00 0. -1.
         -2    1    5    5    0  503 -0.97526545599E+01  0.30832281545E+02  0.33425755604E+02  0.46508332521E+02  0.00000000000E+00 0.  1.
         -3    1    6    6    0  502  0.26971917990E+01  0.22315159403E+02  0.65994609652E+01  0.23426354129E+02  0.00000000000E+00 0.  1.
<mgrwt>
<rscale>  0 0.27195960E+04</rscale>
<asrwt>0</asrwt>
<pdfrwt beam="1">  1        1 0.32987828E+00 0.27195960E+04</pdfrwt>
<pdfrwt beam="2">  1       -1 0.13266866E+00 0.27195960E+04</pdfrwt>
<totfact> 0.99811584E-01</totfact>
</mgrwt>
</event>
<event>
12    1  0.2455363E-007  0.2658067E+04  0.7818608E-02  0.8348741E-01
          2   -1    0    0  501    0  0.00000000000E+00  0.00000000000E+00  0.13774374767E+04  0.13774374767E+04  0.00000000000E+00 0.  1.
         -2   -1    0    0    0  501 -0.00000000000E+00 -0.00000000000E+00 -0.12823300951E+04  0.12823300951E+04  0.00000000000E+00 0. -1.
         23    2    1    2    0    0 -0.75108933735E+03  0.39482693156E+02  0.94604610754E+03  0.12120562979E+04  0.91559576479E+02 0.  0.
        254    2    1    2    0    0  0.75108933735E+03 -0.39482693156E+02 -0.85093872591E+03  0.14477112738E+04  0.89781798900E+03 0.  0.
        -24    2    4    4    0    0  0.47802671424E+03  0.41275648137E+03 -0.46984114715E+03  0.79131194369E+03  0.80910050254E+02 0.  0.
         24    2    4    4    0    0  0.27306262311E+03 -0.45223917452E+03 -0.38109757876E+03  0.65639933014E+03  0.80877988111E+02 0.  0.
         11    1    3    3    0    0 -0.33515451877E+03  0.10128221937E+01  0.48960321374E+03  0.59333033309E+03  0.00000000000E+00 0.  1.
        -11    1    3    3    0    0 -0.41593481857E+03  0.38469870962E+02  0.45644289380E+03  0.61872596485E+03  0.00000000000E+00 0. -1.
          4    1    6    6  502    0  0.12197675202E+03 -0.24626733784E+03 -0.23832190450E+03  0.36376264223E+03  0.00000000000E+00 0. -1.
          1    1    5    5  503    0  0.32958285442E+03  0.23781102935E+03 -0.28027316746E+03  0.49369220371E+03  0.00000000000E+00 0. -1.
         -2    1    5    5    0  503  0.14844385982E+03  0.17494545202E+03 -0.18956797969E+03  0.29761973998E+03  0.00000000000E+00 0.  1.
         -3    1    6    6    0  502  0.15108587109E+03 -0.20597183669E+03 -0.14277567426E+03  0.29263668791E+03  0.00000000000E+00 0.  1.
<mgrwt>
<rscale>  0 0.26580666E+04</rscale>
<asrwt>0</asrwt>
<pdfrwt beam="1">  1        2 0.21191346E+00 0.26580666E+04</pdfrwt>
<pdfrwt beam="2">  1       -2 0.19728155E+00 0.26580666E+04</pdfrwt>
<totfact> 0.18192639E+00</totfact>
</mgrwt>
</event>
<event>
12    1  0.2019083E-007  0.2294394E+04  0.7818608E-02  0.8480135E-01
          1   -1    0    0  501    0  0.00000000000E+00  0.00000000000E+00  0.17742634885E+04  0.17742634885E+04  0.00000000000E+00 0. -1.
         -1   -1    0    0    0  501 -0.00000000000E+00 -0.00000000000E+00 -0.74175032098E+03  0.74175032098E+03  0.00000000000E+00 0.  1.
         23    2    1    2    0    0 -0.20750326919E+03 -0.53382649875E+03  0.12929773025E+04  0.14170234135E+04  0.90203726275E+02 0.  0.
        254    2    1    2    0    0  0.20750326919E+03  0.53382649875E+03 -0.26046413500E+03  0.10989903959E+04  0.90106047923E+03 0.  0.
        -24    2    4    4    0    0 -0.28366211206E+03  0.48442401494E+03 -0.11456290945E+03  0.57843161043E+03  0.79546512577E+02 0.  0.
         24    2    4    4    0    0  0.49116538125E+03  0.49402483810E+02 -0.14590122555E+03  0.52055878550E+03  0.77525766038E+02 0.  0.
         11    1    3    3    0    0 -0.29507974651E+02 -0.19295343992E+03  0.42630219767E+03  0.46886598755E+03  0.00000000000E+00 0.  1.
        -11    1    3    3    0    0 -0.17799529454E+03 -0.34087305883E+03  0.86667510482E+03  0.94815742597E+03  0.00000000000E+00 0. -1.
          2    1    6    6  502    0  0.90405793626E+02  0.55368516531E+01  0.34233981939E+01  0.90639858244E+02  0.00000000000E+00 0. -1.
          1    1    5    5  503    0 -0.92846977821E+02  0.92604050329E+02 -0.28832559974E+02  0.13426610869E+03  0.00000000000E+00 0. -1.
         -2    1    5    5    0  503 -0.19081513423E+03  0.39181996461E+03 -0.85730349478E+02  0.44416550174E+03  0.00000000000E+00 0.  1.
         -1    1    6    6    0  502  0.40075958762E+03  0.43865632157E+02 -0.14932462374E+03  0.42991892725E+03  0.00000000000E+00 0.  1.
<mgrwt>
<rscale>  0 0.22943936E+04</rscale>
<asrwt>0</asrwt>
<pdfrwt beam="1">  1        1 0.27296361E+00 0.22943936E+04</pdfrwt>
<pdfrwt beam="2">  1       -1 0.11411543E+00 0.22943936E+04</pdfrwt>
<totfact> 0.26818598E+00</totfact>
</mgrwt>
</event>
<event>
12    1  0.2019083E-007  0.1662295E+04  0.7818608E-02  0.8783166E-01
         -1   -1    0    0    0  501 -0.00000000000E+00  0.00000000000E+00  0.40897960073E+03  0.40897960073E+03  0.00000000000E+00 0.  1.
          1   -1    0    0  501    0  0.00000000000E+00 -0.00000000000E+00 -0.16890971909E+04  0.16890971909E+04  0.00000000000E+00 0. -1.
         23    2    1    2    0    0 -0.18007461286E+03  0.26545086464E+03 -0.10717663275E+04  0.11224659534E+04  0.91409671242E+02 0.  0.
        254    2    1    2    0    0  0.18007461286E+03 -0.26545086464E+03 -0.20835126264E+03  0.97561083822E+03  0.89750500348E+03 0.  0.
        -24    2    4    4    0    0  0.29962394605E+03 -0.16115219394E+03  0.28562153285E+03  0.45087006265E+03  0.77198540840E+02 0.  0.
         24    2    4    4    0    0 -0.11954933320E+03 -0.10429867070E+03 -0.49397279549E+03  0.52474077557E+03  0.78571643008E+02 0.  0.
         11    1    3    3    0    0 -0.18898322589E+02  0.34530334359E+02 -0.56443437167E+02  0.68813895304E+02  0.00000000000E+00 0.  1.
        -11    1    3    3    0    0 -0.16117629027E+03  0.23092053028E+03 -0.10153228904E+04  0.10536520581E+04  0.00000000000E+00 0. -1.
          4    1    6    6  502    0 -0.33023467065E+02 -0.35307357219E+02 -0.60918261872E+02  0.77770132315E+02  0.00000000000E+00 0. -1.
          1    1    5    5  503    0  0.85543201210E+02 -0.21984232427E+02  0.10950045014E+03  0.14068153514E+03  0.00000000000E+00 0. -1.
         -2    1    5    5    0  503  0.21408074484E+03 -0.13916796151E+03  0.17612108270E+03  0.31018852751E+03  0.00000000000E+00 0.  1.
         -3    1    6    6    0  502 -0.86525866133E+02 -0.68991313478E+02 -0.43305453361E+03  0.44697064325E+03  0.00000000000E+00 0.  1.
<mgrwt>
<rscale>  0 0.16622952E+04</rscale>
<asrwt>0</asrwt>
<pdfrwt beam="1">  1        1 0.25986111E+00 0.16622952E+04</pdfrwt>
<pdfrwt beam="2">  1       -1 0.62919938E-01 0.16622952E+04</pdfrwt>
<totfact> 0.11857598E+01</totfact>
</mgrwt>
</event>
<event>
12    1  0.2019083E-007  0.1880727E+04  0.7818608E-02  0.8664510E-01
          2   -1    0    0  501    0  0.00000000000E+00  0.00000000000E+00  0.13751019142E+04  0.13751019142E+04  0.00000000000E+00 0. -1.
         -2   -1    0    0    0  501 -0.00000000000E+00 -0.00000000000E+00 -0.64306763485E+03  0.64306763485E+03  0.00000000000E+00 0.  1.
         23    2    1    2    0    0 -0.38627838247E+03  0.21098972605E+03 -0.33034460730E+03  0.55797336204E+03  0.92081810964E+02 0.  0.
        254    2    1    2    0    0  0.38627838247E+03 -0.21098972605E+03  0.10623788867E+04  0.14601961870E+04  0.89988685540E+03 0.  0.
        -24    2    4    4    0    0  0.47039822457E+02 -0.39146342424E+03  0.91589520411E+02  0.41308685069E+03  0.82436330295E+02 0.  0.
         24    2    4    4    0    0  0.33923856001E+03  0.18047369818E+03  0.97078936626E+03  0.10471093363E+04  0.79702021788E+02 0.  0.
         13    1    3    3    0    0 -0.24067142561E+03  0.14094773408E+03 -0.26155877084E+03  0.38236368741E+03  0.00000000000E+00 0.  1.
        -13    1    3    3    0    0 -0.14560695686E+03  0.70041991974E+02 -0.68785836455E+02  0.17560967462E+03  0.00000000000E+00 0. -1.
          4    1    6    6  502    0  0.15209795668E+03  0.56509258780E+02  0.32173236847E+03  0.36033151635E+03  0.00000000000E+00 0. -1.
          3    1    5    5  503    0  0.82053328666E-03 -0.15708318529E+03 -0.13494223063E-01  0.15708318587E+03  0.00000000000E+00 0. -1.
         -4    1    5    5    0  503  0.47039001924E+02 -0.23438023895E+03  0.91603014634E+02  0.25600366482E+03  0.00000000000E+00 0.  1.
         -3    1    6    6    0  502  0.18714060333E+03  0.12396443940E+03  0.64905699780E+03  0.68677782000E+03  0.00000000000E+00 0.  1.
<mgrwt>
<rscale>  0 0.18807270E+04</rscale>
<asrwt>0</asrwt>
<pdfrwt beam="1">  1        2 0.21155414E+00 0.18807270E+04</pdfrwt>
<pdfrwt beam="2">  1       -2 0.98933483E-01 0.18807270E+04</pdfrwt>
<totfact> 0.11886512E+01</totfact>
</mgrwt>
</event>
<event>
12    1  0.2019083E-007  0.1927393E+04  0.7818608E-02  0.8641340E-01
          2   -1    0    0  501    0  0.00000000000E+00  0.00000000000E+00  0.12661772043E+04  0.12661772043E+04  0.00000000000E+00 0. -1.
         -2   -1    0    0    0  501 -0.00000000000E+00 -0.00000000000E+00 -0.73347604587E+03  0.73347604587E+03  0.00000000000E+00 0.  1.
         23    2    1    2    0    0 -0.21718938348E+03  0.35450030386E+03 -0.43972638150E+03  0.61186978707E+03  0.90463539638E+02 0.  0.
        254    2    1    2    0    0  0.21718938348E+03 -0.35450030386E+03  0.97242753994E+03  0.13877834631E+04  0.89860220694E+03 0.  0.
        -24    2    4    4    0    0 -0.22534214763E+03 -0.26644306733E+03  0.52284616862E+02  0.35988708447E+03  0.70809891834E+02 0.  0.
         24    2    4    4    0    0  0.44253153111E+03 -0.88057236530E+02  0.92014292308E+03  0.10278963786E+04  0.79496750857E+02 0.  0.
         13    1    3    3    0    0 -0.56412227157E+02  0.17337871186E+03 -0.16867565449E+03  0.24838275608E+03  0.00000000000E+00 0. -1.
        -13    1    3    3    0    0 -0.16077715632E+03  0.18112159200E+03 -0.27105072701E+03  0.36348703099E+03  0.00000000000E+00 0.  1.
          2    1    6    6  502    0  0.26785442046E+03 -0.79327065872E+02  0.62929113265E+03  0.68851006062E+03  0.00000000000E+00 0. -1.
          3    1    5    5  503    0 -0.20161309263E+03 -0.19637987215E+03  0.32524594465E+02  0.28332091795E+03  0.00000000000E+00 0. -1.
         -4    1    5    5    0  503 -0.23729055003E+02 -0.70063195179E+02  0.19760022396E+02  0.76566166517E+02  0.00000000000E+00 0.  1.
         -1    1    6    6    0  502  0.17467711065E+03 -0.87301706578E+01  0.29085179043E+03  0.33938631802E+03  0.00000000000E+00 0.  1.
<mgrwt>
<rscale>  0 0.19273927E+04</rscale>
<asrwt>0</asrwt>
<pdfrwt beam="1">  1        2 0.19479649E+00 0.19273927E+04</pdfrwt>
<pdfrwt beam="2">  1       -2 0.11284247E+00 0.19273927E+04</pdfrwt>
<totfact> 0.99874527E+00</totfact>
</mgrwt>
</event>
<event>
12    1  0.2019083E-007  0.1714201E+04  0.7818608E-02  0.8753306E-01
          2   -1    0    0  501    0  0.00000000000E+00  0.00000000000E+00  0.15160180561E+04  0.15160180561E+04  0.00000000000E+00 0. -1.
         -2   -1    0    0    0  501 -0.00000000000E+00 -0.00000000000E+00 -0.48457306938E+03  0.48457306938E+03  0.00000000000E+00 0.  1.
         23    2    1    2    0    0  0.47982323322E+03  0.11841317618E+03  0.80758399736E+03  0.95142857227E+03  0.93661090731E+02 0.  0.
        254    2    1    2    0    0 -0.47982323322E+03 -0.11841317618E+03  0.22386098938E+03  0.10491625532E+04  0.89798457953E+03 0.  0.
        -24    2    4    4    0    0  0.10099350261E+03  0.27496744551E+03 -0.14948675611E+02  0.30411066589E+03  0.80330881661E+02 0.  0.
         24    2    4    4    0    0 -0.58081673583E+03 -0.39338062169E+03  0.23880966500E+03  0.74505188733E+03  0.77303716444E+02 0.  0.
         11    1    3    3    0    0  0.45921392074E+03  0.98671334501E+02  0.78599818087E+03  0.91564545409E+03  0.00000000000E+00 0. -1.
        -11    1    3    3    0    0  0.20609312481E+02  0.19741841679E+02  0.21585816485E+02  0.35783118186E+02  0.00000000000E+00 0.  1.
          4    1    6    6  502    0 -0.43415764137E+03 -0.31459195459E+03  0.15193704981E+03  0.55726638385E+03  0.00000000000E+00 0. -1.
          1    1    5    5  503    0  0.92553920443E+02  0.22106810742E+03  0.18069404017E+02  0.24034109026E+03  0.00000000000E+00 0. -1.
         -2    1    5    5    0  503  0.84395821661E+01  0.53899338089E+02 -0.33018079629E+02  0.63769575629E+02  0.00000000000E+00 0.  1.
         -3    1    6    6    0  502 -0.14665909446E+03 -0.78788667091E+02  0.86872615185E+02  0.18778550348E+03  0.00000000000E+00 0.  1.
<mgrwt>
<rscale>  0 0.17142013E+04</rscale>
<asrwt>0</asrwt>
<pdfrwt beam="1">  1        2 0.23323355E+00 0.17142013E+04</pdfrwt>
<pdfrwt beam="2">  1       -2 0.74549703E-01 0.17142013E+04</pdfrwt>
<totfact> 0.19121784E+01</totfact>
</mgrwt>
</event>
<event>
12    1  0.3410199E-007  0.3658312E+04  0.7818608E-02  0.8077264E-01
         -2   -1    0    0    0  501 -0.00000000000E+00  0.00000000000E+00  0.17656485673E+04  0.17656485673E+04  0.00000000000E+00 0.  1.
          2   -1    0    0  501    0  0.00000000000E+00 -0.00000000000E+00 -0.18949472381E+04  0.18949472381E+04  0.00000000000E+00 0. -1.
         23    2    1    2    0    0  0.10692519668E+04 -0.66619440145E+03  0.11078747564E+04  0.16798707863E+04  0.86398111546E+02 0.  0.
        254    2    1    2    0    0 -0.10692519668E+04  0.66619440145E+03 -0.12371734272E+04  0.19807250192E+04  0.89752925511E+03 0.  0.
        -24    2    4    4    0    0 -0.48350273417E+03  0.74999962330E+03 -0.98820511538E+03  0.13337441332E+04  0.77780034700E+02 0.  0.
         24    2    4    4    0    0 -0.58574923264E+03 -0.83805221858E+02 -0.24896831181E+03  0.64698088605E+03  0.80458485441E+02 0.  0.
         13    1    3    3    0    0  0.45227517653E+03 -0.33045494113E+03  0.47600808971E+03  0.73507618986E+03  0.00000000000E+00 0. -1.
        -13    1    3    3    0    0  0.61697679027E+03 -0.33573946031E+03  0.63186666668E+03  0.94479459641E+03  0.00000000000E+00 0.  1.
          4    1    6    6  502    0 -0.18762530378E+03  0.10629480138E+02 -0.74024789965E+02  0.20197997424E+03  0.00000000000E+00 0. -1.
          3    1    5    5  503    0 -0.11214640429E+03  0.20416700555E+03 -0.30377841152E+03  0.38280844486E+03  0.00000000000E+00 0. -1.
         -4    1    5    5    0  503 -0.37135632988E+03  0.54583261775E+03 -0.68442670386E+03  0.95093568831E+03  0.00000000000E+00 0.  1.
         -3    1    6    6    0  502 -0.39812392886E+03 -0.94434701995E+02 -0.17494352185E+03  0.44500091181E+03  0.00000000000E+00 0.  1.
<mgrwt>
<rscale>  0 0.36583116E+04</rscale>
<asrwt>0</asrwt>
<pdfrwt beam="1">  1        2 0.29153034E+00 0.36583116E+04</pdfrwt>
<pdfrwt beam="2">  1       -2 0.27163824E+00 0.36583116E+04</pdfrwt>
<totfact> 0.29363551E-01</totfact>
</mgrwt>
</event>
<event>
12    1  0.2019083E-007  0.1581533E+04  0.7818608E-02  0.8831974E-01
         -1   -1    0    0    0  501 -0.00000000000E+00  0.00000000000E+00  0.26956729587E+03  0.26956729587E+03  0.00000000000E+00 0.  1.
          1   -1    0    0  501    0  0.00000000000E+00 -0.00000000000E+00 -0.23196876177E+04  0.23196876177E+04  0.00000000000E+00 0. -1.
         23    2    1    2    0    0 -0.20750579489E+03 -0.46170120473E+03 -0.44388370113E+03  0.67973887518E+03  0.93731216512E+02 0.  0.
        254    2    1    2    0    0  0.20750579489E+03  0.46170120473E+03 -0.16062366207E+04  0.19095160384E+04  0.90001597864E+03 0.  0.
        -24    2    4    4    0    0  0.44545953552E+03 -0.42558202868E+02 -0.88309749953E+03  0.99291010168E+03  0.75920207601E+02 0.  0.
         24    2    4    4    0    0 -0.23795374064E+03  0.50425940759E+03 -0.72313912116E+03  0.91660593670E+03  0.79603528796E+02 0.  0.
         11    1    3    3    0    0 -0.13847440999E+03 -0.20173756637E+03 -0.18900998251E+03  0.30918923234E+03  0.00000000000E+00 0. -1.
        -11    1    3    3    0    0 -0.69031384902E+02 -0.25996363836E+03 -0.25487371862E+03  0.37054964284E+03  0.00000000000E+00 0.  1.
          2    1    6    6  502    0 -0.33956211538E+02  0.79815102353E+02 -0.16442940548E+03  0.18590455683E+03  0.00000000000E+00 0. -1.
          3    1    5    5  503    0  0.31497095731E+02 -0.18652391893E+02 -0.46399148290E+02  0.59100420683E+02  0.00000000000E+00 0. -1.
         -4    1    5    5    0  503  0.41396243979E+03 -0.23905810975E+02 -0.83669835124E+03  0.93380968100E+03  0.00000000000E+00 0.  1.
         -1    1    6    6    0  502 -0.20399752910E+03  0.42444430524E+03 -0.55870971569E+03  0.73070137986E+03  0.00000000000E+00 0.  1.
<mgrwt>
<rscale>  0 0.15815333E+04</rscale>
<asrwt>0</asrwt>
<pdfrwt beam="1">  1        1 0.35687502E+00 0.15815333E+04</pdfrwt>
<pdfrwt beam="2">  1       -1 0.41471891E-01 0.15815333E+04</pdfrwt>
<totfact> 0.98950275E+00</totfact>
</mgrwt>
</event>
<event>
12    1  0.2019083E-007  0.2467498E+04  0.7818608E-02  0.8414657E-01
         -2   -1    0    0    0  501 -0.00000000000E+00  0.00000000000E+00  0.42138282485E+03  0.42138282485E+03  0.00000000000E+00 0. -1.
          2   -1    0    0  501    0  0.00000000000E+00 -0.00000000000E+00 -0.36122422991E+04  0.36122422991E+04  0.00000000000E+00 0.  1.
         23    2    1    2    0    0 -0.11187821645E+03 -0.98829809965E+03 -0.74846399839E+03  0.12479451275E+04  0.88987725413E+02 0.  0.
        254    2    1    2    0    0  0.11187821645E+03  0.98829809965E+03 -0.24423954758E+04  0.27856799964E+04  0.89747841921E+03 0.  0.
        -24    2    4    4    0    0 -0.17039964233E+03 -0.56734799480E+02 -0.14423594855E+03  0.24408758526E+03  0.80745680061E+02 0.  0.
         24    2    4    4    0    0  0.28227785878E+03  0.10450328991E+04 -0.22981595273E+04  0.25415924111E+04  0.79876290169E+02 0.  0.
         11    1    3    3    0    0 -0.12427471598E+03 -0.82821692047E+03 -0.61278271147E+03  0.10377331660E+04  0.00000000000E+00 0.  1.
        -11    1    3    3    0    0  0.12396499523E+02 -0.16008117918E+03 -0.13568128692E+03  0.21021196148E+03  0.00000000000E+00 0. -1.
          2    1    6    6  502    0  0.22773877568E+03  0.87396695213E+03 -0.19802914403E+04  0.21765195547E+04  0.00000000000E+00 0. -1.
          1    1    5    5  503    0 -0.16964767584E+03 -0.54560200293E+02 -0.10925412969E+03  0.20903017540E+03  0.00000000000E+00 0. -1.
         -2    1    5    5    0  503 -0.75196648246E+00 -0.21745991861E+01 -0.34981818860E+02  0.35057409858E+02  0.00000000000E+00 0.  1.
         -1    1    6    6    0  502  0.54539083097E+02  0.17106594700E+03 -0.31786808697E+03  0.36507285646E+03  0.00000000000E+00 0.  1.
<mgrwt>
<rscale>  0 0.24674982E+04</rscale>
<asrwt>0</asrwt>
<pdfrwt beam="1">  1        2 0.55572959E+00 0.24674982E+04</pdfrwt>
<pdfrwt beam="2">  1       -2 0.64828126E-01 0.24674982E+04</pdfrwt>
<totfact> 0.13308918E+00</totfact>
</mgrwt>
</event>
<event>
12    1  0.2019083E-007  0.2094556E+04  0.7818608E-02  0.8563645E-01
          1   -1    0    0  501    0  0.00000000000E+00  0.00000000000E+00  0.97228734515E+03  0.97228734515E+03  0.00000000000E+00 0. -1.
         -1   -1    0    0    0  501 -0.00000000000E+00 -0.00000000000E+00 -0.11280524328E+04  0.11280524328E+04  0.00000000000E+00 0.  1.
         23    2    1    2    0    0  0.62263794091E+03  0.40625719018E+03 -0.48154169355E+03  0.89060235331E+03  0.92559381228E+02 0.  0.
        254    2    1    2    0    0 -0.62263794091E+03 -0.40625719018E+03  0.32577660591E+03  0.12097374246E+04  0.89700129852E+03 0.  0.
        -24    2    4    4    0    0 -0.25120641835E+03 -0.47741173744E+03 -0.17921856350E+03  0.57390383590E+03  0.78864996628E+02 0.  0.
         24    2    4    4    0    0 -0.37143152257E+03  0.71154547264E+02  0.50499516941E+03  0.63583358873E+03  0.78992948238E+02 0.  0.
         11    1    3    3    0    0  0.41963601336E+03  0.22258635938E+03 -0.31973534165E+03  0.57259912660E+03  0.00000000000E+00 0. -1.
        -11    1    3    3    0    0  0.20300192755E+03  0.18367083080E+03 -0.16180635190E+03  0.31800322670E+03  0.00000000000E+00 0.  1.
          2    1    6    6  502    0 -0.30929964072E+03  0.27722191159E+02  0.40632336883E+03  0.51140342949E+03  0.00000000000E+00 0. -1.
          1    1    5    5  503    0 -0.17524873746E+03 -0.37149111752E+03 -0.16550793517E+03  0.44284381782E+03  0.00000000000E+00 0. -1.
         -2    1    5    5    0  503 -0.75957680888E+02 -0.10592061993E+03 -0.13710628335E+02  0.13106001809E+03  0.00000000000E+00 0.  1.
         -1    1    6    6    0  502 -0.62131881843E+02  0.43432356105E+02  0.98671800574E+02  0.12443015923E+03  0.00000000000E+00 0.  1.
<mgrwt>
<rscale>  0 0.20945559E+04</rscale>
<asrwt>0</asrwt>
<pdfrwt beam="1">  1        1 0.14958267E+00 0.20945559E+04</pdfrwt>
<pdfrwt beam="2">  1       -1 0.17354653E+00 0.20945559E+04</pdfrwt>
<totfact> 0.33932280E+00</totfact>
</mgrwt>
</event>
<event>
12    1  0.2019083E-007  0.1905676E+04  0.7818608E-02  0.8652036E-01
          2   -1    0    0  501    0  0.00000000000E+00  0.00000000000E+00  0.15339905182E+04  0.15339905182E+04  0.00000000000E+00 0. -1.
         -2   -1    0    0    0  501 -0.00000000000E+00 -0.00000000000E+00 -0.59185538040E+03  0.59185538040E+03  0.00000000000E+00 0.  1.
         23    2    1    2    0    0 -0.68557405967E+03 -0.22279694739E+03  0.19333568604E+03  0.75178491322E+03  0.90286195930E+02 0.  0.
        254    2    1    2    0    0  0.68557405967E+03  0.22279694739E+03  0.74879945171E+03  0.13740609853E+04  0.89871725336E+03 0.  0.
        -24    2    4    4    0    0 -0.21105565410E+03  0.55934470827E+02  0.10853634798E+03  0.25669830207E+03  0.80254129467E+02 0.  0.
         24    2    4    4    0    0  0.89662971378E+03  0.16686247657E+03  0.64026310372E+03  0.11173626833E+04  0.82307923455E+02 0.  0.
         11    1    3    3    0    0 -0.14470464659E+03 -0.78289058365E+02  0.20072492557E+02  0.16574533587E+03  0.00000000000E+00 0.  1.
        -11    1    3    3    0    0 -0.54086941309E+03 -0.14450788903E+03  0.17326319349E+03  0.58603957735E+03  0.00000000000E+00 0. -1.
          2    1    6    6  502    0  0.77591186816E+03  0.12448717308E+03  0.52424490353E+03  0.94465284750E+03  0.00000000000E+00 0. -1.
          3    1    5    5  503    0 -0.33425580607E+02  0.13446090738E+02  0.56111045689E+02  0.66682203348E+02  0.00000000000E+00 0. -1.
         -4    1    5    5    0  503 -0.17763007350E+03  0.42488380089E+02  0.52425302293E+02  0.19001609872E+03  0.00000000000E+00 0.  1.
         -1    1    6    6    0  502  0.12071784562E+03  0.42375303486E+02  0.11601820019E+03  0.17270983577E+03  0.00000000000E+00 0.  1.
<mgrwt>
<rscale>  0 0.19056763E+04</rscale>
<asrwt>0</asrwt>
<pdfrwt beam="1">  1        2 0.23599854E+00 0.19056763E+04</pdfrwt>
<pdfrwt beam="2">  1       -2 0.91054674E-01 0.19056763E+04</pdfrwt>
<totfact> 0.11696881E+01</totfact>
</mgrwt>
</event>
<event>
12    1  0.2019083E-007  0.2692049E+04  0.7818608E-02  0.8337589E-01
          1   -1    0    0  501    0  0.00000000000E+00  0.00000000000E+00  0.13664145454E+04  0.13664145454E+04  0.00000000000E+00 0. -1.
         -1   -1    0    0    0  501 -0.00000000000E+00 -0.00000000000E+00 -0.13259389047E+04  0.13259389047E+04  0.00000000000E+00 0.  1.
         23    2    1    2    0    0 -0.38935127187E+03 -0.10446916736E+04 -0.40810992453E+03  0.11907298957E+04  0.91152993364E+02 0.  0.
        254    2    1    2    0    0  0.38935127187E+03  0.10446916736E+04  0.44858556523E+03  0.15016235543E+04  0.90037169198E+03 0.  0.
        -24    2    4    4    0    0 -0.10988621289E+03  0.50388340803E+03 -0.15691790447E+03  0.54531675835E+03  0.82302305695E+02 0.  0.
         24    2    4    4    0    0  0.49923748476E+03  0.54080826560E+03  0.60550346970E+03  0.95630679597E+03  0.78591283757E+02 0.  0.
         13    1    3    3    0    0 -0.31649202695E+03 -0.82467506698E+03 -0.36090021980E+03  0.95420392887E+03  0.00000000000E+00 0.  1.
        -13    1    3    3    0    0 -0.72859244915E+02 -0.22001660665E+03 -0.47209704727E+02  0.23652596685E+03  0.00000000000E+00 0. -1.
          4    1    6    6  502    0  0.30110516542E+03  0.28055603881E+03  0.30648166080E+03  0.51313450474E+03  0.00000000000E+00 0. -1.
          3    1    5    5  503    0 -0.99615416058E+02  0.35618220702E+03 -0.79729390539E+02  0.37834610006E+03  0.00000000000E+00 0. -1.
         -4    1    5    5    0  503 -0.10270796831E+02  0.14770120101E+03 -0.77188513928E+02  0.16697065829E+03  0.00000000000E+00 0.  1.
         -3    1    6    6    0  502  0.19813231934E+03  0.26025222679E+03  0.29902180890E+03  0.44317229123E+03  0.00000000000E+00 0.  1.
<mgrwt>
<rscale>  0 0.26920492E+04</rscale>
<asrwt>0</asrwt>
<pdfrwt beam="1">  1        1 0.21021762E+00 0.26920492E+04</pdfrwt>
<pdfrwt beam="2">  1       -1 0.20399060E+00 0.26920492E+04</pdfrwt>
<totfact> 0.10016153E+00</totfact>
</mgrwt>
</event>
<event>
12    1  0.2019083E-007  0.3908065E+04  0.7818608E-02  0.8023354E-01
          2   -1    0    0  501    0  0.00000000000E+00  0.00000000000E+00  0.33485958721E+04  0.33485958721E+04  0.00000000000E+00 0. -1.
         -2   -1    0    0    0  501 -0.00000000000E+00 -0.00000000000E+00 -0.11402519522E+04  0.11402519522E+04  0.00000000000E+00 0.  1.
         23    2    1    2    0    0 -0.37904218705E+03  0.17757987883E+04  0.64556838015E+03  0.19293544835E+04  0.92281490541E+02 0.  0.
        254    2    1    2    0    0  0.37904218705E+03 -0.17757987883E+04  0.15627755397E+04  0.25594933408E+04  0.90089092464E+03 0.  0.
        -24    2    4    4    0    0 -0.27839020422E+02 -0.41778152763E+03 -0.27888911543E+02  0.42724940523E+03  0.80298486868E+02 0.  0.
         24    2    4    4    0    0  0.40688120747E+03 -0.13580172607E+04  0.15906644513E+04  0.21322439356E+04  0.80545683292E+02 0.  0.
         13    1    3    3    0    0 -0.86058223097E+02  0.57091285663E+03  0.23161171072E+03  0.62208640249E+03  0.00000000000E+00 0. -1.
        -13    1    3    3    0    0 -0.29298396395E+03  0.12048859317E+04  0.41395666943E+03  0.13072680810E+04  0.00000000000E+00 0.  1.
          2    1    6    6  502    0  0.11675861620E+03 -0.52080057065E+03  0.58255687782E+03  0.79008754245E+03  0.00000000000E+00 0. -1.
          3    1    5    5  503    0  0.15026509986E+02 -0.60723002887E+02 -0.25679166722E+02  0.67620253516E+02  0.00000000000E+00 0. -1.
         -4    1    5    5    0  503 -0.42865530409E+02 -0.35705852475E+03 -0.22097448210E+01  0.35962915172E+03  0.00000000000E+00 0.  1.
         -1    1    6    6    0  502  0.29012259127E+03 -0.83721669002E+03  0.10081075735E+04  0.13421563932E+04  0.00000000000E+00 0.  1.
<mgrwt>
<rscale>  0 0.39080650E+04</rscale>
<asrwt>0</asrwt>
<pdfrwt beam="1">  1        2 0.51516859E+00 0.39080650E+04</pdfrwt>
<pdfrwt beam="2">  1       -2 0.17542338E+00 0.39080650E+04</pdfrwt>
<totfact> 0.16001744E-01</totfact>
</mgrwt>
</event>
<event>
12    1  0.2019083E-007  0.1183398E+04  0.7818608E-02  0.9127513E-01
          2   -1    0    0  501    0  0.00000000000E+00  0.00000000000E+00  0.57883629649E+03  0.57883629649E+03  0.00000000000E+00 0.  1.
         -2   -1    0    0    0  501 -0.00000000000E+00 -0.00000000000E+00 -0.60484774186E+03  0.60484774186E+03  0.00000000000E+00 0. -1.
         23    2    1    2    0    0 -0.23640814770E+03 -0.34101648318E+02 -0.76535556379E+01  0.25270132576E+03  0.82144071045E+02 0.  0.
        254    2    1    2    0    0  0.23640814770E+03  0.34101648318E+02 -0.18357889738E+02  0.93098271259E+03  0.89963329435E+03 0.  0.
        -24    2    4    4    0    0  0.42089986129E+03  0.33189111946E+03  0.10355980641E+03  0.55155806521E+03  0.78633691131E+02 0.  0.
         24    2    4    4    0    0 -0.18449171359E+03 -0.29778947114E+03 -0.12191769615E+03  0.37942464738E+03  0.79896038090E+02 0.  0.
         11    1    3    3    0    0 -0.16843373821E+03 -0.10467741756E+02 -0.40567122824E+02  0.17356609473E+03  0.00000000000E+00 0. -1.
        -11    1    3    3    0    0 -0.67974409490E+02 -0.23633906562E+02  0.32913567186E+02  0.79135231027E+02  0.00000000000E+00 0.  1.
          4    1    6    6  502    0 -0.31473546752E+02 -0.69109674911E+02  0.56288620621E+01  0.76147326937E+02  0.00000000000E+00 0. -1.
          3    1    5    5  503    0  0.69894055113E+02  0.71722241690E+02  0.48232647056E+02  0.11115595861E+03  0.00000000000E+00 0. -1.
         -4    1    5    5    0  503  0.35100580618E+03  0.26016887777E+03  0.55327159356E+02  0.44040210659E+03  0.00000000000E+00 0.  1.
         -3    1    6    6    0  502 -0.15301816684E+03 -0.22867979623E+03 -0.12754655821E+03  0.30327732044E+03  0.00000000000E+00 0.  1.
<mgrwt>
<rscale>  0 0.11833982E+04</rscale>
<asrwt>0</asrwt>
<pdfrwt beam="1">  1        2 0.89051738E-01 0.11833982E+04</pdfrwt>
<pdfrwt beam="2">  1       -2 0.93053499E-01 0.11833982E+04</pdfrwt>
<totfact> 0.50061439E+01</totfact>
</mgrwt>
</event>
<event>
12    1  0.2019083E-007  0.1875613E+04  0.7818608E-02  0.8667092E-01
          1   -1    0    0  501    0  0.00000000000E+00  0.00000000000E+00  0.14859741571E+04  0.14859741571E+04  0.00000000000E+00 0. -1.
         -1   -1    0    0    0  501 -0.00000000000E+00 -0.00000000000E+00 -0.59185472815E+03  0.59185472815E+03  0.00000000000E+00 0.  1.
         23    2    1    2    0    0  0.39153093655E+03 -0.60351505448E+03  0.32371053905E+03  0.79387053560E+03  0.88966392159E+02 0.  0.
        254    2    1    2    0    0 -0.39153093655E+03  0.60351505448E+03  0.57040888985E+03  0.12839583496E+04  0.89758333688E+03 0.  0.
        -24    2    4    4    0    0 -0.78131808860E+02 -0.23001119418E+03  0.14596397473E+03  0.29424200082E+03  0.79140028600E+02 0.  0.
         24    2    4    4    0    0 -0.31339912769E+03  0.83352624866E+03  0.42444491513E+03  0.98971634878E+03  0.79999653934E+02 0.  0.
         13    1    3    3    0    0  0.19832260607E+03 -0.23200757615E+03  0.15616177555E+03  0.34284963411E+03  0.00000000000E+00 0. -1.
        -13    1    3    3    0    0  0.19320833048E+03 -0.37150747833E+03  0.16754876351E+03  0.45102090148E+03  0.00000000000E+00 0.  1.
          4    1    6    6  502    0 -0.25912627724E+03  0.75026220824E+03  0.39117463705E+03  0.88490530868E+03  0.00000000000E+00 0. -1.
          1    1    5    5  503    0 -0.31482333816E+02 -0.18865492959E+03  0.12491887364E+03  0.22844374536E+03  0.00000000000E+00 0. -1.
         -2    1    5    5    0  503 -0.46649475044E+02 -0.41356264588E+02  0.21045101087E+02  0.65798255465E+02  0.00000000000E+00 0.  1.
         -3    1    6    6    0  502 -0.54272850451E+02  0.83264040426E+02  0.33270278079E+02  0.10481104010E+03  0.00000000000E+00 0.  1.
<mgrwt>
<rscale>  0 0.18756128E+04</rscale>
<asrwt>0</asrwt>
<pdfrwt beam="1">  1        1 0.22861141E+00 0.18756128E+04</pdfrwt>
<pdfrwt beam="2">  1       -1 0.91054574E-01 0.18756128E+04</pdfrwt>
<totfact> 0.73833508E+00</totfact>
</mgrwt>
</event>
<event>
12    1  0.2019083E-007  0.2203871E+04  0.7818608E-02  0.8516819E-01
         -1   -1    0    0    0  501 -0.00000000000E+00  0.00000000000E+00  0.11688461131E+04  0.11688461131E+04  0.00000000000E+00 0.  1.
          1   -1    0    0  501    0  0.00000000000E+00 -0.00000000000E+00 -0.10388553232E+04  0.10388553232E+04  0.00000000000E+00 0. -1.
         23    2    1    2    0    0 -0.17563893182E+03  0.89813492039E+03  0.72579678184E+02  0.92242235777E+03  0.89999037904E+02 0.  0.
        254    2    1    2    0    0  0.17563893182E+03 -0.89813492039E+03  0.57411111743E+02  0.12852790785E+04  0.90063916435E+03 0.  0.
        -24    2    4    4    0    0 -0.33138769490E+03 -0.18993047185E+03  0.12021796420E+03  0.40836578337E+03  0.80117823541E+02 0.  0.
         24    2    4    4    0    0  0.50702662672E+03 -0.70820444854E+03 -0.62806852459E+02  0.87691329516E+03  0.80016781806E+02 0.  0.
         13    1    3    3    0    0 -0.74473596893E+02  0.55872926928E+03  0.72075486763E+02  0.56826014182E+03  0.00000000000E+00 0.  1.
        -13    1    3    3    0    0 -0.10116533493E+03  0.33940565111E+03  0.50419142130E+00  0.35416221595E+03  0.00000000000E+00 0. -1.
          4    1    6    6  502    0  0.36815892530E+03 -0.53790171449E+03 -0.78877774003E+02  0.65658278379E+03  0.00000000000E+00 0. -1.
          3    1    5    5  503    0 -0.30444670773E+03 -0.16472388057E+03  0.83009516596E+02  0.35596676042E+03  0.00000000000E+00 0. -1.
         -4    1    5    5    0  503 -0.26940987164E+02 -0.25206591282E+02  0.37208447606E+02  0.52399022955E+02  0.00000000000E+00 0.  1.
         -3    1    6    6    0  502  0.13886770142E+03 -0.17030273405E+03  0.16070921543E+02  0.22033051137E+03  0.00000000000E+00 0.  1.
<mgrwt>
<rscale>  0 0.22038711E+04</rscale>
<asrwt>0</asrwt>
<pdfrwt beam="1">  1        1 0.15982389E+00 0.22038711E+04</pdfrwt>
<pdfrwt beam="2">  1       -1 0.17982248E+00 0.22038711E+04</pdfrwt>
<totfact> 0.26852272E+00</totfact>
</mgrwt>
</event>
<event>
12    1  0.2019083E-007  0.1858700E+04  0.7818608E-02  0.8675692E-01
         -1   -1    0    0    0  501 -0.00000000000E+00  0.00000000000E+00  0.34335069629E+03  0.34335069629E+03  0.00000000000E+00 0.  1.
          1   -1    0    0  501    0  0.00000000000E+00 -0.00000000000E+00 -0.25154777820E+04  0.25154777820E+04  0.00000000000E+00 0. -1.
         23    2    1    2    0    0 -0.63345129455E+03 -0.27124889497E+03 -0.58159596262E+03  0.90611638410E+03  0.89199395722E+02 0.  0.
        254    2    1    2    0    0  0.63345129455E+03  0.27124889497E+03 -0.15905311231E+04  0.19527120942E+04  0.89914334991E+03 0.  0.
        -24    2    4    4    0    0  0.64521407293E+02  0.77296438799E+01  0.10281686428E+03  0.14522311256E+03  0.79345355556E+02 0.  0.
         24    2    4    4    0    0  0.56892988726E+03  0.26351925109E+03 -0.16933479874E+04  0.18074889816E+04  0.80407711493E+02 0.  0.
         11    1    3    3    0    0 -0.40534424862E+03 -0.19864592026E+03 -0.33250968342E+03  0.56064859859E+03  0.00000000000E+00 0. -1.
        -11    1    3    3    0    0 -0.22810704593E+03 -0.72602974711E+02 -0.24908627920E+03  0.34546778551E+03  0.00000000000E+00 0.  1.
          2    1    6    6  502    0  0.41390315300E+03  0.16675801060E+03 -0.12797574000E+04  0.13553239675E+04  0.00000000000E+00 0. -1.
          3    1    5    5  503    0  0.63002228945E+02 -0.71319198031E+01  0.28668288135E+02  0.69584595111E+02  0.00000000000E+00 0. -1.
         -4    1    5    5    0  503  0.15191783479E+01  0.14861563683E+02  0.74148576145E+02  0.75638517452E+02  0.00000000000E+00 0.  1.
         -1    1    6    6    0  502  0.15502673426E+03  0.96761240485E+02 -0.41359058739E+03  0.45216501410E+03  0.00000000000E+00 0.  1.
<mgrwt>
<rscale>  0 0.18586996E+04</rscale>
<asrwt>0</asrwt>
<pdfrwt beam="1">  1        1 0.38699658E+00 0.18586996E+04</pdfrwt>
<pdfrwt beam="2">  1       -1 0.52823185E-01 0.18586996E+04</pdfrwt>
<totfact> 0.44869803E+00</totfact>
</mgrwt>
</event>
<event>
12    1  0.2019083E-007  0.1828764E+04  0.7818608E-02  0.8691151E-01
          1   -1    0    0  501    0  0.00000000000E+00  0.00000000000E+00  0.46130604127E+03  0.46130604127E+03  0.00000000000E+00 0. -1.
         -1   -1    0    0    0  501 -0.00000000000E+00 -0.00000000000E+00 -0.18124497596E+04  0.18124497596E+04  0.00000000000E+00 0.  1.
         23    2    1    2    0    0 -0.55355873928E+03  0.27442616380E+03 -0.11647152523E+03  0.63782146533E+03  0.10730148293E+03 0.  0.
        254    2    1    2    0    0  0.55355873928E+03 -0.27442616380E+03 -0.12346721931E+04  0.16359343356E+04  0.87756978560E+03 0.  0.
        -24    2    4    4    0    0  0.45913244994E+03  0.12175545625E+03 -0.20163383834E+03  0.52261927656E+03  0.82750865557E+02 0.  0.
         24    2    4    4    0    0  0.94426289335E+02 -0.39618162005E+03 -0.10330383548E+04  0.11133150590E+04  0.80162197913E+02 0.  0.
         13    1    3    3    0    0 -0.27236137844E+03  0.13906480752E+03 -0.11210301489E+03  0.32570972829E+03  0.00000000000E+00 0.  1.
        -13    1    3    3    0    0 -0.28119736084E+03  0.13536135628E+03 -0.43685103447E+01  0.31211173704E+03  0.00000000000E+00 0. -1.
          2    1    6    6  502    0 -0.44230904464E+01 -0.41391411944E+02 -0.61079948048E+02  0.73915984505E+02  0.00000000000E+00 0. -1.
          3    1    5    5  503    0  0.22094033468E+03  0.16492428973E+02 -0.85448527331E+02  0.23746174960E+03  0.00000000000E+00 0. -1.
         -4    1    5    5    0  503  0.23819211526E+03  0.10526302728E+03 -0.11618531101E+03  0.28515752696E+03  0.00000000000E+00 0.  1.
         -1    1    6    6    0  502  0.98849379782E+02 -0.35479020811E+03 -0.97195840673E+03  0.10393990745E+04  0.00000000000E+00 0.  1.
<mgrwt>
<rscale>  0 0.18287635E+04</rscale>
<asrwt>0</asrwt>
<pdfrwt beam="1">  1        1 0.70970161E-01 0.18287635E+04</pdfrwt>
<pdfrwt beam="2">  1       -1 0.27883842E+00 0.18287635E+04</pdfrwt>
<totfact> 0.21114076E+00</totfact>
</mgrwt>
</event>
<event>
12    1  0.2019083E-007  0.2494166E+04  0.7818608E-02  0.8405067E-01
         -1   -1    0    0    0  501 -0.00000000000E+00  0.00000000000E+00  0.23320036377E+04  0.23320036377E+04  0.00000000000E+00 0.  1.
          1   -1    0    0  501    0  0.00000000000E+00 -0.00000000000E+00 -0.66690118481E+03  0.66690118481E+03  0.00000000000E+00 0. -1.
         23    2    1    2    0    0  0.89758161850E+02  0.10022449238E+04  0.12011771558E+04  0.15696302755E+04  0.91439745491E+02 0.  0.
        254    2    1    2    0    0 -0.89758161850E+02 -0.10022449238E+04  0.46392529707E+03  0.14292745470E+04  0.90279988623E+03 0.  0.
        -24    2    4    4    0    0  0.39648772382E+03 -0.35634266952E+03  0.17615063092E+03  0.56737190356E+03  0.81848756374E+02 0.  0.
         24    2    4    4    0    0 -0.48624588567E+03 -0.64590225432E+03  0.28777466616E+03  0.86190264348E+03  0.80231694955E+02 0.  0.
         13    1    3    3    0    0  0.45254776947E+02  0.41286172441E+03  0.42779162679E+03  0.59624531384E+03  0.00000000000E+00 0.  1.
        -13    1    3    3    0    0  0.44503384903E+02  0.58938319942E+03  0.77338552906E+03  0.97338496166E+03  0.00000000000E+00 0. -1.
          4    1    6    6  502    0 -0.18816426941E+03 -0.20312277318E+03  0.71353326720E+02  0.28592997482E+03  0.00000000000E+00 0. -1.
          3    1    5    5  503    0  0.84132625372E+01 -0.23704446843E+02  0.22240869355E+02  0.33575885041E+02  0.00000000000E+00 0. -1.
         -4    1    5    5    0  503  0.38807446129E+03 -0.33263822267E+03  0.15390976156E+03  0.53379601852E+03  0.00000000000E+00 0.  1.
         -3    1    6    6    0  502 -0.29808161627E+03 -0.44277948114E+03  0.21642133944E+03  0.57597266865E+03  0.00000000000E+00 0.  1.
<mgrwt>
<rscale>  0 0.24941660E+04</rscale>
<asrwt>0</asrwt>
<pdfrwt beam="1">  1        1 0.10260018E+00 0.24941660E+04</pdfrwt>
<pdfrwt beam="2">  1       -1 0.35876979E+00 0.24941660E+04</pdfrwt>
<totfact> 0.35406124E-01</totfact>
</mgrwt>
</event>
<event>
12    1  0.2019083E-007  0.1252579E+04  0.7818608E-02  0.9068040E-01
          1   -1    0    0  501    0  0.00000000000E+00  0.00000000000E+00  0.55735637517E+03  0.55735637517E+03  0.00000000000E+00 0. -1.
         -1   -1    0    0    0  501 -0.00000000000E+00 -0.00000000000E+00 -0.70374788437E+03  0.70374788437E+03  0.00000000000E+00 0.  1.
         23    2    1    2    0    0  0.22740790398E+03 -0.88847182228E+01  0.15028106413E+03  0.28763780357E+03  0.91421085074E+02 0.  0.
        254    2    1    2    0    0 -0.22740790398E+03  0.88847182228E+01 -0.29667257333E+03  0.97346645597E+03  0.89879309750E+03 0.  0.
        -24    2    4    4    0    0 -0.42288870478E+03 -0.31615601244E+03 -0.11658998228E+03  0.54622356961E+03  0.77314184977E+02 0.  0.
         24    2    4    4    0    0  0.19548080081E+03  0.32504073066E+03 -0.18008259105E+03  0.42724288635E+03  0.79009646675E+02 0.  0.
         11    1    3    3    0    0  0.66357995274E+02 -0.43326309008E+02  0.63049265392E+02  0.10127073840E+03  0.00000000000E+00 0.  1.
        -11    1    3    3    0    0  0.16104990870E+03  0.34441590786E+02  0.87231798733E+02  0.18636706517E+03  0.00000000000E+00 0. -1.
          2    1    6    6  502    0  0.16931375567E+03  0.22444316240E+03 -0.15185226901E+03  0.31953245940E+03  0.00000000000E+00 0. -1.
          3    1    5    5  503    0 -0.36359159471E+03 -0.23886201127E+03 -0.81018295509E+02  0.44251313244E+03  0.00000000000E+00 0. -1.
         -4    1    5    5    0  503 -0.59297110074E+02 -0.77294001170E+02 -0.35571686769E+02  0.10371043718E+03  0.00000000000E+00 0.  1.
         -1    1    6    6    0  502  0.26167045131E+02  0.10059756827E+03 -0.28230322036E+02  0.10771042695E+03  0.00000000000E+00 0.  1.
<mgrwt>
<rscale>  0 0.12525787E+04</rscale>
<asrwt>0</asrwt>
<pdfrwt beam="1">  1        1 0.85747135E-01 0.12525787E+04</pdfrwt>
<pdfrwt beam="2">  1       -1 0.10826890E+00 0.12525787E+04</pdfrwt>
<totfact> 0.29753093E+01</totfact>
</mgrwt>
</event>
<event>
12    1  0.2019083E-007  0.2156762E+04  0.7818608E-02  0.8536643E-01
          2   -1    0    0  501    0  0.00000000000E+00  0.00000000000E+00  0.18371400646E+04  0.18371400646E+04  0.00000000000E+00 0. -1.
         -2   -1    0    0    0  501 -0.00000000000E+00 -0.00000000000E+00 -0.63299789675E+03  0.63299789675E+03  0.00000000000E+00 0.  1.
         23    2    1    2    0    0 -0.62563921158E+03  0.62064600561E+03  0.34751011997E+03  0.95155450158E+03  0.89815358663E+02 0.  0.
        254    2    1    2    0    0  0.62563921158E+03 -0.62064600561E+03  0.85663204789E+03  0.15185834598E+04  0.89199292123E+03 0.  0.
        -24    2    4    4    0    0  0.60789997235E+03 -0.64734303062E+01  0.56451020307E+03  0.83346310097E+03  0.80029304736E+02 0.  0.
         24    2    4    4    0    0  0.17739239226E+02 -0.61417257530E+03  0.29212184482E+03  0.68512035882E+03  0.80821414181E+02 0.  0.
         13    1    3    3    0    0 -0.13324923015E+03  0.15982344885E+03  0.47475034108E+02  0.21343095137E+03  0.00000000000E+00 0.  1.
        -13    1    3    3    0    0 -0.49238998143E+03  0.46082255675E+03  0.30003508586E+03  0.73812355021E+03  0.00000000000E+00 0. -1.
          4    1    6    6  502    0 -0.21489316023E+02 -0.75294955170E+02  0.51067394597E+02  0.93482617465E+02  0.00000000000E+00 0. -1.
          1    1    5    5  503    0  0.75019784761E+02  0.14195291745E+02  0.43290513827E+02  0.87769829672E+02  0.00000000000E+00 0. -1.
         -2    1    5    5    0  503  0.53288018759E+03 -0.20668722051E+02  0.52121968924E+03  0.74569327129E+03  0.00000000000E+00 0.  1.
         -3    1    6    6    0  502  0.39228555248E+02 -0.53887762013E+03  0.24105445022E+03  0.59163774135E+03  0.00000000000E+00 0.  1.
<mgrwt>
<rscale>  0 0.21567622E+04</rscale>
<asrwt>0</asrwt>
<pdfrwt beam="1">  1        2 0.28263693E+00 0.21567622E+04</pdfrwt>
<pdfrwt beam="2">  1       -2 0.97384293E-01 0.21567622E+04</pdfrwt>
<totfact> 0.66373253E+00</totfact>
</mgrwt>
</event>
<event>
12    1  0.2019083E-007  0.1483300E+04  0.7818608E-02  0.8895635E-01
         -1   -1    0    0    0  501 -0.00000000000E+00  0.00000000000E+00  0.51501238739E+03  0.51501238739E+03  0.00000000000E+00 0.  1.
          1   -1    0    0  501    0  0.00000000000E+00 -0.00000000000E+00 -0.10680218283E+04  0.10680218283E+04  0.00000000000E+00 0. -1.
         23    2    1    2    0    0  0.22820335623E+03  0.14952867797E+03  0.22271501082E+03  0.36457099463E+03  0.94204228946E+02 0.  0.
        254    2    1    2    0    0 -0.22820335623E+03 -0.14952867797E+03 -0.77572445174E+03  0.12184632211E+04  0.89914881902E+03 0.  0.
        -24    2    4    4    0    0 -0.34188407314E+03 -0.28999604727E+03 -0.88301450719E+03  0.99380779985E+03  0.83408010617E+02 0.  0.
         24    2    4    4    0    0  0.11368071691E+03  0.14046736931E+03  0.10729005545E+03  0.22465542123E+03  0.79400976393E+02 0.  0.
         11    1    3    3    0    0  0.11091659269E+03  0.37439858675E+02  0.49076550085E+02  0.12693597331E+03  0.00000000000E+00 0. -1.
        -11    1    3    3    0    0  0.11728676354E+03  0.11208881929E+03  0.17363846074E+03  0.23763502132E+03  0.00000000000E+00 0.  1.
          2    1    6    6  502    0  0.44544232141E+02  0.61488489643E+01  0.13961421700E+02  0.47084161419E+02  0.00000000000E+00 0. -1.
          3    1    5    5  503    0 -0.22500284785E+03 -0.14488948085E+03 -0.47343026486E+03  0.54383403615E+03  0.00000000000E+00 0. -1.
         -4    1    5    5    0  503 -0.11688122529E+03 -0.14510656642E+03 -0.40958424233E+03  0.44997376369E+03  0.00000000000E+00 0.  1.
         -1    1    6    6    0  502  0.69136484768E+02  0.13431852034E+03  0.93328633745E+02  0.17757125981E+03  0.00000000000E+00 0.  1.
<mgrwt>
<rscale>  0 0.14832997E+04</rscale>
<asrwt>0</asrwt>
<pdfrwt beam="1">  1        1 0.16431105E+00 0.14832997E+04</pdfrwt>
<pdfrwt beam="2">  1       -1 0.79232676E-01 0.14832997E+04</pdfrwt>
<totfact> 0.20681488E+01</totfact>
</mgrwt>
</event>
<event>
12    1  0.2019083E-007  0.2143360E+04  0.7818608E-02  0.8542380E-01
          2   -1    0    0  501    0  0.00000000000E+00  0.00000000000E+00  0.24929778882E+04  0.24929778882E+04  0.00000000000E+00 0. -1.
         -2   -1    0    0    0  501 -0.00000000000E+00 -0.00000000000E+00 -0.46069323869E+03  0.46069323869E+03  0.00000000000E+00 0.  1.
         23    2    1    2    0    0  0.84788567331E+03 -0.21219060293E+03  0.97438302219E+03  0.13120815424E+04  0.90557899059E+02 0.  0.
        254    2    1    2    0    0 -0.84788567331E+03  0.21219060293E+03  0.10579016273E+04  0.16415895844E+04  0.90095812536E+03 0.  0.
        -24    2    4    4    0    0 -0.10033768921E+03 -0.26575380408E+03  0.55409002563E+02  0.30027169861E+03  0.80001244748E+02 0.  0.
         24    2    4    4    0    0 -0.74754798410E+03  0.47794440702E+03  0.10024926247E+04  0.13413178858E+04  0.82966037703E+02 0.  0.
         11    1    3    3    0    0  0.40827935298E+03 -0.84142022073E+02  0.52683345541E+03  0.67180756150E+03  0.00000000000E+00 0. -1.
        -11    1    3    3    0    0  0.43960632034E+03 -0.12804858086E+03  0.44754956678E+03  0.64027398094E+03  0.00000000000E+00 0.  1.
          2    1    6    6  502    0 -0.66055443300E+03  0.43338441321E+03  0.92586336297E+03  0.12171183901E+04  0.00000000000E+00 0. -1.
          3    1    5    5  503    0 -0.44071583887E+02 -0.91949156240E+02 -0.17719023241E+02  0.10349355354E+03  0.00000000000E+00 0. -1.
         -4    1    5    5    0  503 -0.56266105326E+02 -0.17380464784E+03  0.73128025804E+02  0.19677814507E+03  0.00000000000E+00 0.  1.
         -1    1    6    6    0  502 -0.86993551100E+02  0.44559993805E+02  0.76629261741E+02  0.12419949572E+03  0.00000000000E+00 0.  1.
<mgrwt>
<rscale>  0 0.21433600E+04</rscale>
<asrwt>0</asrwt>
<pdfrwt beam="1">  1        2 0.38353505E+00 0.21433600E+04</pdfrwt>
<pdfrwt beam="2">  1       -2 0.70875885E-01 0.21433600E+04</pdfrwt>
<totfact> 0.58384206E+00</totfact>
</mgrwt>
</event>
<event>
12    1  0.2019083E-007  0.2237964E+04  0.7818608E-02  0.8502791E-01
          2   -1    0    0  501    0  0.00000000000E+00  0.00000000000E+00  0.71689843355E+03  0.71689843355E+03  0.00000000000E+00 0.  1.
         -2   -1    0    0    0  501 -0.00000000000E+00 -0.00000000000E+00 -0.17465799686E+04  0.17465799686E+04  0.00000000000E+00 0. -1.
         23    2    1    2    0    0  0.92752875318E+03 -0.53930705387E+02 -0.30787990307E+03  0.98261528216E+03  0.86744735088E+02 0.  0.
        254    2    1    2    0    0 -0.92752875318E+03  0.53930705387E+02 -0.72180163200E+03  0.14808631200E+04  0.89929965824E+03 0.  0.
        -24    2    4    4    0    0 -0.67220244975E+03  0.39852349445E+03 -0.68661681824E+03  0.10433174532E+04  0.79947132590E+02 0.  0.
         24    2    4    4    0    0 -0.25532630343E+03 -0.34459278906E+03 -0.35184813763E+02  0.43754566681E+03  0.79199292449E+02 0.  0.
         13    1    3    3    0    0  0.39027545794E+03 -0.50725324905E+02 -0.16446530156E+03  0.42654053392E+03  0.00000000000E+00 0. -1.
        -13    1    3    3    0    0  0.53725329523E+03 -0.32053804823E+01 -0.14341460151E+03  0.55607474824E+03  0.00000000000E+00 0.  1.
          2    1    6    6  502    0 -0.12362581041E+03 -0.22671049672E+03 -0.36468309016E+02  0.26078904862E+03  0.00000000000E+00 0. -1.
          1    1    5    5  503    0 -0.37555431068E+03  0.25419636647E+03 -0.35910214360E+03  0.57845586049E+03  0.00000000000E+00 0. -1.
         -2    1    5    5    0  503 -0.29664813907E+03  0.14432712798E+03 -0.32751467464E+03  0.46486159272E+03  0.00000000000E+00 0.  1.
         -1    1    6    6    0  502 -0.13170049302E+03 -0.11788229235E+03  0.12834952527E+01  0.17675661818E+03  0.00000000000E+00 0.  1.
<mgrwt>
<rscale>  0 0.22379638E+04</rscale>
<asrwt>0</asrwt>
<pdfrwt beam="1">  1        2 0.11029207E+00 0.22379638E+04</pdfrwt>
<pdfrwt beam="2">  1       -2 0.26870461E+00 0.22379638E+04</pdfrwt>
<totfact> 0.17876476E+00</totfact>
</mgrwt>
</event>
<event>
12    1  0.2019083E-007  0.2343632E+04  0.7818608E-02  0.8460913E-01
          2   -1    0    0  501    0  0.00000000000E+00  0.00000000000E+00  0.19513267784E+04  0.19513267784E+04  0.00000000000E+00 0. -1.
         -2   -1    0    0    0  501 -0.00000000000E+00 -0.00000000000E+00 -0.70370238642E+03  0.70370238642E+03  0.00000000000E+00 0.  1.
         23    2    1    2    0    0 -0.48625832294E+03  0.72775469621E+03  0.10734572500E+04  0.13878274451E+04  0.87638435102E+02 0.  0.
        254    2    1    2    0    0  0.48625832294E+03 -0.72775469621E+03  0.17416714194E+03  0.12672017197E+04  0.89966213133E+03 0.  0.
        -24    2    4    4    0    0  0.23177630434E+03 -0.26967799550E+02 -0.29254776393E+03  0.38356289798E+03  0.84194923005E+02 0.  0.
         24    2    4    4    0    0  0.25448201860E+03 -0.70078689666E+03  0.46671490587E+03  0.88363882170E+03  0.84447566756E+02 0.  0.
         13    1    3    3    0    0 -0.35072801493E+03  0.57729483108E+03  0.78899756784E+03  0.10386513489E+04  0.00000000000E+00 0. -1.
        -13    1    3    3    0    0 -0.13553030801E+03  0.15045986513E+03  0.28445968216E+03  0.34917609623E+03  0.00000000000E+00 0.  1.
          4    1    6    6  502    0  0.12269814143E+03 -0.23191068524E+03  0.14273370196E+03  0.29868094937E+03  0.00000000000E+00 0. -1.
          3    1    5    5  503    0  0.17330429096E+03 -0.36557851482E+02 -0.16129731619E+03  0.23955725408E+03  0.00000000000E+00 0. -1.
         -4    1    5    5    0  503  0.58472013385E+02  0.95900519320E+01 -0.13125044774E+03  0.14400564390E+03  0.00000000000E+00 0.  1.
         -3    1    6    6    0  502  0.13178387717E+03 -0.46887621142E+03  0.32398120391E+03  0.58495787233E+03  0.00000000000E+00 0.  1.
<mgrwt>
<rscale>  0 0.23436325E+04</rscale>
<asrwt>0</asrwt>
<pdfrwt beam="1">  1        2 0.30020412E+00 0.23436325E+04</pdfrwt>
<pdfrwt beam="2">  1       -2 0.10826191E+00 0.23436325E+04</pdfrwt>
<totfact> 0.43864284E+00</totfact>
</mgrwt>
</event>
<event>
12    1  0.2019083E-007  0.1589398E+04  0.7818608E-02  0.8827088E-01
          1   -1    0    0  501    0  0.00000000000E+00  0.00000000000E+00  0.30155439941E+04  0.30155439941E+04  0.00000000000E+00 0. -1.
         -1   -1    0    0    0  501 -0.00000000000E+00 -0.00000000000E+00 -0.20943025603E+03  0.20943025603E+03  0.00000000000E+00 0.  1.
         23    2    1    2    0    0 -0.44259112507E+03 -0.11047667438E+03  0.15155415371E+04  0.15853025028E+04  0.90696609870E+02 0.  0.
        254    2    1    2    0    0  0.44259112507E+03  0.11047667438E+03  0.12905722010E+04  0.16396717474E+04  0.90269310047E+03 0.  0.
        -24    2    4    4    0    0  0.47553805594E+03  0.23560720133E+03  0.13672245622E+04  0.14688206929E+04  0.80523465730E+02 0.  0.
         24    2    4    4    0    0 -0.32946930866E+02 -0.12513052695E+03 -0.76652361231E+02  0.17085105444E+03  0.81063859343E+02 0.  0.
         13    1    3    3    0    0 -0.33016262476E+03 -0.81562081992E+02  0.98029079778E+03  0.10376077198E+04  0.00000000000E+00 0.  1.
        -13    1    3    3    0    0 -0.11242850032E+03 -0.28914592388E+02  0.53525073932E+03  0.54769478296E+03  0.00000000000E+00 0. -1.
          2    1    6    6  502    0 -0.48026751229E+02 -0.12847923231E+03 -0.70545516431E+02  0.15424056488E+03  0.00000000000E+00 0. -1.
          3    1    5    5  503    0  0.37027127408E+03  0.15636605843E+03  0.95776582912E+03  0.10386850071E+04  0.00000000000E+00 0. -1.
         -4    1    5    5    0  503  0.10526678186E+03  0.79241142903E+02  0.40945873308E+03  0.43013568579E+03  0.00000000000E+00 0.  1.
         -1    1    6    6    0  502  0.15079820363E+02  0.33487053558E+01 -0.61068448000E+01  0.16610489552E+02  0.00000000000E+00 0.  1.
<mgrwt>
<rscale>  0 0.15893976E+04</rscale>
<asrwt>0</asrwt>
<pdfrwt beam="1">  1        1 0.46392981E+00 0.15893976E+04</pdfrwt>
<pdfrwt beam="2">  1       -1 0.32220042E-01 0.15893976E+04</pdfrwt>
<totfact> 0.50566410E+00</totfact>
</mgrwt>
</event>
<event>
12    1  0.2019083E-007  0.2300327E+04  0.7818608E-02  0.8477792E-01
          2   -1    0    0  501    0  0.00000000000E+00  0.00000000000E+00  0.24986982959E+04  0.24986982959E+04  0.00000000000E+00 0. -1.
         -2   -1    0    0    0  501 -0.00000000000E+00 -0.00000000000E+00 -0.52942627014E+03  0.52942627014E+03  0.00000000000E+00 0.  1.
         23    2    1    2    0    0  0.55053393229E+03 -0.40976359582E+03 -0.68474547832E+02  0.69635650335E+03  0.96071853255E+02 0.  0.
        254    2    1    2    0    0 -0.55053393229E+03  0.40976359582E+03  0.20377465736E+04  0.23317680627E+04  0.90207393539E+03 0.  0.
        -24    2    4    4    0    0 -0.12004554083E+03  0.21974484975E+03  0.25822410593E+02  0.26401246947E+03  0.79605629705E+02 0.  0.
         24    2    4    4    0    0 -0.43048839146E+03  0.19001874607E+03  0.20119241630E+04  0.20677555932E+04  0.79667914502E+02 0.  0.
         13    1    3    3    0    0  0.41846649317E+03 -0.25723277549E+03 -0.50634098634E+02  0.49380838251E+03  0.00000000000E+00 0.  1.
        -13    1    3    3    0    0  0.13206743912E+03 -0.15253082033E+03 -0.17840449198E+02  0.20254812084E+03  0.00000000000E+00 0. -1.
          2    1    6    6  502    0 -0.16939155599E+03  0.74840589874E+02  0.96649425788E+03  0.98407609647E+03  0.00000000000E+00 0. -1.
          1    1    5    5  503    0 -0.78331704133E+02  0.17851903285E+03 -0.10147574577E+02  0.19521238237E+03  0.00000000000E+00 0. -1.
         -2    1    5    5    0  503 -0.41713836697E+02  0.41225816899E+02  0.35969985170E+02  0.68800087094E+02  0.00000000000E+00 0.  1.
         -1    1    6    6    0  502 -0.26109683547E+03  0.11517815620E+03  0.10454299051E+04  0.10836794967E+04  0.00000000000E+00 0.  1.
<mgrwt>
<rscale>  0 0.23003274E+04</rscale>
<asrwt>0</asrwt>
<pdfrwt beam="1">  1        2 0.38441512E+00 0.23003274E+04</pdfrwt>
<pdfrwt beam="2">  1       -2 0.81450197E-01 0.23003274E+04</pdfrwt>
<totfact> 0.41963933E+00</totfact>
</mgrwt>
</event>
<event>
12    1  0.2019083E-007  0.2918212E+04  0.7818608E-02  0.8267479E-01
          1   -1    0    0  501    0  0.00000000000E+00  0.00000000000E+00  0.19539694228E+04  0.19539694228E+04  0.00000000000E+00 0. -1.
         -1   -1    0    0    0  501 -0.00000000000E+00 -0.00000000000E+00 -0.10895717822E+04  0.10895717822E+04  0.00000000000E+00 0.  1.
         23    2    1    2    0    0  0.64447763633E+03 -0.97613421739E+03 -0.24329454164E+03  0.11982944402E+04  0.92346615331E+02 0.  0.
        254    2    1    2    0    0 -0.64447763633E+03  0.97613421739E+03  0.11076921823E+04  0.18452467648E+04  0.89986900054E+03 0.  0.
        -24    2    4    4    0    0 -0.32310131363E+03 -0.23763659253E+02  0.57553893983E+03  0.66514221499E+03  0.78803074344E+02 0.  0.
         24    2    4    4    0    0 -0.32137632270E+03  0.99989787664E+03  0.53215324246E+03  0.11801045498E+04  0.79882228824E+02 0.  0.
         11    1    3    3    0    0  0.19311945636E+03 -0.36845074938E+03 -0.71872079172E+02  0.42215716849E+03  0.00000000000E+00 0.  1.
        -11    1    3    3    0    0  0.45135817997E+03 -0.60768346801E+03 -0.17142246247E+03  0.77613727172E+03  0.00000000000E+00 0. -1.
          4    1    6    6  502    0 -0.47233961013E+02  0.18447512312E+03  0.65246063583E+02  0.20129373297E+03  0.00000000000E+00 0. -1.
          3    1    5    5  503    0 -0.79652520187E+01 -0.16248976501E+02  0.35063198833E+02  0.39457602429E+02  0.00000000000E+00 0. -1.
         -4    1    5    5    0  503 -0.31513606161E+03 -0.75146827515E+01  0.54047574100E+03  0.62568461256E+03  0.00000000000E+00 0.  1.
         -3    1    6    6    0  502 -0.27414236169E+03  0.81542275352E+03  0.46690717888E+03  0.97881081682E+03  0.00000000000E+00 0.  1.
<mgrwt>
<rscale>  0 0.29182117E+04</rscale>
<asrwt>0</asrwt>
<pdfrwt beam="1">  1        1 0.30061068E+00 0.29182117E+04</pdfrwt>
<pdfrwt beam="2">  1       -1 0.16762643E+00 0.29182117E+04</pdfrwt>
<totfact> 0.70309969E-01</totfact>
</mgrwt>
</event>
<event>
12    1  0.2019083E-007  0.2321349E+04  0.7818608E-02  0.8469551E-01
         -1   -1    0    0    0  501 -0.00000000000E+00  0.00000000000E+00  0.39273527704E+03  0.39273527704E+03  0.00000000000E+00 0. -1.
          1   -1    0    0  501    0  0.00000000000E+00 -0.00000000000E+00 -0.34302124822E+04  0.34302124822E+04  0.00000000000E+00 0.  1.
         23    2    1    2    0    0  0.24359669151E+03 -0.87444316201E+03 -0.19157819734E+04  0.21219162528E+04  0.91202097938E+02 0.  0.
        254    2    1    2    0    0 -0.24359669151E+03  0.87444316201E+03 -0.11216952318E+04  0.17010315065E+04  0.90073181426E+03 0.  0.
        -24    2    4    4    0    0  0.25811723575E+02  0.41617593553E+03  0.34318096551E+02  0.42613967649E+03  0.80923653753E+02 0.  0.
         24    2    4    4    0    0 -0.26940841509E+03  0.45826722648E+03 -0.11560133283E+04  0.12748918300E+04  0.79953848156E+02 0.  0.
         13    1    3    3    0    0  0.39366134838E+02 -0.29858932186E+03 -0.61523955604E+03  0.68499999052E+03  0.00000000000E+00 0.  1.
        -13    1    3    3    0    0  0.20423055667E+03 -0.57585384016E+03 -0.13005424174E+04  0.14369162623E+04  0.00000000000E+00 0. -1.
          4    1    6    6  502    0  0.29018063823E+01  0.28481043018E+02 -0.68654055154E+02  0.74383933620E+02  0.00000000000E+00 0. -1.
          3    1    5    5  503    0  0.39155348436E+02  0.91170838003E+02  0.18027869124E+01  0.99239674798E+02  0.00000000000E+00 0. -1.
         -4    1    5    5    0  503 -0.13343624861E+02  0.32500509753E+03  0.32515309638E+02  0.32690000169E+03  0.00000000000E+00 0.  1.
         -3    1    6    6    0  502 -0.27231022147E+03  0.42978618346E+03 -0.10873592732E+04  0.12005078963E+04  0.00000000000E+00 0.  1.
<mgrwt>
<rscale>  0 0.23213491E+04</rscale>
<asrwt>0</asrwt>
<pdfrwt beam="1">  1        1 0.52772496E+00 0.23213491E+04</pdfrwt>
<pdfrwt beam="2">  1       -1 0.60420816E-01 0.23213491E+04</pdfrwt>
<totfact> 0.71155155E-01</totfact>
</mgrwt>
</event>
<event>
12    1  0.2019083E-007  0.2141568E+04  0.7818608E-02  0.8543150E-01
          2   -1    0    0  501    0  0.00000000000E+00  0.00000000000E+00  0.16514891697E+04  0.16514891697E+04  0.00000000000E+00 0. -1.
         -2   -1    0    0    0  501 -0.00000000000E+00 -0.00000000000E+00 -0.69426917981E+03  0.69426917981E+03  0.00000000000E+00 0.  1.
         23    2    1    2    0    0  0.13529598337E+03 -0.65971278770E+03  0.10144754769E+04  0.12211966597E+04  0.92923748471E+02 0.  0.
        254    2    1    2    0    0 -0.13529598337E+03  0.65971278770E+03 -0.57255486985E+02  0.11245616899E+04  0.89879632739E+03 0.  0.
        -24    2    4    4    0    0  0.72956364969E+01  0.84512939724E+03  0.59648639039E+02  0.85111995951E+03  0.80933929456E+02 0.  0.
         24    2    4    4    0    0 -0.14259161987E+03 -0.18541660954E+03 -0.11690412602E+03  0.27344173034E+03  0.79950710206E+02 0.  0.
         11    1    3    3    0    0  0.98300828464E+02 -0.51432450535E+03  0.71490832728E+03  0.88616401761E+03  0.00000000000E+00 0.  1.
        -11    1    3    3    0    0  0.36995154905E+02 -0.14538828235E+03  0.29956714961E+03  0.33503264208E+03  0.00000000000E+00 0. -1.
          2    1    6    6  502    0 -0.10363347635E+03 -0.76080049629E+02 -0.80977448109E+02  0.15193886426E+03  0.00000000000E+00 0. -1.
          1    1    5    5  503    0  0.42959574526E+02  0.36923926579E+03  0.31642786434E+02  0.37307429069E+03  0.00000000000E+00 0. -1.
         -2    1    5    5    0  503 -0.35663938029E+02  0.47589013146E+03  0.28005852605E+02  0.47804566882E+03  0.00000000000E+00 0.  1.
         -3    1    6    6    0  502 -0.38958143518E+02 -0.10933655991E+03 -0.35926677916E+02  0.12150286608E+03  0.00000000000E+00 0.  1.
<mgrwt>
<rscale>  0 0.21415677E+04</rscale>
<asrwt>0</asrwt>
<pdfrwt beam="1">  1        2 0.25407526E+00 0.21415677E+04</pdfrwt>
<pdfrwt beam="2">  1       -2 0.10681064E+00 0.21415677E+04</pdfrwt>
<totfact> 0.67626658E+00</totfact>
</mgrwt>
</event>
<event>
12    1  0.2019083E-007  0.2389490E+04  0.7818608E-02  0.8443449E-01
         -2   -1    0    0    0  501 -0.00000000000E+00  0.00000000000E+00  0.41739544538E+03  0.41739544538E+03  0.00000000000E+00 0.  1.
          2   -1    0    0  501    0  0.00000000000E+00 -0.00000000000E+00 -0.34198147459E+04  0.34198147459E+04  0.00000000000E+00 0. -1.
         23    2    1    2    0    0  0.31795893008E+03 -0.74563516022E+03 -0.22948899720E+04  0.24355625927E+04  0.91517680152E+02 0.  0.
        254    2    1    2    0    0 -0.31795893008E+03  0.74563516022E+03 -0.70752932845E+03  0.14016475986E+04  0.89830315959E+03 0.  0.
        -24    2    4    4    0    0  0.19538331513E+03 -0.86727078764E+02 -0.14334379591E+03  0.26983203390E+03  0.81028739782E+02 0.  0.
         24    2    4    4    0    0 -0.51334224521E+03  0.83236223899E+03 -0.56418553254E+03  0.11318155646E+04  0.79711979254E+02 0.  0.
         11    1    3    3    0    0  0.47917603074E+02 -0.21425544371E+03 -0.59787928020E+03  0.63691532054E+03  0.00000000000E+00 0. -1.
        -11    1    3    3    0    0  0.27004132701E+03 -0.53137971651E+03 -0.16970106918E+04  0.17986472721E+04  0.00000000000E+00 0.  1.
          2    1    6    6  502    0 -0.34164034441E+03  0.61511977846E+03 -0.38625625702E+03  0.80267326034E+03  0.00000000000E+00 0. -1.
          1    1    5    5  503    0  0.14000345901E+03 -0.99502514370E+02 -0.10642797483E+03  0.20206096290E+03  0.00000000000E+00 0. -1.
         -2    1    5    5    0  503  0.55379856122E+02  0.12775435606E+02 -0.36915821075E+02  0.67771071001E+02  0.00000000000E+00 0.  1.
         -1    1    6    6    0  502 -0.17170190081E+03  0.21724246053E+03 -0.17792927552E+03  0.32914230431E+03  0.00000000000E+00 0.  1.
<mgrwt>
<rscale>  0 0.23894896E+04</rscale>
<asrwt>0</asrwt>
<pdfrwt beam="1">  1        2 0.52612535E+00 0.23894896E+04</pdfrwt>
<pdfrwt beam="2">  1       -2 0.64214684E-01 0.23894896E+04</pdfrwt>
<totfact> 0.18669071E+00</totfact>
</mgrwt>
</event>
<event>
12    1  0.2019083E-007  0.1930901E+04  0.7818608E-02  0.8639626E-01
          2   -1    0    0  501    0  0.00000000000E+00  0.00000000000E+00  0.10126893210E+04  0.10126893210E+04  0.00000000000E+00 0. -1.
         -2   -1    0    0    0  501 -0.00000000000E+00 -0.00000000000E+00 -0.92041559513E+03  0.92041559513E+03  0.00000000000E+00 0.  1.
         23    2    1    2    0    0 -0.73909602965E+03 -0.13281645885E+03  0.11666923880E+03  0.76524760807E+03  0.89939077109E+02 0.  0.
        254    2    1    2    0    0  0.73909602965E+03  0.13281645885E+03 -0.24395512957E+02  0.11678573080E+04  0.89408746667E+03 0.  0.
        -24    2    4    4    0    0  0.55689586294E+03 -0.26223847127E+03  0.22381043312E+03  0.65984182142E+03  0.79988132571E+02 0.  0.
         24    2    4    4    0    0  0.18220016671E+03  0.39505493012E+03 -0.24820594607E+03  0.50801548660E+03  0.84901380414E+02 0.  0.
         11    1    3    3    0    0 -0.35198522217E+03 -0.95631807312E+02  0.24409272543E+02  0.36556100966E+03  0.00000000000E+00 0. -1.
        -11    1    3    3    0    0 -0.38711080748E+03 -0.37184651534E+02  0.92259966255E+02  0.39968659841E+03  0.00000000000E+00 0.  1.
          2    1    6    6  502    0  0.15032750934E+03  0.24279881208E+03 -0.18409600137E+03  0.33976603852E+03  0.00000000000E+00 0. -1.
          1    1    5    5  503    0  0.16621716444E+03 -0.74261795174E+02  0.10561537549E+03  0.21046987318E+03  0.00000000000E+00 0. -1.
         -2    1    5    5    0  503  0.39067869850E+03 -0.18797667610E+03  0.11819505762E+03  0.44937194824E+03  0.00000000000E+00 0.  1.
         -1    1    6    6    0  502  0.31872657373E+02  0.15225611804E+03 -0.64109944703E+02  0.16824944808E+03  0.00000000000E+00 0.  1.
<mgrwt>
<rscale>  0 0.19309014E+04</rscale>
<asrwt>0</asrwt>
<pdfrwt beam="1">  1        2 0.15579836E+00 0.19309014E+04</pdfrwt>
<pdfrwt beam="2">  1       -2 0.14160240E+00 0.19309014E+04</pdfrwt>
<totfact> 0.80521017E+00</totfact>
</mgrwt>
</event>
<event>
12    1  0.2019083E-007  0.2023914E+04  0.7818608E-02  0.8595521E-01
         -2   -1    0    0    0  501 -0.00000000000E+00  0.00000000000E+00  0.45919800545E+03  0.45919800545E+03  0.00000000000E+00 0. -1.
          2   -1    0    0  501    0  0.00000000000E+00 -0.00000000000E+00 -0.22300986908E+04  0.22300986908E+04  0.00000000000E+00 0.  1.
         23    2    1    2    0    0 -0.67825954833E+03 -0.39372999176E+03 -0.45187583490E+03  0.90969899680E+03  0.91110774871E+02 0.  0.
        254    2    1    2    0    0  0.67825954833E+03  0.39372999176E+03 -0.13190248504E+04  0.17795976994E+04  0.90115597676E+03 0.  0.
        -24    2    4    4    0    0  0.25870710491E+03  0.64038389006E+03 -0.86131662066E+03  0.11066402491E+04  0.75930409224E+02 0.  0.
         24    2    4    4    0    0  0.41955244341E+03 -0.24665389830E+03 -0.45770822977E+03  0.67295745036E+03  0.80700112006E+02 0.  0.
         11    1    3    3    0    0 -0.24998276572E+03 -0.15619457871E+03 -0.22014840272E+03  0.36790412990E+03  0.00000000000E+00 0.  1.
        -11    1    3    3    0    0 -0.42827678261E+03 -0.23753541304E+03 -0.23172743218E+03  0.54179486690E+03  0.00000000000E+00 0. -1.
          2    1    6    6  502    0  0.10546183778E+03 -0.71237851968E+02 -0.16968900091E+03  0.21211173426E+03  0.00000000000E+00 0. -1.
          3    1    5    5  503    0  0.17135818930E+03  0.39018423363E+03 -0.47479926751E+03  0.63799820505E+03  0.00000000000E+00 0. -1.
         -4    1    5    5    0  503  0.87348915612E+02  0.25019965643E+03 -0.38651735315E+03  0.46864204402E+03  0.00000000000E+00 0.  1.
         -1    1    6    6    0  502  0.31409060563E+03 -0.17541604634E+03 -0.28801922886E+03  0.46084571610E+03  0.00000000000E+00 0.  1.
<mgrwt>
<rscale>  0 0.20239139E+04</rscale>
<asrwt>0</asrwt>
<pdfrwt beam="1">  1        2 0.34309210E+00 0.20239139E+04</pdfrwt>
<pdfrwt beam="2">  1       -2 0.70645848E-01 0.20239139E+04</pdfrwt>
<totfact> 0.83898792E+00</totfact>
</mgrwt>
</event>
<event>
12    1  0.2019083E-007  0.1198956E+04  0.7818608E-02  0.9113771E-01
         -1   -1    0    0    0  501 -0.00000000000E+00  0.00000000000E+00  0.13195470528E+04  0.13195470528E+04  0.00000000000E+00 0.  1.
          1   -1    0    0  501    0  0.00000000000E+00 -0.00000000000E+00 -0.27234645593E+03  0.27234645593E+03  0.00000000000E+00 0. -1.
         23    2    1    2    0    0 -0.20442241880E+03 -0.12165527883E+03  0.13837549370E+03  0.28982518829E+03  0.90897361552E+02 0.  0.
        254    2    1    2    0    0  0.20442241880E+03  0.12165527883E+03  0.90882510316E+03  0.13020683204E+04  0.90157102371E+03 0.  0.
        -24    2    4    4    0    0  0.53862515304E+03  0.46097591932E+01  0.39640473394E+03  0.67371305963E+03  0.81328151712E+02 0.  0.
         24    2    4    4    0    0 -0.33420273425E+03  0.11704551964E+03  0.51242036922E+03  0.62835526081E+03  0.82852747376E+02 0.  0.
         11    1    3    3    0    0 -0.27648683915E+02 -0.47314085154E+02  0.26113261160E+01  0.54862477161E+02  0.00000000000E+00 0. -1.
        -11    1    3    3    0    0 -0.17677373488E+03 -0.74341193677E+02  0.13576416759E+03  0.23496271113E+03  0.00000000000E+00 0.  1.
          4    1    6    6  502    0 -0.25686885063E+02 -0.13087363079E+02  0.39948411098E+02  0.49264294229E+02  0.00000000000E+00 0. -1.
          3    1    5    5  503    0  0.12210882995E+03  0.42302074856E+01  0.50168583022E+02  0.13208083786E+03  0.00000000000E+00 0. -1.
         -4    1    5    5    0  503  0.41651632309E+03  0.37955170765E+00  0.34623615092E+03  0.54163222177E+03  0.00000000000E+00 0.  1.
         -3    1    6    6    0  502 -0.30851584918E+03  0.13013288272E+03  0.47247195812E+03  0.57909096658E+03  0.00000000000E+00 0.  1.
<mgrwt>
<rscale>  0 0.11989562E+04</rscale>
<asrwt>0</asrwt>
<pdfrwt beam="1">  1        1 0.41899456E-01 0.11989562E+04</pdfrwt>
<pdfrwt beam="2">  1       -1 0.20300723E+00 0.11989562E+04</pdfrwt>
<totfact> 0.14133431E+01</totfact>
</mgrwt>
</event>
<event>
12    1  0.2019083E-007  0.1214576E+04  0.7818608E-02  0.9100193E-01
          2   -1    0    0  501    0  0.00000000000E+00  0.00000000000E+00  0.26884688573E+04  0.26884688573E+04  0.00000000000E+00 0.  1.
         -2   -1    0    0    0  501 -0.00000000000E+00 -0.00000000000E+00 -0.13717788916E+03  0.13717788916E+03  0.00000000000E+00 0. -1.
         23    2    1    2    0    0 -0.81314947777E+02 -0.25613930292E+03  0.64386670520E+03  0.70111859928E+03  0.69162800430E+02 0.  0.
        254    2    1    2    0    0  0.81314947777E+02  0.25613930292E+03  0.19074242629E+04  0.21245281472E+04  0.89617691672E+03 0.  0.
        -24    2    4    4    0    0  0.32161952808E+03  0.48907134755E+03  0.11736911817E+04  0.13139514423E+04  0.79293750618E+02 0.  0.
         24    2    4    4    0    0 -0.24030458031E+03 -0.23293204463E+03  0.73373308127E+03  0.81057670490E+03  0.81650053575E+02 0.  0.
         13    1    3    3    0    0 -0.68692638315E+02 -0.11189318552E+03  0.34148058115E+03  0.36585208873E+03  0.00000000000E+00 0. -1.
        -13    1    3    3    0    0 -0.12622309461E+02 -0.14424611740E+03  0.30238612404E+03  0.33526651055E+03  0.00000000000E+00 0.  1.
          2    1    6    6  502    0 -0.18022274605E+03 -0.17952614034E+03  0.62943469537E+03  0.67889462289E+03  0.00000000000E+00 0. -1.
          1    1    5    5  503    0  0.32515388055E+03  0.48438705433E+03  0.11688034261E+04  0.13063144007E+04  0.00000000000E+00 0. -1.
         -2    1    5    5    0  503 -0.35343524675E+01  0.46842932191E+01  0.48877555225E+01  0.76370415983E+01  0.00000000000E+00 0.  1.
         -1    1    6    6    0  502 -0.60081834255E+02 -0.53405904289E+02  0.10429838590E+03  0.13168208200E+03  0.00000000000E+00 0.  1.
<mgrwt>
<rscale>  0 0.12145756E+04</rscale>
<asrwt>0</asrwt>
<pdfrwt beam="1">  1        2 0.41361055E+00 0.12145756E+04</pdfrwt>
<pdfrwt beam="2">  1       -2 0.21104293E-01 0.12145756E+04</pdfrwt>
<totfact> 0.52156181E+01</totfact>
</mgrwt>
</event>
<event>
12    1  0.2019083E-007  0.4735290E+04  0.7818608E-02  0.7870691E-01
         -2   -1    0    0    0  501 -0.00000000000E+00  0.00000000000E+00  0.24057428053E+04  0.24057428053E+04  0.00000000000E+00 0.  1.
          2   -1    0    0  501    0  0.00000000000E+00 -0.00000000000E+00 -0.23301508103E+04  0.23301508103E+04  0.00000000000E+00 0. -1.
         23    2    1    2    0    0 -0.75577616603E+03 -0.21430460824E+04 -0.16521430171E+03  0.22802253118E+04  0.91036160489E+02 0.  0.
        254    2    1    2    0    0  0.75577616603E+03  0.21430460824E+04  0.24080629676E+03  0.24556683038E+04  0.89915239055E+03 0.  0.
        -24    2    4    4    0    0  0.68318472521E+03  0.13469098012E+04 -0.22207087079E+03  0.15285378142E+04  0.78771801056E+02 0.  0.
         24    2    4    4    0    0  0.72591440823E+02  0.79613628121E+03  0.46287716755E+03  0.92713048958E+03  0.78823707889E+02 0.  0.
         13    1    3    3    0    0 -0.55278086455E+03 -0.16433838526E+04 -0.96540116018E+02  0.17365474843E+04  0.00000000000E+00 0. -1.
        -13    1    3    3    0    0 -0.20299530148E+03 -0.49966222983E+03 -0.68674185692E+02  0.54367782750E+03  0.00000000000E+00 0.  1.
          4    1    6    6  502    0  0.46581846346E+02  0.16258986092E+03  0.91412906869E+02  0.19225413084E+03  0.00000000000E+00 0. -1.
          3    1    5    5  503    0  0.16120903055E+02  0.21110513066E+02 -0.13508545093E+02  0.29799632007E+02  0.00000000000E+00 0. -1.
         -2    1    5    5    0  503  0.66706382215E+03  0.13257992881E+04 -0.20856232570E+03  0.14987381822E+04  0.00000000000E+00 0.  1.
         -3    1    6    6    0  502  0.26009594477E+02  0.63354642029E+03  0.37146426068E+03  0.73487635874E+03  0.00000000000E+00 0.  1.
<mgrwt>
<rscale>  0 0.47352903E+04</rscale>
<asrwt>0</asrwt>
<pdfrwt beam="1">  1        2 0.35848474E+00 0.47352903E+04</pdfrwt>
<pdfrwt beam="2">  1       -2 0.37011428E+00 0.47352903E+04</pdfrwt>
<totfact> 0.37559616E-02</totfact>
</mgrwt>
</event>
<event>
12    1  0.2019083E-007  0.2042710E+04  0.7818608E-02  0.8586909E-01
          1   -1    0    0  501    0  0.00000000000E+00  0.00000000000E+00  0.11241145125E+04  0.11241145125E+04  0.00000000000E+00 0. -1.
         -1   -1    0    0    0  501 -0.00000000000E+00 -0.00000000000E+00 -0.92798875090E+03  0.92798875090E+03  0.00000000000E+00 0.  1.
         23    2    1    2    0    0 -0.35159561906E+03 -0.22536923747E+02 -0.66376446727E+03  0.75724461504E+03  0.93320666127E+02 0.  0.
        254    2    1    2    0    0  0.35159561906E+03  0.22536923747E+02  0.85989022888E+03  0.12948586484E+04  0.90173184553E+03 0.  0.
        -24    2    4    4    0    0  0.40786066556E+03  0.19057163365E+03  0.96989034268E+03  0.10721466736E+04  0.78379479467E+02 0.  0.
         24    2    4    4    0    0 -0.56265046506E+02 -0.16803470990E+03 -0.11000011380E+03  0.22271197477E+03  0.78097243750E+02 0.  0.
         13    1    3    3    0    0 -0.18166342817E+03  0.31835805986E+02 -0.37294357542E+03  0.41605532099E+03  0.00000000000E+00 0.  1.
        -13    1    3    3    0    0 -0.16993219089E+03 -0.54372729734E+02 -0.29082089185E+03  0.34118929405E+03  0.00000000000E+00 0. -1.
          2    1    6    6  502    0 -0.27876656292E+01 -0.11918453456E+03 -0.83652801036E+02  0.14563830361E+03  0.00000000000E+00 0. -1.
          3    1    5    5  503    0  0.20552793167E+02  0.29100840539E+02  0.53826618145E+02  0.64549059234E+02  0.00000000000E+00 0. -1.
         -4    1    5    5    0  503  0.38730787240E+03  0.16147079311E+03  0.91606372454E+03  0.10075976144E+04  0.00000000000E+00 0.  1.
         -1    1    6    6    0  502 -0.53477380876E+02 -0.48850175341E+02 -0.26347312763E+02  0.77073671160E+02  0.00000000000E+00 0.  1.
<mgrwt>
<rscale>  0 0.20427096E+04</rscale>
<asrwt>0</asrwt>
<pdfrwt beam="1">  1        1 0.17294070E+00 0.20427096E+04</pdfrwt>
<pdfrwt beam="2">  1       -1 0.14276750E+00 0.20427096E+04</pdfrwt>
<totfact> 0.44751288E+00</totfact>
</mgrwt>
</event>
<event>
12    1  0.2019083E-007  0.2211717E+04  0.7818608E-02  0.8513567E-01
          2   -1    0    0  501    0  0.00000000000E+00  0.00000000000E+00  0.48099486172E+04  0.48099486172E+04  0.00000000000E+00 0.  1.
         -2   -1    0    0    0  501 -0.00000000000E+00 -0.00000000000E+00 -0.25424877518E+03  0.25424877518E+03  0.00000000000E+00 0. -1.
         23    2    1    2    0    0  0.91692254028E+03 -0.79477579893E+02  0.18555176116E+04  0.20732912043E+04  0.92342732975E+02 0.  0.
        254    2    1    2    0    0 -0.91692254028E+03  0.79477579893E+02  0.27001822304E+04  0.29909061881E+04  0.89859452359E+03 0.  0.
        -24    2    4    4    0    0 -0.57111127482E+02  0.36082776485E+03  0.68480584136E+03  0.78028419249E+03  0.80162484487E+02 0.  0.
         24    2    4    4    0    0 -0.85981141279E+03 -0.28135018495E+03  0.20153763891E+04  0.22106219956E+04  0.81694710083E+02 0.  0.
         11    1    3    3    0    0  0.41142332646E+03 -0.18254591230E+02  0.73522803074E+03  0.84271148137E+03  0.00000000000E+00 0. -1.
        -11    1    3    3    0    0  0.50549921382E+03 -0.61222988662E+02  0.11202895809E+04  0.12305797230E+04  0.00000000000E+00 0.  1.
          4    1    6    6  502    0 -0.12230075086E+03 -0.11173382412E+02  0.26127633036E+03  0.28869991157E+03  0.00000000000E+00 0. -1.
          1    1    5    5  503    0  0.15871904133E+02  0.10605825082E+03  0.16441121650E+03  0.19629395819E+03  0.00000000000E+00 0. -1.
         -2    1    5    5    0  503 -0.72983031615E+02  0.25476951403E+03  0.52039462486E+03  0.58399023430E+03  0.00000000000E+00 0.  1.
         -3    1    6    6    0  502 -0.73751066193E+03 -0.27017680254E+03  0.17541000587E+04  0.19219220840E+04  0.00000000000E+00 0.  1.
<mgrwt>
<rscale>  0 0.22117175E+04</rscale>
<asrwt>0</asrwt>
<pdfrwt beam="1">  1        2 0.73999203E+00 0.22117175E+04</pdfrwt>
<pdfrwt beam="2">  1       -2 0.39115200E-01 0.22117175E+04</pdfrwt>
<totfact> 0.33218323E-01</totfact>
</mgrwt>
</event>
<event>
12    1  0.2364192E-007  0.2341985E+04  0.7818608E-02  0.8461549E-01
          1   -1    0    0  501    0  0.00000000000E+00  0.00000000000E+00  0.16833891570E+04  0.16833891570E+04  0.00000000000E+00 0. -1.
         -1   -1    0    0    0  501 -0.00000000000E+00 -0.00000000000E+00 -0.81456126414E+03  0.81456126414E+03  0.00000000000E+00 0.  1.
         23    2    1    2    0    0  0.77544638794E+03  0.58534534721E+03  0.60545404324E+03  0.11481343036E+04  0.87701223459E+02 0.  0.
        254    2    1    2    0    0 -0.77544638794E+03 -0.58534534721E+03  0.26337384962E+03  0.13498161175E+04  0.89927275638E+03 0.  0.
        -24    2    4    4    0    0 -0.59394562448E+03 -0.79902435106E+03  0.32776160943E+03  0.10513336661E+04  0.81630181038E+02 0.  0.
         24    2    4    4    0    0 -0.18150076346E+03  0.21367900385E+03 -0.64387759807E+02  0.29848245140E+03  0.79653916143E+02 0.  0.
         11    1    3    3    0    0  0.49550777599E+03  0.40909055253E+03  0.36311881784E+03  0.73806389432E+03  0.00000000000E+00 0. -1.
        -11    1    3    3    0    0  0.27993861195E+03  0.17625479468E+03  0.24233522539E+03  0.41007040929E+03  0.00000000000E+00 0.  1.
          2    1    6    6  502    0 -0.18984942056E+03  0.20463906321E+03 -0.61217330750E+02  0.28577527931E+03  0.00000000000E+00 0. -1.
          3    1    5    5  503    0 -0.49092545270E+03 -0.70297103946E+03  0.29467530726E+03  0.90664746133E+03  0.00000000000E+00 0. -1.
         -4    1    5    5    0  503 -0.10302017177E+03 -0.96053311602E+02  0.33086302173E+02  0.14468620478E+03  0.00000000000E+00 0.  1.
         -1    1    6    6    0  502  0.83486571007E+01  0.90399406424E+01 -0.31704290571E+01  0.12707172093E+02  0.00000000000E+00 0.  1.
<mgrwt>
<rscale>  0 0.23419851E+04</rscale>
<asrwt>0</asrwt>
<pdfrwt beam="1">  1        1 0.25898295E+00 0.23419851E+04</pdfrwt>
<pdfrwt beam="2">  1       -1 0.12531712E+00 0.23419851E+04</pdfrwt>
<totfact> 0.24500502E+00</totfact>
</mgrwt>
</event>
<event>
12    1  0.3468001E-007  0.2627320E+04  0.7818608E-02  0.8358980E-01
         -3   -1    0    0    0  501 -0.00000000000E+00  0.00000000000E+00  0.10347346753E+04  0.10347346753E+04  0.00000000000E+00 0.  1.
          3   -1    0    0  501    0  0.00000000000E+00 -0.00000000000E+00 -0.16677727546E+04  0.16677727546E+04  0.00000000000E+00 0. -1.
         23    2    1    2    0    0 -0.24239337827E+03 -0.97519497106E+03 -0.86866039343E+03  0.13316694357E+04  0.94935901686E+02 0.  0.
        254    2    1    2    0    0  0.24239337827E+03  0.97519497106E+03  0.23562231408E+03  0.13708379942E+04  0.90217467822E+03 0.  0.
        -24    2    4    4    0    0  0.48627505390E+03  0.52359536750E+03 -0.13653879090E+03  0.73189646117E+03  0.80087773957E+02 0.  0.
         24    2    4    4    0    0 -0.24388167563E+03  0.45159960356E+03  0.37216110499E+03  0.63894153303E+03  0.79510508235E+02 0.  0.
         13    1    3    3    0    0 -0.15150793050E+03 -0.67537936370E+03 -0.65086412703E+03  0.95011370360E+03  0.00000000000E+00 0. -1.
        -13    1    3    3    0    0 -0.90885447768E+02 -0.29981560736E+03 -0.21779626640E+03  0.38155573209E+03  0.00000000000E+00 0.  1.
          4    1    6    6  502    0 -0.21554118385E+03  0.33798966311E+03  0.30716625241E+03  0.50502091138E+03  0.00000000000E+00 0. -1.
          1    1    5    5  503    0  0.47695402023E+03  0.52400063088E+03 -0.12971786606E+03  0.72033917244E+03  0.00000000000E+00 0. -1.
         -2    1    5    5    0  503  0.93210336652E+01 -0.40526338060E+00 -0.68209248400E+01  0.11557288725E+02  0.00000000000E+00 0.  1.
         -3    1    6    6    0  502 -0.28340491782E+02  0.11360994044E+03  0.64994852574E+02  0.13392062165E+03  0.00000000000E+00 0.  1.
<mgrwt>
<rscale>  0 0.26273198E+04</rscale>
<asrwt>0</asrwt>
<pdfrwt beam="1">  1        3 0.25658042E+00 0.26273198E+04</pdfrwt>
<pdfrwt beam="2">  1       -3 0.15918995E+00 0.26273198E+04</pdfrwt>
<totfact> 0.42914982E-02</totfact>
</mgrwt>
</event>
<event>
12    1  0.2019083E-007  0.1970158E+04  0.7818608E-02  0.8620701E-01
          1   -1    0    0  501    0  0.00000000000E+00  0.00000000000E+00  0.13580888270E+04  0.13580888270E+04  0.00000000000E+00 0. -1.
         -1   -1    0    0    0  501 -0.00000000000E+00 -0.00000000000E+00 -0.71451942694E+03  0.71451942694E+03  0.00000000000E+00 0.  1.
         23    2    1    2    0    0 -0.76459357973E+03 -0.11708465004E+03  0.20255742957E+03  0.80500670910E+03  0.93242329361E+02 0.  0.
        254    2    1    2    0    0  0.76459357973E+03  0.11708465004E+03  0.44101197048E+03  0.12676015448E+04  0.90222500570E+03 0.  0.
        -24    2    4    4    0    0 -0.11976255794E+03  0.23053954793E+03  0.12456555282E+01  0.27081478199E+03  0.76469216281E+02 0.  0.
         24    2    4    4    0    0  0.88435613767E+03 -0.11345489790E+03  0.43976631495E+03  0.99678676284E+03  0.72330123186E+02 0.  0.
         13    1    3    3    0    0 -0.17502801691E+03 -0.14289622585E+02  0.82917651332E+01  0.17580601067E+03  0.00000000000E+00 0.  1.
        -13    1    3    3    0    0 -0.58956556281E+03 -0.10279502745E+03  0.19426566444E+03  0.62920069843E+03  0.00000000000E+00 0. -1.
          2    1    6    6  502    0  0.28534775819E+03 -0.22174144305E+02  0.10741997724E+03  0.30570261250E+03  0.00000000000E+00 0. -1.
          1    1    5    5  503    0 -0.79735349174E+02  0.14016067002E+03  0.37453275020E+02  0.16554602725E+03  0.00000000000E+00 0. -1.
         -2    1    5    5    0  503 -0.40027208770E+02  0.90378877916E+02 -0.36207619492E+02  0.10526875474E+03  0.00000000000E+00 0.  1.
         -1    1    6    6    0  502  0.59900837948E+03 -0.91280753590E+02  0.33234633770E+03  0.69108415034E+03  0.00000000000E+00 0.  1.
<mgrwt>
<rscale>  0 0.19701582E+04</rscale>
<asrwt>0</asrwt>
<pdfrwt beam="1">  1        1 0.20893674E+00 0.19701582E+04</pdfrwt>
<pdfrwt beam="2">  1       -1 0.10992607E+00 0.19701582E+04</pdfrwt>
<totfact> 0.58468447E+00</totfact>
</mgrwt>
</event>
<event>
12    1  0.2019083E-007  0.2175593E+04  0.7818608E-02  0.8528656E-01
         -1   -1    0    0    0  501 -0.00000000000E+00  0.00000000000E+00  0.16113010950E+04  0.16113010950E+04  0.00000000000E+00 0.  1.
          1   -1    0    0  501    0  0.00000000000E+00 -0.00000000000E+00 -0.73437624760E+03  0.73437624760E+03  0.00000000000E+00 0. -1.
         23    2    1    2    0    0  0.66731998426E+03  0.34704217034E+03 -0.16653008644E+03  0.77539666784E+03  0.88053923403E+02 0.  0.
        254    2    1    2    0    0 -0.66731998426E+03 -0.34704217034E+03  0.10434549338E+04  0.15702806748E+04  0.90068250186E+03 0.  0.
        -24    2    4    4    0    0 -0.65304387038E+03 -0.41109125467E+03  0.11720684377E+04  0.14055597713E+04  0.79947056874E+02 0.  0.
         24    2    4    4    0    0 -0.14276113881E+02  0.64049084324E+02 -0.12861350382E+03  0.16472090343E+03  0.79280830172E+02 0.  0.
         13    1    3    3    0    0  0.36402822046E+03  0.20550494799E+03 -0.50050623402E+02  0.42101531307E+03  0.00000000000E+00 0.  1.
        -13    1    3    3    0    0  0.30329176380E+03  0.14153722236E+03 -0.11647946304E+03  0.35438135478E+03  0.00000000000E+00 0. -1.
          4    1    6    6  502    0 -0.14112579988E+02 -0.22497857113E+01  0.53418343898E+01  0.15256527925E+02  0.00000000000E+00 0. -1.
          1    1    5    5  503    0 -0.57730129719E+02 -0.65543215880E+02  0.12438368750E+03  0.15198678476E+03  0.00000000000E+00 0. -1.
         -2    1    5    5    0  503 -0.59531374066E+03 -0.34554803879E+03  0.10476847502E+04  0.12535729866E+04  0.00000000000E+00 0.  1.
         -3    1    6    6    0  502 -0.16353389255E+00  0.66298870036E+02 -0.13395533821E+03  0.14946437551E+03  0.00000000000E+00 0.  1.
<mgrwt>
<rscale>  0 0.21755930E+04</rscale>
<asrwt>0</asrwt>
<pdfrwt beam="1">  1        1 0.11298096E+00 0.21755930E+04</pdfrwt>
<pdfrwt beam="2">  1       -1 0.24789248E+00 0.21755930E+04</pdfrwt>
<totfact> 0.16640738E+00</totfact>
</mgrwt>
</event>
<event>
12    1  0.2019083E-007  0.2220036E+04  0.7818608E-02  0.8510135E-01
          1   -1    0    0  501    0  0.00000000000E+00  0.00000000000E+00  0.19534820683E+04  0.19534820683E+04  0.00000000000E+00 0. -1.
         -1   -1    0    0    0  501 -0.00000000000E+00 -0.00000000000E+00 -0.63074018220E+03  0.63074018220E+03  0.00000000000E+00 0.  1.
         23    2    1    2    0    0 -0.31930046757E+02 -0.59119910938E+03 -0.27359994473E+03  0.65815970018E+03  0.88211940047E+02 0.  0.
        254    2    1    2    0    0  0.31930046757E+02  0.59119910938E+03  0.15963418308E+04  0.19260625503E+04  0.90048530919E+03 0.  0.
        -24    2    4    4    0    0 -0.72858746502E+02  0.67941691818E+03  0.16234398178E+04  0.17631552809E+04  0.79018713612E+02 0.  0.
         24    2    4    4    0    0  0.10478879326E+03 -0.88217808800E+02 -0.27097986934E+02  0.16290726939E+03  0.83913077308E+02 0.  0.
         13    1    3    3    0    0  0.22094526635E+02 -0.22775327930E+03 -0.13349035046E+03  0.26491394453E+03  0.00000000000E+00 0.  1.
        -13    1    3    3    0    0 -0.54024573391E+02 -0.36344583008E+03 -0.14010959427E+03  0.39324575566E+03  0.00000000000E+00 0. -1.
          4    1    6    6  502    0  0.71155978850E+02 -0.76869974839E+02 -0.54488070246E+02  0.11807250381E+03  0.00000000000E+00 0. -1.
          1    1    5    5  503    0 -0.50631571733E+02  0.64406915675E+03  0.15300709638E+04  0.16608750070E+04  0.00000000000E+00 0. -1.
         -2    1    5    5    0  503 -0.22227174770E+02  0.35347761432E+02  0.93368854004E+02  0.10228027393E+03  0.00000000000E+00 0.  1.
         -3    1    6    6    0  502  0.33632814410E+02 -0.11347833961E+02  0.27390083312E+02  0.44834765579E+02  0.00000000000E+00 0.  1.
<mgrwt>
<rscale>  0 0.22200357E+04</rscale>
<asrwt>0</asrwt>
<pdfrwt beam="1">  1        1 0.30053570E+00 0.22200357E+04</pdfrwt>
<pdfrwt beam="2">  1       -1 0.97036952E-01 0.22200357E+04</pdfrwt>
<totfact> 0.29765589E+00</totfact>
</mgrwt>
</event>
<event>
12    1  0.2019083E-007  0.1441790E+04  0.7818608E-02  0.8924112E-01
         -2   -1    0    0    0  501 -0.00000000000E+00  0.00000000000E+00  0.53836525847E+03  0.53836525847E+03  0.00000000000E+00 0.  1.
          2   -1    0    0  501    0  0.00000000000E+00 -0.00000000000E+00 -0.96531022455E+03  0.96531022455E+03  0.00000000000E+00 0. -1.
         23    2    1    2    0    0 -0.40988280973E+03 -0.46516736771E+02 -0.29977145960E+03  0.51821566976E+03  0.92286661440E+02 0.  0.
        254    2    1    2    0    0  0.40988280973E+03  0.46516736771E+02 -0.12717350649E+03  0.98545981326E+03  0.88588386275E+03 0.  0.
        -24    2    4    4    0    0  0.68421494834E+03  0.36227021255E+02 -0.64394946877E+02  0.69288035371E+03  0.80461063746E+02 0.  0.
         24    2    4    4    0    0 -0.27433213860E+03  0.10289715516E+02 -0.62778559609E+02  0.29257945955E+03  0.79357369452E+02 0.  0.
         11    1    3    3    0    0 -0.88165315686E+02 -0.46254817231E+02 -0.89504286784E+02  0.13387923050E+03  0.00000000000E+00 0. -1.
        -11    1    3    3    0    0 -0.32171749405E+03 -0.26191954077E+00 -0.21026717282E+03  0.38433643926E+03  0.00000000000E+00 0.  1.
          4    1    6    6  502    0 -0.13531633449E+03 -0.13030932019E+02 -0.67003465037E+02  0.15155784340E+03  0.00000000000E+00 0. -1.
          1    1    5    5  503    0  0.25827185882E+02  0.14024912647E+02  0.71440180025E+01  0.30245308703E+02  0.00000000000E+00 0. -1.
         -2    1    5    5    0  503  0.65838776245E+03  0.22202108609E+02 -0.71538964879E+02  0.66263504501E+03  0.00000000000E+00 0.  1.
         -3    1    6    6    0  502 -0.13901580412E+03  0.23320647536E+02  0.42249054282E+01  0.14102161615E+03  0.00000000000E+00 0.  1.
<mgrwt>
<rscale>  0 0.14417898E+04</rscale>
<asrwt>0</asrwt>
<pdfrwt beam="1">  1        2 0.14850927E+00 0.14417898E+04</pdfrwt>
<pdfrwt beam="2">  1       -2 0.82825424E-01 0.14417898E+04</pdfrwt>
<totfact> 0.32908103E+01</totfact>
</mgrwt>
</event>
<event>
12    1  0.2019083E-007  0.1902740E+04  0.7818608E-02  0.8653494E-01
         -2   -1    0    0    0  501 -0.00000000000E+00  0.00000000000E+00  0.11220789491E+04  0.11220789491E+04  0.00000000000E+00 0.  1.
          2   -1    0    0  501    0  0.00000000000E+00 -0.00000000000E+00 -0.80663172764E+03  0.80663172764E+03  0.00000000000E+00 0. -1.
         23    2    1    2    0    0  0.45469324763E+03  0.29446213475E+03  0.62436328557E+03  0.83174318081E+03  0.92267590294E+02 0.  0.
        254    2    1    2    0    0 -0.45469324763E+03 -0.29446213475E+03 -0.30891606407E+03  0.10969674960E+04  0.90247141470E+03 0.  0.
        -24    2    4    4    0    0 -0.14650745055E+03 -0.37670860535E+03 -0.55155217278E+03  0.68868246691E+03  0.81853127706E+02 0.  0.
         24    2    4    4    0    0 -0.30818579707E+03  0.82246470602E+02  0.24263610871E+03  0.40828502907E+03  0.77983435842E+02 0.  0.
         11    1    3    3    0    0  0.11633388935E+03  0.34479420346E+02  0.16446717283E+03  0.20438164100E+03  0.00000000000E+00 0.  1.
        -11    1    3    3    0    0  0.33835935828E+03  0.25998271440E+03  0.45989611274E+03  0.62736153981E+03  0.00000000000E+00 0. -1.
          4    1    6    6  502    0 -0.30171181396E+03  0.68642471460E+02  0.21492121880E+03  0.37673988090E+03  0.00000000000E+00 0. -1.
          3    1    5    5  503    0 -0.15443800643E+03 -0.33262990092E+03 -0.50465418726E+03  0.62383459149E+03  0.00000000000E+00 0. -1.
         -4    1    5    5    0  503  0.79305558767E+01 -0.44078704434E+02 -0.46897985521E+02  0.64847875424E+02  0.00000000000E+00 0.  1.
         -3    1    6    6    0  502 -0.64739831127E+01  0.13603999142E+02  0.27714889910E+02  0.31545148164E+02  0.00000000000E+00 0.  1.
<mgrwt>
<rscale>  0 0.19027396E+04</rscale>
<asrwt>0</asrwt>
<pdfrwt beam="1">  1        2 0.12409719E+00 0.19027396E+04</pdfrwt>
<pdfrwt beam="2">  1       -2 0.17262753E+00 0.19027396E+04</pdfrwt>
<totfact> 0.65103944E+00</totfact>
</mgrwt>
</event>
<event>
12    1  0.2019083E-007  0.1269290E+04  0.7818608E-02  0.9054280E-01
          2   -1    0    0  501    0  0.00000000000E+00  0.00000000000E+00  0.85514985998E+03  0.85514985998E+03  0.00000000000E+00 0. -1.
         -2   -1    0    0    0  501 -0.00000000000E+00 -0.00000000000E+00 -0.47099825880E+03  0.47099825880E+03  0.00000000000E+00 0.  1.
         23    2    1    2    0    0 -0.26661207779E+03 -0.48841909703E+02 -0.51162954216E+02  0.29022073441E+03  0.90237988847E+02 0.  0.
        254    2    1    2    0    0  0.26661207779E+03  0.48841909703E+02  0.43531455540E+03  0.10359273844E+04  0.90009957858E+03 0.  0.
        -24    2    4    4    0    0  0.16763534105E+03 -0.37286321716E+03 -0.34800889128E+00  0.41643809663E+03  0.79322007920E+02 0.  0.
         24    2    4    4    0    0  0.98976736741E+02  0.42170512686E+03  0.43566256430E+03  0.61948928773E+03  0.79583285002E+02 0.  0.
         13    1    3    3    0    0 -0.77746757528E+02 -0.48631818109E+02  0.86482648197E+01  0.92110827393E+02  0.00000000000E+00 0. -1.
        -13    1    3    3    0    0 -0.18886532026E+03 -0.21009159496E+00 -0.59811219036E+02  0.19810990702E+03  0.00000000000E+00 0.  1.
          2    1    6    6  502    0  0.32649110127E+02  0.30020009042E+03  0.29637966383E+03  0.42311578063E+03  0.00000000000E+00 0. -1.
          3    1    5    5  503    0  0.55046918129E+02 -0.73715863953E+02  0.26327252135E+02  0.95693866046E+02  0.00000000000E+00 0. -1.
         -4    1    5    5    0  503  0.11258842292E+03 -0.29914735320E+03 -0.26675261027E+02  0.32074423059E+03  0.00000000000E+00 0.  1.
         -1    1    6    6    0  502  0.66327626613E+02  0.12150503644E+03  0.13928290046E+03  0.19637350710E+03  0.00000000000E+00 0.  1.
<mgrwt>
<rscale>  0 0.12692897E+04</rscale>
<asrwt>0</asrwt>
<pdfrwt beam="1">  1        2 0.13156152E+00 0.12692897E+04</pdfrwt>
<pdfrwt beam="2">  1       -2 0.72461271E-01 0.12692897E+04</pdfrwt>
<totfact> 0.53296381E+01</totfact>
</mgrwt>
</event>
<event>
12    1  0.2019083E-007  0.1951236E+04  0.7818608E-02  0.8629765E-01
          1   -1    0    0  501    0  0.00000000000E+00  0.00000000000E+00  0.11336604273E+04  0.11336604273E+04  0.00000000000E+00 0.  1.
         -1   -1    0    0    0  501 -0.00000000000E+00 -0.00000000000E+00 -0.83960789230E+03  0.83960789230E+03  0.00000000000E+00 0. -1.
         23    2    1    2    0    0  0.23771463280E+03  0.72278015713E+03  0.39640374388E+02  0.76721310202E+03  0.90139793876E+02 0.  0.
        254    2    1    2    0    0 -0.23771463280E+03 -0.72278015713E+03  0.25441216060E+03  0.12060552176E+04  0.90051331926E+03 0.  0.
        -24    2    4    4    0    0 -0.47477165603E+03 -0.33635777526E+03  0.41499990484E+03  0.71835960728E+03  0.72601143301E+02 0.  0.
         24    2    4    4    0    0  0.23705702323E+03 -0.38642238187E+03 -0.16058774424E+03  0.48769561029E+03  0.80872091739E+02 0.  0.
         13    1    3    3    0    0  0.79000219906E+02  0.17131394637E+03 -0.22581108072E+02  0.18999844580E+03  0.00000000000E+00 0. -1.
        -13    1    3    3    0    0  0.15871441289E+03  0.55146621076E+03  0.62221482460E+02  0.57721465622E+03  0.00000000000E+00 0.  1.
          4    1    6    6  502    0  0.18864318032E+03 -0.35587654937E+03 -0.14776451297E+03  0.42903230550E+03  0.00000000000E+00 0. -1.
          1    1    5    5  503    0 -0.54494260594E+02 -0.13174629783E+02  0.35421249448E+02  0.66316364648E+02  0.00000000000E+00 0. -1.
         -2    1    5    5    0  503 -0.42027739543E+03 -0.32318314548E+03  0.37957865539E+03  0.65204324263E+03  0.00000000000E+00 0.  1.
         -3    1    6    6    0  502  0.48413842903E+02 -0.30545832501E+02 -0.12823231270E+02  0.58663304783E+02  0.00000000000E+00 0.  1.
<mgrwt>
<rscale>  0 0.19512358E+04</rscale>
<asrwt>0</asrwt>
<pdfrwt beam="1">  1        1 0.17440930E+00 0.19512358E+04</pdfrwt>
<pdfrwt beam="2">  1       -1 0.12917045E+00 0.19512358E+04</pdfrwt>
<totfact> 0.57442255E+00</totfact>
</mgrwt>
</event>
<event>
12    1  0.2019083E-007  0.2523487E+04  0.7818608E-02  0.8394666E-01
          2   -1    0    0  501    0  0.00000000000E+00  0.00000000000E+00  0.27560359874E+04  0.27560359874E+04  0.00000000000E+00 0. -1.
         -2   -1    0    0    0  501 -0.00000000000E+00 -0.00000000000E+00 -0.57763981324E+03  0.57763981324E+03  0.00000000000E+00 0.  1.
         23    2    1    2    0    0 -0.10454074037E+04  0.30249897800E+03  0.11520691968E+04  0.15881208888E+04  0.10238286904E+03 0.  0.
        254    2    1    2    0    0  0.10454074037E+04 -0.30249897800E+03  0.10263269774E+04  0.17455549119E+04  0.89957357371E+03 0.  0.
        -24    2    4    4    0    0  0.18483842527E+03  0.24667169579E+03  0.34752201788E+02  0.32016266725E+03  0.79273255344E+02 0.  0.
         24    2    4    4    0    0  0.86056897840E+03 -0.54917067379E+03  0.99157477564E+03  0.14253922446E+04  0.79719005690E+02 0.  0.
         11    1    3    3    0    0 -0.44276724183E+03  0.16880444845E+03  0.54761017921E+03  0.72416481593E+03  0.00000000000E+00 0. -1.
        -11    1    3    3    0    0 -0.60264016185E+03  0.13369452955E+03  0.60445901754E+03  0.86395607284E+03  0.00000000000E+00 0.  1.
          4    1    6    6  502    0  0.34811404628E+03 -0.25382136654E+03  0.45839608023E+03  0.62907522738E+03  0.00000000000E+00 0. -1.
          1    1    5    5  503    0  0.79559789913E+02  0.46722930032E+02  0.79311617846E+01  0.92605052179E+02  0.00000000000E+00 0. -1.
         -2    1    5    5    0  503  0.10527863536E+03  0.19994876576E+03  0.26821040004E+02  0.22755761508E+03  0.00000000000E+00 0.  1.
         -3    1    6    6    0  502  0.51245493213E+03 -0.29534930725E+03  0.53317869541E+03  0.79631701726E+03  0.00000000000E+00 0.  1.
<mgrwt>
<rscale>  0 0.25234866E+04</rscale>
<asrwt>0</asrwt>
<pdfrwt beam="1">  1        2 0.42400553E+00 0.25234866E+04</pdfrwt>
<pdfrwt beam="2">  1       -2 0.88867665E-01 0.25234866E+04</pdfrwt>
<totfact> 0.23806298E+00</totfact>
</mgrwt>
</event>
<event>
12    1  0.2019083E-007  0.1504110E+04  0.7818608E-02  0.8881725E-01
         -1   -1    0    0    0  501 -0.00000000000E+00  0.00000000000E+00  0.13854603967E+04  0.13854603967E+04  0.00000000000E+00 0.  1.
          1   -1    0    0  501    0  0.00000000000E+00 -0.00000000000E+00 -0.40823009217E+03  0.40823009217E+03  0.00000000000E+00 0. -1.
         23    2    1    2    0    0 -0.32116842552E+03  0.35089631699E+03  0.38617734226E+03  0.61923170486E+03  0.89652561605E+02 0.  0.
        254    2    1    2    0    0  0.32116842552E+03 -0.35089631699E+03  0.59105296231E+03  0.11744587840E+04  0.89651126503E+03 0.  0.
        -24    2    4    4    0    0  0.28676293755E+03  0.28484696215E+01 -0.16131904629E+03  0.33857797520E+03  0.79812996825E+02 0.  0.
         24    2    4    4    0    0  0.34405487967E+02 -0.35374478661E+03  0.75237200860E+03  0.83588080884E+03  0.79460528597E+02 0.  0.
         13    1    3    3    0    0 -0.26760237552E+03  0.31237418694E+03  0.29280132261E+03  0.50489729508E+03  0.00000000000E+00 0. -1.
        -13    1    3    3    0    0 -0.53566049994E+02  0.38522130055E+02  0.93376019648E+02  0.11433440979E+03  0.00000000000E+00 0.  1.
          2    1    6    6  502    0  0.42061053693E+02 -0.30871966742E+03  0.70111595769E+03  0.76722913880E+03  0.00000000000E+00 0. -1.
          1    1    5    5  503    0  0.28444708867E+03 -0.74567227064E+00 -0.16821446999E+03  0.33046453697E+03  0.00000000000E+00 0. -1.
         -2    1    5    5    0  503  0.23158488817E+01  0.35941418921E+01  0.68954236975E+01  0.81134382324E+01  0.00000000000E+00 0.  1.
         -1    1    6    6    0  502 -0.76555657268E+01 -0.45025119195E+02  0.51256050908E+02  0.68651670044E+02  0.00000000000E+00 0.  1.
<mgrwt>
<rscale>  0 0.15041099E+04</rscale>
<asrwt>0</asrwt>
<pdfrwt beam="1">  1        1 0.62804630E-01 0.15041099E+04</pdfrwt>
<pdfrwt beam="2">  1       -1 0.21314775E+00 0.15041099E+04</pdfrwt>
<totfact> 0.69097870E+00</totfact>
</mgrwt>
</event>
<event>
12    1  0.2019083E-007  0.1304275E+04  0.7818608E-02  0.9026182E-01
         -2   -1    0    0    0  501 -0.00000000000E+00  0.00000000000E+00  0.18322584553E+03  0.18322584553E+03  0.00000000000E+00 0.  1.
          2   -1    0    0  501    0  0.00000000000E+00 -0.00000000000E+00 -0.23210865592E+04  0.23210865592E+04  0.00000000000E+00 0. -1.
         23    2    1    2    0    0  0.48545786474E+02  0.26906008782E+03 -0.91183038434E+03  0.95627089735E+03  0.90935994411E+02 0.  0.
        254    2    1    2    0    0 -0.48545786474E+02 -0.26906008782E+03 -0.12260303294E+04  0.15480415074E+04  0.90472764736E+03 0.  0.
        -24    2    4    4    0    0  0.17960952505E+03 -0.52589640063E+03 -0.93576456573E+03  0.10912077215E+04  0.79071886791E+02 0.  0.
         24    2    4    4    0    0 -0.22815531152E+03  0.25683631280E+03 -0.29026576362E+03  0.45683378591E+03  0.80144598486E+02 0.  0.
         13    1    3    3    0    0  0.10930702881E+02  0.11165535293E+03 -0.23564622970E+03  0.26098954706E+03  0.00000000000E+00 0.  1.
        -13    1    3    3    0    0  0.37615083593E+02  0.15740473489E+03 -0.67618415464E+03  0.69528135029E+03  0.00000000000E+00 0. -1.
          4    1    6    6  502    0 -0.17033496199E+02 -0.36770099241E+01 -0.15370654142E+02  0.23236122816E+02  0.00000000000E+00 0. -1.
          1    1    5    5  503    0  0.84129982519E+02 -0.13856826210E+03 -0.28643492320E+03  0.32912608898E+03  0.00000000000E+00 0. -1.
         -2    1    5    5    0  503  0.95479542528E+02 -0.38732813853E+03 -0.64932964253E+03  0.76208163251E+03  0.00000000000E+00 0.  1.
         -3    1    6    6    0  502 -0.21112181532E+03  0.26051332273E+03 -0.27489510948E+03  0.43359766310E+03  0.00000000000E+00 0.  1.
<mgrwt>
<rscale>  0 0.13042746E+04</rscale>
<asrwt>0</asrwt>
<pdfrwt beam="1">  1        2 0.35709022E+00 0.13042746E+04</pdfrwt>
<pdfrwt beam="2">  1       -2 0.28188593E-01 0.13042746E+04</pdfrwt>
<totfact> 0.49905747E+01</totfact>
</mgrwt>
</event>
<event>
12    1  0.2019083E-007  0.1360272E+04  0.7818608E-02  0.8983088E-01
          2   -1    0    0  501    0  0.00000000000E+00  0.00000000000E+00  0.11584553660E+04  0.11584553660E+04  0.00000000000E+00 0.  1.
         -2   -1    0    0    0  501 -0.00000000000E+00 -0.00000000000E+00 -0.39931193370E+03  0.39931193370E+03  0.00000000000E+00 0. -1.
         23    2    1    2    0    0  0.52787522322E+02  0.27609627267E+03 -0.70351701478E+02  0.30344204435E+03  0.90066853429E+02 0.  0.
        254    2    1    2    0    0 -0.52787522322E+02 -0.27609627267E+03  0.82949513374E+03  0.12543252553E+04  0.89791647435E+03 0.  0.
        -24    2    4    4    0    0 -0.20590124269E+03 -0.56255936605E+03  0.57209186324E+03  0.83208233307E+03  0.78762598672E+02 0.  0.
         24    2    4    4    0    0  0.15311372037E+03  0.28646309338E+03  0.25740327050E+03  0.42224292223E+03  0.80794346816E+02 0.  0.
         11    1    3    3    0    0 -0.21469998654E+02  0.89144505081E+02 -0.39868422120E+02  0.99985972569E+02  0.00000000000E+00 0. -1.
        -11    1    3    3    0    0  0.74257520976E+02  0.18695176759E+03 -0.30483279359E+02  0.20345607178E+03  0.00000000000E+00 0.  1.
          2    1    6    6  502    0  0.12870751296E+03  0.23455824133E+03  0.24663429341E+03  0.36388413974E+03  0.00000000000E+00 0. -1.
          3    1    5    5  503    0 -0.46110109013E+02 -0.20257765667E+03  0.16164502648E+03  0.26323556698E+03  0.00000000000E+00 0. -1.
         -4    1    5    5    0  503 -0.15979113368E+03 -0.35998170938E+03  0.41044683676E+03  0.56884676609E+03  0.00000000000E+00 0.  1.
         -1    1    6    6    0  502  0.24406207412E+02  0.51904852051E+02  0.10768977089E+02  0.58358782494E+02  0.00000000000E+00 0.  1.
<mgrwt>
<rscale>  0 0.13602721E+04</rscale>
<asrwt>0</asrwt>
<pdfrwt beam="1">  1        2 0.17822390E+00 0.13602721E+04</pdfrwt>
<pdfrwt beam="2">  1       -2 0.61432606E-01 0.13602721E+04</pdfrwt>
<totfact> 0.48245070E+01</totfact>
</mgrwt>
</event>
<event>
12    1  0.2019083E-007  0.1966714E+04  0.7818608E-02  0.8622343E-01
          1   -1    0    0  501    0  0.00000000000E+00  0.00000000000E+00  0.62272883014E+03  0.62272883014E+03  0.00000000000E+00 0. -1.
         -1   -1    0    0    0  501 -0.00000000000E+00 -0.00000000000E+00 -0.15528288134E+04  0.15528288134E+04  0.00000000000E+00 0.  1.
         23    2    1    2    0    0 -0.18447154643E+02 -0.69618358084E+03  0.20469811010E+01  0.70279585907E+03  0.94371360302E+02 0.  0.
        254    2    1    2    0    0  0.18447154643E+02  0.69618358084E+03 -0.93214696435E+03  0.14727617845E+04  0.90283854307E+03 0.  0.
        -24    2    4    4    0    0  0.34907764775E+03  0.58025764597E+03 -0.87445643651E+03  0.11088790822E+04  0.79903815815E+02 0.  0.
         24    2    4    4    0    0 -0.33063049311E+03  0.11592593487E+03 -0.57690527836E+02  0.36388270222E+03  0.79542935742E+02 0.  0.
         13    1    3    3    0    0  0.30945937850E+02 -0.27751655874E+03 -0.25032774212E+02  0.28035643604E+03  0.00000000000E+00 0.  1.
        -13    1    3    3    0    0 -0.49393092492E+02 -0.41866702210E+03  0.27079755313E+02  0.42243942303E+03  0.00000000000E+00 0. -1.
          2    1    6    6  502    0 -0.54069347734E+02  0.24304436783E+02  0.19644209375E+02  0.62450740378E+02  0.00000000000E+00 0. -1.
          3    1    5    5  503    0 -0.41776297638E+01  0.69397668681E+01 -0.69296072303E+01  0.10659850421E+02  0.00000000000E+00 0. -1.
         -4    1    5    5    0  503  0.35325527752E+03  0.57331787910E+03 -0.86752682928E+03  0.10982192318E+04  0.00000000000E+00 0.  1.
         -1    1    6    6    0  502 -0.27656114537E+03  0.91621498091E+02 -0.77334737211E+02  0.30143196185E+03  0.00000000000E+00 0.  1.
<mgrwt>
<rscale>  0 0.19667143E+04</rscale>
<asrwt>0</asrwt>
<pdfrwt beam="1">  1        1 0.95804436E-01 0.19667143E+04</pdfrwt>
<pdfrwt beam="2">  1       -1 0.23889674E+00 0.19667143E+04</pdfrwt>
<totfact> 0.24880268E+00</totfact>
</mgrwt>
</event>
<event>
12    1  0.2019083E-007  0.2423636E+04  0.7818608E-02  0.8430707E-01
          2   -1    0    0  501    0  0.00000000000E+00  0.00000000000E+00  0.22848968942E+04  0.22848968942E+04  0.00000000000E+00 0. -1.
         -2   -1    0    0    0  501 -0.00000000000E+00 -0.00000000000E+00 -0.64270002294E+03  0.64270002294E+03  0.00000000000E+00 0.  1.
         23    2    1    2    0    0  0.66541277754E+03 -0.71921358559E+03  0.11378181023E+04  0.15044151755E+04  0.92696494599E+02 0.  0.
        254    2    1    2    0    0 -0.66541277754E+03  0.71921358559E+03  0.50437876898E+03  0.14231817417E+04  0.90055870493E+03 0.  0.
        -24    2    4    4    0    0 -0.46784683264E+02 -0.14621376167E+03  0.28584483300E+03  0.33422729893E+03  0.80208154903E+02 0.  0.
         24    2    4    4    0    0 -0.61862809428E+03  0.86542734726E+03  0.21853393598E+03  0.10889544427E+04  0.79996779817E+02 0.  0.
         13    1    3    3    0    0  0.20394585560E+03 -0.26656805317E+03  0.43681360918E+03  0.55087073634E+03  0.00000000000E+00 0.  1.
        -13    1    3    3    0    0  0.46146692194E+03 -0.45264553242E+03  0.70100449313E+03  0.95354443916E+03  0.00000000000E+00 0. -1.
          2    1    6    6  502    0 -0.20677133002E+03  0.22866838232E+03  0.54517409494E+02  0.31307468746E+03  0.00000000000E+00 0. -1.
          3    1    5    5  503    0 -0.48877728080E+02 -0.36858027370E+02  0.13156644859E+03  0.14511125690E+03  0.00000000000E+00 0. -1.
         -4    1    5    5    0  503  0.20930448167E+01 -0.10935573430E+03  0.15427838441E+03  0.18911604204E+03  0.00000000000E+00 0.  1.
         -1    1    6    6    0  502 -0.41185676426E+03  0.63675896494E+03  0.16401652649E+03  0.77587975528E+03  0.00000000000E+00 0.  1.
<mgrwt>
<rscale>  0 0.24236363E+04</rscale>
<asrwt>0</asrwt>
<pdfrwt beam="1">  1        2 0.35152260E+00 0.24236363E+04</pdfrwt>
<pdfrwt beam="2">  1       -2 0.98876927E-01 0.24236363E+04</pdfrwt>
<totfact> 0.35202168E+00</totfact>
</mgrwt>
</event>
<event>
12    1  0.2019083E-007  0.4512657E+04  0.7818608E-02  0.7908425E-01
         -2   -1    0    0    0  501 -0.00000000000E+00  0.00000000000E+00  0.22225799452E+04  0.22225799452E+04  0.00000000000E+00 0.  1.
          2   -1    0    0  501    0  0.00000000000E+00 -0.00000000000E+00 -0.22905891084E+04  0.22905891084E+04  0.00000000000E+00 0. -1.
         23    2    1    2    0    0 -0.14707453806E+04 -0.56532011920E+03  0.14530288707E+04  0.21452569427E+04  0.90308579351E+02 0.  0.
        254    2    1    2    0    0  0.14707453806E+04  0.56532011920E+03 -0.15210380339E+04  0.23679121109E+04  0.90042892705E+03 0.  0.
        -24    2    4    4    0    0  0.11612325123E+04  0.73189638221E+03 -0.14565124324E+04  0.20027285598E+04  0.73211724600E+02 0.  0.
         24    2    4    4    0    0  0.30951286835E+03 -0.16657626301E+03 -0.64525601517E+02  0.36518355114E+03  0.75163858984E+02 0.  0.
         13    1    3    3    0    0 -0.96660599513E+03 -0.39052447724E+03  0.90760653837E+03  0.13822395399E+04  0.00000000000E+00 0. -1.
        -13    1    3    3    0    0 -0.50413938551E+03 -0.17479564196E+03  0.54542233231E+03  0.76301740285E+03  0.00000000000E+00 0.  1.
          4    1    6    6  502    0  0.17325507075E+03 -0.61420209038E+02 -0.78917370100E+01  0.18398924189E+03  0.00000000000E+00 0. -1.
          1    1    5    5  503    0  0.52214466875E+03  0.28990186894E+03 -0.65450591746E+03  0.88603394106E+03  0.00000000000E+00 0. -1.
         -2    1    5    5    0  503  0.63908784353E+03  0.44199451328E+03 -0.80200651491E+03  0.11166946187E+04  0.00000000000E+00 0.  1.
         -3    1    6    6    0  502  0.13625779760E+03 -0.10515605398E+03 -0.56633864507E+02  0.18119430925E+03  0.00000000000E+00 0.  1.
<mgrwt>
<rscale>  0 0.45126566E+04</rscale>
<asrwt>0</asrwt>
<pdfrwt beam="1">  1        2 0.35239833E+00 0.45126566E+04</pdfrwt>
<pdfrwt beam="2">  1       -2 0.34193537E+00 0.45126566E+04</pdfrwt>
<totfact> 0.60746662E-02</totfact>
</mgrwt>
</event>
<event>
12    1  0.2019083E-007  0.3509154E+04  0.7818608E-02  0.8111624E-01
         -2   -1    0    0    0  501 -0.00000000000E+00  0.00000000000E+00  0.17803429152E+04  0.17803429152E+04  0.00000000000E+00 0.  1.
          2   -1    0    0  501    0  0.00000000000E+00 -0.00000000000E+00 -0.17291839924E+04  0.17291839924E+04  0.00000000000E+00 0. -1.
         23    2    1    2    0    0 -0.93223367325E+03  0.12712575210E+04 -0.42427113277E+03  0.16350240355E+04  0.90234672748E+02 0.  0.
        254    2    1    2    0    0  0.93223367325E+03 -0.12712575210E+04  0.47543005561E+03  0.18745028721E+04  0.89586381417E+03 0.  0.
        -24    2    4    4    0    0  0.69393095769E+03 -0.98940375016E+03  0.73469395107E+03  0.14166098237E+04  0.80921171601E+02 0.  0.
         24    2    4    4    0    0  0.23830271556E+03 -0.28185377087E+03 -0.25926389546E+03  0.45789304842E+03  0.78857744742E+02 0.  0.
         11    1    3    3    0    0 -0.20350778366E+03  0.33838344553E+03 -0.12189729877E+03  0.41325261725E+03  0.00000000000E+00 0. -1.
        -11    1    3    3    0    0 -0.72872588960E+03  0.93287407550E+03 -0.30237383400E+03  0.12217714182E+04  0.00000000000E+00 0.  1.
          2    1    6    6  502    0  0.84496621165E+02 -0.73106251037E+02 -0.41170092802E+02  0.11907635983E+03  0.00000000000E+00 0. -1.
          1    1    5    5  503    0  0.31818694362E+03 -0.50048589932E+03  0.39556680582E+03  0.71288299487E+03  0.00000000000E+00 0. -1.
         -2    1    5    5    0  503  0.37574401408E+03 -0.48891785084E+03  0.33912714526E+03  0.70372682884E+03  0.00000000000E+00 0.  1.
         -1    1    6    6    0  502  0.15380609440E+03 -0.20874751983E+03 -0.21809380266E+03  0.33881668859E+03  0.00000000000E+00 0.  1.
<mgrwt>
<rscale>  0 0.35091540E+04</rscale>
<asrwt>0</asrwt>
<pdfrwt beam="1">  1        2 0.26602831E+00 0.35091540E+04</pdfrwt>
<pdfrwt beam="2">  1       -2 0.27389891E+00 0.35091540E+04</pdfrwt>
<totfact> 0.35590182E-01</totfact>
</mgrwt>
</event>
<event>
12    1  0.2019083E-007  0.2204684E+04  0.7818608E-02  0.8516481E-01
          2   -1    0    0  501    0  0.00000000000E+00  0.00000000000E+00  0.17037566643E+04  0.17037566643E+04  0.00000000000E+00 0. -1.
         -2   -1    0    0    0  501 -0.00000000000E+00 -0.00000000000E+00 -0.71322267326E+03  0.71322267326E+03  0.00000000000E+00 0.  1.
         23    2    1    2    0    0 -0.73455793381E+02 -0.91265723633E+03  0.44217979600E+03  0.10208379858E+04  0.90819802907E+02 0.  0.
        254    2    1    2    0    0  0.73455793381E+02  0.91265723633E+03  0.54835419508E+03  0.13961413518E+04  0.90009964251E+03 0.  0.
        -24    2    4    4    0    0  0.15496301855E+03  0.10643680941E+04  0.53334279613E+03  0.12031938369E+04  0.79548061952E+02 0.  0.
         24    2    4    4    0    0 -0.81507225165E+02 -0.15171085781E+03  0.15011398951E+02  0.19294751489E+03  0.85695911640E+02 0.  0.
         11    1    3    3    0    0 -0.63598415633E+02 -0.67649175385E+03  0.37004574042E+03  0.77370517738E+03  0.00000000000E+00 0. -1.
        -11    1    3    3    0    0 -0.98573777475E+01 -0.23616548248E+03  0.72134055580E+02  0.24713280839E+03  0.00000000000E+00 0.  1.
          2    1    6    6  502    0 -0.22204495151E+02 -0.58681817665E+02 -0.34970848506E+02  0.71830046461E+02  0.00000000000E+00 0. -1.
          3    1    5    5  503    0  0.23196482378E+02  0.93738888204E+02  0.25674386604E+02  0.99921119309E+02  0.00000000000E+00 0. -1.
         -4    1    5    5    0  503  0.13176653617E+03  0.97062920593E+03  0.50766840953E+03  0.11032727176E+04  0.00000000000E+00 0.  1.
         -1    1    6    6    0  502 -0.59302730014E+02 -0.93029040142E+02  0.49982247458E+02  0.12111746843E+03  0.00000000000E+00 0.  1.
<mgrwt>
<rscale>  0 0.22046840E+04</rscale>
<asrwt>0</asrwt>
<pdfrwt beam="1">  1        2 0.26211641E+00 0.22046840E+04</pdfrwt>
<pdfrwt beam="2">  1       -2 0.10972657E+00 0.22046840E+04</pdfrwt>
<totfact> 0.58948134E+00</totfact>
</mgrwt>
</event>
<event>
12    1  0.2019083E-007  0.1110037E+04  0.7818608E-02  0.9195464E-01
         -1   -1    0    0    0  501 -0.00000000000E+00  0.00000000000E+00  0.14073949821E+03  0.14073949821E+03  0.00000000000E+00 0.  1.
          1   -1    0    0  501    0  0.00000000000E+00 -0.00000000000E+00 -0.21887627244E+04  0.21887627244E+04  0.00000000000E+00 0. -1.
         23    2    1    2    0    0 -0.15706206070E+02 -0.17174248584E+03 -0.31991604649E+03  0.37340374874E+03  0.85684983637E+02 0.  0.
        254    2    1    2    0    0  0.15706206070E+02  0.17174248584E+03 -0.17281071797E+04  0.19560984738E+04  0.90012479611E+03 0.  0.
        -24    2    4    4    0    0  0.12578657736E+03 -0.20966865481E+03 -0.14306097635E+04  0.14535112073E+04  0.79166446534E+02 0.  0.
         24    2    4    4    0    0 -0.11008037129E+03  0.38141114064E+03 -0.29749741612E+03  0.50258726657E+03  0.80604600152E+02 0.  0.
         11    1    3    3    0    0 -0.54712126676E+01 -0.17381277486E+03 -0.26137725967E+03  0.31394089690E+03  0.00000000000E+00 0.  1.
        -11    1    3    3    0    0 -0.10234993402E+02  0.20702890262E+01 -0.58538786822E+02  0.59462851842E+02  0.00000000000E+00 0. -1.
          4    1    6    6  502    0 -0.14547430042E+02  0.36145434915E+02 -0.34357044963E+01  0.39114246144E+02  0.00000000000E+00 0. -1.
          1    1    5    5  503    0 -0.19742902819E+01 -0.18053214179E+00 -0.12665684248E+03  0.12667235753E+03  0.00000000000E+00 0. -1.
         -2    1    5    5    0  503  0.12776086764E+03 -0.20948812266E+03 -0.13039529211E+04  0.13268388497E+04  0.00000000000E+00 0.  1.
         -1    1    6    6    0  502 -0.95532941248E+02  0.34526570573E+03 -0.29406171163E+03  0.46347302042E+03  0.00000000000E+00 0.  1.
<mgrwt>
<rscale>  0 0.11100367E+04</rscale>
<asrwt>0</asrwt>
<pdfrwt beam="1">  1        1 0.33673272E+00 0.11100367E+04</pdfrwt>
<pdfrwt beam="2">  1       -1 0.21652231E-01 0.11100367E+04</pdfrwt>
<totfact> 0.39701249E+01</totfact>
</mgrwt>
</event>
<event>
12    1  0.2019083E-007  0.1340573E+04  0.7818608E-02  0.8997995E-01
         -1   -1    0    0    0  501 -0.00000000000E+00  0.00000000000E+00  0.98699737297E+03  0.98699737297E+03  0.00000000000E+00 0.  1.
          1   -1    0    0  501    0  0.00000000000E+00 -0.00000000000E+00 -0.45520316419E+03  0.45520316419E+03  0.00000000000E+00 0. -1.
         23    2    1    2    0    0 -0.32928969374E+03 -0.97226474824E+02  0.35467587213E+02  0.35846004263E+03  0.96700375448E+02 0.  0.
        254    2    1    2    0    0  0.32928969374E+03  0.97226474824E+02  0.49632662157E+03  0.10837404945E+04  0.90014924006E+03 0.  0.
        -24    2    4    4    0    0 -0.22156983146E+03  0.31039174848E+02 -0.10652008178E+03  0.26041903280E+03  0.80093222160E+02 0.  0.
         24    2    4    4    0    0  0.55085952520E+03  0.66187299975E+02  0.60284670336E+03  0.82332146172E+03  0.81284109184E+02 0.  0.
         11    1    3    3    0    0 -0.23568402349E+03 -0.95880572306E+02 -0.94720042019E+01  0.25461689248E+03  0.00000000000E+00 0. -1.
        -11    1    3    3    0    0 -0.93605670252E+02 -0.13459025180E+01  0.44939591415E+02  0.10384315015E+03  0.00000000000E+00 0.  1.
          2    1    6    6  502    0  0.16959980816E+03  0.99173398314E+01  0.23964184032E+03  0.29375271946E+03  0.00000000000E+00 0. -1.
          1    1    5    5  503    0 -0.18684642000E+03  0.13822714525E+02 -0.11620735359E+03  0.22046950159E+03  0.00000000000E+00 0. -1.
         -2    1    5    5    0  503 -0.34723411459E+02  0.17216460323E+02  0.96872718019E+01  0.39949531216E+02  0.00000000000E+00 0.  1.
         -1    1    6    6    0  502  0.38125971704E+03  0.56269960144E+02  0.36320486304E+03  0.52956874227E+03  0.00000000000E+00 0.  1.
<mgrwt>
<rscale>  0 0.13405735E+04</rscale>
<asrwt>0</asrwt>
<pdfrwt beam="1">  1        1 0.70031256E-01 0.13405735E+04</pdfrwt>
<pdfrwt beam="2">  1       -1 0.15184575E+00 0.13405735E+04</pdfrwt>
<totfact> 0.16668026E+01</totfact>
</mgrwt>
</event>
<event>
12    1  0.2019083E-007  0.1958973E+04  0.7818608E-02  0.8626046E-01
         -2   -1    0    0    0  501 -0.00000000000E+00  0.00000000000E+00  0.55036692049E+03  0.55036692049E+03  0.00000000000E+00 0.  1.
          2   -1    0    0  501    0  0.00000000000E+00 -0.00000000000E+00 -0.17431897014E+04  0.17431897014E+04  0.00000000000E+00 0. -1.
         23    2    1    2    0    0  0.67071493181E+03  0.21748757538E+03 -0.10943390318E+03  0.71952426454E+03  0.92628413011E+02 0.  0.
        254    2    1    2    0    0 -0.67071493181E+03 -0.21748757538E+03 -0.10833888778E+04  0.15740323574E+04  0.89815757885E+03 0.  0.
        -24    2    4    4    0    0 -0.12278977196E+03  0.32817764682E+03 -0.27558422590E+03  0.45267245903E+03  0.78662530030E+02 0.  0.
         24    2    4    4    0    0 -0.54792515985E+03 -0.54566522220E+03 -0.80780465187E+03  0.11213598984E+04  0.83229505328E+02 0.  0.
         13    1    3    3    0    0  0.15391572250E+03  0.33743470817E+02  0.11040055234E+02  0.15795744450E+03  0.00000000000E+00 0.  1.
        -13    1    3    3    0    0  0.51679920932E+03  0.18374410456E+03 -0.12047395842E+03  0.56156682004E+03  0.00000000000E+00 0. -1.
          2    1    6    6  502    0 -0.42947901645E+02 -0.24918773560E+02 -0.77396086594E+02  0.91954454767E+02  0.00000000000E+00 0. -1.
          1    1    5    5  503    0 -0.45848442910E+02  0.13541485712E+03 -0.65168764995E+02  0.15711852589E+03  0.00000000000E+00 0. -1.
         -2    1    5    5    0  503 -0.76941329055E+02  0.19276278970E+03 -0.21041546090E+03  0.29555393314E+03  0.00000000000E+00 0.  1.
         -1    1    6    6    0  502 -0.50497725820E+03 -0.52074644864E+03 -0.73040856528E+03  0.10294054436E+04  0.00000000000E+00 0.  1.
<mgrwt>
<rscale>  0 0.19589731E+04</rscale>
<asrwt>0</asrwt>
<pdfrwt beam="1">  1        2 0.26818303E+00 0.19589731E+04</pdfrwt>
<pdfrwt beam="2">  1       -2 0.84671836E-01 0.19589731E+04</pdfrwt>
<totfact> 0.10513582E+01</totfact>
</mgrwt>
</event>
<event>
12    1  0.2019083E-007  0.2267797E+04  0.7818608E-02  0.8490728E-01
         -2   -1    0    0    0  501 -0.00000000000E+00  0.00000000000E+00  0.27992934144E+03  0.27992934144E+03  0.00000000000E+00 0.  1.
          2   -1    0    0  501    0  0.00000000000E+00 -0.00000000000E+00 -0.45930356862E+04  0.45930356862E+04  0.00000000000E+00 0. -1.
         23    2    1    2    0    0  0.77093115133E+03  0.45395614186E+02 -0.30294954563E+04  0.31277369616E+04  0.92196416780E+02 0.  0.
        254    2    1    2    0    0 -0.77093115133E+03 -0.45395614186E+02 -0.12836108885E+04  0.17452280661E+04  0.89541525993E+03 0.  0.
        -24    2    4    4    0    0 -0.30180934160E+03  0.38503241557E+03 -0.32938801185E+03  0.59528412809E+03  0.80795365499E+02 0.  0.
         24    2    4    4    0    0 -0.46912180973E+03 -0.43042802976E+03 -0.95422287663E+03  0.11499439380E+04  0.80536954583E+02 0.  0.
         13    1    3    3    0    0  0.43042958642E+03  0.20283556069E+02 -0.18708359280E+04  0.19198198147E+04  0.00000000000E+00 0. -1.
        -13    1    3    3    0    0  0.34050156491E+03  0.25112058116E+02 -0.11586595283E+04  0.12079171469E+04  0.00000000000E+00 0.  1.
          4    1    6    6  502    0 -0.84037567574E+02 -0.75572095899E+02 -0.22964423094E+03  0.25594907159E+03  0.00000000000E+00 0. -1.
          3    1    5    5  503    0 -0.93808101081E+02  0.90433787029E+02 -0.51909958241E+02  0.14026002078E+03  0.00000000000E+00 0. -1.
         -4    1    5    5    0  503 -0.20800124052E+03  0.29459862855E+03 -0.27747805361E+03  0.45502410731E+03  0.00000000000E+00 0.  1.
         -1    1    6    6    0  502 -0.38508424216E+03 -0.35485593386E+03 -0.72457864569E+03  0.89399486640E+03  0.00000000000E+00 0.  1.
<mgrwt>
<rscale>  0 0.22677967E+04</rscale>
<asrwt>0</asrwt>
<pdfrwt beam="1">  1        2 0.70662088E+00 0.22677967E+04</pdfrwt>
<pdfrwt beam="2">  1       -2 0.43066052E-01 0.22677967E+04</pdfrwt>
<totfact> 0.46677499E-01</totfact>
</mgrwt>
</event>
<event>
12    1  0.2019083E-007  0.2202572E+04  0.7818608E-02  0.8517358E-01
         -2   -1    0    0    0  501 -0.00000000000E+00  0.00000000000E+00  0.35545822638E+03  0.35545822638E+03  0.00000000000E+00 0. -1.
          2   -1    0    0  501    0  0.00000000000E+00 -0.00000000000E+00 -0.34120210969E+04  0.34120210969E+04  0.00000000000E+00 0.  1.
         23    2    1    2    0    0  0.31183526902E+03  0.51506832201E+03 -0.24560533379E+04  0.25304627651E+04  0.92234460949E+02 0.  0.
        254    2    1    2    0    0 -0.31183526902E+03 -0.51506832201E+03 -0.60050953261E+03  0.12370165581E+04  0.89836610301E+03 0.  0.
        -24    2    4    4    0    0  0.29361152608E+03 -0.29075108860E+03 -0.31729295304E+03  0.52814610131E+03  0.86715411026E+02 0.  0.
         24    2    4    4    0    0 -0.60544679510E+03 -0.22431723340E+03 -0.28321657957E+03  0.70887045683E+03  0.73495923222E+02 0.  0.
         13    1    3    3    0    0  0.19708032347E+03  0.24134913393E+03 -0.11954919141E+04  0.12354314934E+04  0.00000000000E+00 0.  1.
        -13    1    3    3    0    0  0.11475494554E+03  0.27371918808E+03 -0.12605614238E+04  0.12950312717E+04  0.00000000000E+00 0. -1.
          4    1    6    6  502    0 -0.51419864852E+03 -0.20721807335E+03 -0.21941324589E+03  0.59622290507E+03  0.00000000000E+00 0. -1.
          1    1    5    5  503    0  0.20313915348E+03 -0.23744083580E+03 -0.20142970863E+03  0.37177626834E+03  0.00000000000E+00 0. -1.
         -2    1    5    5    0  503  0.90472372604E+02 -0.53310252799E+02 -0.11586324441E+03  0.15636983297E+03  0.00000000000E+00 0.  1.
         -3    1    6    6    0  502 -0.91248146578E+02 -0.17099160053E+02 -0.63803333682E+02  0.11264755176E+03  0.00000000000E+00 0.  1.
<mgrwt>
<rscale>  0 0.22025721E+04</rscale>
<asrwt>0</asrwt>
<pdfrwt beam="1">  1        2 0.52492629E+00 0.22025721E+04</pdfrwt>
<pdfrwt beam="2">  1       -2 0.54685884E-01 0.22025721E+04</pdfrwt>
<totfact> 0.26978494E+00</totfact>
</mgrwt>
</event>
<event>
12    1  0.2019083E-007  0.2966470E+04  0.7818608E-02  0.8253371E-01
         -2   -1    0    0    0  501 -0.00000000000E+00  0.00000000000E+00  0.74587927710E+03  0.74587927710E+03  0.00000000000E+00 0.  1.
          2   -1    0    0  501    0  0.00000000000E+00 -0.00000000000E+00 -0.29495203315E+04  0.29495203315E+04  0.00000000000E+00 0. -1.
         23    2    1    2    0    0  0.91294953253E+03 -0.57481256651E+03 -0.20020714134E+04  0.22760960644E+04  0.91853222603E+02 0.  0.
        254    2    1    2    0    0 -0.91294953253E+03  0.57481256651E+03 -0.20156964107E+03  0.14193035443E+04  0.89994771791E+03 0.  0.
        -24    2    4    4    0    0 -0.64936034347E+03  0.81001601519E+03 -0.12034650443E+03  0.10481512953E+04  0.79643305996E+02 0.  0.
         24    2    4    4    0    0 -0.26358918906E+03 -0.23520344867E+03 -0.81223136639E+02  0.37115224895E+03  0.79729988833E+02 0.  0.
         13    1    3    3    0    0  0.22557355111E+03 -0.14316193444E+03 -0.41601119687E+03  0.49441286629E+03  0.00000000000E+00 0.  1.
        -13    1    3    3    0    0  0.68737598142E+03 -0.43165063207E+03 -0.15860602165E+04  0.17816831981E+04  0.00000000000E+00 0. -1.
          2    1    6    6  502    0 -0.14929665398E+03 -0.80405795455E+02 -0.43639543473E+02  0.17509709474E+03  0.00000000000E+00 0. -1.
          3    1    5    5  503    0 -0.12650194982E+03  0.17891639137E+03  0.43624976844E+01  0.21916397924E+03  0.00000000000E+00 0. -1.
         -4    1    5    5    0  503 -0.52285839365E+03  0.63109962381E+03 -0.12470900211E+03  0.82898731607E+03  0.00000000000E+00 0.  1.
         -1    1    6    6    0  502 -0.11429253508E+03 -0.15479765322E+03 -0.37583593166E+02  0.19605515421E+03  0.00000000000E+00 0.  1.
<mgrwt>
<rscale>  0 0.29664700E+04</rscale>
<asrwt>0</asrwt>
<pdfrwt beam="1">  1        2 0.45377235E+00 0.29664700E+04</pdfrwt>
<pdfrwt beam="2">  1       -2 0.11475066E+00 0.29664700E+04</pdfrwt>
<totfact> 0.95212153E-01</totfact>
</mgrwt>
</event>
<event>
12    1  0.2019083E-007  0.1229699E+04  0.7818608E-02  0.9087251E-01
          1   -1    0    0  501    0  0.00000000000E+00  0.00000000000E+00  0.12506225185E+04  0.12506225185E+04  0.00000000000E+00 0. -1.
         -1   -1    0    0    0  501 -0.00000000000E+00 -0.00000000000E+00 -0.30228148324E+03  0.30228148324E+03  0.00000000000E+00 0.  1.
         23    2    1    2    0    0  0.20901306922E+03 -0.17405213374E+03  0.18207542237E+03  0.34030219883E+03  0.93131727839E+02 0.  0.
        254    2    1    2    0    0 -0.20901306922E+03  0.17405213374E+03  0.76626561289E+03  0.12126018029E+04  0.89958853627E+03 0.  0.
        -24    2    4    4    0    0 -0.32305409387E+03  0.36204776849E+03  0.83458424261E+03  0.96879369201E+03  0.81165420230E+02 0.  0.
         24    2    4    4    0    0  0.11404102465E+03 -0.18799563475E+03 -0.68318629718E+02  0.24380811091E+03  0.80170105330E+02 0.  0.
         13    1    3    3    0    0  0.24650425136E+02 -0.68975175624E+02  0.65080243140E+02  0.97982939122E+02  0.00000000000E+00 0. -1.
        -13    1    3    3    0    0  0.18436264408E+03 -0.10507695811E+03  0.11699517923E+03  0.24231925970E+03  0.00000000000E+00 0.  1.
          4    1    6    6  502    0  0.52604211433E+02 -0.27287376849E+02 -0.16254716711E+01  0.59282764391E+02  0.00000000000E+00 0. -1.
          3    1    5    5  503    0 -0.42833236558E+02  0.71200447379E+02  0.20018114711E+03  0.21674104715E+03  0.00000000000E+00 0. -1.
         -4    1    5    5    0  503 -0.28022085731E+03  0.29084732111E+03  0.63440309550E+03  0.75205264486E+03  0.00000000000E+00 0.  1.
         -3    1    6    6    0  502  0.61436813218E+02 -0.16070825790E+03 -0.66693158047E+02  0.18452534652E+03  0.00000000000E+00 0.  1.
<mgrwt>
<rscale>  0 0.12296992E+04</rscale>
<asrwt>0</asrwt>
<pdfrwt beam="1">  1        1 0.19240346E+00 0.12296992E+04</pdfrwt>
<pdfrwt beam="2">  1       -1 0.46504844E-01 0.12296992E+04</pdfrwt>
<totfact> 0.44624859E+01</totfact>
</mgrwt>
</event>
<event>
12    1  0.2019083E-007  0.3137800E+04  0.7818608E-02  0.8205440E-01
         -2   -1    0    0    0  501 -0.00000000000E+00  0.00000000000E+00  0.53224218253E+03  0.53224218253E+03  0.00000000000E+00 0.  1.
          2   -1    0    0  501    0  0.00000000000E+00 -0.00000000000E+00 -0.46246753734E+04  0.46246753734E+04  0.00000000000E+00 0. -1.
         23    2    1    2    0    0 -0.89672619165E+03 -0.64650215301E+02 -0.34781518048E+02  0.90441761953E+03  0.91999801008E+02 0.  0.
        254    2    1    2    0    0  0.89672619165E+03  0.64650215301E+02 -0.40576516728E+04  0.42524999364E+04  0.90051157571E+03 0.  0.
        -24    2    4    4    0    0  0.99501062952E+03 -0.68269678419E+02 -0.38324813241E+04  0.39609393999E+04  0.80130695564E+02 0.  0.
         24    2    4    4    0    0 -0.98284437863E+02  0.13291989372E+03 -0.22517034867E+03  0.29156053644E+03  0.83536408913E+02 0.  0.
         13    1    3    3    0    0 -0.86357554158E+03 -0.66363631074E+02 -0.15982523278E+02  0.86626917790E+03  0.00000000000E+00 0.  1.
        -13    1    3    3    0    0 -0.33150650079E+02  0.17134157732E+01 -0.18798994770E+02  0.38148441628E+02  0.00000000000E+00 0. -1.
          2    1    6    6  502    0 -0.53979006956E+02  0.13004306516E+03 -0.17294366787E+03  0.22301220650E+03  0.00000000000E+00 0. -1.
          3    1    5    5  503    0  0.17882922773E+03 -0.14804318726E+02 -0.81903447258E+03  0.83846080876E+03  0.00000000000E+00 0. -1.
         -4    1    5    5    0  503  0.81618140179E+03 -0.53465359693E+02 -0.30134468516E+04  0.31224785912E+04  0.00000000000E+00 0.  1.
         -1    1    6    6    0  502 -0.44305430908E+02  0.28768285568E+01 -0.52226680802E+02  0.68548329943E+02  0.00000000000E+00 0.  1.
<mgrwt>
<rscale>  0 0.31378001E+04</rscale>
<asrwt>0</asrwt>
<pdfrwt beam="1">  1        2 0.71148853E+00 0.31378001E+04</pdfrwt>
<pdfrwt beam="2">  1       -2 0.81883411E-01 0.31378001E+04</pdfrwt>
<totfact> 0.10207036E-01</totfact>
</mgrwt>
</event>
<event>
12    1  0.2019083E-007  0.1346087E+04  0.7818608E-02  0.8993796E-01
         -2   -1    0    0    0  501 -0.00000000000E+00  0.00000000000E+00  0.16307991992E+03  0.16307991992E+03  0.00000000000E+00 0.  1.
          2   -1    0    0  501    0  0.00000000000E+00 -0.00000000000E+00 -0.27777013273E+04  0.27777013273E+04  0.00000000000E+00 0. -1.
         23    2    1    2    0    0 -0.10951653181E+03 -0.27349844452E+03 -0.26029782576E+03  0.40328940224E+03  0.89956178080E+02 0.  0.
        254    2    1    2    0    0  0.10951653181E+03  0.27349844452E+03 -0.23543235816E+04  0.25374918450E+04  0.89957215746E+03 0.  0.
        -24    2    4    4    0    0 -0.51185042126E+02 -0.10223826114E+03 -0.19573111944E+04  0.19622582359E+04  0.79483975290E+02 0.  0.
         24    2    4    4    0    0  0.16070157394E+03  0.37573670566E+03 -0.39701238727E+03  0.57523360906E+03  0.79194706266E+02 0.  0.
         13    1    3    3    0    0 -0.55686665295E+02 -0.12453995909E+03 -0.62958578809E+02  0.15024975457E+03  0.00000000000E+00 0.  1.
        -13    1    3    3    0    0 -0.53829866518E+02 -0.14895848542E+03 -0.19733924695E+03  0.25303964767E+03  0.00000000000E+00 0. -1.
          4    1    6    6  502    0  0.12397134357E+03  0.31048887989E+03 -0.27887266704E+03  0.43536444846E+03  0.00000000000E+00 0. -1.
          1    1    5    5  503    0 -0.56406973296E+01 -0.71201094009E+02 -0.67611250180E+03  0.67987464164E+03  0.00000000000E+00 0. -1.
         -2    1    5    5    0  503 -0.45544344796E+02 -0.31037167133E+02 -0.12811986926E+04  0.12823835943E+04  0.00000000000E+00 0.  1.
         -3    1    6    6    0  502  0.36730230372E+02  0.65247825766E+02 -0.11813972023E+03  0.13986916060E+03  0.00000000000E+00 0.  1.
<mgrwt>
<rscale>  0 0.13460866E+04</rscale>
<asrwt>0</asrwt>
<pdfrwt beam="1">  1        2 0.42733862E+00 0.13460866E+04</pdfrwt>
<pdfrwt beam="2">  1       -2 0.25089221E-01 0.13460866E+04</pdfrwt>
<totfact> 0.33461701E+01</totfact>
</mgrwt>
</event>
<event>
12    1  0.2019083E-007  0.1681051E+04  0.7818608E-02  0.8772246E-01
         -2   -1    0    0    0  501 -0.00000000000E+00  0.00000000000E+00  0.38392235616E+03  0.38392235616E+03  0.00000000000E+00 0.  1.
          2   -1    0    0  501    0  0.00000000000E+00 -0.00000000000E+00 -0.18401721492E+04  0.18401721492E+04  0.00000000000E+00 0. -1.
         23    2    1    2    0    0  0.40094739471E+03  0.41301644131E+03 -0.32511108933E+03  0.66757404154E+03  0.92825031200E+02 0.  0.
        254    2    1    2    0    0 -0.40094739471E+03 -0.41301644131E+03 -0.11311387037E+04  0.15565204638E+04  0.90107701840E+03 0.  0.
        -24    2    4    4    0    0 -0.21004449148E+03 -0.51169913941E+03 -0.19372936978E+03  0.59157270524E+03  0.80451843907E+02 0.  0.
         24    2    4    4    0    0 -0.19090290322E+03  0.98682698098E+02 -0.93740933389E+03  0.96494775854E+03  0.78776418296E+02 0.  0.
         11    1    3    3    0    0 -0.12549249052E+01  0.91488071859E+01  0.32348773408E+01  0.97846788835E+01  0.00000000000E+00 0.  1.
        -11    1    3    3    0    0  0.40220231961E+03  0.40386763413E+03 -0.32834596667E+03  0.65778936266E+03  0.00000000000E+00 0. -1.
          2    1    6    6  502    0 -0.19003472678E+02  0.28458456954E+02 -0.70398055367E+02  0.78274529353E+02  0.00000000000E+00 0. -1.
          1    1    5    5  503    0 -0.64838378143E+02 -0.78236641105E+02 -0.29131063554E+02  0.10570527969E+03  0.00000000000E+00 0. -1.
         -2    1    5    5    0  503 -0.14520611334E+03 -0.43346249831E+03 -0.16459830623E+03  0.48586742554E+03  0.00000000000E+00 0.  1.
         -1    1    6    6    0  502 -0.17189943055E+03  0.70224241145E+02 -0.86701127853E+03  0.88667322919E+03  0.00000000000E+00 0.  1.
<mgrwt>
<rscale>  0 0.16810511E+04</rscale>
<asrwt>0</asrwt>
<pdfrwt beam="1">  1        2 0.28310341E+00 0.16810511E+04</pdfrwt>
<pdfrwt beam="2">  1       -2 0.59064977E-01 0.16810511E+04</pdfrwt>
<totfact> 0.20912557E+01</totfact>
</mgrwt>
</event>
<event>
12    1  0.2019083E-007  0.3602973E+04  0.7818608E-02  0.8089811E-01
          2   -1    0    0  501    0  0.00000000000E+00  0.00000000000E+00  0.24511054266E+04  0.24511054266E+04  0.00000000000E+00 0. -1.
         -2   -1    0    0    0  501 -0.00000000000E+00 -0.00000000000E+00 -0.13240369681E+04  0.13240369681E+04  0.00000000000E+00 0.  1.
         23    2    1    2    0    0 -0.81039171263E+03 -0.14081370561E+04  0.10075962715E+04  0.19140494771E+04  0.93543880702E+02 0.  0.
        254    2    1    2    0    0  0.81039171263E+03  0.14081370561E+04  0.11947218696E+03  0.18610929177E+04  0.89989363158E+03 0.  0.
        -24    2    4    4    0    0  0.56286147545E+03  0.14354250477E+04 -0.57494480882E+02  0.15454892556E+04  0.89293426029E+02 0.  0.
         24    2    4    4    0    0  0.24753023718E+03 -0.27287991592E+02  0.17696666784E+03  0.31560366204E+03  0.79199855817E+02 0.  0.
         11    1    3    3    0    0 -0.42222988771E+03 -0.81082753943E+03  0.59674853682E+03  0.10917088408E+04  0.00000000000E+00 0. -1.
        -11    1    3    3    0    0 -0.38816182493E+03 -0.59730951666E+03  0.41084773470E+03  0.82234063631E+03  0.00000000000E+00 0.  1.
          2    1    6    6  502    0  0.10798372154E+03 -0.13732138112E+02  0.30936728030E+02  0.11316420316E+03  0.00000000000E+00 0. -1.
          1    1    5    5  503    0  0.19625140853E+03  0.57680032837E+03  0.10910135757E+02  0.60937038426E+03  0.00000000000E+00 0. -1.
         -2    1    5    5    0  503  0.36661006692E+03  0.85862471932E+03 -0.68404616639E+02  0.93611887139E+03  0.00000000000E+00 0.  1.
         -1    1    6    6    0  502  0.13954651564E+03 -0.13555853480E+02  0.14602993981E+03  0.20243945888E+03  0.00000000000E+00 0.  1.
<mgrwt>
<rscale>  0 0.36029733E+04</rscale>
<asrwt>0</asrwt>
<pdfrwt beam="1">  1        2 0.37709314E+00 0.36029733E+04</pdfrwt>
<pdfrwt beam="2">  1       -2 0.20369800E+00 0.36029733E+04</pdfrwt>
<totfact> 0.38079720E-01</totfact>
</mgrwt>
</event>
<event>
12    1  0.2019083E-007  0.1529747E+04  0.7818608E-02  0.8864909E-01
          1   -1    0    0  501    0  0.00000000000E+00  0.00000000000E+00  0.18302224630E+04  0.18302224630E+04  0.00000000000E+00 0. -1.
         -1   -1    0    0    0  501 -0.00000000000E+00 -0.00000000000E+00 -0.31965041904E+03  0.31965041904E+03  0.00000000000E+00 0.  1.
         23    2    1    2    0    0 -0.61607647437E+02  0.23726467176E+03  0.11015324375E+04  0.11330849244E+04  0.10206717572E+03 0.  0.
        254    2    1    2    0    0  0.61607647437E+02 -0.23726467176E+03  0.40903960651E+03  0.10167879577E+04  0.89802801989E+03 0.  0.
        -24    2    4    4    0    0 -0.32664997729E+02  0.12491849242E+03 -0.22762922243E+03  0.27377184706E+03  0.80401054193E+02 0.  0.
         24    2    4    4    0    0  0.94272645166E+02 -0.36218316418E+03  0.63666882894E+03  0.74301611062E+03  0.81619647533E+02 0.  0.
         13    1    3    3    0    0 -0.89136167959E+02  0.16333756785E+03  0.73866758698E+03  0.76174419693E+03  0.00000000000E+00 0. -1.
        -13    1    3    3    0    0  0.27528520522E+02  0.73927103910E+02  0.36286485048E+03  0.37134072743E+03  0.00000000000E+00 0.  1.
          4    1    6    6  502    0  0.72080947703E+02 -0.34908979531E+03  0.60487949989E+03  0.70209583221E+03  0.00000000000E+00 0. -1.
          1    1    5    5  503    0 -0.28137135083E+02  0.13184114372E+03 -0.17710918030E+03  0.22257908100E+03  0.00000000000E+00 0. -1.
         -2    1    5    5    0  503 -0.45278626462E+01 -0.69226513060E+01 -0.50520042121E+02  0.51192766063E+02  0.00000000000E+00 0.  1.
         -3    1    6    6    0  502  0.22191697462E+02 -0.13093368872E+02  0.31789329045E+02  0.40920278418E+02  0.00000000000E+00 0.  1.
<mgrwt>
<rscale>  0 0.15297469E+04</rscale>
<asrwt>0</asrwt>
<pdfrwt beam="1">  1        1 0.28157268E+00 0.15297469E+04</pdfrwt>
<pdfrwt beam="2">  1       -1 0.49176989E-01 0.15297469E+04</pdfrwt>
<totfact> 0.15538017E+01</totfact>
</mgrwt>
</event>
<event>
12    1  0.2019083E-007  0.2849929E+04  0.7818608E-02  0.8287933E-01
          2   -1    0    0  501    0  0.00000000000E+00  0.00000000000E+00  0.46440977564E+04  0.46440977564E+04  0.00000000000E+00 0. -1.
         -2   -1    0    0    0  501 -0.00000000000E+00 -0.00000000000E+00 -0.43722691294E+03  0.43722691294E+03  0.00000000000E+00 0.  1.
         23    2    1    2    0    0  0.83546018731E+03 -0.84733687892E+03  0.10635819894E+04  0.15985472130E+04  0.90404828304E+02 0.  0.
        254    2    1    2    0    0 -0.83546018731E+03  0.84733687892E+03  0.31432888541E+04  0.34827774564E+04  0.91296247429E+03 0.  0.
        -24    2    4    4    0    0 -0.95713967654E+03  0.52139414007E+03  0.19281437101E+04  0.22162046295E+04  0.76528317137E+02 0.  0.
         24    2    4    4    0    0  0.12167948923E+03  0.32594273885E+03  0.12151451440E+04  0.12665728269E+04  0.81144548292E+02 0.  0.
         11    1    3    3    0    0  0.71086796782E+03 -0.67294708579E+03  0.88307199500E+03  0.13183350091E+04  0.00000000000E+00 0. -1.
        -11    1    3    3    0    0  0.12459221949E+03 -0.17438979313E+03  0.18050999437E+03  0.28021220382E+03  0.00000000000E+00 0.  1.
          2    1    6    6  502    0  0.80530852658E+01  0.10423613363E+03  0.44589438847E+03  0.45798671313E+03  0.00000000000E+00 0. -1.
          1    1    5    5  503    0 -0.29817791054E+03  0.14039034456E+03  0.52438965038E+03  0.61935774848E+03  0.00000000000E+00 0. -1.
         -2    1    5    5    0  503 -0.65896176600E+03  0.38100379551E+03  0.14037540597E+04  0.15968468810E+04  0.00000000000E+00 0.  1.
         -1    1    6    6    0  502  0.11362640396E+03  0.22170660523E+03  0.76925075551E+03  0.80858611374E+03  0.00000000000E+00 0.  1.
<mgrwt>
<rscale>  0 0.28499295E+04</rscale>
<asrwt>0</asrwt>
<pdfrwt beam="1">  1        2 0.71447654E+00 0.28499295E+04</pdfrwt>
<pdfrwt beam="2">  1       -2 0.67265682E-01 0.28499295E+04</pdfrwt>
<totfact> 0.15473311E-01</totfact>
</mgrwt>
</event>
<event>
12    1  0.2019083E-007  0.1960233E+04  0.7818608E-02  0.8625442E-01
         -1   -1    0    0    0  501 -0.00000000000E+00  0.00000000000E+00  0.10205782482E+04  0.10205782482E+04  0.00000000000E+00 0.  1.
          1   -1    0    0  501    0  0.00000000000E+00 -0.00000000000E+00 -0.94125929041E+03  0.94125929041E+03  0.00000000000E+00 0. -1.
         23    2    1    2    0    0 -0.64390924330E+03 -0.41236686191E+03  0.12054465652E+03  0.77994108388E+03  0.95454374954E+02 0.  0.
        254    2    1    2    0    0  0.64390924330E+03  0.41236686191E+03 -0.41225698724E+02  0.11818964547E+04  0.90028558196E+03 0.  0.
        -24    2    4    4    0    0  0.58687455947E+03  0.48439126814E+03 -0.35640377149E+03  0.84410090904E+03  0.80162629076E+02 0.  0.
         24    2    4    4    0    0  0.57034683830E+02 -0.72024406237E+02  0.31517807277E+03  0.33779554570E+03  0.79549625321E+02 0.  0.
         11    1    3    3    0    0 -0.51299100036E+03 -0.36437174664E+03  0.11963754589E+03  0.64049955393E+03  0.00000000000E+00 0.  1.
        -11    1    3    3    0    0 -0.13091824294E+03 -0.47995115270E+02  0.90711062917E+00  0.13944152995E+03  0.00000000000E+00 0. -1.
          4    1    6    6  502    0  0.71341329414E+00 -0.64426666462E+02  0.17852980189E+03  0.18980040693E+03  0.00000000000E+00 0. -1.
          1    1    5    5  503    0  0.53830431338E+03  0.46947960262E+03 -0.32947504491E+03  0.78659801443E+03  0.00000000000E+00 0. -1.
         -2    1    5    5    0  503  0.48570246081E+02  0.14911665528E+02 -0.26928726584E+02  0.57502894611E+02  0.00000000000E+00 0.  1.
         -3    1    6    6    0  502  0.56321270536E+02 -0.75977397749E+01  0.13664827088E+03  0.14799513877E+03  0.00000000000E+00 0.  1.
<mgrwt>
<rscale>  0 0.19602334E+04</rscale>
<asrwt>0</asrwt>
<pdfrwt beam="1">  1        1 0.14480912E+00 0.19602334E+04</pdfrwt>
<pdfrwt beam="2">  1       -1 0.15701204E+00 0.19602334E+04</pdfrwt>
<totfact> 0.48290303E+00</totfact>
</mgrwt>
</event>
<event>
12    1  0.2019083E-007  0.2046313E+04  0.7818608E-02  0.8585269E-01
         -2   -1    0    0    0  501 -0.00000000000E+00  0.00000000000E+00  0.37826434860E+03  0.37826434860E+03  0.00000000000E+00 0.  1.
          2   -1    0    0  501    0  0.00000000000E+00 -0.00000000000E+00 -0.27675059438E+04  0.27675059438E+04  0.00000000000E+00 0. -1.
         23    2    1    2    0    0  0.70474827097E+03 -0.16270697712E+03 -0.36360986455E+03  0.81463545889E+03  0.90967639535E+02 0.  0.
        254    2    1    2    0    0 -0.70474827097E+03  0.16270697712E+03 -0.20256317307E+04  0.23311348335E+04  0.89881144741E+03 0.  0.
        -24    2    4    4    0    0 -0.73778434958E+03  0.43095351841E+03 -0.16688615706E+04  0.18766339095E+04  0.81297030856E+02 0.  0.
         24    2    4    4    0    0  0.33036078610E+02 -0.26824654130E+03 -0.35677016012E+03  0.45450092400E+03  0.78984513431E+02 0.  0.
         11    1    3    3    0    0  0.25623673263E+03 -0.87599553300E+02 -0.97947141623E+02  0.28796629566E+03  0.00000000000E+00 0. -1.
        -11    1    3    3    0    0  0.44851153834E+03 -0.75107423817E+02 -0.26566272293E+03  0.52666916322E+03  0.00000000000E+00 0.  1.
          2    1    6    6  502    0  0.57004918958E+02 -0.20733071523E+03 -0.25583133065E+03  0.33419344099E+03  0.00000000000E+00 0. -1.
          1    1    5    5  503    0 -0.63196954706E+03  0.39908646763E+03 -0.14355763200E+04  0.16184977256E+04  0.00000000000E+00 0. -1.
         -2    1    5    5    0  503 -0.10581480251E+03  0.31867050786E+02 -0.23328525054E+03  0.25813618398E+03  0.00000000000E+00 0.  1.
         -1    1    6    6    0  502 -0.23968840349E+02 -0.60915826071E+02 -0.10093882947E+03  0.12030748301E+03  0.00000000000E+00 0.  1.
<mgrwt>
<rscale>  0 0.20463126E+04</rscale>
<asrwt>0</asrwt>
<pdfrwt beam="1">  1        2 0.42577015E+00 0.20463126E+04</pdfrwt>
<pdfrwt beam="2">  1       -2 0.58194515E-01 0.20463126E+04</pdfrwt>
<totfact> 0.61932084E+00</totfact>
</mgrwt>
</event>
<event>
12    1  0.2019083E-007  0.3388607E+04  0.7818608E-02  0.8140708E-01
          2   -1    0    0  501    0  0.00000000000E+00  0.00000000000E+00  0.26270840202E+04  0.26270840202E+04  0.00000000000E+00 0. -1.
         -2   -1    0    0    0  501 -0.00000000000E+00 -0.00000000000E+00 -0.10927188400E+04  0.10927188400E+04  0.00000000000E+00 0.  1.
         23    2    1    2    0    0  0.11992460239E+04 -0.80760232135E+03  0.13956181407E+04  0.20115747688E+04  0.90942401706E+02 0.  0.
        254    2    1    2    0    0 -0.11992460239E+04  0.80760232135E+03  0.13874703950E+03  0.17082280914E+04  0.89909951405E+03 0.  0.
        -24    2    4    4    0    0 -0.17894139940E+03 -0.18138597829E+03 -0.53755173765E+02  0.27161679624E+03  0.77234498464E+02 0.  0.
         24    2    4    4    0    0 -0.10203046245E+04  0.98898829963E+03  0.19250221327E+03  0.14366112952E+04  0.87610089793E+02 0.  0.
         13    1    3    3    0    0  0.41755817692E+03 -0.26645287052E+03  0.53633243213E+03  0.73007153148E+03  0.00000000000E+00 0.  1.
        -13    1    3    3    0    0  0.78168784696E+03 -0.54114945083E+03  0.85928570861E+03  0.12815032373E+04  0.00000000000E+00 0. -1.
          2    1    6    6  502    0 -0.83717486300E+03  0.82189306330E+03  0.12596179276E+03  0.11799306471E+04  0.00000000000E+00 0. -1.
          1    1    5    5  503    0 -0.84267244178E+02 -0.13213520153E+03 -0.51192038889E+02  0.16486753704E+03  0.00000000000E+00 0. -1.
         -2    1    5    5    0  503 -0.94674155220E+02 -0.49250776756E+02 -0.25631348760E+01  0.10674925919E+03  0.00000000000E+00 0.  1.
         -1    1    6    6    0  502 -0.18312976149E+03  0.16709523634E+03  0.66540420511E+02  0.25668064810E+03  0.00000000000E+00 0.  1.
<mgrwt>
<rscale>  0 0.33886069E+04</rscale>
<asrwt>0</asrwt>
<pdfrwt beam="1">  1        2 0.40416677E+00 0.33886069E+04</pdfrwt>
<pdfrwt beam="2">  1       -2 0.16811059E+00 0.33886069E+04</pdfrwt>
<totfact> 0.53467366E-01</totfact>
</mgrwt>
</event>
<event>
12    1  0.2019083E-007  0.1648463E+04  0.7818608E-02  0.8791316E-01
         -1   -1    0    0    0  501 -0.00000000000E+00  0.00000000000E+00  0.38161536421E+03  0.38161536421E+03  0.00000000000E+00 0.  1.
          1   -1    0    0  501    0  0.00000000000E+00 -0.00000000000E+00 -0.17802157055E+04  0.17802157055E+04  0.00000000000E+00 0. -1.
         23    2    1    2    0    0 -0.76229698842E+02 -0.22497292606E+03  0.19390110343E+03  0.31912472344E+03  0.88426052450E+02 0.  0.
        254    2    1    2    0    0  0.76229698842E+02  0.22497292606E+03 -0.15925014447E+04  0.18427063463E+04  0.89614844904E+03 0.  0.
        -24    2    4    4    0    0  0.29954970765E+03  0.30543798192E+03 -0.30277933060E+03  0.52888447485E+03  0.70859555075E+02 0.  0.
         24    2    4    4    0    0 -0.22332000881E+03 -0.80465055861E+02 -0.12897221141E+04  0.13138218714E+04  0.79989540661E+02 0.  0.
         11    1    3    3    0    0  0.31628725771E+01  0.73191580684E+01  0.57974168028E+01  0.98581884418E+01  0.00000000000E+00 0. -1.
        -11    1    3    3    0    0 -0.79392571419E+02 -0.23229208413E+03  0.18810368662E+03  0.30926653500E+03  0.00000000000E+00 0.  1.
          2    1    6    6  502    0 -0.63362207416E+01  0.11223279707E+02 -0.37958672476E+02  0.40087036768E+02  0.00000000000E+00 0. -1.
          3    1    5    5  503    0  0.13345049912E+02  0.27059945453E+02 -0.44918157445E+01  0.30504219606E+02  0.00000000000E+00 0. -1.
         -4    1    5    5    0  503  0.28620465774E+03  0.27837803647E+03 -0.29828751485E+03  0.49838025525E+03  0.00000000000E+00 0.  1.
         -1    1    6    6    0  502 -0.21698378807E+03 -0.91688335568E+02 -0.12517634417E+04  0.12737348347E+04  0.00000000000E+00 0.  1.
<mgrwt>
<rscale>  0 0.16484631E+04</rscale>
<asrwt>0</asrwt>
<pdfrwt beam="1">  1        1 0.27387933E+00 0.16484631E+04</pdfrwt>
<pdfrwt beam="2">  1       -1 0.58710058E-01 0.16484631E+04</pdfrwt>
<totfact> 0.11809011E+01</totfact>
</mgrwt>
</event>
<event>
12    1  0.2019083E-007  0.2870795E+04  0.7818608E-02  0.8281620E-01
         -1   -1    0    0    0  501 -0.00000000000E+00  0.00000000000E+00  0.10594732441E+04  0.10594732441E+04  0.00000000000E+00 0.  1.
          1   -1    0    0  501    0  0.00000000000E+00 -0.00000000000E+00 -0.19447072922E+04  0.19447072922E+04  0.00000000000E+00 0. -1.
         23    2    1    2    0    0 -0.52856009395E+03  0.10906047673E+04 -0.86893357254E+03  0.14941466018E+04  0.92919226866E+02 0.  0.
        254    2    1    2    0    0  0.52856009395E+03 -0.10906047673E+04 -0.16300475488E+02  0.15100339345E+04  0.90063435787E+03 0.  0.
        -24    2    4    4    0    0  0.10481681991E+03 -0.55815829993E+03 -0.42364427419E+03  0.71287685221E+03  0.78687240690E+02 0.  0.
         24    2    4    4    0    0  0.42374327404E+03 -0.53244646736E+03  0.40734379870E+03  0.79715708231E+03  0.80453966008E+02 0.  0.
         13    1    3    3    0    0 -0.27516002040E+03  0.60833895733E+03 -0.42579649950E+03  0.79189139585E+03  0.00000000000E+00 0.  1.
        -13    1    3    3    0    0 -0.25340007354E+03  0.48226580995E+03 -0.44313707304E+03  0.70225520591E+03  0.00000000000E+00 0. -1.
          2    1    6    6  502    0  0.11657534499E+03 -0.20757195219E+03  0.13656496500E+03  0.27445567231E+03  0.00000000000E+00 0. -1.
          1    1    5    5  503    0  0.38374869625E+02 -0.24455057892E+03 -0.23272369351E+03  0.33976158374E+03  0.00000000000E+00 0. -1.
         -2    1    5    5    0  503  0.66441950281E+02 -0.31360772101E+03 -0.19092058069E+03  0.37311526847E+03  0.00000000000E+00 0.  1.
         -1    1    6    6    0  502  0.30716792905E+03 -0.32487451516E+03  0.27077883370E+03  0.52270141001E+03  0.00000000000E+00 0.  1.
<mgrwt>
<rscale>  0 0.28707946E+04</rscale>
<asrwt>0</asrwt>
<pdfrwt beam="1">  1        1 0.29918574E+00 0.28707946E+04</pdfrwt>
<pdfrwt beam="2">  1       -1 0.16299588E+00 0.28707946E+04</pdfrwt>
<totfact> 0.77554534E-01</totfact>
</mgrwt>
</event>
<event>
12    1  0.2019083E-007  0.2053287E+04  0.7818608E-02  0.8582104E-01
          1   -1    0    0  501    0  0.00000000000E+00  0.00000000000E+00  0.63215267654E+03  0.63215267654E+03  0.00000000000E+00 0. -1.
         -1   -1    0    0    0  501 -0.00000000000E+00 -0.00000000000E+00 -0.16673144252E+04  0.16673144252E+04  0.00000000000E+00 0.  1.
         23    2    1    2    0    0  0.38711273520E+03 -0.63279625947E+03 -0.94222781823E+01  0.74734581043E+03  0.90275164284E+02 0.  0.
        254    2    1    2    0    0 -0.38711273520E+03  0.63279625947E+03 -0.10257394705E+04  0.15521212913E+04  0.89813788801E+03 0.  0.
        -24    2    4    4    0    0 -0.46985360532E+01  0.22020509157E+03 -0.95077277367E+03  0.97903691724E+03  0.77666334872E+02 0.  0.
         24    2    4    4    0    0 -0.38241419914E+03  0.41259116790E+03 -0.74966696801E+02  0.57308437406E+03  0.79583934483E+02 0.  0.
         11    1    3    3    0    0  0.30711444841E+03 -0.43726671655E+03 -0.29341513332E+02  0.53514707345E+03  0.00000000000E+00 0. -1.
        -11    1    3    3    0    0  0.79998286791E+02 -0.19552954292E+03  0.19919235150E+02  0.21219873697E+03  0.00000000000E+00 0.  1.
          4    1    6    6  502    0 -0.37262664938E+03  0.41129399253E+03 -0.64547736593E+02  0.55873050607E+03  0.00000000000E+00 0. -1.
          1    1    5    5  503    0 -0.24501806398E+02  0.19866149348E+03 -0.75475159606E+03  0.78084358182E+03  0.00000000000E+00 0. -1.
         -2    1    5    5    0  503  0.19803270345E+02  0.21543598093E+02 -0.19602117761E+03  0.19819333542E+03  0.00000000000E+00 0.  1.
         -3    1    6    6    0  502 -0.97875497657E+01  0.12971753683E+01 -0.10418960208E+02  0.14353867986E+02  0.00000000000E+00 0.  1.
<mgrwt>
<rscale>  0 0.20532874E+04</rscale>
<asrwt>0</asrwt>
<pdfrwt beam="1">  1        1 0.97254259E-01 0.20532874E+04</pdfrwt>
<pdfrwt beam="2">  1       -1 0.25650991E+00 0.20532874E+04</pdfrwt>
<totfact> 0.18527987E+00</totfact>
</mgrwt>
</event>
<event>
12    1  0.2019083E-007  0.2484982E+04  0.7818608E-02  0.8408355E-01
         -2   -1    0    0    0  501 -0.00000000000E+00  0.00000000000E+00  0.15879550969E+04  0.15879550969E+04  0.00000000000E+00 0.  1.
          2   -1    0    0  501    0  0.00000000000E+00 -0.00000000000E+00 -0.97218355808E+03  0.97218355808E+03  0.00000000000E+00 0. -1.
         23    2    1    2    0    0 -0.89063395559E+03 -0.50690971866E+03  0.61220457474E+03  0.11973471393E+04  0.93056030543E+02 0.  0.
        254    2    1    2    0    0  0.89063395559E+03  0.50690971866E+03  0.35669641159E+01  0.13627915158E+04  0.89833272593E+03 0.  0.
        -24    2    4    4    0    0  0.62276020040E+03  0.74552930567E+03 -0.10143726157E+03  0.98009379316E+03  0.81548222172E+02 0.  0.
         24    2    4    4    0    0  0.26787375520E+03 -0.23861958701E+03  0.10500422569E+03  0.38269772261E+03  0.82073159116E+02 0.  0.
         13    1    3    3    0    0 -0.41860854982E+03 -0.21749365066E+03  0.33152609130E+03  0.57658143854E+03  0.00000000000E+00 0.  1.
        -13    1    3    3    0    0 -0.47202540578E+03 -0.28941606801E+03  0.28067848343E+03  0.62076570071E+03  0.00000000000E+00 0. -1.
          4    1    6    6  502    0  0.18215134790E+03 -0.10815933990E+03  0.56926193142E+02  0.21935849155E+03  0.00000000000E+00 0. -1.
          3    1    5    5  503    0  0.15220422044E+03  0.23297512208E+03 -0.46330617539E+02  0.28211710042E+03  0.00000000000E+00 0. -1.
         -4    1    5    5    0  503  0.47055597996E+03  0.51255418360E+03 -0.55106644034E+02  0.69797669274E+03  0.00000000000E+00 0.  1.
         -3    1    6    6    0  502  0.85722407298E+02 -0.13046024711E+03  0.48078032547E+02  0.16333923106E+03  0.00000000000E+00 0.  1.
<mgrwt>
<rscale>  0 0.24849820E+04</rscale>
<asrwt>0</asrwt>
<pdfrwt beam="1">  1        2 0.14956670E+00 0.24849820E+04</pdfrwt>
<pdfrwt beam="2">  1       -2 0.24430078E+00 0.24849820E+04</pdfrwt>
<totfact> 0.16333638E+00</totfact>
</mgrwt>
</event>
<event>
12    1  0.2019083E-007  0.2046845E+04  0.7818608E-02  0.8585027E-01
          2   -1    0    0  501    0  0.00000000000E+00  0.00000000000E+00  0.86645511996E+03  0.86645511996E+03  0.00000000000E+00 0.  1.
         -2   -1    0    0    0  501 -0.00000000000E+00 -0.00000000000E+00 -0.12088261888E+04  0.12088261888E+04  0.00000000000E+00 0. -1.
         23    2    1    2    0    0  0.22634082413E+01  0.81986931295E+03 -0.20241603133E+03  0.84937763308E+03  0.90990661604E+02 0.  0.
        254    2    1    2    0    0 -0.22634082413E+01 -0.81986931295E+03 -0.13995503752E+03  0.12259036757E+04  0.90058958257E+03 0.  0.
        -24    2    4    4    0    0  0.33819375418E+03 -0.63203291995E+03 -0.32160246211E+03  0.78951323632E+03  0.77861283242E+02 0.  0.
         24    2    4    4    0    0 -0.34045716242E+03 -0.18783639300E+03  0.18164742459E+03  0.43639043938E+03  0.79039475835E+02 0.  0.
         13    1    3    3    0    0 -0.39779595997E+02  0.23254737180E+03 -0.50451289058E+02  0.24125925672E+03  0.00000000000E+00 0.  1.
        -13    1    3    3    0    0  0.42043004238E+02  0.58732194115E+03 -0.15196474227E+03  0.60811837635E+03  0.00000000000E+00 0. -1.
          2    1    6    6  502    0 -0.44976137032E+02 -0.56909405525E+02  0.21230498978E+02  0.75579543703E+02  0.00000000000E+00 0. -1.
          3    1    5    5  503    0  0.41976755847E+02 -0.14346929366E+03 -0.74484726571E+02  0.16701335499E+03  0.00000000000E+00 0. -1.
         -4    1    5    5    0  503  0.29621699833E+03 -0.48856362629E+03 -0.24711773554E+03  0.62249988133E+03  0.00000000000E+00 0.  1.
         -1    1    6    6    0  502 -0.29548102539E+03 -0.13092698748E+03  0.16041692562E+03  0.36081089568E+03  0.00000000000E+00 0.  1.
<mgrwt>
<rscale>  0 0.20468450E+04</rscale>
<asrwt>0</asrwt>
<pdfrwt beam="1">  1        2 0.13330079E+00 0.20468450E+04</pdfrwt>
<pdfrwt beam="2">  1       -2 0.18597326E+00 0.20468450E+04</pdfrwt>
<totfact> 0.47194997E+00</totfact>
</mgrwt>
</event>
<event>
12    1  0.2019083E-007  0.1529315E+04  0.7818608E-02  0.8865189E-01
         -1   -1    0    0    0  501 -0.00000000000E+00  0.00000000000E+00  0.30812510519E+03  0.30812510519E+03  0.00000000000E+00 0.  1.
          1   -1    0    0  501    0  0.00000000000E+00 -0.00000000000E+00 -0.18976103319E+04  0.18976103319E+04  0.00000000000E+00 0. -1.
         23    2    1    2    0    0  0.40775794439E+03 -0.28009010143E+03 -0.53523859803E+03  0.73445465273E+03  0.90698809041E+02 0.  0.
        254    2    1    2    0    0 -0.40775794439E+03  0.28009010143E+03 -0.10542466287E+04  0.14712807844E+04  0.89917416900E+03 0.  0.
        -24    2    4    4    0    0 -0.54464048333E+02  0.10331063887E+03  0.14701044935E+03  0.20419209617E+03  0.80267797136E+02 0.  0.
         24    2    4    4    0    0 -0.35329389606E+03  0.17677946256E+03 -0.12012570780E+04  0.12670886882E+04  0.80172444163E+02 0.  0.
         13    1    3    3    0    0  0.95876266836E+02 -0.71911430840E+02 -0.77450305685E+02  0.14269569818E+03  0.00000000000E+00 0.  1.
        -13    1    3    3    0    0  0.31188167756E+03 -0.20817867059E+03 -0.45778829235E+03  0.59175895455E+03  0.00000000000E+00 0. -1.
          4    1    6    6  502    0 -0.25575338538E+03  0.10054190791E+03 -0.91065346309E+03  0.95121406592E+03  0.00000000000E+00 0. -1.
          3    1    5    5  503    0 -0.51397981560E+02  0.91319105727E+02  0.15667490569E+03  0.18848861412E+03  0.00000000000E+00 0. -1.
         -4    1    5    5    0  503 -0.30660667733E+01  0.11991533142E+02 -0.96644563342E+01  0.15703482059E+02  0.00000000000E+00 0.  1.
         -3    1    6    6    0  502 -0.97540510680E+02  0.76237554658E+02 -0.29060361496E+03  0.31587462226E+03  0.00000000000E+00 0.  1.
<mgrwt>
<rscale>  0 0.15293154E+04</rscale>
<asrwt>0</asrwt>
<pdfrwt beam="1">  1        1 0.29194005E+00 0.15293154E+04</pdfrwt>
<pdfrwt beam="2">  1       -1 0.47403863E-01 0.15293154E+04</pdfrwt>
<totfact> 0.14993693E+01</totfact>
</mgrwt>
</event>
<event>
12    1  0.2019083E-007  0.1930264E+04  0.7818608E-02  0.8639937E-01
          1   -1    0    0  501    0  0.00000000000E+00  0.00000000000E+00  0.14282992866E+04  0.14282992866E+04  0.00000000000E+00 0. -1.
         -1   -1    0    0    0  501 -0.00000000000E+00 -0.00000000000E+00 -0.65215976561E+03  0.65215976561E+03  0.00000000000E+00 0.  1.
         23    2    1    2    0    0 -0.52183585638E+03  0.23115627651E+03 -0.22357363300E+03  0.61973607923E+03  0.91333199665E+02 0.  0.
        254    2    1    2    0    0  0.52183585638E+03 -0.23115627651E+03  0.99971315397E+03  0.14607229730E+04  0.89918814957E+03 0.  0.
        -24    2    4    4    0    0  0.14890450445E+03  0.16819793687E+03  0.85824133371E+03  0.89070348566E+03  0.79444414958E+02 0.  0.
         24    2    4    4    0    0  0.37293135193E+03 -0.39935421338E+03  0.14147182027E+03  0.57001948730E+03  0.79664038142E+02 0.  0.
         11    1    3    3    0    0 -0.28117376635E+03  0.16092276642E+03 -0.92904872893E+02  0.33702542789E+03  0.00000000000E+00 0.  1.
        -11    1    3    3    0    0 -0.24066209003E+03  0.70233510083E+02 -0.13066876011E+03  0.28271065135E+03  0.00000000000E+00 0. -1.
          4    1    6    6  502    0  0.37575968348E+02 -0.17175930797E+02 -0.30474574963E+01  0.41427683899E+02  0.00000000000E+00 0. -1.
          1    1    5    5  503    0  0.35027862930E+02  0.11108329223E+02  0.71495908427E+02  0.80386634967E+02  0.00000000000E+00 0. -1.
         -2    1    5    5    0  503  0.11387664151E+03  0.15708960765E+03  0.78674542528E+03  0.81031685069E+03  0.00000000000E+00 0.  1.
         -3    1    6    6    0  502  0.33535538358E+03 -0.38217828258E+03  0.14451927776E+03  0.52859180340E+03  0.00000000000E+00 0.  1.
<mgrwt>
<rscale>  0 0.19302635E+04</rscale>
<asrwt>0</asrwt>
<pdfrwt beam="1">  1        1 0.21973835E+00 0.19302635E+04</pdfrwt>
<pdfrwt beam="2">  1       -1 0.10033227E+00 0.19302635E+04</pdfrwt>
<totfact> 0.64786219E+00</totfact>
</mgrwt>
</event>
<event>
12    1  0.2019083E-007  0.2808424E+04  0.7818608E-02  0.8300658E-01
          2   -1    0    0  501    0  0.00000000000E+00  0.00000000000E+00  0.38287562109E+04  0.38287562109E+04  0.00000000000E+00 0. -1.
         -2   -1    0    0    0  501 -0.00000000000E+00 -0.00000000000E+00 -0.51500066572E+03  0.51500066572E+03  0.00000000000E+00 0.  1.
         23    2    1    2    0    0  0.27271415345E+03  0.11226834867E+04  0.22564899884E+04  0.25366992603E+04  0.91130944323E+02 0.  0.
        254    2    1    2    0    0 -0.27271415345E+03 -0.11226834867E+04  0.10572655568E+04  0.18070576163E+04  0.90158502111E+03 0.  0.
        -24    2    4    4    0    0 -0.25751135841E+03 -0.97286689646E+03  0.33315093490E+03  0.10631069583E+04  0.80154609190E+02 0.  0.
         24    2    4    4    0    0 -0.15202795049E+02 -0.14981659020E+03  0.72411462194E+03  0.74395065804E+03  0.80277395436E+02 0.  0.
         13    1    3    3    0    0  0.18224545998E+03  0.60338440198E+03  0.12926796638E+04  0.14381609289E+04  0.00000000000E+00 0. -1.
        -13    1    3    3    0    0  0.90468693479E+02  0.51929908468E+03  0.96381032458E+03  0.10985383314E+04  0.00000000000E+00 0.  1.
          2    1    6    6  502    0  0.11031818965E+02 -0.14044212454E+03  0.64077149175E+03  0.65607453541E+03  0.00000000000E+00 0. -1.
          3    1    5    5  503    0 -0.24853847904E+03 -0.86523721637E+03  0.28022026156E+03  0.94283095576E+03  0.00000000000E+00 0. -1.
         -4    1    5    5    0  503 -0.89728793684E+01 -0.10762968009E+03  0.52930673345E+02  0.12027600252E+03  0.00000000000E+00 0.  1.
         -1    1    6    6    0  502 -0.26234614014E+02 -0.93744656593E+01  0.83343130185E+02  0.87876122627E+02  0.00000000000E+00 0.  1.
<mgrwt>
<rscale>  0 0.28084245E+04</rscale>
<asrwt>0</asrwt>
<pdfrwt beam="1">  1        2 0.58903940E+00 0.28084245E+04</pdfrwt>
<pdfrwt beam="2">  1       -2 0.79230874E-01 0.28084245E+04</pdfrwt>
<totfact> 0.57368375E-01</totfact>
</mgrwt>
</event>
<event>
12    1  0.2019083E-007  0.1345846E+04  0.7818608E-02  0.8993979E-01
          1   -1    0    0  501    0  0.00000000000E+00  0.00000000000E+00  0.15927522233E+04  0.15927522233E+04  0.00000000000E+00 0. -1.
         -1   -1    0    0    0  501 -0.00000000000E+00 -0.00000000000E+00 -0.28430360462E+03  0.28430360462E+03  0.00000000000E+00 0.  1.
         23    2    1    2    0    0 -0.71286518640E+02 -0.28203052736E+03  0.67298676986E+03  0.73928853023E+03  0.94938677156E+02 0.  0.
        254    2    1    2    0    0  0.71286518640E+02  0.28203052736E+03  0.63546184885E+03  0.11377672977E+04  0.89781940072E+03 0.  0.
        -24    2    4    4    0    0  0.12765797536E+03  0.12644574666E+03  0.83999162247E+03  0.86278529723E+03  0.80792683910E+02 0.  0.
         24    2    4    4    0    0 -0.56371456724E+02  0.15558478070E+03 -0.20452977361E+03  0.27498200049E+03  0.79989419188E+02 0.  0.
         11    1    3    3    0    0 -0.15090241995E+02 -0.86105531417E+02  0.31954218405E+03  0.33128399499E+03  0.00000000000E+00 0. -1.
        -11    1    3    3    0    0 -0.56196276645E+02 -0.19592499594E+03  0.35344458580E+03  0.40800453524E+03  0.00000000000E+00 0.  1.
          4    1    6    6  502    0 -0.37187616576E+02  0.17760132271E+02 -0.26397363453E+02  0.48940391520E+02  0.00000000000E+00 0. -1.
          1    1    5    5  503    0  0.12817008795E+03  0.83370182245E+02  0.61629597721E+03  0.63497944082E+03  0.00000000000E+00 0. -1.
         -2    1    5    5    0  503 -0.51211258130E+00  0.43075564412E+02  0.22369564525E+03  0.22780585641E+03  0.00000000000E+00 0.  1.
         -3    1    6    6    0  502 -0.19183840148E+02  0.13782464843E+03 -0.17813241016E+03  0.22604160897E+03  0.00000000000E+00 0.  1.
<mgrwt>
<rscale>  0 0.13458458E+04</rscale>
<asrwt>0</asrwt>
<pdfrwt beam="1">  1        1 0.24503880E+00 0.13458458E+04</pdfrwt>
<pdfrwt beam="2">  1       -1 0.43739017E-01 0.13458458E+04</pdfrwt>
<totfact> 0.28540505E+01</totfact>
</mgrwt>
</event>
<event>
12    1  0.2019083E-007  0.3850280E+04  0.7818608E-02  0.8035450E-01
         -1   -1    0    0    0  501 -0.00000000000E+00  0.00000000000E+00  0.14541843505E+04  0.14541843505E+04  0.00000000000E+00 0.  1.
          1   -1    0    0  501    0  0.00000000000E+00 -0.00000000000E+00 -0.25486204357E+04  0.25486204357E+04  0.00000000000E+00 0. -1.
         23    2    1    2    0    0  0.50117831950E+03  0.14954138227E+04  0.42338122735E+03  0.16356941180E+04  0.93815642399E+02 0.  0.
        254    2    1    2    0    0 -0.50117831950E+03 -0.14954138227E+04 -0.15178173125E+04  0.23671106683E+04  0.90111115438E+03 0.  0.
        -24    2    4    4    0    0 -0.46825558948E+02 -0.13183520767E+04 -0.11543834362E+04  0.17547730232E+04  0.79890011716E+02 0.  0.
         24    2    4    4    0    0 -0.45435276055E+03 -0.17706174604E+03 -0.36343387635E+03  0.61233764513E+03  0.71315610064E+02 0.  0.
         13    1    3    3    0    0  0.44541282112E+03  0.12290513266E+04  0.33416513275E+03  0.13493057772E+04  0.00000000000E+00 0. -1.
        -13    1    3    3    0    0  0.55765498379E+02  0.26636249617E+03  0.89216094607E+02  0.28638834074E+03  0.00000000000E+00 0.  1.
          4    1    6    6  502    0 -0.39823099998E+03 -0.13385947828E+03 -0.32882665311E+03  0.53351031580E+03  0.00000000000E+00 0. -1.
          1    1    5    5  503    0 -0.38608223058E+02 -0.93059419169E+03 -0.76637754352E+03  0.12061636223E+04  0.00000000000E+00 0. -1.
         -4    1    5    5    0  503 -0.82173358902E+01 -0.38775788500E+03 -0.38800589266E+03  0.54860940088E+03  0.00000000000E+00 0.  1.
         -3    1    6    6    0  502 -0.56121760567E+02 -0.43202267761E+02 -0.34607223234E+02  0.78827329327E+02  0.00000000000E+00 0.  1.
<mgrwt>
<rscale>  0 0.38502800E+04</rscale>
<asrwt>0</asrwt>
<pdfrwt beam="1">  1        1 0.39209545E+00 0.38502800E+04</pdfrwt>
<pdfrwt beam="2">  1       -1 0.22372067E+00 0.38502800E+04</pdfrwt>
<totfact> 0.10318781E-01</totfact>
</mgrwt>
</event>
<event>
12    1  0.2019083E-007  0.1152499E+04  0.7818608E-02  0.9155481E-01
         -2   -1    0    0    0  501 -0.00000000000E+00  0.00000000000E+00  0.12266473014E+03  0.12266473014E+03  0.00000000000E+00 0.  1.
          2   -1    0    0  501    0  0.00000000000E+00 -0.00000000000E+00 -0.27070807745E+04  0.27070807745E+04  0.00000000000E+00 0. -1.
         23    2    1    2    0    0  0.14102045923E+01 -0.18664176213E+03 -0.28159559114E+03  0.35037114715E+03  0.92880179564E+02 0.  0.
        254    2    1    2    0    0 -0.14102045923E+01  0.18664176213E+03 -0.23028204532E+04  0.24793743575E+04  0.89970996927E+03 0.  0.
        -24    2    4    4    0    0 -0.43044965616E+03  0.17679077295E+03 -0.13679533388E+04  0.14471373805E+04  0.79802112636E+02 0.  0.
         24    2    4    4    0    0  0.42903945157E+03  0.98509891771E+01 -0.93486711446E+03  0.10322369770E+04  0.85818191235E+02 0.  0.
         11    1    3    3    0    0 -0.38707560048E+02 -0.60976293915E+02 -0.67248994894E+02  0.98685414012E+02  0.00000000000E+00 0.  1.
        -11    1    3    3    0    0  0.40117764641E+02 -0.12566546821E+03 -0.21434659625E+03  0.25168573313E+03  0.00000000000E+00 0. -1.
          4    1    6    6  502    0  0.32219102074E+03 -0.10574718851E+02 -0.76952075555E+03  0.83431473183E+03  0.00000000000E+00 0. -1.
          3    1    5    5  503    0 -0.27593234305E+03  0.88222494179E+02 -0.74904222818E+03  0.80311028260E+03  0.00000000000E+00 0. -1.
         -4    1    5    5    0  503 -0.15451731312E+03  0.88568278771E+02 -0.61891111060E+03  0.64402709794E+03  0.00000000000E+00 0.  1.
         -3    1    6    6    0  502  0.10684843083E+03  0.20425708028E+02 -0.16534635891E+03  0.19792224515E+03  0.00000000000E+00 0.  1.
<mgrwt>
<rscale>  0 0.11524987E+04</rscale>
<asrwt>0</asrwt>
<pdfrwt beam="1">  1        2 0.41647394E+00 0.11524987E+04</pdfrwt>
<pdfrwt beam="2">  1       -2 0.18871498E-01 0.11524987E+04</pdfrwt>
<totfact> 0.62261014E+01</totfact>
</mgrwt>
</event>
<event>
12    1  0.2019083E-007  0.1445993E+04  0.7818608E-02  0.8921183E-01
         -1   -1    0    0    0  501 -0.00000000000E+00  0.00000000000E+00  0.28443853111E+03  0.28443853111E+03  0.00000000000E+00 0.  1.
          1   -1    0    0  501    0  0.00000000000E+00 -0.00000000000E+00 -0.18377392911E+04  0.18377392911E+04  0.00000000000E+00 0. -1.
         23    2    1    2    0    0  0.29683348886E+03 -0.25914900962E+03 -0.74212938048E+03  0.84586934189E+03  0.97316991748E+02 0.  0.
        254    2    1    2    0    0 -0.29683348886E+03  0.25914900962E+03 -0.81117137947E+03  0.12763084803E+04  0.90315890112E+03 0.  0.
        -24    2    4    4    0    0  0.99951975056E+02 -0.27185299008E+03 -0.36667021057E+03  0.47414938563E+03  0.80474536598E+02 0.  0.
         24    2    4    4    0    0 -0.39678546391E+03  0.53100199970E+03 -0.44450116890E+03  0.80215909466E+03  0.80474194171E+02 0.  0.
         11    1    3    3    0    0  0.50271653009E+02 -0.19847550327E+02 -0.17113315961E+03  0.17946510153E+03  0.00000000000E+00 0. -1.
        -11    1    3    3    0    0  0.24656183585E+03 -0.23930145930E+03 -0.57099622087E+03  0.66640424035E+03  0.00000000000E+00 0.  1.
          4    1    6    6  502    0 -0.26146343454E+03  0.34994528220E+03 -0.33776564797E+03  0.55218698019E+03  0.00000000000E+00 0. -1.
          1    1    5    5  503    0  0.85531708887E+02 -0.15394498292E+03 -0.17244461674E+03  0.24647895819E+03  0.00000000000E+00 0. -1.
         -2    1    5    5    0  503  0.14420266169E+02 -0.11790800716E+03 -0.19422559383E+03  0.22767042743E+03  0.00000000000E+00 0.  1.
         -3    1    6    6    0  502 -0.13532202937E+03  0.18105671750E+03 -0.10673552093E+03  0.24997211447E+03  0.00000000000E+00 0.  1.
<mgrwt>
<rscale>  0 0.14459929E+04</rscale>
<asrwt>0</asrwt>
<pdfrwt beam="1">  1        1 0.28272911E+00 0.14459929E+04</pdfrwt>
<pdfrwt beam="2">  1       -1 0.43759776E-01 0.14459929E+04</pdfrwt>
<totfact> 0.19257427E+01</totfact>
</mgrwt>
</event>
<event>
12    1  0.2019083E-007  0.1237698E+04  0.7818608E-02  0.9080484E-01
         -1   -1    0    0    0  501 -0.00000000000E+00  0.00000000000E+00  0.38046134059E+03  0.38046134059E+03  0.00000000000E+00 0.  1.
          1   -1    0    0  501    0  0.00000000000E+00 -0.00000000000E+00 -0.10066052118E+04  0.10066052118E+04  0.00000000000E+00 0. -1.
         23    2    1    2    0    0  0.21661667323E+03 -0.36799279751E+02  0.44083932324E+02  0.24282032320E+03  0.93495166497E+02 0.  0.
        254    2    1    2    0    0 -0.21661667323E+03  0.36799279751E+02 -0.67022780357E+03  0.11442462292E+04  0.90100896460E+03 0.  0.
        -24    2    4    4    0    0 -0.51099043261E+03  0.12171664120E+03 -0.63155051466E+03  0.82543901209E+03  0.81039170389E+02 0.  0.
         24    2    4    4    0    0  0.29437375938E+03 -0.84917361453E+02 -0.38677288903E+02  0.31880721713E+03  0.79216415811E+02 0.  0.
         13    1    3    3    0    0  0.63155881285E+02  0.30109999619E+02  0.10894054550E+01  0.69974739886E+02  0.00000000000E+00 0. -1.
        -13    1    3    3    0    0  0.15346079195E+03 -0.66909279370E+02  0.42994526869E+02  0.17284558332E+03  0.00000000000E+00 0.  1.
          2    1    6    6  502    0  0.11159727490E+03 -0.21505313789E+02  0.22589794344E+02  0.11587376361E+03  0.00000000000E+00 0. -1.
          3    1    5    5  503    0 -0.36887204473E+03  0.64380591733E+02 -0.49107605269E+03  0.61754929803E+03  0.00000000000E+00 0. -1.
         -2    1    5    5    0  503 -0.14211838788E+03  0.57336049471E+02 -0.14047446197E+03  0.20788971405E+03  0.00000000000E+00 0.  1.
         -1    1    6    6    0  502  0.18277648448E+03 -0.63412047664E+02 -0.61267083247E+02  0.20293345352E+03  0.00000000000E+00 0.  1.
<mgrwt>
<rscale>  0 0.12376985E+04</rscale>
<asrwt>0</asrwt>
<pdfrwt beam="1">  1        1 0.15486234E+00 0.12376985E+04</pdfrwt>
<pdfrwt beam="2">  1       -1 0.58532515E-01 0.12376985E+04</pdfrwt>
<totfact> 0.43651793E+01</totfact>
</mgrwt>
</event>
<event>
12    1  0.2019083E-007  0.2190971E+04  0.7818608E-02  0.8522195E-01
          1   -1    0    0  501    0  0.00000000000E+00  0.00000000000E+00  0.99838864720E+03  0.99838864720E+03  0.00000000000E+00 0. -1.
         -1   -1    0    0    0  501 -0.00000000000E+00 -0.00000000000E+00 -0.12020257378E+04  0.12020257378E+04  0.00000000000E+00 0.  1.
         23    2    1    2    0    0  0.85092895669E+03 -0.14021747872E+03 -0.37086289042E+03  0.94272148668E+03  0.86275647097E+02 0.  0.
        254    2    1    2    0    0 -0.85092895669E+03  0.14021747872E+03  0.16722579986E+03  0.12576928983E+04  0.90004773628E+03 0.  0.
        -24    2    4    4    0    0 -0.14153473561E+03  0.15390408101E+02 -0.33762018053E+03  0.37512233204E+03  0.80376810408E+02 0.  0.
         24    2    4    4    0    0 -0.70939422108E+03  0.12482707062E+03  0.50484598039E+03  0.88257056624E+03  0.72383575640E+02 0.  0.
         13    1    3    3    0    0  0.20385252794E+03 -0.39537428431E+02 -0.50533650532E+02  0.21371174799E+03  0.00000000000E+00 0. -1.
        -13    1    3    3    0    0  0.64707642876E+03 -0.10068005029E+03 -0.32032923989E+03  0.72900973869E+03  0.00000000000E+00 0.  1.
          2    1    6    6  502    0 -0.69499559782E+03  0.12113216823E+03  0.50518711001E+03  0.86770150357E+03  0.00000000000E+00 0. -1.
          1    1    5    5  503    0 -0.14068878305E+03  0.31316484169E+02 -0.27474690239E+03  0.31025782219E+03  0.00000000000E+00 0. -1.
         -2    1    5    5    0  503 -0.84595256167E+00 -0.15926076068E+02 -0.62873278141E+02  0.64864509856E+02  0.00000000000E+00 0.  1.
         -3    1    6    6    0  502 -0.14398623257E+02  0.36949023915E+01 -0.34112962384E+00  0.14869062674E+02  0.00000000000E+00 0.  1.
<mgrwt>
<rscale>  0 0.21909713E+04</rscale>
<asrwt>0</asrwt>
<pdfrwt beam="1">  1        1 0.15359825E+00 0.21909713E+04</pdfrwt>
<pdfrwt beam="2">  1       -1 0.18492704E+00 0.21909713E+04</pdfrwt>
<totfact> 0.26571205E+00</totfact>
</mgrwt>
</event>
<event>
12    1  0.2019083E-007  0.1738189E+04  0.7818608E-02  0.8739879E-01
         -2   -1    0    0    0  501 -0.00000000000E+00  0.00000000000E+00  0.96641781673E+03  0.96641781673E+03  0.00000000000E+00 0. -1.
          2   -1    0    0  501    0  0.00000000000E+00 -0.00000000000E+00 -0.78157222715E+03  0.78157222715E+03  0.00000000000E+00 0.  1.
         23    2    1    2    0    0 -0.23615453058E+03 -0.39848702974E+03 -0.36609897495E+03  0.59731023827E+03  0.90499646922E+02 0.  0.
        254    2    1    2    0    0  0.23615453058E+03  0.39848702974E+03  0.55094456454E+03  0.11506798056E+04  0.89775454700E+03 0.  0.
        -24    2    4    4    0    0  0.37374451873E+02 -0.24724249913E+03 -0.19464863773E+02  0.26319107410E+03  0.79780683981E+02 0.  0.
         24    2    4    4    0    0  0.19878007871E+03  0.64572952887E+03  0.57040942831E+03  0.88748873151E+03  0.76086717005E+02 0.  0.
         13    1    3    3    0    0 -0.12016855475E+03 -0.24084465706E+03 -0.26205890151E+03  0.37566141437E+03  0.00000000000E+00 0.  1.
        -13    1    3    3    0    0 -0.11598597583E+03 -0.15764237268E+03 -0.10404007344E+03  0.22164882390E+03  0.00000000000E+00 0. -1.
          4    1    6    6  502    0  0.84466316811E+02  0.39539191515E+03  0.32462103478E+03  0.51850568123E+03  0.00000000000E+00 0. -1.
          3    1    5    5  503    0  0.49293856553E+02 -0.79668472768E+02 -0.16754848075E+02  0.95171817158E+02  0.00000000000E+00 0. -1.
         -4    1    5    5    0  503 -0.11919404680E+02 -0.16757402636E+03 -0.27100156982E+01  0.16801925694E+03  0.00000000000E+00 0.  1.
         -1    1    6    6    0  502  0.11431376190E+03  0.25033761372E+03  0.24578839353E+03  0.36898305028E+03  0.00000000000E+00 0.  1.
<mgrwt>
<rscale>  0 0.17381891E+04</rscale>
<asrwt>0</asrwt>
<pdfrwt beam="1">  1        2 0.12024188E+00 0.17381891E+04</pdfrwt>
<pdfrwt beam="2">  1       -2 0.14867966E+00 0.17381891E+04</pdfrwt>
<totfact> 0.10333990E+01</totfact>
</mgrwt>
</event>
<event>
12    1  0.2019083E-007  0.2635761E+04  0.7818608E-02  0.8356155E-01
          2   -1    0    0  501    0  0.00000000000E+00  0.00000000000E+00  0.19029361567E+04  0.19029361567E+04  0.00000000000E+00 0. -1.
         -2   -1    0    0    0  501 -0.00000000000E+00 -0.00000000000E+00 -0.91269931556E+03  0.91269931556E+03  0.00000000000E+00 0.  1.
         23    2    1    2    0    0  0.58327959097E+03  0.55974350864E+03 -0.45289278456E+03  0.93156923711E+03  0.95820104938E+02 0.  0.
        254    2    1    2    0    0 -0.58327959097E+03 -0.55974350864E+03  0.14431296257E+04  0.18840662352E+04  0.90197260775E+03 0.  0.
        -24    2    4    4    0    0  0.39103892971E+02 -0.42338343458E+03  0.10389748658E+04  0.11255269508E+04  0.80990727474E+02 0.  0.
         24    2    4    4    0    0 -0.62238348394E+03 -0.13636007406E+03  0.40415475987E+03  0.75853928438E+03  0.78009647782E+02 0.  0.
         11    1    3    3    0    0  0.86773502913E+02  0.13575070376E+03 -0.85640319503E+02  0.18246138963E+03  0.00000000000E+00 0.  1.
        -11    1    3    3    0    0  0.49650608806E+03  0.42399280487E+03 -0.36725246506E+03  0.74910784748E+03  0.00000000000E+00 0. -1.
          4    1    6    6  502    0 -0.11517035558E+03 -0.52629831231E+02  0.98816571785E+02  0.16062012576E+03  0.00000000000E+00 0. -1.
          1    1    5    5  503    0  0.25889930600E+02 -0.31940888090E+02  0.93831106652E+02  0.10244405993E+03  0.00000000000E+00 0. -1.
         -2    1    5    5    0  503  0.13213962371E+02 -0.39144254649E+03  0.94514375919E+03  0.10230828908E+04  0.00000000000E+00 0.  1.
         -3    1    6    6    0  502 -0.50721312836E+03 -0.83730242829E+02  0.30533818808E+03  0.59791915862E+03  0.00000000000E+00 0.  1.
<mgrwt>
<rscale>  0 0.26357606E+04</rscale>
<asrwt>0</asrwt>
<pdfrwt beam="1">  1        2 0.29275941E+00 0.26357606E+04</pdfrwt>
<pdfrwt beam="2">  1       -2 0.14041528E+00 0.26357606E+04</pdfrwt>
<totfact> 0.23781384E+00</totfact>
</mgrwt>
</event>
<event>
12    1  0.2019083E-007  0.3605677E+04  0.7818608E-02  0.8089192E-01
          2   -1    0    0  501    0  0.00000000000E+00  0.00000000000E+00  0.17380793817E+04  0.17380793817E+04  0.00000000000E+00 0.  1.
         -2   -1    0    0    0  501 -0.00000000000E+00 -0.00000000000E+00 -0.18700107661E+04  0.18700107661E+04  0.00000000000E+00 0. -1.
         23    2    1    2    0    0  0.61966160886E+03 -0.15461812241E+04  0.21240404160E+03  0.16817108518E+04  0.91537015319E+02 0.  0.
        254    2    1    2    0    0 -0.61966160886E+03  0.15461812241E+04 -0.34433542599E+03  0.19263792960E+04  0.90427507954E+03 0.  0.
        -24    2    4    4    0    0  0.15776783993E+03  0.62505000527E+02  0.60884220664E+02  0.20119780268E+03  0.89309020090E+02 0.  0.
         24    2    4    4    0    0 -0.77742944879E+03  0.14836762235E+04 -0.40521964665E+03  0.17251814934E+04  0.79727905173E+02 0.  0.
         11    1    3    3    0    0  0.12078262674E+03 -0.40668667095E+03  0.61350836026E+02  0.42865652489E+03  0.00000000000E+00 0.  1.
        -11    1    3    3    0    0  0.49887898212E+03 -0.11394945531E+04  0.15105320558E+03  0.12530543270E+04  0.00000000000E+00 0. -1.
          4    1    6    6  502    0 -0.32199279067E+03  0.65091426208E+03 -0.13895438646E+03  0.73937612576E+03  0.00000000000E+00 0. -1.
          3    1    5    5  503    0  0.12981872488E+03  0.60452551180E+02  0.10555334638E+02  0.14359257419E+03  0.00000000000E+00 0. -1.
         -4    1    5    5    0  503  0.27949115053E+02  0.20524493472E+01  0.50328886026E+02  0.57605228489E+02  0.00000000000E+00 0.  1.
         -3    1    6    6    0  502 -0.45543665811E+03  0.83276196145E+03 -0.26626526020E+03  0.98580536760E+03  0.00000000000E+00 0.  1.
<mgrwt>
<rscale>  0 0.36056773E+04</rscale>
<asrwt>0</asrwt>
<pdfrwt beam="1">  1        2 0.26739683E+00 0.36056773E+04</pdfrwt>
<pdfrwt beam="2">  1       -2 0.28769396E+00 0.36056773E+04</pdfrwt>
<totfact> 0.28758182E-01</totfact>
</mgrwt>
</event>
<event>
12    1  0.2019083E-007  0.2887604E+04  0.7818608E-02  0.8276575E-01
          1   -1    0    0  501    0  0.00000000000E+00  0.00000000000E+00  0.22580759465E+04  0.22580759465E+04  0.00000000000E+00 0. -1.
         -1   -1    0    0    0  501 -0.00000000000E+00 -0.00000000000E+00 -0.92315959304E+03  0.92315959304E+03  0.00000000000E+00 0.  1.
         23    2    1    2    0    0 -0.82861789536E+03 -0.10024930431E+04  0.69610389512E+03  0.14778620631E+04  0.88970369236E+02 0.  0.
        254    2    1    2    0    0  0.82861789536E+03  0.10024930431E+04  0.63881245830E+03  0.17033734764E+04  0.89543281446E+03 0.  0.
        -24    2    4    4    0    0 -0.24365847085E+02 -0.11191251965E+03  0.17423918011E+03  0.22271361813E+03  0.78255717075E+02 0.  0.
         24    2    4    4    0    0  0.85298374245E+03  0.11144055628E+04  0.46457327819E+03  0.14806598583E+04  0.83930101108E+02 0.  0.
         13    1    3    3    0    0 -0.57875592802E+03 -0.75167459359E+03  0.48158720337E+03  0.10639075868E+04  0.00000000000E+00 0. -1.
        -13    1    3    3    0    0 -0.24986196735E+03 -0.25081844955E+03  0.21451669176E+03  0.41395447625E+03  0.00000000000E+00 0.  1.
          4    1    6    6  502    0  0.18340776772E+03  0.19423043811E+03  0.10739115614E+03  0.28791792713E+03  0.00000000000E+00 0. -1.
          1    1    5    5  503    0 -0.17638530259E+00 -0.21332722490E+02 -0.36377793650E+01  0.21641386261E+02  0.00000000000E+00 0. -1.
         -2    1    5    5    0  503 -0.24189461782E+02 -0.90579797159E+02  0.17787695948E+03  0.20107223187E+03  0.00000000000E+00 0.  1.
         -3    1    6    6    0  502  0.66957597473E+03  0.92017512468E+03  0.35718212205E+03  0.11927419312E+04  0.00000000000E+00 0.  1.
<mgrwt>
<rscale>  0 0.28876042E+04</rscale>
<asrwt>0</asrwt>
<pdfrwt beam="1">  1        1 0.34739630E+00 0.28876042E+04</pdfrwt>
<pdfrwt beam="2">  1       -1 0.14202455E+00 0.28876042E+04</pdfrwt>
<totfact> 0.68946392E-01</totfact>
</mgrwt>
</event>
<event>
12    1  0.2019083E-007  0.1558665E+04  0.7818608E-02  0.8846352E-01
          2   -1    0    0  501    0  0.00000000000E+00  0.00000000000E+00  0.11523909920E+04  0.11523909920E+04  0.00000000000E+00 0.  1.
         -2   -1    0    0    0  501 -0.00000000000E+00 -0.00000000000E+00 -0.52704280197E+03  0.52704280197E+03  0.00000000000E+00 0. -1.
         23    2    1    2    0    0  0.35225139470E+03  0.36270907599E+03  0.11330990359E+03  0.52619168781E+03  0.91649545564E+02 0.  0.
        254    2    1    2    0    0 -0.35225139470E+03 -0.36270907599E+03  0.51203828646E+03  0.11532421062E+04  0.90119100628E+03 0.  0.
        -24    2    4    4    0    0 -0.15932850305E+03 -0.44047436968E+03 -0.11434277277E+03  0.48825969118E+03  0.76941628021E+02 0.  0.
         24    2    4    4    0    0 -0.19292289165E+03  0.77765293688E+02  0.62638105923E+03  0.66498241500E+03  0.81127664033E+02 0.  0.
         11    1    3    3    0    0  0.32887057033E+02  0.23191670783E+02  0.35422880652E+02  0.53611496787E+02  0.00000000000E+00 0.  1.
        -11    1    3    3    0    0  0.31936433766E+03  0.33951740521E+03  0.77887022940E+02  0.47258019103E+03  0.00000000000E+00 0. -1.
          2    1    6    6  502    0 -0.19999302022E+03  0.79374098585E+02  0.61429147691E+03  0.65088514675E+03  0.00000000000E+00 0. -1.
          3    1    5    5  503    0 -0.45195075263E+02 -0.20909953353E+03 -0.25718073043E+02  0.21546839450E+03  0.00000000000E+00 0. -1.
         -4    1    5    5    0  503 -0.11413342779E+03 -0.23137483615E+03 -0.88624699726E+02  0.27279129668E+03  0.00000000000E+00 0.  1.
         -1    1    6    6    0  502  0.70701285731E+01 -0.16088048978E+01  0.12089582321E+02  0.14097268244E+02  0.00000000000E+00 0.  1.
<mgrwt>
<rscale>  0 0.15586653E+04</rscale>
<asrwt>0</asrwt>
<pdfrwt beam="1">  1        2 0.17729092E+00 0.15586653E+04</pdfrwt>
<pdfrwt beam="2">  1       -2 0.81083508E-01 0.15586653E+04</pdfrwt>
<totfact> 0.26106332E+01</totfact>
</mgrwt>
</event>
<event>
12    1  0.2019083E-007  0.2028163E+04  0.7818608E-02  0.8593565E-01
         -1   -1    0    0    0  501 -0.00000000000E+00  0.00000000000E+00  0.75272041387E+03  0.75272041387E+03  0.00000000000E+00 0.  1.
          1   -1    0    0  501    0  0.00000000000E+00 -0.00000000000E+00 -0.13661935125E+04  0.13661935125E+04  0.00000000000E+00 0. -1.
         23    2    1    2    0    0  0.59865854716E+03  0.21869113691E+03 -0.77323851229E+03  0.10061210896E+04  0.90354749131E+02 0.  0.
        254    2    1    2    0    0 -0.59865854716E+03 -0.21869113691E+03  0.15976541367E+03  0.11127928367E+04  0.89808966176E+03 0.  0.
        -24    2    4    4    0    0  0.48449754047E+02 -0.17806932238E+03 -0.26600128488E+03  0.33346181088E+03  0.79900147172E+02 0.  0.
         24    2    4    4    0    0 -0.64710830120E+03 -0.40621814533E+02  0.42576669855E+03  0.77933102583E+03  0.75367638415E+02 0.  0.
         11    1    3    3    0    0  0.12966374228E+03  0.52280254115E+02 -0.11555195672E+03  0.18137851508E+03  0.00000000000E+00 0.  1.
        -11    1    3    3    0    0  0.46899480488E+03  0.16641088280E+03 -0.65768655557E+03  0.82474257456E+03  0.00000000000E+00 0. -1.
          4    1    6    6  502    0 -0.29926445927E+03 -0.56405829479E+02  0.20101275564E+03  0.36489308313E+03  0.00000000000E+00 0. -1.
          1    1    5    5  503    0  0.24240608667E+02 -0.67843309188E+01 -0.55919990174E+02  0.61324379782E+02  0.00000000000E+00 0. -1.
         -2    1    5    5    0  503  0.24209145380E+02 -0.17128499146E+03 -0.21008129470E+03  0.27213743109E+03  0.00000000000E+00 0.  1.
         -3    1    6    6    0  502 -0.34784384193E+03  0.15784014946E+02  0.22475394291E+03  0.41443794270E+03  0.00000000000E+00 0.  1.
<mgrwt>
<rscale>  0 0.20281635E+04</rscale>
<asrwt>0</asrwt>
<pdfrwt beam="1">  1        1 0.21018362E+00 0.20281635E+04</pdfrwt>
<pdfrwt beam="2">  1       -1 0.11580314E+00 0.20281635E+04</pdfrwt>
<totfact> 0.50700705E+00</totfact>
</mgrwt>
</event>
<event>
12    1  0.2019083E-007  0.1819319E+04  0.7818608E-02  0.8696093E-01
          2   -1    0    0  501    0  0.00000000000E+00  0.00000000000E+00  0.23454499422E+04  0.23454499422E+04  0.00000000000E+00 0. -1.
         -2   -1    0    0    0  501 -0.00000000000E+00 -0.00000000000E+00 -0.35280237144E+03  0.35280237144E+03  0.00000000000E+00 0.  1.
         23    2    1    2    0    0  0.51182378095E+03 -0.15797494584E+03  0.13825935454E+04  0.14855790081E+04  0.91980494198E+02 0.  0.
        254    2    1    2    0    0 -0.51182378095E+03  0.15797494584E+03  0.61005402540E+03  0.12126733056E+04  0.90082793356E+03 0.  0.
        -24    2    4    4    0    0 -0.37659023205E+03  0.98725354910E+02  0.83950947324E+03  0.92929434425E+03  0.85117119357E+02 0.  0.
         24    2    4    4    0    0 -0.13523354890E+03  0.59249590927E+02 -0.22945544784E+03  0.28337896132E+03  0.76519320459E+02 0.  0.
         13    1    3    3    0    0  0.20480727694E+03 -0.10693915745E+03  0.54045977033E+03  0.58777441883E+03  0.00000000000E+00 0.  1.
        -13    1    3    3    0    0  0.30701650401E+03 -0.51035788383E+02  0.84213377504E+03  0.89780458926E+03  0.00000000000E+00 0. -1.
          2    1    6    6  502    0 -0.19549073231E+01  0.24488506437E+01  0.60876410544E+01  0.68467441697E+01  0.00000000000E+00 0. -1.
          3    1    5    5  503    0 -0.20939410018E+02  0.70912527602E+01  0.15082906792E+02  0.26762638789E+02  0.00000000000E+00 0. -1.
         -4    1    5    5    0  503 -0.35565082203E+03  0.91634102150E+02  0.82442656645E+03  0.90253170546E+03  0.00000000000E+00 0.  1.
         -1    1    6    6    0  502 -0.13327864158E+03  0.56800740283E+02 -0.23554308889E+03  0.27653221715E+03  0.00000000000E+00 0.  1.
<mgrwt>
<rscale>  0 0.18193189E+04</rscale>
<asrwt>0</asrwt>
<pdfrwt beam="1">  1        2 0.36083844E+00 0.18193189E+04</pdfrwt>
<pdfrwt beam="2">  1       -2 0.54277290E-01 0.18193189E+04</pdfrwt>
<totfact> 0.12874731E+01</totfact>
</mgrwt>
</event>
<event>
12    1  0.2019083E-007  0.1626550E+04  0.7818608E-02  0.8804401E-01
          2   -1    0    0  501    0  0.00000000000E+00  0.00000000000E+00  0.18609737138E+04  0.18609737138E+04  0.00000000000E+00 0. -1.
         -2   -1    0    0    0  501 -0.00000000000E+00 -0.00000000000E+00 -0.35541423074E+03  0.35541423074E+03  0.00000000000E+00 0.  1.
         23    2    1    2    0    0  0.10426026115E+03  0.29370642272E+03 -0.10078625668E+03  0.34012033418E+03  0.91598621072E+02 0.  0.
        254    2    1    2    0    0 -0.10426026115E+03 -0.29370642272E+03  0.16063457397E+04  0.18762676103E+04  0.91809577130E+03 0.  0.
        -24    2    4    4    0    0 -0.21885940319E+03 -0.51035021949E+03  0.53761424519E+03  0.77700496314E+03  0.79692228097E+02 0.  0.
         24    2    4    4    0    0  0.11459914203E+03  0.21664379676E+03  0.10687314945E+04  0.10992626472E+04  0.78255109042E+02 0.  0.
         13    1    3    3    0    0  0.90186510320E+02  0.25181267959E+03 -0.48805965125E+02  0.27189199046E+03  0.00000000000E+00 0. -1.
        -13    1    3    3    0    0  0.14073750834E+02  0.41893743130E+02 -0.51980291553E+02  0.68228343714E+02  0.00000000000E+00 0.  1.
          4    1    6    6  502    0  0.26160804995E+02  0.75638877955E+02  0.51083027170E+03  0.51706207950E+03  0.00000000000E+00 0. -1.
          1    1    5    5  503    0 -0.96125964144E+02 -0.15039705926E+03  0.14045900310E+03  0.22713037659E+03  0.00000000000E+00 0. -1.
         -2    1    5    5    0  503 -0.12273343904E+03 -0.35995316022E+03  0.39715524209E+03  0.54987458655E+03  0.00000000000E+00 0.  1.
         -3    1    6    6    0  502  0.88438337037E+02  0.14100491881E+03  0.55790122282E+03  0.58220056769E+03  0.00000000000E+00 0.  1.
<mgrwt>
<rscale>  0 0.16265504E+04</rscale>
<asrwt>0</asrwt>
<pdfrwt beam="1">  1        2 0.28630364E+00 0.16265504E+04</pdfrwt>
<pdfrwt beam="2">  1       -2 0.54679114E-01 0.16265504E+04</pdfrwt>
<totfact> 0.24038505E+01</totfact>
</mgrwt>
</event>
<event>
12    1  0.2019083E-007  0.1746879E+04  0.7818608E-02  0.8735070E-01
         -1   -1    0    0    0  501 -0.00000000000E+00  0.00000000000E+00  0.31651002998E+03  0.31651002998E+03  0.00000000000E+00 0.  1.
          1   -1    0    0  501    0  0.00000000000E+00 -0.00000000000E+00 -0.24103396071E+04  0.24103396071E+04  0.00000000000E+00 0. -1.
         23    2    1    2    0    0  0.26650467956E+03 -0.13194467997E+03  0.10933092220E+03  0.32812327890E+03  0.85308222402E+02 0.  0.
        254    2    1    2    0    0 -0.26650467956E+03  0.13194467997E+03 -0.22031604993E+04  0.23987263582E+04  0.90085393534E+03 0.  0.
        -24    2    4    4    0    0 -0.97668664654E+02 -0.24410484775E+03 -0.17164805850E+03  0.32427483394E+03  0.81023250919E+02 0.  0.
         24    2    4    4    0    0 -0.16883601490E+03  0.37604952772E+03 -0.20315124408E+04  0.20744515242E+04  0.79921723941E+02 0.  0.
         13    1    3    3    0    0  0.12859096828E+02  0.10321716071E+02 -0.22319758417E+01  0.16639588638E+02  0.00000000000E+00 0. -1.
        -13    1    3    3    0    0  0.25364558273E+03 -0.14226639604E+03  0.11156289805E+03  0.31148369026E+03  0.00000000000E+00 0.  1.
          4    1    6    6  502    0 -0.52830401931E+02  0.15999813395E+03 -0.10070158808E+04  0.10210149061E+04  0.00000000000E+00 0. -1.
          1    1    5    5  503    0  0.13024341962E+02 -0.11780934238E+02 -0.79644454022E+01  0.19283575541E+02  0.00000000000E+00 0. -1.
         -2    1    5    5    0  503 -0.11069300662E+03 -0.23232391351E+03 -0.16368361309E+03  0.30499125840E+03  0.00000000000E+00 0.  1.
         -3    1    6    6    0  502 -0.11600561297E+03  0.21605139377E+03 -0.10244965600E+04  0.10534366182E+04  0.00000000000E+00 0.  1.
<mgrwt>
<rscale>  0 0.17468791E+04</rscale>
<asrwt>0</asrwt>
<pdfrwt beam="1">  1        1 0.37082149E+00 0.17468791E+04</pdfrwt>
<pdfrwt beam="2">  1       -1 0.48693849E-01 0.17468791E+04</pdfrwt>
<totfact> 0.62595369E+00</totfact>
</mgrwt>
</event>
<event>
12    1  0.2019083E-007  0.2811362E+04  0.7818608E-02  0.8299749E-01
         -1   -1    0    0    0  501 -0.00000000000E+00  0.00000000000E+00  0.11859201971E+04  0.11859201971E+04  0.00000000000E+00 0.  1.
          1   -1    0    0  501    0  0.00000000000E+00 -0.00000000000E+00 -0.16661656780E+04  0.16661656780E+04  0.00000000000E+00 0. -1.
         23    2    1    2    0    0  0.41997481784E+03 -0.10268304839E+04 -0.82150376841E+03  0.13834456254E+04  0.91069570705E+02 0.  0.
        254    2    1    2    0    0 -0.41997481784E+03  0.10268304839E+04  0.34125828742E+03  0.14686402497E+04  0.89982624655E+03 0.  0.
        -24    2    4    4    0    0 -0.60859674458E+03  0.33075524317E+03  0.22676010168E+03  0.73289504771E+03  0.76980379635E+02 0.  0.
         24    2    4    4    0    0  0.18862192673E+03  0.69607524072E+03  0.11449818575E+03  0.73574520197E+03  0.90067728402E+02 0.  0.
         11    1    3    3    0    0  0.11141105821E+03 -0.21338095056E+03 -0.21653298710E+03  0.32377521286E+03  0.00000000000E+00 0. -1.
        -11    1    3    3    0    0  0.30856375963E+03 -0.81344953333E+03 -0.60497078131E+03  0.10596704126E+04  0.00000000000E+00 0.  1.
          4    1    6    6  502    0  0.11757944464E+03  0.33335906918E+03  0.92980620467E+02  0.36551140966E+03  0.00000000000E+00 0. -1.
          1    1    5    5  503    0 -0.54540825720E+03  0.27279685323E+03  0.21357080513E+03  0.64614300194E+03  0.00000000000E+00 0. -1.
         -2    1    5    5    0  503 -0.63188487376E+02  0.57958389937E+02  0.13189296546E+02  0.86752045765E+02  0.00000000000E+00 0.  1.
         -3    1    6    6    0  502  0.71042482096E+02  0.36271617153E+03  0.21517565281E+02  0.37023379231E+03  0.00000000000E+00 0.  1.
<mgrwt>
<rscale>  0 0.28113623E+04</rscale>
<asrwt>0</asrwt>
<pdfrwt beam="1">  1        1 0.25633318E+00 0.28113623E+04</pdfrwt>
<pdfrwt beam="2">  1       -1 0.18244926E+00 0.28113623E+04</pdfrwt>
<totfact> 0.86894272E-01</totfact>
</mgrwt>
</event>
<event>
12    1  0.2019083E-007  0.3963752E+04  0.7818608E-02  0.8011899E-01
          2   -1    0    0  501    0  0.00000000000E+00  0.00000000000E+00  0.25998569767E+04  0.25998569767E+04  0.00000000000E+00 0. -1.
         -2   -1    0    0    0  501 -0.00000000000E+00 -0.00000000000E+00 -0.15107876848E+04  0.15107876848E+04  0.00000000000E+00 0.  1.
         23    2    1    2    0    0  0.13602409326E+04 -0.10210750786E+04  0.13533299980E+04  0.21753190798E+04  0.87528877875E+02 0.  0.
        254    2    1    2    0    0 -0.13602409326E+04  0.10210750786E+04 -0.26426070613E+03  0.19353255818E+04  0.88476080152E+03 0.  0.
        -24    2    4    4    0    0 -0.38040454948E+03  0.15329397725E+03  0.29306026055E+03  0.51045743481E+03  0.80472428307E+02 0.  0.
         24    2    4    4    0    0 -0.97983638313E+03  0.86778110134E+03 -0.55732096668E+03  0.14248681470E+04  0.80741555894E+02 0.  0.
         13    1    3    3    0    0  0.51715548726E+03 -0.39642119208E+03  0.46516731498E+03  0.80061238465E+03  0.00000000000E+00 0.  1.
        -13    1    3    3    0    0  0.84308544535E+03 -0.62465388651E+03  0.88816268303E+03  0.13747066951E+04  0.00000000000E+00 0. -1.
          4    1    6    6  502    0 -0.55117015171E+03  0.53976641866E+03 -0.33790038366E+03  0.84220721448E+03  0.00000000000E+00 0. -1.
          3    1    5    5  503    0 -0.86769278619E+02  0.39357033066E+02  0.29425387711E+02  0.99718289224E+02  0.00000000000E+00 0. -1.
         -4    1    5    5    0  503 -0.29363527086E+03  0.11393694418E+03  0.26363487284E+03  0.41073914559E+03  0.00000000000E+00 0.  1.
         -3    1    6    6    0  502 -0.42866623143E+03  0.32801468268E+03 -0.21942058302E+03  0.58266093251E+03  0.00000000000E+00 0.  1.
<mgrwt>
<rscale>  0 0.39637517E+04</rscale>
<asrwt>0</asrwt>
<pdfrwt beam="1">  1        2 0.39997799E+00 0.39637517E+04</pdfrwt>
<pdfrwt beam="2">  1       -2 0.23242888E+00 0.39637517E+04</pdfrwt>
<totfact> 0.19880946E-01</totfact>
</mgrwt>
</event>
<event>
12    1  0.2019083E-007  0.1826852E+04  0.7818608E-02  0.8692149E-01
          2   -1    0    0  501    0  0.00000000000E+00  0.00000000000E+00  0.33214031343E+04  0.33214031343E+04  0.00000000000E+00 0. -1.
         -2   -1    0    0    0  501 -0.00000000000E+00 -0.00000000000E+00 -0.25120309091E+03  0.25120309091E+03  0.00000000000E+00 0.  1.
         23    2    1    2    0    0  0.25785468778E+03 -0.54046226862E+03  0.18294252809E+04  0.19271465086E+04  0.92240464963E+02 0.  0.
        254    2    1    2    0    0 -0.25785468778E+03  0.54046226862E+03  0.12407747625E+04  0.16454597166E+04  0.89968170147E+03 0.  0.
        -24    2    4    4    0    0  0.12994547318E+03  0.17926556549E+03  0.10490727090E+04  0.10751773870E+04  0.80192865832E+02 0.  0.
         24    2    4    4    0    0 -0.38780016095E+03  0.36119670314E+03  0.19170205347E+03  0.57028232962E+03  0.87293957299E+02 0.  0.
         13    1    3    3    0    0  0.58865768335E+02 -0.19463123257E+03  0.71968464379E+03  0.74785859752E+03  0.00000000000E+00 0. -1.
        -13    1    3    3    0    0  0.19898891944E+03 -0.34583103605E+03  0.11097406371E+04  0.11792879111E+04  0.00000000000E+00 0.  1.
          4    1    6    6  502    0 -0.24330819589E+03  0.24989011922E+03  0.85044994341E+02  0.35899387311E+03  0.00000000000E+00 0. -1.
          3    1    5    5  503    0  0.13789136348E+03  0.15033542815E+03  0.95029113360E+03  0.97194033133E+03  0.00000000000E+00 0. -1.
         -4    1    5    5    0  503 -0.79458903014E+01  0.28930137340E+02  0.98781575428E+02  0.10323705567E+03  0.00000000000E+00 0.  1.
         -3    1    6    6    0  502 -0.14449196506E+03  0.11130658392E+03  0.10665705913E+03  0.21128845651E+03  0.00000000000E+00 0.  1.
<mgrwt>
<rscale>  0 0.18268516E+04</rscale>
<asrwt>0</asrwt>
<pdfrwt beam="1">  1        2 0.51098507E+00 0.18268516E+04</pdfrwt>
<pdfrwt beam="2">  1       -2 0.38646632E-01 0.18268516E+04</pdfrwt>
<totfact> 0.64617174E+00</totfact>
</mgrwt>
</event>
<event>
12    1  0.2019083E-007  0.2056858E+04  0.7818608E-02  0.8580489E-01
         -2   -1    0    0    0  501 -0.00000000000E+00  0.00000000000E+00  0.87390071531E+03  0.87390071531E+03  0.00000000000E+00 0.  1.
          2   -1    0    0  501    0  0.00000000000E+00 -0.00000000000E+00 -0.12102821270E+04  0.12102821270E+04  0.00000000000E+00 0. -1.
         23    2    1    2    0    0 -0.79461328054E+03  0.16123065975E+03 -0.31397344046E+03  0.87419466375E+03  0.90727049767E+02 0.  0.
        254    2    1    2    0    0  0.79461328054E+03 -0.16123065975E+03 -0.22407971276E+02  0.12099881786E+04  0.89786618376E+03 0.  0.
        -24    2    4    4    0    0  0.78771403972E+03 -0.34843983263E+03 -0.25322212676E+03  0.90213260627E+03  0.88419842080E+02 0.  0.
         24    2    4    4    0    0  0.68992408167E+01  0.18720917288E+03  0.23081415548E+03  0.30785557234E+03  0.80031275860E+02 0.  0.
         13    1    3    3    0    0 -0.79702500230E+03  0.15977895102E+03 -0.31388194100E+03  0.87137824185E+03  0.00000000000E+00 0. -1.
        -13    1    3    3    0    0  0.24117217688E+01  0.14517087353E+01 -0.91499464178E-01  0.28164218956E+01  0.00000000000E+00 0.  1.
          2    1    6    6  502    0 -0.97291102211E+01  0.11881519694E+03  0.86490884434E+02  0.14728333137E+03  0.00000000000E+00 0. -1.
          3    1    5    5  503    0  0.49079316137E+03 -0.24146069613E+03 -0.12248711733E+03  0.56052144378E+03  0.00000000000E+00 0. -1.
         -4    1    5    5    0  503  0.29692087835E+03 -0.10697913650E+03 -0.13073500943E+03  0.34161116249E+03  0.00000000000E+00 0.  1.
         -1    1    6    6    0  502  0.16628351038E+02  0.68393975935E+02  0.14432327105E+03  0.16057224097E+03  0.00000000000E+00 0.  1.
<mgrwt>
<rscale>  0 0.20568582E+04</rscale>
<asrwt>0</asrwt>
<pdfrwt beam="1">  1        2 0.18619725E+00 0.20568582E+04</pdfrwt>
<pdfrwt beam="2">  1       -2 0.13444626E+00 0.20568582E+04</pdfrwt>
<totfact> 0.68861903E+00</totfact>
</mgrwt>
</event>
<event>
12    1  0.2019083E-007  0.1498347E+04  0.7818608E-02  0.8885553E-01
         -1   -1    0    0    0  501 -0.00000000000E+00  0.00000000000E+00  0.95249917389E+03  0.95249917389E+03  0.00000000000E+00 0.  1.
          1   -1    0    0  501    0  0.00000000000E+00 -0.00000000000E+00 -0.58925101032E+03  0.58925101032E+03  0.00000000000E+00 0. -1.
         23    2    1    2    0    0  0.46752470805E+03  0.36957049726E+02  0.53709321097E+02  0.48092456132E+03  0.91970464515E+02 0.  0.
        254    2    1    2    0    0 -0.46752470805E+03 -0.36957049726E+02  0.30953884248E+03  0.10608256229E+04  0.89977304417E+03 0.  0.
        -24    2    4    4    0    0 -0.27914591505E+03 -0.41470615205E+03  0.36994842465E+03  0.62705712616E+03  0.80219499739E+02 0.  0.
         24    2    4    4    0    0 -0.18837879301E+03  0.37774910232E+03 -0.60409582169E+02  0.43376849672E+03  0.79528844898E+02 0.  0.
         11    1    3    3    0    0  0.19332505242E+03  0.30805221242E+01 -0.21620846895E+02  0.19455468776E+03  0.00000000000E+00 0. -1.
        -11    1    3    3    0    0  0.27419965563E+03  0.33876527602E+02  0.75330167992E+02  0.28636987356E+03  0.00000000000E+00 0.  1.
          4    1    6    6  502    0 -0.12523455390E+03  0.20021823449E+03 -0.87385877324E+00  0.23616053553E+03  0.00000000000E+00 0. -1.
          1    1    5    5  503    0 -0.26324103853E+03 -0.40962665854E+03  0.34390470659E+03  0.59612103718E+03  0.00000000000E+00 0. -1.
         -2    1    5    5    0  503 -0.15904876523E+02 -0.50794935067E+01  0.26043718054E+02  0.30936088983E+02  0.00000000000E+00 0.  1.
         -3    1    6    6    0  502 -0.63144239102E+02  0.17753086784E+03 -0.59535723396E+02  0.19760796120E+03  0.00000000000E+00 0.  1.
<mgrwt>
<rscale>  0 0.14983472E+04</rscale>
<asrwt>0</asrwt>
<pdfrwt beam="1">  1        1 0.90654001E-01 0.14983472E+04</pdfrwt>
<pdfrwt beam="2">  1       -1 0.14653834E+00 0.14983472E+04</pdfrwt>
<totfact> 0.12635946E+01</totfact>
</mgrwt>
</event>
<event>
12    1  0.2019083E-007  0.1419513E+04  0.7818608E-02  0.8939814E-01
          2   -1    0    0  501    0  0.00000000000E+00  0.00000000000E+00  0.10423390654E+04  0.10423390654E+04  0.00000000000E+00 0. -1.
         -2   -1    0    0    0  501 -0.00000000000E+00 -0.00000000000E+00 -0.48329233303E+03  0.48329233303E+03  0.00000000000E+00 0.  1.
         23    2    1    2    0    0 -0.19854626467E+03 -0.32384094197E+03 -0.18115622437E+02  0.39090435764E+03  0.90468039317E+02 0.  0.
        254    2    1    2    0    0  0.19854626467E+03  0.32384094197E+03  0.57716235478E+03  0.11347270408E+04  0.90010860363E+03 0.  0.
        -24    2    4    4    0    0  0.26503836957E+03  0.18681396954E+03  0.79157311001E+03  0.85977836942E+03  0.86522017228E+02 0.  0.
         24    2    4    4    0    0 -0.66492104898E+02  0.13702697242E+03 -0.21441075523E+03  0.27494867134E+03  0.80169874186E+02 0.  0.
         13    1    3    3    0    0 -0.16923543334E+03 -0.24313464625E+03  0.20108418665E+02  0.29691654822E+03  0.00000000000E+00 0. -1.
        -13    1    3    3    0    0 -0.29310831325E+02 -0.80706295723E+02 -0.38224041101E+02  0.93987809424E+02  0.00000000000E+00 0.  1.
          4    1    6    6  502    0 -0.70290838948E+02  0.97412071685E+02 -0.10873761524E+03  0.16203019076E+03  0.00000000000E+00 0. -1.
          3    1    5    5  503    0  0.22183881963E+03  0.18042135986E+03  0.62045003588E+03  0.68317097129E+03  0.00000000000E+00 0. -1.
         -4    1    5    5    0  503  0.43199549935E+02  0.63926096825E+01  0.17112307413E+03  0.17660739812E+03  0.00000000000E+00 0.  1.
         -3    1    6    6    0  502  0.37987340495E+01  0.39614900739E+02 -0.10567313998E+03  0.11291848057E+03  0.00000000000E+00 0.  1.
<mgrwt>
<rscale>  0 0.14195133E+04</rscale>
<asrwt>0</asrwt>
<pdfrwt beam="1">  1        2 0.16035986E+00 0.14195133E+04</pdfrwt>
<pdfrwt beam="2">  1       -2 0.74352667E-01 0.14195133E+04</pdfrwt>
<totfact> 0.37457481E+01</totfact>
</mgrwt>
</event>
<event>
12    1  0.2019083E-007  0.4002536E+04  0.7818608E-02  0.8004035E-01
         -2   -1    0    0    0  501 -0.00000000000E+00  0.00000000000E+00  0.21016614681E+04  0.21016614681E+04  0.00000000000E+00 0.  1.
          2   -1    0    0  501    0  0.00000000000E+00 -0.00000000000E+00 -0.19056699600E+04  0.19056699600E+04  0.00000000000E+00 0. -1.
         23    2    1    2    0    0  0.71469067218E+03  0.17529960327E+04  0.23907206680E+03  0.19102807853E+04  0.90771019074E+02 0.  0.
        254    2    1    2    0    0 -0.71469067218E+03 -0.17529960327E+04 -0.43080558661E+02  0.20970506428E+04  0.90110355478E+03 0.  0.
        -24    2    4    4    0    0 -0.59798694000E+02 -0.11626333073E+04  0.18737371317E+03  0.11819566544E+04  0.81366660140E+02 0.  0.
         24    2    4    4    0    0 -0.65489197818E+03 -0.59036272537E+03 -0.23045427183E+03  0.91509398841E+03  0.82922769097E+02 0.  0.
         11    1    3    3    0    0  0.34298849199E+03  0.93959525035E+03  0.10001168149E+03  0.10052276740E+04  0.00000000000E+00 0. -1.
        -11    1    3    3    0    0  0.37170218019E+03  0.81340078233E+03  0.13906038531E+03  0.90505311127E+03  0.00000000000E+00 0.  1.
          2    1    6    6  502    0 -0.23566280550E+03 -0.25589626506E+03 -0.11604111055E+03  0.36672250505E+03  0.00000000000E+00 0. -1.
          3    1    5    5  503    0 -0.40127976742E+02 -0.64266042890E+03  0.14392656877E+03  0.65980113564E+03  0.00000000000E+00 0. -1.
         -4    1    5    5    0  503 -0.19670717259E+02 -0.51997287841E+03  0.43447144403E+02  0.52215551875E+03  0.00000000000E+00 0.  1.
         -1    1    6    6    0  502 -0.41922917268E+03 -0.33446646030E+03 -0.11441316128E+03  0.54837148336E+03  0.00000000000E+00 0.  1.
<mgrwt>
<rscale>  0 0.40025358E+04</rscale>
<asrwt>0</asrwt>
<pdfrwt beam="1">  1        2 0.29318000E+00 0.40025358E+04</pdfrwt>
<pdfrwt beam="2">  1       -2 0.32333253E+00 0.40025358E+04</pdfrwt>
<totfact> 0.13575548E-01</totfact>
</mgrwt>
</event>
<event>
12    1  0.2019083E-007  0.1990538E+04  0.7818608E-02  0.8611057E-01
         -1   -1    0    0    0  501 -0.00000000000E+00  0.00000000000E+00  0.60104386695E+03  0.60104386695E+03  0.00000000000E+00 0.  1.
          1   -1    0    0  501    0  0.00000000000E+00 -0.00000000000E+00 -0.16480663922E+04  0.16480663922E+04  0.00000000000E+00 0. -1.
         23    2    1    2    0    0  0.37825213308E+03  0.48242118477E+03  0.13866181114E+03  0.63861625983E+03  0.11313157721E+03 0.  0.
        254    2    1    2    0    0 -0.37825213308E+03 -0.48242118477E+03 -0.11856843364E+04  0.16104939993E+04  0.90113189966E+03 0.  0.
        -24    2    4    4    0    0 -0.35069527978E+03  0.71863922870E+02 -0.91990393387E+03  0.98992196294E+03  0.74636736764E+02 0.  0.
         24    2    4    4    0    0 -0.27556853298E+02 -0.55428510764E+03 -0.26578040251E+03  0.62057203638E+03  0.80492665882E+02 0.  0.
         13    1    3    3    0    0  0.15261004871E+03  0.26178349003E+03  0.10738024535E+03  0.32148240965E+03  0.00000000000E+00 0.  1.
        -13    1    3    3    0    0  0.22564208437E+03  0.22063769474E+03  0.31281565790E+02  0.31713385019E+03  0.00000000000E+00 0. -1.
          4    1    6    6  502    0  0.88391085427E+01 -0.38384712852E+03 -0.15495349807E+03  0.41403784184E+03  0.00000000000E+00 0. -1.
          1    1    5    5  503    0 -0.95413132439E+02  0.29956987930E+02 -0.35084181834E+03  0.36481648601E+03  0.00000000000E+00 0. -1.
         -2    1    5    5    0  503 -0.25528214734E+03  0.41906934940E+02 -0.56906211553E+03  0.62510547692E+03  0.00000000000E+00 0.  1.
         -3    1    6    6    0  502 -0.36395961841E+02 -0.17043797912E+03 -0.11082690445E+03  0.20653419454E+03  0.00000000000E+00 0.  1.
<mgrwt>
<rscale>  0 0.19905378E+04</rscale>
<asrwt>0</asrwt>
<pdfrwt beam="1">  1        1 0.25354868E+00 0.19905378E+04</pdfrwt>
<pdfrwt beam="2">  1       -1 0.92468287E-01 0.19905378E+04</pdfrwt>
<totfact> 0.54616859E+00</totfact>
</mgrwt>
</event>
<event>
12    1  0.2019083E-007  0.2673454E+04  0.7818608E-02  0.8343670E-01
         -2   -1    0    0    0  501 -0.00000000000E+00  0.00000000000E+00  0.93936502237E+03  0.93936502237E+03  0.00000000000E+00 0.  1.
          2   -1    0    0  501    0  0.00000000000E+00 -0.00000000000E+00 -0.19021776720E+04  0.19021776720E+04  0.00000000000E+00 0. -1.
         23    2    1    2    0    0  0.53944715300E+03  0.75343098784E+03 -0.12101420405E+04  0.15267874322E+04  0.89300731424E+02 0.  0.
        254    2    1    2    0    0 -0.53944715300E+03 -0.75343098784E+03  0.24732939085E+03  0.13147552622E+04  0.89930422411E+03 0.  0.
        -24    2    4    4    0    0 -0.55230574851E+03 -0.93543905262E+03  0.23482158643E+03  0.11143419150E+04  0.80801392080E+02 0.  0.
         24    2    4    4    0    0  0.12858595511E+02  0.18200806478E+03  0.12507804423E+02  0.20041334721E+03  0.81955997005E+02 0.  0.
         13    1    3    3    0    0  0.17903459781E+03  0.22461427105E+03 -0.31347700480E+03  0.42517383564E+03  0.00000000000E+00 0.  1.
        -13    1    3    3    0    0  0.36041255519E+03  0.52881671679E+03 -0.89666503567E+03  0.11016135965E+04  0.00000000000E+00 0. -1.
          4    1    6    6  502    0 -0.31474322953E+02  0.38198854744E+02  0.13710154889E+01  0.49514292811E+02  0.00000000000E+00 0. -1.
          1    1    5    5  503    0 -0.11368935437E+03 -0.25880589070E+03  0.72119000580E+02  0.29173088387E+03  0.00000000000E+00 0. -1.
         -2    1    5    5    0  503 -0.43861639414E+03 -0.67663316192E+03  0.16270258585E+03  0.82261103109E+03  0.00000000000E+00 0.  1.
         -3    1    6    6    0  502  0.44332918464E+02  0.14380921004E+03  0.11136788934E+02  0.15089905440E+03  0.00000000000E+00 0.  1.
<mgrwt>
<rscale>  0 0.26734541E+04</rscale>
<asrwt>0</asrwt>
<pdfrwt beam="1">  1        2 0.29264272E+00 0.26734541E+04</pdfrwt>
<pdfrwt beam="2">  1       -2 0.14451770E+00 0.26734541E+04</pdfrwt>
<totfact> 0.22009645E+00</totfact>
</mgrwt>
</event>
<event>
12    1  0.2019083E-007  0.1485634E+04  0.7818608E-02  0.8894063E-01
         -2   -1    0    0    0  501 -0.00000000000E+00  0.00000000000E+00  0.28930542633E+03  0.28930542633E+03  0.00000000000E+00 0.  1.
          2   -1    0    0  501    0  0.00000000000E+00 -0.00000000000E+00 -0.19072474722E+04  0.19072474722E+04  0.00000000000E+00 0. -1.
         23    2    1    2    0    0  0.37850389512E+03  0.25184384531E+03 -0.65250690939E+03  0.80048386961E+03  0.91206565913E+02 0.  0.
        254    2    1    2    0    0 -0.37850389512E+03 -0.25184384531E+03 -0.96543513648E+03  0.13960690289E+04  0.90014066108E+03 0.  0.
        -24    2    4    4    0    0 -0.48886053099E+03  0.14279666467E+03 -0.26289334679E+03  0.57870355981E+03  0.80058679464E+02 0.  0.
         24    2    4    4    0    0  0.11035663587E+03 -0.39464050997E+03 -0.70254178969E+03  0.81736546911E+03  0.81250382368E+02 0.  0.
         13    1    3    3    0    0  0.27827808665E+03  0.20041176141E+03 -0.55011690389E+03  0.64825317243E+03  0.00000000000E+00 0. -1.
        -13    1    3    3    0    0  0.10022580847E+03  0.51432083898E+02 -0.10239000550E+03  0.15223069718E+03  0.00000000000E+00 0.  1.
          4    1    6    6  502    0  0.84274583010E+02 -0.15835770643E+03 -0.32492495818E+03  0.37115441123E+03  0.00000000000E+00 0. -1.
          3    1    5    5  503    0 -0.46214364938E+03  0.13176390544E+03 -0.22388711423E+03  0.53015461835E+03  0.00000000000E+00 0. -1.
         -4    1    5    5    0  503 -0.26716881612E+02  0.11032759225E+02 -0.39006232559E+02  0.48548941468E+02  0.00000000000E+00 0.  1.
         -3    1    6    6    0  502  0.26082052861E+02 -0.23628280354E+03 -0.37761683151E+03  0.44621105788E+03  0.00000000000E+00 0.  1.
<mgrwt>
<rscale>  0 0.14856339E+04</rscale>
<asrwt>0</asrwt>
<pdfrwt beam="1">  1        2 0.29342268E+00 0.14856339E+04</pdfrwt>
<pdfrwt beam="2">  1       -2 0.44508528E-01 0.14856339E+04</pdfrwt>
<totfact> 0.34842042E+01</totfact>
</mgrwt>
</event>
<event>
12    1  0.2019083E-007  0.1109672E+04  0.7818608E-02  0.9195816E-01
          2   -1    0    0  501    0  0.00000000000E+00  0.00000000000E+00  0.93878598320E+03  0.93878598320E+03  0.00000000000E+00 0. -1.
         -2   -1    0    0    0  501 -0.00000000000E+00 -0.00000000000E+00 -0.32791593723E+03  0.32791593723E+03  0.00000000000E+00 0.  1.
         23    2    1    2    0    0 -0.11298924403E+03 -0.10061517977E+03  0.19156545858E+03  0.26094442346E+03  0.92220841163E+02 0.  0.
        254    2    1    2    0    0  0.11298924403E+03  0.10061517977E+03  0.41930458738E+03  0.10057574970E+04  0.90157740769E+03 0.  0.
        -24    2    4    4    0    0 -0.27505967195E+03 -0.25229264243E+03  0.20843816326E+03  0.43474946038E+03  0.79064687672E+02 0.  0.
         24    2    4    4    0    0  0.38804891598E+03  0.35290782221E+03  0.21086642413E+03  0.57100803660E+03  0.80371866121E+02 0.  0.
         11    1    3    3    0    0  0.15659033682E+02 -0.53803468425E+01  0.12346800446E+02  0.20654223521E+02  0.00000000000E+00 0.  1.
        -11    1    3    3    0    0 -0.12864827771E+03 -0.95234832929E+02  0.17921865814E+03  0.24029019994E+03  0.00000000000E+00 0. -1.
          4    1    6    6  502    0  0.98150143830E+01  0.28863973802E+02  0.24890883318E+02  0.39357585842E+02  0.00000000000E+00 0. -1.
          1    1    5    5  503    0 -0.17560251690E+03 -0.19897576238E+03  0.11939606966E+03  0.29100346974E+03  0.00000000000E+00 0. -1.
         -2    1    5    5    0  503 -0.99457155055E+02 -0.53316880058E+02  0.89042093599E+02  0.14374599063E+03  0.00000000000E+00 0.  1.
         -3    1    6    6    0  502  0.37823390160E+03  0.32404384840E+03  0.18597554081E+03  0.53165045075E+03  0.00000000000E+00 0.  1.
<mgrwt>
<rscale>  0 0.11096718E+04</rscale>
<asrwt>0</asrwt>
<pdfrwt beam="1">  1        2 0.14442861E+00 0.11096718E+04</pdfrwt>
<pdfrwt beam="2">  1       -2 0.50448606E-01 0.11096718E+04</pdfrwt>
<totfact> 0.10181649E+02</totfact>
</mgrwt>
</event>
<event>
12    1  0.2019083E-007  0.2721286E+04  0.7818608E-02  0.8328131E-01
          1   -1    0    0  501    0  0.00000000000E+00  0.00000000000E+00  0.11707775078E+04  0.11707775078E+04  0.00000000000E+00 0. -1.
         -1   -1    0    0    0  501 -0.00000000000E+00 -0.00000000000E+00 -0.15812989361E+04  0.15812989361E+04  0.00000000000E+00 0.  1.
         23    2    1    2    0    0 -0.12038683266E+03  0.11534540949E+04 -0.52786182981E+03  0.12774469338E+04  0.91012189722E+02 0.  0.
        254    2    1    2    0    0  0.12038683266E+03 -0.11534540949E+04  0.11734040150E+03  0.14746295102E+04  0.90322427109E+03 0.  0.
        -24    2    4    4    0    0 -0.36575467475E+03 -0.32416922540E+03  0.12518489900E+03  0.51067053557E+03  0.79063064481E+02 0.  0.
         24    2    4    4    0    0  0.48614150741E+03 -0.82928486954E+03 -0.78444974990E+01  0.96395897461E+03  0.71473131519E+02 0.  0.
         11    1    3    3    0    0 -0.55378485765E+02  0.61143822181E+03 -0.23029477511E+03  0.65571271088E+03  0.00000000000E+00 0.  1.
        -11    1    3    3    0    0 -0.65008346896E+02  0.54201587313E+03 -0.29756705470E+03  0.62173422290E+03  0.00000000000E+00 0. -1.
          2    1    6    6  502    0  0.46891987902E+03 -0.76895434034E+03  0.59397804674E+00  0.90065364224E+03  0.00000000000E+00 0. -1.
          3    1    5    5  503    0 -0.33966512297E+03 -0.29874215255E+03  0.92462988618E+02  0.46170193170E+03  0.00000000000E+00 0. -1.
         -4    1    5    5    0  503 -0.26089551778E+02 -0.25427072849E+02  0.32721910384E+02  0.48968603868E+02  0.00000000000E+00 0.  1.
         -1    1    6    6    0  502  0.17221628385E+02 -0.60330529192E+02 -0.84384755457E+01  0.63305332369E+02  0.00000000000E+00 0.  1.
<mgrwt>
<rscale>  0 0.27212859E+04</rscale>
<asrwt>0</asrwt>
<pdfrwt beam="1">  1        1 0.18011962E+00 0.27212859E+04</pdfrwt>
<pdfrwt beam="2">  1       -1 0.24327676E+00 0.27212859E+04</pdfrwt>
<totfact> 0.75498308E-01</totfact>
</mgrwt>
</event>
<event>
12    1  0.2019083E-007  0.2828012E+04  0.7818608E-02  0.8294624E-01
          1   -1    0    0  501    0  0.00000000000E+00  0.00000000000E+00  0.13851035216E+04  0.13851035216E+04  0.00000000000E+00 0. -1.
         -1   -1    0    0    0  501 -0.00000000000E+00 -0.00000000000E+00 -0.14435118122E+04  0.14435118122E+04  0.00000000000E+00 0.  1.
         23    2    1    2    0    0  0.49535917842E+03 -0.11585150907E+04 -0.10852098305E+03  0.12676441958E+04  0.87218532245E+02 0.  0.
        254    2    1    2    0    0 -0.49535917842E+03  0.11585150907E+04  0.50112692478E+02  0.15609711380E+04  0.92009873423E+03 0.  0.
        -24    2    4    4    0    0 -0.64229568033E+03  0.11709855015E+04  0.17939706800E+03  0.13498707002E+04  0.78846771839E+02 0.  0.
         24    2    4    4    0    0  0.14693650191E+03 -0.12470410787E+02 -0.12928437552E+03  0.21110043787E+03  0.78122329563E+02 0.  0.
         11    1    3    3    0    0  0.23948797730E+03 -0.51329840653E+03 -0.93502947646E+01  0.56649551934E+03  0.00000000000E+00 0. -1.
        -11    1    3    3    0    0  0.25587120112E+03 -0.64521668420E+03 -0.99170688287E+02  0.70114867650E+03  0.00000000000E+00 0.  1.
          4    1    6    6  502    0  0.14198020853E+02 -0.20223607856E+02 -0.51332655659E+02  0.56970340072E+02  0.00000000000E+00 0. -1.
          1    1    5    5  503    0 -0.21642065724E+02  0.54138371315E+02  0.22761697171E+02  0.62589432938E+02  0.00000000000E+00 0. -1.
         -2    1    5    5    0  503 -0.62065361460E+03  0.11168471302E+04  0.15663537083E+03  0.12872812672E+04  0.00000000000E+00 0.  1.
         -1    1    6    6    0  502  0.13273848105E+03  0.77531970692E+01 -0.77951719860E+02  0.15413009779E+03  0.00000000000E+00 0.  1.
<mgrwt>
<rscale>  0 0.28280122E+04</rscale>
<asrwt>0</asrwt>
<pdfrwt beam="1">  1        1 0.21309285E+00 0.28280122E+04</pdfrwt>
<pdfrwt beam="2">  1       -1 0.22207874E+00 0.28280122E+04</pdfrwt>
<totfact> 0.72449137E-01</totfact>
</mgrwt>
</event>
<event>
12    1  0.2019083E-007  0.1336159E+04  0.7818608E-02  0.9001372E-01
         -2   -1    0    0    0  501 -0.00000000000E+00  0.00000000000E+00  0.19349520611E+03  0.19349520611E+03  0.00000000000E+00 0.  1.
          2   -1    0    0  501    0  0.00000000000E+00 -0.00000000000E+00 -0.23066721731E+04  0.23066721731E+04  0.00000000000E+00 0. -1.
         23    2    1    2    0    0  0.30632412318E+03  0.17885561216E+03 -0.62629434908E+03  0.72598146960E+03  0.94766471176E+02 0.  0.
        254    2    1    2    0    0 -0.30632412318E+03 -0.17885561216E+03 -0.14868826179E+04  0.17741859096E+04  0.90060642011E+03 0.  0.
        -24    2    4    4    0    0 -0.36226180836E+03 -0.29298158911E+03 -0.26137521255E+03  0.53949595644E+03  0.75279850713E+02 0.  0.
         24    2    4    4    0    0  0.55937685180E+02  0.11412597695E+03 -0.12255074053E+04  0.12346899531E+04  0.80231643500E+02 0.  0.
         11    1    3    3    0    0  0.13224118709E+03  0.79629947550E+02 -0.36809240819E+03  0.39914994811E+03  0.00000000000E+00 0. -1.
        -11    1    3    3    0    0  0.17408293609E+03  0.99225664613E+02 -0.25820194089E+03  0.32683152149E+03  0.00000000000E+00 0.  1.
          2    1    6    6  502    0  0.37684908805E+02  0.11917743220E+03 -0.90078942116E+03  0.90942014161E+03  0.00000000000E+00 0. -1.
          3    1    5    5  503    0 -0.25621142444E+03 -0.19821808712E+03 -0.21928107809E+03  0.39117629694E+03  0.00000000000E+00 0. -1.
         -4    1    5    5    0  503 -0.10605038393E+03 -0.94763501991E+02 -0.42094134459E+02  0.14831965951E+03  0.00000000000E+00 0.  1.
         -1    1    6    6    0  502  0.18252776375E+02 -0.50514552441E+01 -0.32471798416E+03  0.32526981152E+03  0.00000000000E+00 0.  1.
<mgrwt>
<rscale>  0 0.13361587E+04</rscale>
<asrwt>0</asrwt>
<pdfrwt beam="1">  1        2 0.35487262E+00 0.13361587E+04</pdfrwt>
<pdfrwt beam="2">  1       -2 0.29768495E-01 0.13361587E+04</pdfrwt>
<totfact> 0.45837226E+01</totfact>
</mgrwt>
</event>
<event>
12    1  0.2019083E-007  0.2574512E+04  0.7818608E-02  0.8376911E-01
          2   -1    0    0  501    0  0.00000000000E+00  0.00000000000E+00  0.26237364258E+04  0.26237364258E+04  0.00000000000E+00 0. -1.
         -2   -1    0    0    0  501 -0.00000000000E+00 -0.00000000000E+00 -0.63155283381E+03  0.63155283381E+03  0.00000000000E+00 0.  1.
         23    2    1    2    0    0  0.12280738481E+03  0.85384076984E+03  0.17952521978E+04  0.19937677711E+04  0.89742728750E+02 0.  0.
        254    2    1    2    0    0 -0.12280738481E+03 -0.85384076984E+03  0.19693139426E+03  0.12615214886E+04  0.89918228302E+03 0.  0.
        -24    2    4    4    0    0  0.32737143625E+03 -0.20683964702E+03 -0.11244608957E+03  0.41104176148E+03  0.79727722727E+02 0.  0.
         24    2    4    4    0    0 -0.45017882106E+03 -0.64700112282E+03  0.30937748383E+03  0.85047972710E+03  0.79560761993E+02 0.  0.
         13    1    3    3    0    0  0.14123982891E+02  0.41232064147E+03  0.86083028253E+03  0.95458712206E+03  0.00000000000E+00 0. -1.
        -13    1    3    3    0    0  0.10868340192E+03  0.44152012837E+03  0.93442191523E+03  0.10391806490E+04  0.00000000000E+00 0.  1.
          2    1    6    6  502    0 -0.40314078136E+03 -0.53633784906E+03  0.27753382734E+03  0.72608939067E+03  0.00000000000E+00 0. -1.
          1    1    5    5  503    0  0.31034171218E+03 -0.16880968067E+03 -0.10625361788E+03  0.36891532622E+03  0.00000000000E+00 0. -1.
         -2    1    5    5    0  503  0.17029724068E+02 -0.38029966346E+02 -0.61924716927E+01  0.42126435260E+02  0.00000000000E+00 0.  1.
         -1    1    6    6    0  502 -0.47038039693E+02 -0.11066327376E+03  0.31843656498E+02  0.12439033643E+03  0.00000000000E+00 0.  1.
<mgrwt>
<rscale>  0 0.25745121E+04</rscale>
<asrwt>0</asrwt>
<pdfrwt beam="1">  1        2 0.40365175E+00 0.25745121E+04</pdfrwt>
<pdfrwt beam="2">  1       -2 0.97161976E-01 0.25745121E+04</pdfrwt>
<totfact> 0.23089307E+00</totfact>
</mgrwt>
</event>
<event>
12    1  0.2019083E-007  0.3100321E+04  0.7818608E-02  0.8215650E-01
          1   -1    0    0  501    0  0.00000000000E+00  0.00000000000E+00  0.27592514224E+04  0.27592514224E+04  0.00000000000E+00 0.  1.
         -1   -1    0    0    0  501 -0.00000000000E+00 -0.00000000000E+00 -0.87088725221E+03  0.87088725221E+03  0.00000000000E+00 0. -1.
         23    2    1    2    0    0 -0.62275757645E+03  0.12335593622E+04  0.12374464658E+04  0.18572140064E+04  0.92056563747E+02 0.  0.
        254    2    1    2    0    0  0.62275757645E+03 -0.12335593622E+04  0.65091770440E+03  0.17729246682E+04  0.90004017804E+03 0.  0.
        -24    2    4    4    0    0 -0.69312047746E+02 -0.49734500971E+03 -0.91299521820E+02  0.51673358653E+03  0.80757526705E+02 0.  0.
         24    2    4    4    0    0  0.69206962419E+03 -0.73621435248E+03  0.74221722622E+03  0.12561910817E+04  0.78470919491E+02 0.  0.
         13    1    3    3    0    0 -0.21369102644E+03  0.48313636934E+03  0.42526158106E+03  0.67818287983E+03  0.00000000000E+00 0.  1.
        -13    1    3    3    0    0 -0.40906655000E+03  0.75042299285E+03  0.81218488473E+03  0.11790311266E+04  0.00000000000E+00 0. -1.
          4    1    6    6  502    0  0.15412562855E+03 -0.12896479640E+03  0.12297339668E+03  0.23560365951E+03  0.00000000000E+00 0. -1.
          3    1    5    5  503    0 -0.42380943320E+02 -0.33682803207E+03 -0.23120900912E+02  0.34027025083E+03  0.00000000000E+00 0. -1.
         -4    1    5    5    0  503 -0.26931104426E+02 -0.16051697764E+03 -0.68178620908E+02  0.17646333570E+03  0.00000000000E+00 0.  1.
         -3    1    6    6    0  502  0.53794399565E+03 -0.60724955608E+03  0.61924382953E+03  0.10205874221E+04  0.00000000000E+00 0.  1.
<mgrwt>
<rscale>  0 0.31003206E+04</rscale>
<asrwt>0</asrwt>
<pdfrwt beam="1">  1        1 0.42450021E+00 0.31003206E+04</pdfrwt>
<pdfrwt beam="2">  1       -1 0.13398266E+00 0.31003206E+04</pdfrwt>
<totfact> 0.35288047E-01</totfact>
</mgrwt>
</event>
<event>
12    1  0.2019083E-007  0.1321234E+04  0.7818608E-02  0.9012894E-01
          1   -1    0    0  501    0  0.00000000000E+00  0.00000000000E+00  0.98251623503E+03  0.98251623503E+03  0.00000000000E+00 0. -1.
         -1   -1    0    0    0  501 -0.00000000000E+00 -0.00000000000E+00 -0.44418072657E+03  0.44418072657E+03  0.00000000000E+00 0.  1.
         23    2    1    2    0    0 -0.12780596575E+03  0.31901150254E+03  0.12216607007E+03  0.37566162808E+03  0.89968919652E+02 0.  0.
        254    2    1    2    0    0  0.12780596575E+03 -0.31901150254E+03  0.41616943839E+03  0.10510353335E+04  0.90187336541E+03 0.  0.
        -24    2    4    4    0    0 -0.14738235870E+02  0.96049320980E+02 -0.23227078945E+03  0.26397202870E+03  0.79302109951E+02 0.  0.
         24    2    4    4    0    0  0.14254420162E+03 -0.41506082352E+03  0.64844022784E+03  0.78706330483E+03  0.79997375487E+02 0.  0.
         11    1    3    3    0    0 -0.44839802371E+02  0.18688536347E+03  0.10418963055E+03  0.21861433180E+03  0.00000000000E+00 0. -1.
        -11    1    3    3    0    0 -0.82966163376E+02  0.13212613907E+03  0.17976439526E+02  0.15704729628E+03  0.00000000000E+00 0.  1.
          2    1    6    6  502    0  0.70422851977E+01 -0.13244158919E+03  0.18832180939E+03  0.23033773512E+03  0.00000000000E+00 0. -1.
          3    1    5    5  503    0 -0.30644492402E+02  0.84096219284E+01 -0.33594244740E+02  0.46242620332E+02  0.00000000000E+00 0. -1.
         -4    1    5    5    0  503  0.15906256532E+02  0.87639699052E+02 -0.19867654471E+03  0.21772940836E+03  0.00000000000E+00 0.  1.
         -1    1    6    6    0  502  0.13550191642E+03 -0.28261923432E+03  0.46011841846E+03  0.55672556971E+03  0.00000000000E+00 0.  1.
<mgrwt>
<rscale>  0 0.13212339E+04</rscale>
<asrwt>0</asrwt>
<pdfrwt beam="1">  1        1 0.15115634E+00 0.13212339E+04</pdfrwt>
<pdfrwt beam="2">  1       -1 0.68335497E-01 0.13212339E+04</pdfrwt>
<totfact> 0.33213598E+01</totfact>
</mgrwt>
</event>
<event>
12    1  0.2019083E-007  0.1262175E+04  0.7818608E-02  0.9060111E-01
          1   -1    0    0  501    0  0.00000000000E+00  0.00000000000E+00  0.72065730604E+03  0.72065730604E+03  0.00000000000E+00 0. -1.
         -1   -1    0    0    0  501 -0.00000000000E+00 -0.00000000000E+00 -0.55265008291E+03  0.55265008291E+03  0.00000000000E+00 0.  1.
         23    2    1    2    0    0 -0.12395613318E+03  0.21962734237E+03 -0.12082994678E+03  0.29467976640E+03  0.92924680341E+02 0.  0.
        254    2    1    2    0    0  0.12395613318E+03 -0.21962734237E+03  0.28883716991E+03  0.97862762254E+03  0.90037982008E+03 0.  0.
        -24    2    4    4    0    0 -0.72409824246E+02 -0.50636961952E+03  0.33840214439E+03  0.61860341798E+03  0.80627558498E+02 0.  0.
         24    2    4    4    0    0  0.19636595742E+03  0.28674227715E+03 -0.49564974477E+02  0.36002420456E+03  0.79875017609E+02 0.  0.
         13    1    3    3    0    0 -0.76119439321E+02  0.70228809125E+02 -0.84480221983E+02  0.13365314280E+03  0.00000000000E+00 0.  1.
        -13    1    3    3    0    0 -0.47836693856E+02  0.14939853325E+03 -0.36349724801E+02  0.16102662360E+03  0.00000000000E+00 0. -1.
          2    1    6    6  502    0  0.16179758545E+03  0.18688827982E+03 -0.58357474724E+02  0.25399071370E+03  0.00000000000E+00 0. -1.
          1    1    5    5  503    0 -0.63858484122E+01 -0.30321843066E+03  0.18010619094E+03  0.35273281074E+03  0.00000000000E+00 0. -1.
         -2    1    5    5    0  503 -0.66023975834E+02 -0.20315118886E+03  0.15829595345E+03  0.26587060724E+03  0.00000000000E+00 0.  1.
         -1    1    6    6    0  502  0.34568371971E+02  0.99853997327E+02  0.87925002472E+01  0.10603349086E+03  0.00000000000E+00 0.  1.
<mgrwt>
<rscale>  0 0.12621748E+04</rscale>
<asrwt>0</asrwt>
<pdfrwt beam="1">  1        1 0.11087036E+00 0.12621748E+04</pdfrwt>
<pdfrwt beam="2">  1       -1 0.85023089E-01 0.12621748E+04</pdfrwt>
<totfact> 0.35145911E+01</totfact>
</mgrwt>
</event>
<event>
12    1  0.2019083E-007  0.3020984E+04  0.7818608E-02  0.8237764E-01
          1   -1    0    0  501    0  0.00000000000E+00  0.00000000000E+00  0.26592377087E+04  0.26592377087E+04  0.00000000000E+00 0. -1.
         -1   -1    0    0    0  501 -0.00000000000E+00 -0.00000000000E+00 -0.85798497358E+03  0.85798497358E+03  0.00000000000E+00 0.  1.
         23    2    1    2    0    0 -0.58389591732E+03  0.58862767431E+03  0.20967521564E+04  0.22566876584E+04  0.94088261898E+02 0.  0.
        254    2    1    2    0    0  0.58389591732E+03 -0.58862767431E+03 -0.29549942135E+03  0.12605350238E+04  0.90233677581E+03 0.  0.
        -24    2    4    4    0    0 -0.10566170735E+03  0.15473316263E+03 -0.10433868956E+02  0.20425302390E+03  0.80645422266E+02 0.  0.
         24    2    4    4    0    0  0.68955762466E+03 -0.74336083694E+03 -0.28506555239E+03  0.10562819999E+04  0.79964007677E+02 0.  0.
         11    1    3    3    0    0 -0.48975272467E+03  0.53779450229E+03  0.18188857527E+04  0.19589349248E+04  0.00000000000E+00 0. -1.
        -11    1    3    3    0    0 -0.94143192644E+02  0.50833172026E+02  0.27786640370E+03  0.29775273366E+03  0.00000000000E+00 0.  1.
          4    1    6    6  502    0  0.34602139046E+03 -0.33947924380E+03 -0.10212119053E+03  0.49538439336E+03  0.00000000000E+00 0. -1.
          3    1    5    5  503    0 -0.94711192250E+02  0.68189919463E+02 -0.37786678997E+01  0.11676623392E+03  0.00000000000E+00 0. -1.
         -4    1    5    5    0  503 -0.10950515099E+02  0.86543243165E+02 -0.66552010558E+01  0.87486789972E+02  0.00000000000E+00 0.  1.
         -3    1    6    6    0  502  0.34353623420E+03 -0.40388159315E+03 -0.18294436186E+03  0.56089760654E+03  0.00000000000E+00 0.  1.
<mgrwt>
<rscale>  0 0.30209839E+04</rscale>
<asrwt>0</asrwt>
<pdfrwt beam="1">  1        1 0.40911349E+00 0.30209839E+04</pdfrwt>
<pdfrwt beam="2">  1       -1 0.13199769E+00 0.30209839E+04</pdfrwt>
<totfact> 0.43436784E-01</totfact>
</mgrwt>
</event>
<event>
12    1  0.2019083E-007  0.2961888E+04  0.7818608E-02  0.8254699E-01
         -1   -1    0    0    0  501 -0.00000000000E+00  0.00000000000E+00  0.81546697543E+03  0.81546697543E+03  0.00000000000E+00 0.  1.
          1   -1    0    0  501    0  0.00000000000E+00 -0.00000000000E+00 -0.26894951099E+04  0.26894951099E+04  0.00000000000E+00 0. -1.
         23    2    1    2    0    0 -0.73192206370E+03 -0.73167050856E+03  0.16058978898E+03  0.10513919632E+04  0.92651710586E+02 0.  0.
        254    2    1    2    0    0  0.73192206370E+03  0.73167050856E+03 -0.20346179235E+04  0.24535701222E+04  0.89960247305E+03 0.  0.
        -24    2    4    4    0    0  0.57377401642E+03  0.47663954058E+03 -0.53325033384E+03  0.92028974304E+03  0.78583834499E+02 0.  0.
         24    2    4    4    0    0  0.15814804728E+03  0.25503096798E+03 -0.15013675896E+04  0.15332803791E+04  0.82416517636E+02 0.  0.
         13    1    3    3    0    0 -0.41739100215E+03 -0.45148945728E+03  0.13420820999E+03  0.62934078395E+03  0.00000000000E+00 0.  1.
        -13    1    3    3    0    0 -0.31453106155E+03 -0.28018105128E+03  0.26381578990E+02  0.42205117923E+03  0.00000000000E+00 0. -1.
          2    1    6    6  502    0  0.81427433534E+02  0.92135896180E+02 -0.78821422465E+03  0.79774752538E+03  0.00000000000E+00 0. -1.
          1    1    5    5  503    0  0.29080684382E+03  0.28622089875E+03 -0.31342200738E+03  0.51451372966E+03  0.00000000000E+00 0. -1.
         -2    1    5    5    0  503  0.28296717260E+03  0.19041864182E+03 -0.21982832646E+03  0.40577601338E+03  0.00000000000E+00 0.  1.
         -1    1    6    6    0  502  0.76720613747E+02  0.16289507180E+03 -0.71315336497E+03  0.73553285376E+03  0.00000000000E+00 0.  1.
<mgrwt>
<rscale>  0 0.29618875E+04</rscale>
<asrwt>0</asrwt>
<pdfrwt beam="1">  1        1 0.41376847E+00 0.29618875E+04</pdfrwt>
<pdfrwt beam="2">  1       -1 0.12545646E+00 0.29618875E+04</pdfrwt>
<totfact> 0.47243368E-01</totfact>
</mgrwt>
</event>
<event>
12    1  0.2227089E-007  0.4052570E+04  0.7818608E-02  0.7994025E-01
         -1   -1    0    0    0  501 -0.00000000000E+00  0.00000000000E+00  0.22417115118E+04  0.22417115118E+04  0.00000000000E+00 0.  1.
          1   -1    0    0  501    0  0.00000000000E+00 -0.00000000000E+00 -0.18315611264E+04  0.18315611264E+04  0.00000000000E+00 0. -1.
         23    2    1    2    0    0 -0.14349298595E+04  0.12604327817E+04 -0.42529090037E+02  0.19125794926E+04  0.91853649065E+02 0.  0.
        254    2    1    2    0    0  0.14349298595E+04 -0.12604327817E+04  0.45267947541E+03  0.21606931456E+04  0.90330596314E+03 0.  0.
        -24    2    4    4    0    0  0.11117798353E+04 -0.75195926370E+03  0.68675113824E+03  0.15095625620E+04  0.75198843395E+02 0.  0.
         24    2    4    4    0    0  0.32315002421E+03 -0.50847351801E+03 -0.23407166283E+03  0.65113058367E+03  0.78805056837E+02 0.  0.
         13    1    3    3    0    0 -0.10041104112E+04  0.82892055233E+03 -0.44510923934E+02  0.13028154982E+04  0.00000000000E+00 0. -1.
        -13    1    3    3    0    0 -0.43081944836E+03  0.43151222939E+03  0.19818338970E+01  0.60976399440E+03  0.00000000000E+00 0.  1.
          2    1    6    6  502    0  0.12968681727E+03 -0.13888043602E+03 -0.62079519213E+02  0.19990075735E+03  0.00000000000E+00 0. -1.
          3    1    5    5  503    0  0.84401146011E+02 -0.82705447739E+02  0.60338523078E+02  0.13268188234E+03  0.00000000000E+00 0. -1.
         -4    1    5    5    0  503  0.10273786893E+04 -0.66925381596E+03  0.62641261516E+03  0.13768806796E+04  0.00000000000E+00 0.  1.
         -1    1    6    6    0  502  0.19346320694E+03 -0.36959308199E+03 -0.17199214362E+03  0.45122982632E+03  0.00000000000E+00 0.  1.
<mgrwt>
<rscale>  0 0.40525704E+04</rscale>
<asrwt>0</asrwt>
<pdfrwt beam="1">  1        1 0.28177864E+00 0.40525704E+04</pdfrwt>
<pdfrwt beam="2">  1       -1 0.34487869E+00 0.40525704E+04</pdfrwt>
<totfact> 0.50751519E-02</totfact>
</mgrwt>
</event>
<event>
12    1  0.2019083E-007  0.2087281E+04  0.7818608E-02  0.8566867E-01
         -2   -1    0    0    0  501 -0.00000000000E+00  0.00000000000E+00  0.96499312571E+03  0.96499312571E+03  0.00000000000E+00 0.  1.
          2   -1    0    0  501    0  0.00000000000E+00 -0.00000000000E+00 -0.11286978880E+04  0.11286978880E+04  0.00000000000E+00 0. -1.
         23    2    1    2    0    0 -0.76870626746E+03 -0.27389205009E+03 -0.29153629089E+03  0.87125527190E+03  0.90366803438E+02 0.  0.
        254    2    1    2    0    0  0.76870626746E+03  0.27389205009E+03  0.12783152863E+03  0.12224357418E+04  0.90115595895E+03 0.  0.
        -24    2    4    4    0    0  0.38676805740E+03  0.45961480862E+03  0.38693650588E+03  0.71902590688E+03  0.80268877237E+02 0.  0.
         24    2    4    4    0    0  0.38193821007E+03 -0.18572275853E+03 -0.25910497725E+03  0.50340983491E+03  0.76917704753E+02 0.  0.
         11    1    3    3    0    0 -0.58676029977E+03 -0.21629005193E+03 -0.18242519657E+03  0.65141997843E+03  0.00000000000E+00 0.  1.
        -11    1    3    3    0    0 -0.18194596769E+03 -0.57601998166E+02 -0.10911109432E+03  0.21983529347E+03  0.00000000000E+00 0. -1.
          2    1    6    6  502    0  0.21059184825E+03 -0.14441841499E+03 -0.15362768132E+03  0.29800515030E+03  0.00000000000E+00 0. -1.
          1    1    5    5  503    0  0.35145698372E+03  0.44490002850E+03  0.37109920611E+03  0.67762280624E+03  0.00000000000E+00 0. -1.
         -2    1    5    5    0  503  0.35311073680E+02  0.14714780125E+02  0.15837299770E+02  0.41403100640E+02  0.00000000000E+00 0.  1.
         -1    1    6    6    0  502  0.17134636181E+03 -0.41304343534E+02 -0.10547729593E+03  0.20540468461E+03  0.00000000000E+00 0.  1.
<mgrwt>
<rscale>  0 0.20872812E+04</rscale>
<asrwt>0</asrwt>
<pdfrwt beam="1">  1        2 0.17364583E+00 0.20872812E+04</pdfrwt>
<pdfrwt beam="2">  1       -2 0.14846048E+00 0.20872812E+04</pdfrwt>
<totfact> 0.59423386E+00</totfact>
</mgrwt>
</event>
<event>
12    1  0.2019083E-007  0.1320551E+04  0.7818608E-02  0.9013425E-01
         -2   -1    0    0    0  501 -0.00000000000E+00  0.00000000000E+00  0.29371093522E+03  0.29371093522E+03  0.00000000000E+00 0.  1.
          2   -1    0    0  501    0  0.00000000000E+00 -0.00000000000E+00 -0.14843289136E+04  0.14843289136E+04  0.00000000000E+00 0. -1.
         23    2    1    2    0    0 -0.22419312576E+03 -0.10990128125E+03  0.10336718682E+01  0.26637155983E+03  0.92800270205E+02 0.  0.
        254    2    1    2    0    0  0.22419312576E+03  0.10990128125E+03 -0.11916516502E+04  0.15116682890E+04  0.89597238303E+03 0.  0.
        -24    2    4    4    0    0 -0.12900847909E+03  0.38178765075E+03 -0.29190690618E+03  0.50448608510E+03  0.83015481911E+02 0.  0.
         24    2    4    4    0    0  0.35320160486E+03 -0.27188636950E+03 -0.89974474406E+03  0.10071822039E+04  0.78751608078E+02 0.  0.
         11    1    3    3    0    0 -0.10417770101E+03 -0.33999716286E+02 -0.42967461609E+02  0.11770801525E+03  0.00000000000E+00 0. -1.
        -11    1    3    3    0    0 -0.12001542475E+03 -0.75901564960E+02  0.44001133477E+02  0.14866354458E+03  0.00000000000E+00 0.  1.
          2    1    6    6  502    0  0.16557956932E+03 -0.79797631619E+02 -0.34737117904E+03  0.39300253411E+03  0.00000000000E+00 0. -1.
          3    1    5    5  503    0 -0.21958716671E+02  0.22262307428E+02 -0.38165863615E+01  0.31501776161E+02  0.00000000000E+00 0. -1.
         -4    1    5    5    0  503 -0.10704976242E+03  0.35952534332E+03 -0.28809031982E+03  0.47298430894E+03  0.00000000000E+00 0.  1.
         -1    1    6    6    0  502  0.18762203554E+03 -0.19208873789E+03 -0.55237356501E+03  0.61417966978E+03  0.00000000000E+00 0.  1.
<mgrwt>
<rscale>  0 0.13205508E+04</rscale>
<asrwt>0</asrwt>
<pdfrwt beam="1">  1        2 0.22835829E+00 0.13205508E+04</pdfrwt>
<pdfrwt beam="2">  1       -2 0.45186298E-01 0.13205508E+04</pdfrwt>
<totfact> 0.58877013E+01</totfact>
</mgrwt>
</event>
<event>
12    1  0.2019083E-007  0.1728637E+04  0.7818608E-02  0.8745198E-01
         -1   -1    0    0    0  501 -0.00000000000E+00  0.00000000000E+00  0.27827357047E+03  0.27827357047E+03  0.00000000000E+00 0. -1.
          1   -1    0    0  501    0  0.00000000000E+00 -0.00000000000E+00 -0.26845751257E+04  0.26845751257E+04  0.00000000000E+00 0.  1.
         23    2    1    2    0    0 -0.47704882995E+03  0.36482995731E+03 -0.11821499951E+04  0.13290782337E+04  0.91070612393E+02 0.  0.
        254    2    1    2    0    0  0.47704882995E+03 -0.36482995731E+03 -0.12241515602E+04  0.16337704625E+04  0.89999022108E+03 0.  0.
        -24    2    4    4    0    0  0.68346774005E+03 -0.57742908228E+02 -0.90798880681E+03  0.11406950325E+04  0.79240700823E+02 0.  0.
         24    2    4    4    0    0 -0.20641891010E+03 -0.30708704908E+03 -0.31616275334E+03  0.49307543004E+03  0.79077626099E+02 0.  0.
         13    1    3    3    0    0 -0.37624449669E+03  0.25890115899E+03 -0.82168776692E+03  0.94008537789E+03  0.00000000000E+00 0. -1.
        -13    1    3    3    0    0 -0.10080433326E+03  0.10592879832E+03 -0.36046222820E+03  0.38899285582E+03  0.00000000000E+00 0.  1.
          4    1    6    6  502    0 -0.10608699506E+03 -0.89620252725E+02 -0.11606536146E+03  0.18099007805E+03  0.00000000000E+00 0. -1.
          3    1    5    5  503    0  0.43784918022E+03 -0.66653734867E+02 -0.54391835987E+03  0.70142840490E+03  0.00000000000E+00 0. -1.
         -4    1    5    5    0  503  0.24561855983E+03  0.89108266393E+01 -0.36407044694E+03  0.43926662757E+03  0.00000000000E+00 0.  1.
         -3    1    6    6    0  502 -0.10033191504E+03 -0.21746679636E+03 -0.20009739188E+03  0.31208535200E+03  0.00000000000E+00 0.  1.
<mgrwt>
<rscale>  0 0.17286368E+04</rscale>
<asrwt>0</asrwt>
<pdfrwt beam="1">  1        1 0.41301155E+00 0.17286368E+04</pdfrwt>
<pdfrwt beam="2">  1       -1 0.42811319E-01 0.17286368E+04</pdfrwt>
<totfact> 0.51446547E+00</totfact>
</mgrwt>
</event>
<event>
12    1  0.2019083E-007  0.2331744E+04  0.7818608E-02  0.8465509E-01
          2   -1    0    0  501    0  0.00000000000E+00  0.00000000000E+00  0.36256922097E+04  0.36256922097E+04  0.00000000000E+00 0.  1.
         -2   -1    0    0    0  501 -0.00000000000E+00 -0.00000000000E+00 -0.37489599733E+03  0.37489599733E+03  0.00000000000E+00 0. -1.
         23    2    1    2    0    0  0.64615190881E+03 -0.74972611687E+03  0.13356738579E+04  0.16650144550E+04  0.92988929878E+02 0.  0.
        254    2    1    2    0    0 -0.64615190881E+03  0.74972611687E+03  0.19151223544E+04  0.23355737520E+04  0.89867100712E+03 0.  0.
        -24    2    4    4    0    0 -0.57993105966E+03  0.10367593772E+02  0.93957576732E+03  0.11070821333E+04  0.80004414813E+02 0.  0.
         24    2    4    4    0    0 -0.66220849144E+02  0.73935852310E+03  0.97554658711E+03  0.12284916187E+04  0.80400790082E+02 0.  0.
         13    1    3    3    0    0  0.20749782603E+03 -0.19732099857E+03  0.33478292567E+03  0.44053437051E+03  0.00000000000E+00 0.  1.
        -13    1    3    3    0    0  0.43865408278E+03 -0.55240511831E+03  0.10008909323E+04  0.12244800845E+04  0.00000000000E+00 0. -1.
          2    1    6    6  502    0 -0.50177863687E+02  0.56052659794E+03  0.79343024319E+03  0.97274839286E+03  0.00000000000E+00 0. -1.
          3    1    5    5  503    0 -0.42023569634E+03 -0.27336965547E+02  0.65985412763E+03  0.78278529618E+03  0.00000000000E+00 0. -1.
         -4    1    5    5    0  503 -0.15969536333E+03  0.37704559319E+02  0.27972163969E+03  0.32429683713E+03  0.00000000000E+00 0.  1.
         -1    1    6    6    0  502 -0.16042985456E+02  0.17883192516E+03  0.18211634392E+03  0.25574322584E+03  0.00000000000E+00 0.  1.
<mgrwt>
<rscale>  0 0.23317440E+04</rscale>
<asrwt>0</asrwt>
<pdfrwt beam="1">  1        2 0.55779878E+00 0.23317440E+04</pdfrwt>
<pdfrwt beam="2">  1       -2 0.57676310E-01 0.23317440E+04</pdfrwt>
<totfact> 0.16890910E+00</totfact>
</mgrwt>
</event>
<event>
12    1  0.2144291E-007  0.2487451E+04  0.7818608E-02  0.8407470E-01
         -2   -1    0    0    0  501 -0.00000000000E+00  0.00000000000E+00  0.42187608375E+03  0.42187608375E+03  0.00000000000E+00 0.  1.
          2   -1    0    0  501    0  0.00000000000E+00 -0.00000000000E+00 -0.36666052821E+04  0.36666052821E+04  0.00000000000E+00 0. -1.
         23    2    1    2    0    0  0.82969499899E+03 -0.45689077648E+03 -0.56739322897E+03  0.11080647468E+04  0.93431439088E+02 0.  0.
        254    2    1    2    0    0 -0.82969499899E+03  0.45689077648E+03 -0.26773359694E+04  0.29804166191E+04  0.90421919761E+03 0.  0.
        -24    2    4    4    0    0 -0.21441680223E+03  0.29790824743E+01 -0.39445302075E+02  0.23278410506E+03  0.81541815659E+02 0.  0.
         24    2    4    4    0    0 -0.61527819676E+03  0.45391169401E+03 -0.26378906673E+04  0.27476325140E+04  0.80088538817E+02 0.  0.
         13    1    3    3    0    0  0.38538897645E+03 -0.24767256012E+03 -0.23330120929E+03  0.51409708661E+03  0.00000000000E+00 0.  1.
        -13    1    3    3    0    0  0.44430602254E+03 -0.20921821637E+03 -0.33409201968E+03  0.59396766018E+03  0.00000000000E+00 0. -1.
          4    1    6    6  502    0 -0.17720272286E+02  0.32828152708E+02 -0.10915379384E+03  0.11535270422E+03  0.00000000000E+00 0. -1.
          3    1    5    5  503    0 -0.49769116990E+02 -0.27822384126E+02 -0.31387762373E+02  0.65086417103E+02  0.00000000000E+00 0. -1.
         -4    1    5    5    0  503 -0.16464768524E+03  0.30801466601E+02 -0.80575397025E+01  0.16769768795E+03  0.00000000000E+00 0.  1.
         -3    1    6    6    0  502 -0.59755792447E+03  0.42108354130E+03 -0.25287368735E+04  0.26322798098E+04  0.00000000000E+00 0.  1.
<mgrwt>
<rscale>  0 0.24874510E+04</rscale>
<asrwt>0</asrwt>
<pdfrwt beam="1">  1        2 0.56409314E+00 0.24874510E+04</pdfrwt>
<pdfrwt beam="2">  1       -2 0.64904011E-01 0.24874510E+04</pdfrwt>
<totfact> 0.12101782E+00</totfact>
</mgrwt>
</event>
<event>
12    1  0.2019083E-007  0.3356716E+04  0.7818608E-02  0.8148612E-01
          2   -1    0    0  501    0  0.00000000000E+00  0.00000000000E+00  0.30611486674E+04  0.30611486674E+04  0.00000000000E+00 0. -1.
         -2   -1    0    0    0  501 -0.00000000000E+00 -0.00000000000E+00 -0.92020540541E+03  0.92020540541E+03  0.00000000000E+00 0.  1.
         23    2    1    2    0    0  0.11619111844E+04 -0.10338041738E+04  0.10392389121E+04  0.18729146461E+04  0.94884587054E+02 0.  0.
        254    2    1    2    0    0 -0.11619111844E+04  0.10338041738E+04  0.11017043499E+04  0.21084394267E+04  0.90165163514E+03 0.  0.
        -24    2    4    4    0    0 -0.18539894118E+03  0.14351898573E+03 -0.14776382195E+03  0.28810600922E+03  0.78742992186E+02 0.  0.
         24    2    4    4    0    0 -0.97651224327E+03  0.89028518809E+03  0.12494681719E+04  0.18203334175E+04  0.79114859193E+02 0.  0.
         11    1    3    3    0    0  0.65051219558E+03 -0.55814961274E+03  0.62608428348E+03  0.10614511938E+04  0.00000000000E+00 0.  1.
        -11    1    3    3    0    0  0.51139898887E+03 -0.47565456107E+03  0.41315462858E+03  0.81146345229E+03  0.00000000000E+00 0. -1.
          4    1    6    6  502    0 -0.43783764542E+03  0.45092083773E+03  0.57964113597E+03  0.85499429948E+03  0.00000000000E+00 0. -1.
          3    1    5    5  503    0 -0.14593877372E+03  0.65898069882E+02 -0.91314994766E+02  0.18433423328E+03  0.00000000000E+00 0. -1.
         -4    1    5    5    0  503 -0.39460167463E+02  0.77620915843E+02 -0.56448827183E+02  0.10377177595E+03  0.00000000000E+00 0.  1.
         -3    1    6    6    0  502 -0.53867459785E+03  0.43936435037E+03  0.66982703589E+03  0.96533911800E+03  0.00000000000E+00 0.  1.
<mgrwt>
<rscale>  0 0.33567160E+04</rscale>
<asrwt>0</asrwt>
<pdfrwt beam="1">  1        2 0.47094594E+00 0.33567160E+04</pdfrwt>
<pdfrwt beam="2">  1       -2 0.14157006E+00 0.33567160E+04</pdfrwt>
<totfact> 0.46169799E-01</totfact>
</mgrwt>
</event>
<event>
12    1  0.2019083E-007  0.1882550E+04  0.7818608E-02  0.8663591E-01
          1   -1    0    0  501    0  0.00000000000E+00  0.00000000000E+00  0.23475895911E+04  0.23475895911E+04  0.00000000000E+00 0. -1.
         -1   -1    0    0    0  501 -0.00000000000E+00 -0.00000000000E+00 -0.37740794097E+03  0.37740794097E+03  0.00000000000E+00 0.  1.
         23    2    1    2    0    0  0.42261678894E+03 -0.39334108219E+03  0.13747227113E+04  0.14938026447E+04  0.90893624795E+02 0.  0.
        254    2    1    2    0    0 -0.42261678894E+03  0.39334108219E+03  0.59545893884E+03  0.12311948874E+04  0.90991612014E+03 0.  0.
        -24    2    4    4    0    0 -0.17486743420E+03  0.31389579947E+01  0.72076128751E+03  0.74594883168E+03  0.79714197701E+02 0.  0.
         24    2    4    4    0    0 -0.24774935475E+03  0.39020212419E+03 -0.12530234867E+03  0.48524605572E+03  0.78266311443E+02 0.  0.
         13    1    3    3    0    0  0.61469201916E+02 -0.51148157125E+02  0.12168356913E+03  0.14560730667E+03  0.00000000000E+00 0.  1.
        -13    1    3    3    0    0  0.36114758703E+03 -0.34219292506E+03  0.12530391422E+04  0.13481953380E+04  0.00000000000E+00 0. -1.
          4    1    6    6  502    0 -0.67243024017E+02  0.17746996931E+03 -0.48943406651E+02  0.19599150834E+03  0.00000000000E+00 0. -1.
          3    1    5    5  503    0 -0.12035668719E+03 -0.21359932619E+02  0.35789664440E+03  0.37819569927E+03  0.00000000000E+00 0. -1.
         -4    1    5    5    0  503 -0.54510747010E+02  0.24498890614E+02  0.36286464311E+03  0.36775313242E+03  0.00000000000E+00 0.  1.
         -1    1    6    6    0  502 -0.18050633073E+03  0.21273215488E+03 -0.76358942020E+02  0.28925454738E+03  0.00000000000E+00 0.  1.
<mgrwt>
<rscale>  0 0.18825503E+04</rscale>
<asrwt>0</asrwt>
<pdfrwt beam="1">  1        1 0.36116762E+00 0.18825503E+04</pdfrwt>
<pdfrwt beam="2">  1       -1 0.58062762E-01 0.18825503E+04</pdfrwt>
<totfact> 0.48633666E+00</totfact>
</mgrwt>
</event>
<event>
12    1  0.2019083E-007  0.2218139E+04  0.7818608E-02  0.8510916E-01
         -2   -1    0    0    0  501 -0.00000000000E+00  0.00000000000E+00  0.71606482411E+03  0.71606482411E+03  0.00000000000E+00 0.  1.
          2   -1    0    0  501    0  0.00000000000E+00 -0.00000000000E+00 -0.17177709200E+04  0.17177709200E+04  0.00000000000E+00 0. -1.
         23    2    1    2    0    0  0.52608303441E+03  0.75163054971E+03 -0.28796127233E+03  0.96516299857E+03  0.83102810298E+02 0.  0.
        254    2    1    2    0    0 -0.52608303441E+03 -0.75163054971E+03 -0.71374482356E+03  0.14686727455E+04  0.89769489137E+03 0.  0.
        -24    2    4    4    0    0 -0.24024883037E+03  0.12576037864E+03  0.25067013148E+02  0.28366686462E+03  0.79393712630E+02 0.  0.
         24    2    4    4    0    0 -0.28583420404E+03 -0.87739092836E+03 -0.73881183671E+03  0.11850058809E+04  0.82945611090E+02 0.  0.
         11    1    3    3    0    0  0.34672803292E+03  0.54012555033E+03 -0.23040318664E+03  0.68193956282E+03  0.00000000000E+00 0.  1.
        -11    1    3    3    0    0  0.17935500149E+03  0.21150499938E+03 -0.57558085691E+02  0.28322343574E+03  0.00000000000E+00 0. -1.
          4    1    6    6  502    0 -0.26910593932E+02 -0.33566123531E+02 -0.45457838541E+02  0.62588176195E+02  0.00000000000E+00 0. -1.
          3    1    5    5  503    0 -0.72073312723E+02  0.23306998734E+02 -0.26245008890E+02  0.80165947187E+02  0.00000000000E+00 0. -1.
         -4    1    5    5    0  503 -0.16817551765E+03  0.10245337991E+03  0.51312022038E+02  0.20350091743E+03  0.00000000000E+00 0.  1.
         -3    1    6    6    0  502 -0.25892361011E+03 -0.84382480483E+03 -0.69335399817E+03  0.11224177047E+04  0.00000000000E+00 0.  1.
<mgrwt>
<rscale>  0 0.22181392E+04</rscale>
<asrwt>0</asrwt>
<pdfrwt beam="1">  1        2 0.26427245E+00 0.22181392E+04</pdfrwt>
<pdfrwt beam="2">  1       -2 0.11016382E+00 0.22181392E+04</pdfrwt>
<totfact> 0.57280059E+00</totfact>
</mgrwt>
</event>
<event>
12    1  0.2019083E-007  0.4111695E+04  0.7818608E-02  0.7982386E-01
         -2   -1    0    0    0  501 -0.00000000000E+00  0.00000000000E+00  0.18365952078E+04  0.18365952078E+04  0.00000000000E+00 0.  1.
          2   -1    0    0  501    0  0.00000000000E+00 -0.00000000000E+00 -0.23012737842E+04  0.23012737842E+04  0.00000000000E+00 0. -1.
         23    2    1    2    0    0  0.13762222148E+04 -0.94338912421E+03 -0.12485998181E+04  0.20865136721E+04  0.10279675902E+03 0.  0.
        254    2    1    2    0    0 -0.13762222148E+04  0.94338912421E+03  0.78392124167E+03  0.20513553199E+04  0.89975302771E+03 0.  0.
        -24    2    4    4    0    0 -0.38859550412E+03 -0.88604142146E+01  0.51607290223E+03  0.65119116395E+03  0.81447644739E+02 0.  0.
         24    2    4    4    0    0 -0.98762671073E+03  0.95224953843E+03  0.26784833944E+03  0.14001641559E+04  0.80816009427E+02 0.  0.
         13    1    3    3    0    0  0.11972415828E+04 -0.81774582421E+03 -0.10399362613E+04  0.17842542050E+04  0.00000000000E+00 0.  1.
        -13    1    3    3    0    0  0.17898063209E+03 -0.12564330001E+03 -0.20866355679E+03  0.30225946706E+03  0.00000000000E+00 0. -1.
          2    1    6    6  502    0 -0.38425384985E+03  0.39770277667E+03  0.72879136780E+02  0.55779018302E+03  0.00000000000E+00 0. -1.
          3    1    5    5  503    0 -0.15591287062E+03  0.24461257356E+02  0.16172895427E+03  0.22597219073E+03  0.00000000000E+00 0. -1.
         -4    1    5    5    0  503 -0.23268263350E+03 -0.33321671571E+02  0.35434394797E+03  0.42521897322E+03  0.00000000000E+00 0.  1.
         -1    1    6    6    0  502 -0.60337286087E+03  0.55454676176E+03  0.19496920266E+03  0.84237397289E+03  0.00000000000E+00 0.  1.
<mgrwt>
<rscale>  0 0.41116947E+04</rscale>
<asrwt>0</asrwt>
<pdfrwt beam="1">  1        2 0.35404212E+00 0.41116947E+04</pdfrwt>
<pdfrwt beam="2">  1       -2 0.28255311E+00 0.41116947E+04</pdfrwt>
<totfact> 0.14377515E-01</totfact>
</mgrwt>
</event>
<event>
12    1  0.2019083E-007  0.1465465E+04  0.7818608E-02  0.8907749E-01
          2   -1    0    0  501    0  0.00000000000E+00  0.00000000000E+00  0.11846600444E+04  0.11846600444E+04  0.00000000000E+00 0.  1.
         -2   -1    0    0    0  501 -0.00000000000E+00 -0.00000000000E+00 -0.45320733617E+03  0.45320733617E+03  0.00000000000E+00 0. -1.
         23    2    1    2    0    0 -0.27306498824E+03 -0.83980500279E+02  0.61892905806E+03  0.68846126777E+03  0.96376999735E+02 0.  0.
        254    2    1    2    0    0  0.27306498824E+03  0.83980500279E+02  0.11252365017E+03  0.94940611280E+03  0.89838365020E+03 0.  0.
        -24    2    4    4    0    0 -0.13785125710E+03  0.21895864053E+03  0.35598383535E+03  0.44689356300E+03  0.77740017195E+02 0.  0.
         24    2    4    4    0    0  0.41091624534E+03 -0.13497814025E+03 -0.24346018517E+03  0.50251254980E+03  0.78579526027E+02 0.  0.
         11    1    3    3    0    0 -0.28542546803E+02 -0.42856521015E+02  0.78733280738E+02  0.94075968596E+02  0.00000000000E+00 0. -1.
        -11    1    3    3    0    0 -0.24452244144E+03 -0.41123979264E+02  0.54019577733E+03  0.59438529918E+03  0.00000000000E+00 0.  1.
          4    1    6    6  502    0  0.16279674356E+03 -0.52427599790E+02 -0.53146540398E+02  0.17909770431E+03  0.00000000000E+00 0. -1.
          1    1    5    5  503    0 -0.11786052180E+02  0.85272078843E+02  0.10340818153E+03  0.13454921205E+03  0.00000000000E+00 0. -1.
         -2    1    5    5    0  503 -0.12606520492E+03  0.13368656169E+03  0.25257565382E+03  0.31234435095E+03  0.00000000000E+00 0.  1.
         -3    1    6    6    0  502  0.24811950178E+03 -0.82550540461E+02 -0.19031364478E+03  0.32341484549E+03  0.00000000000E+00 0.  1.
<mgrwt>
<rscale>  0 0.14654646E+04</rscale>
<asrwt>0</asrwt>
<pdfrwt beam="1">  1        2 0.18225539E+00 0.14654646E+04</pdfrwt>
<pdfrwt beam="2">  1       -2 0.69724206E-01 0.14654646E+04</pdfrwt>
<totfact> 0.35142158E+01</totfact>
</mgrwt>
</event>
<event>
12    1  0.2019083E-007  0.1544496E+04  0.7818608E-02  0.8855391E-01
          2   -1    0    0  501    0  0.00000000000E+00  0.00000000000E+00  0.17418088913E+04  0.17418088913E+04  0.00000000000E+00 0. -1.
         -2   -1    0    0    0  501 -0.00000000000E+00 -0.00000000000E+00 -0.34238351011E+03  0.34238351011E+03  0.00000000000E+00 0.  1.
         23    2    1    2    0    0 -0.50141493730E+03  0.18782622762E+02  0.52532045080E+03  0.73338092383E+03  0.10057970541E+03 0.  0.
        254    2    1    2    0    0  0.50141493730E+03 -0.18782622762E+02  0.87410493034E+03  0.13508114775E+04  0.89936782927E+03 0.  0.
        -24    2    4    4    0    0  0.10197316351E+03  0.19569562268E+03  0.85917039501E+03  0.89061513003E+03  0.79537660060E+02 0.  0.
         24    2    4    4    0    0  0.39944177378E+03 -0.21447824544E+03  0.14934535331E+02  0.46019634750E+03  0.77478961654E+02 0.  0.
         11    1    3    3    0    0 -0.28771264000E+03 -0.36189168559E+02  0.32206685106E+03  0.43337659799E+03  0.00000000000E+00 0. -1.
        -11    1    3    3    0    0 -0.21370229729E+03  0.54971791321E+02  0.20325359975E+03  0.30000432583E+03  0.00000000000E+00 0.  1.
          4    1    6    6  502    0  0.37590024614E+03 -0.20070012861E+03 -0.54257774066E+01  0.42615839278E+03  0.00000000000E+00 0. -1.
          3    1    5    5  503    0  0.10331664898E+03  0.11799750212E+03  0.58000182510E+03  0.60083263692E+03  0.00000000000E+00 0. -1.
         -4    1    5    5    0  503 -0.13434854664E+01  0.77698120556E+02  0.27916856991E+03  0.28978249311E+03  0.00000000000E+00 0.  1.
         -3    1    6    6    0  502  0.23541527637E+02 -0.13778116829E+02  0.20360312738E+02  0.34037954721E+02  0.00000000000E+00 0.  1.
<mgrwt>
<rscale>  0 0.15444956E+04</rscale>
<asrwt>0</asrwt>
<pdfrwt beam="1">  1        2 0.26797060E+00 0.15444956E+04</pdfrwt>
<pdfrwt beam="2">  1       -2 0.52674387E-01 0.15444956E+04</pdfrwt>
<totfact> 0.30433749E+01</totfact>
</mgrwt>
</event>
<event>
12    1  0.2019083E-007  0.3963904E+04  0.7818608E-02  0.8011868E-01
          3   -1    0    0  501    0  0.00000000000E+00  0.00000000000E+00  0.35360970369E+04  0.35360970369E+04  0.00000000000E+00 0.  1.
         -3   -1    0    0    0  501 -0.00000000000E+00 -0.00000000000E+00 -0.11108671871E+04  0.11108671871E+04  0.00000000000E+00 0. -1.
         23    2    1    2    0    0  0.12809421980E+04 -0.13646155698E+04  0.97547370026E+03  0.21125586747E+04  0.91469371433E+02 0.  0.
        254    2    1    2    0    0 -0.12809421980E+04  0.13646155698E+04  0.14497561495E+04  0.25344055494E+04  0.90467122611E+03 0.  0.
        -24    2    4    4    0    0 -0.12801059262E+04  0.14626413357E+04  0.13066720078E+04  0.23434328179E+04  0.79339631280E+02 0.  0.
         24    2    4    4    0    0 -0.83627184589E+00 -0.98025765874E+02  0.14308414177E+03  0.19097273143E+03  0.79923478383E+02 0.  0.
         13    1    3    3    0    0  0.41821405532E+03 -0.41577652381E+03  0.26555851537E+03  0.64675686228E+03  0.00000000000E+00 0. -1.
        -13    1    3    3    0    0  0.86272814272E+03 -0.94883904602E+03  0.70991518488E+03  0.14658018124E+04  0.00000000000E+00 0.  1.
          4    1    6    6  502    0 -0.60545113470E+00 -0.10329158532E+03  0.15009392517E+03  0.18220237249E+03  0.00000000000E+00 0. -1.
          1    1    5    5  503    0 -0.10908785648E+04  0.12367581783E+04  0.11412979718E+04  0.20055293304E+04  0.00000000000E+00 0. -1.
         -2    1    5    5    0  503 -0.18922736140E+03  0.22588315744E+03  0.16537403593E+03  0.33790348752E+03  0.00000000000E+00 0.  1.
         -3    1    6    6    0  502 -0.23082071120E+00  0.52658194465E+01 -0.70097833954E+01  0.87703589376E+01  0.00000000000E+00 0.  1.
<mgrwt>
<rscale>  0 0.39639042E+04</rscale>
<asrwt>0</asrwt>
<pdfrwt beam="1">  1        3 0.54401492E+00 0.39639042E+04</pdfrwt>
<pdfrwt beam="2">  1       -3 0.17090265E+00 0.39639042E+04</pdfrwt>
<totfact> 0.97719073E-04</totfact>
</mgrwt>
</event>
<event>
12    1  0.2019083E-007  0.1871394E+04  0.7818608E-02  0.8669228E-01
         -1   -1    0    0    0  501 -0.00000000000E+00  0.00000000000E+00  0.94973852042E+03  0.94973852042E+03  0.00000000000E+00 0.  1.
          1   -1    0    0  501    0  0.00000000000E+00 -0.00000000000E+00 -0.92186281793E+03  0.92186281793E+03  0.00000000000E+00 0. -1.
         23    2    1    2    0    0  0.56344415103E+03  0.43989561368E+03 -0.57575904759E+02  0.72319685232E+03  0.93387580156E+02 0.  0.
        254    2    1    2    0    0 -0.56344415103E+03 -0.43989561368E+03  0.85451607259E+02  0.11484044860E+04  0.89473651098E+03 0.  0.
        -24    2    4    4    0    0 -0.46231872917E+03 -0.35205839516E+03  0.45781061364E+03  0.74420486877E+03  0.81034608642E+02 0.  0.
         24    2    4    4    0    0 -0.10112542186E+03 -0.87837218516E+02 -0.37235900638E+03  0.40419961726E+03  0.82367305736E+02 0.  0.
         11    1    3    3    0    0  0.35711785758E+03  0.23484845045E+03 -0.64325069604E+02  0.43223219855E+03  0.00000000000E+00 0. -1.
        -11    1    3    3    0    0  0.20632629345E+03  0.20504716323E+03  0.67491648446E+01  0.29096465377E+03  0.00000000000E+00 0.  1.
          2    1    6    6  502    0 -0.17697954547E+02 -0.52108000352E+02 -0.73211562296E+02  0.91588176909E+02  0.00000000000E+00 0. -1.
          3    1    5    5  503    0 -0.25461820448E+03 -0.14317056757E+03  0.22334246374E+03  0.36770925686E+03  0.00000000000E+00 0. -1.
         -4    1    5    5    0  503 -0.20770052469E+03 -0.20888782759E+03  0.23446814990E+03  0.37649561191E+03  0.00000000000E+00 0.  1.
         -1    1    6    6    0  502 -0.83427467318E+02 -0.35729218164E+02 -0.29914744408E+03  0.31261144035E+03  0.00000000000E+00 0.  1.
<mgrwt>
<rscale>  0 0.18713937E+04</rscale>
<asrwt>0</asrwt>
<pdfrwt beam="1">  1        1 0.14182505E+00 0.18713937E+04</pdfrwt>
<pdfrwt beam="2">  1       -1 0.14611362E+00 0.18713937E+04</pdfrwt>
<totfact> 0.61324537E+00</totfact>
</mgrwt>
</event>
<event>
12    1  0.2019083E-007  0.2858234E+04  0.7818608E-02  0.8285414E-01
          1   -1    0    0  501    0  0.00000000000E+00  0.00000000000E+00  0.25165031228E+04  0.25165031228E+04  0.00000000000E+00 0. -1.
         -1   -1    0    0    0  501 -0.00000000000E+00 -0.00000000000E+00 -0.81159247061E+03  0.81159247061E+03  0.00000000000E+00 0.  1.
         23    2    1    2    0    0  0.12755861589E+04 -0.11996738199E+03  0.89695632206E+03  0.15664790845E+04  0.88396023719E+02 0.  0.
        254    2    1    2    0    0 -0.12755861589E+04  0.11996738199E+03  0.80795433015E+03  0.17616165089E+04  0.89943888250E+03 0.  0.
        -24    2    4    4    0    0  0.72959170117E+02 -0.12298003821E+03 -0.96877667158E+01  0.16392616128E+03  0.79566344808E+02 0.  0.
         24    2    4    4    0    0 -0.13485453290E+04  0.24294742020E+03  0.81764209687E+03  0.15976903476E+04  0.80485371022E+02 0.  0.
         13    1    3    3    0    0  0.68728520676E+03 -0.10175567480E+03  0.51477092153E+03  0.86469895018E+03  0.00000000000E+00 0. -1.
        -13    1    3    3    0    0  0.58830095214E+03 -0.18211707193E+02  0.38218540053E+03  0.70178013434E+03  0.00000000000E+00 0.  1.
          2    1    6    6  502    0 -0.32410598893E+03  0.93390013433E+02  0.20508185098E+03  0.39474669381E+03  0.00000000000E+00 0. -1.
          1    1    5    5  503    0  0.24686268511E+02 -0.28858210703E+02 -0.38720306908E+02  0.54235323775E+02  0.00000000000E+00 0. -1.
         -2    1    5    5    0  503  0.48272901606E+02 -0.94121827509E+02  0.29032540192E+02  0.10969083751E+03  0.00000000000E+00 0.  1.
         -1    1    6    6    0  502 -0.10244393401E+04  0.14955740677E+03  0.61256024588E+03  0.12029436538E+04  0.00000000000E+00 0.  1.
<mgrwt>
<rscale>  0 0.28582337E+04</rscale>
<asrwt>0</asrwt>
<pdfrwt beam="1">  1        1 0.38715432E+00 0.28582337E+04</pdfrwt>
<pdfrwt beam="2">  1       -1 0.12486038E+00 0.28582337E+04</pdfrwt>
<totfact> 0.63756986E-01</totfact>
</mgrwt>
</event>
<event>
12    1  0.2019083E-007  0.1395278E+04  0.7818608E-02  0.8957244E-01
          1   -1    0    0  501    0  0.00000000000E+00  0.00000000000E+00  0.79515310283E+03  0.79515310283E+03  0.00000000000E+00 0. -1.
         -1   -1    0    0    0  501 -0.00000000000E+00 -0.00000000000E+00 -0.61208370370E+03  0.61208370370E+03  0.00000000000E+00 0.  1.
         23    2    1    2    0    0 -0.18346065626E+03 -0.78387146089E+02  0.40346670218E+03  0.45931815821E+03  0.91572013364E+02 0.  0.
        254    2    1    2    0    0  0.18346065626E+03  0.78387146089E+02 -0.22039730304E+03  0.94791864832E+03  0.90009579245E+03 0.  0.
        -24    2    4    4    0    0  0.44803763976E+03  0.18713267508E+03  0.10762710100E+03  0.50360973103E+03  0.79264138144E+02 0.  0.
         24    2    4    4    0    0 -0.26457698350E+03 -0.10874552900E+03 -0.32802440404E+03  0.44430891729E+03  0.89352303029E+02 0.  0.
         11    1    3    3    0    0 -0.19200029215E+02  0.28876692090E+01  0.40087410253E+01  0.19825482590E+02  0.00000000000E+00 0.  1.
        -11    1    3    3    0    0 -0.16426062704E+03 -0.81274815298E+02  0.39945796115E+03  0.43949267562E+03  0.00000000000E+00 0. -1.
          2    1    6    6  502    0 -0.71987646507E+02 -0.22760125646E+02 -0.34861559931E+02  0.83159923821E+02  0.00000000000E+00 0. -1.
          1    1    5    5  503    0  0.68651587696E+02  0.13689262607E+01  0.46928674268E+01  0.68825412872E+02  0.00000000000E+00 0. -1.
         -2    1    5    5    0  503  0.37938605206E+03  0.18576374882E+03  0.10293423357E+03  0.43478431816E+03  0.00000000000E+00 0.  1.
         -1    1    6    6    0  502 -0.19258933700E+03 -0.85985403349E+02 -0.29316284411E+03  0.36114899347E+03  0.00000000000E+00 0.  1.
<mgrwt>
<rscale>  0 0.13952781E+04</rscale>
<asrwt>0</asrwt>
<pdfrwt beam="1">  1        1 0.12233125E+00 0.13952781E+04</pdfrwt>
<pdfrwt beam="2">  1       -1 0.94166723E-01 0.13952781E+04</pdfrwt>
<totfact> 0.23794500E+01</totfact>
</mgrwt>
</event>
<event>
12    1  0.2019083E-007  0.1203534E+04  0.7818608E-02  0.9109769E-01
         -2   -1    0    0    0  501 -0.00000000000E+00  0.00000000000E+00  0.10046885330E+04  0.10046885330E+04  0.00000000000E+00 0.  1.
          2   -1    0    0  501    0  0.00000000000E+00 -0.00000000000E+00 -0.36043352108E+03  0.36043352108E+03  0.00000000000E+00 0. -1.
         23    2    1    2    0    0  0.25783240341E+03  0.39201949185E+02  0.17119182106E+03  0.32506379583E+03  0.91353657257E+02 0.  0.
        254    2    1    2    0    0 -0.25783240341E+03 -0.39201949185E+02  0.47306319085E+03  0.10400582582E+04  0.88877334394E+03 0.  0.
        -24    2    4    4    0    0  0.19079823494E+03  0.26889942444E+02  0.53623996881E+03  0.57563693983E+03  0.81716258377E+02 0.  0.
         24    2    4    4    0    0 -0.44863063835E+03 -0.66091891628E+02 -0.63176777963E+02  0.46442131840E+03  0.77834875866E+02 0.  0.
         11    1    3    3    0    0  0.11658146408E+03 -0.18007911347E+02  0.10850612175E+03  0.16027819906E+03  0.00000000000E+00 0.  1.
        -11    1    3    3    0    0  0.14125093933E+03  0.57209860532E+02  0.62685699309E+02  0.16478559677E+03  0.00000000000E+00 0. -1.
          2    1    6    6  502    0 -0.71768119622E+02 -0.19152961469E+02 -0.38955972556E+02  0.83875304619E+02  0.00000000000E+00 0. -1.
          3    1    5    5  503    0  0.89981778349E+02  0.34433491600E+02  0.35783121760E+03  0.37057464304E+03  0.00000000000E+00 0. -1.
         -4    1    5    5    0  503  0.10081645659E+03 -0.75435491563E+01  0.17840875122E+03  0.20506229679E+03  0.00000000000E+00 0.  1.
         -1    1    6    6    0  502 -0.37686251873E+03 -0.46938930159E+02 -0.24220805407E+02  0.38054601378E+03  0.00000000000E+00 0.  1.
<mgrwt>
<rscale>  0 0.12035338E+04</rscale>
<asrwt>0</asrwt>
<pdfrwt beam="1">  1        2 0.55451311E-01 0.12035338E+04</pdfrwt>
<pdfrwt beam="2">  1       -2 0.15456747E+00 0.12035338E+04</pdfrwt>
<totfact> 0.24369578E+01</totfact>
</mgrwt>
</event>
<event>
12    1  0.2019083E-007  0.1774287E+04  0.7818608E-02  0.8720094E-01
          2   -1    0    0  501    0  0.00000000000E+00  0.00000000000E+00  0.48276011018E+03  0.48276011018E+03  0.00000000000E+00 0. -1.
         -2   -1    0    0    0  501 -0.00000000000E+00 -0.00000000000E+00 -0.16302574408E+04  0.16302574408E+04  0.00000000000E+00 0.  1.
         23    2    1    2    0    0 -0.37145391370E+03  0.12205405797E+03 -0.10524962542E+04  0.11263230411E+04  0.89330983937E+02 0.  0.
        254    2    1    2    0    0  0.37145391370E+03 -0.12205405797E+03 -0.95001076430E+02  0.98669450991E+03  0.90092488493E+03 0.  0.
        -24    2    4    4    0    0  0.20440200705E+03 -0.43848612718E+03 -0.29186773074E+03  0.57061381516E+03  0.79768976365E+02 0.  0.
         24    2    4    4    0    0  0.16705190665E+03  0.31643206921E+03  0.19686665431E+03  0.41608069475E+03  0.79568027645E+02 0.  0.
         11    1    3    3    0    0 -0.32120474431E+03  0.10491361353E+03 -0.80227403546E+03  0.87053028784E+03  0.00000000000E+00 0. -1.
        -11    1    3    3    0    0 -0.50249169390E+02  0.17140444444E+02 -0.25022221872E+03  0.25579275322E+03  0.00000000000E+00 0.  1.
          2    1    6    6  502    0  0.39150052298E+02  0.20770202698E+02  0.20662260955E+02  0.48898434974E+02  0.00000000000E+00 0. -1.
          3    1    5    5  503    0 -0.41160895029E+01 -0.35037194750E+02 -0.12545686719E+02  0.37442508784E+02  0.00000000000E+00 0. -1.
         -4    1    5    5    0  503  0.20851809655E+03 -0.40344893243E+03 -0.27932204402E+03  0.53317130638E+03  0.00000000000E+00 0.  1.
         -1    1    6    6    0  502  0.12790185435E+03  0.29566186651E+03  0.17620439335E+03  0.36718225977E+03  0.00000000000E+00 0.  1.
<mgrwt>
<rscale>  0 0.17742866E+04</rscale>
<asrwt>0</asrwt>
<pdfrwt beam="1">  1        2 0.74270786E-01 0.17742866E+04</pdfrwt>
<pdfrwt beam="2">  1       -2 0.25080884E+00 0.17742866E+04</pdfrwt>
<totfact> 0.38547463E+00</totfact>
</mgrwt>
</event>
<event>
12    1  0.2019083E-007  0.2339589E+04  0.7818608E-02  0.8462473E-01
         -1   -1    0    0    0  501 -0.00000000000E+00  0.00000000000E+00  0.59161471438E+03  0.59161471438E+03  0.00000000000E+00 0.  1.
          1   -1    0    0  501    0  0.00000000000E+00 -0.00000000000E+00 -0.23130251639E+04  0.23130251639E+04  0.00000000000E+00 0. -1.
         23    2    1    2    0    0  0.59715338734E+03  0.95401326967E+02 -0.17142551799E+04  0.18201597499E+04  0.92828400282E+02 0.  0.
        254    2    1    2    0    0 -0.59715338734E+03 -0.95401326967E+02 -0.71552696306E+01  0.10844801285E+04  0.90019573978E+03 0.  0.
        -24    2    4    4    0    0 -0.30863942039E+03 -0.27184014513E+03  0.37911581578E+03  0.56522328688E+03  0.81198558695E+02 0.  0.
         24    2    4    4    0    0 -0.28851396696E+03  0.17643881817E+03 -0.38627108541E+03  0.51925684157E+03  0.77790426181E+02 0.  0.
         11    1    3    3    0    0  0.31816134622E+03  0.42170761857E+02 -0.10437368357E+04  0.10919668482E+04  0.00000000000E+00 0. -1.
        -11    1    3    3    0    0  0.27899204112E+03  0.53230565111E+02 -0.67051834420E+03  0.72819290163E+03  0.00000000000E+00 0.  1.
          4    1    6    6  502    0 -0.27758650127E+03  0.17273290315E+03 -0.38822636528E+03  0.50755357571E+03  0.00000000000E+00 0. -1.
          3    1    5    5  503    0 -0.30945366384E+03 -0.25337567488E+03  0.36891294942E+03  0.54411172284E+03  0.00000000000E+00 0. -1.
         -4    1    5    5    0  503  0.81424345404E+00 -0.18464470254E+02  0.10202866363E+02  0.21111564040E+02  0.00000000000E+00 0.  1.
         -3    1    6    6    0  502 -0.10927465689E+02  0.37059150197E+01  0.19552798645E+01  0.11703265863E+02  0.00000000000E+00 0.  1.
<mgrwt>
<rscale>  0 0.23395895E+04</rscale>
<asrwt>0</asrwt>
<pdfrwt beam="1">  1        1 0.35585002E+00 0.23395895E+04</pdfrwt>
<pdfrwt beam="2">  1       -1 0.91017650E-01 0.23395895E+04</pdfrwt>
<totfact> 0.19347314E+00</totfact>
</mgrwt>
</event>
<event>
12    1  0.2019083E-007  0.1340753E+04  0.7818608E-02  0.8997858E-01
         -1   -1    0    0    0  501 -0.00000000000E+00  0.00000000000E+00  0.11580725089E+03  0.11580725089E+03  0.00000000000E+00 0.  1.
          1   -1    0    0  501    0  0.00000000000E+00 -0.00000000000E+00 -0.38806253675E+04  0.38806253675E+04  0.00000000000E+00 0. -1.
         23    2    1    2    0    0  0.21768925407E+03 -0.65546054880E+02 -0.18762730628E+04  0.18921030370E+04  0.89265893003E+02 0.  0.
        254    2    1    2    0    0 -0.21768925407E+03  0.65546054880E+02 -0.18885450538E+04  0.21043295814E+04  0.89995314894E+03 0.  0.
        -24    2    4    4    0    0  0.20247824452E+03  0.35034228300E+03 -0.91687660107E+03  0.10050599972E+04  0.75800670241E+02 0.  0.
         24    2    4    4    0    0 -0.42016749859E+03 -0.28479622812E+03 -0.97166845270E+03  0.10992695842E+04  0.81267572295E+02 0.  0.
         13    1    3    3    0    0  0.22126706763E+03 -0.74151041017E+02 -0.18357018698E+04  0.18504753030E+04  0.00000000000E+00 0. -1.
        -13    1    3    3    0    0 -0.35778135642E+01  0.86049861376E+01 -0.40571193000E+02  0.41627733997E+02  0.00000000000E+00 0.  1.
          4    1    6    6  502    0 -0.13600740737E+03 -0.10428888462E+03 -0.41091489761E+03  0.44522493123E+03  0.00000000000E+00 0. -1.
          1    1    5    5  503    0  0.14176666391E+03  0.22998355915E+03 -0.52136810508E+03  0.58720943919E+03  0.00000000000E+00 0. -1.
         -2    1    5    5    0  503  0.60711580610E+02  0.12035872385E+03 -0.39550849599E+03  0.41785055801E+03  0.00000000000E+00 0.  1.
         -3    1    6    6    0  502 -0.28416009122E+03 -0.18050734351E+03 -0.56075355509E+03  0.65404465295E+03  0.00000000000E+00 0.  1.
<mgrwt>
<rscale>  0 0.13407529E+04</rscale>
<asrwt>0</asrwt>
<pdfrwt beam="1">  1        1 0.59701913E+00 0.13407529E+04</pdfrwt>
<pdfrwt beam="2">  1       -1 0.17816505E-01 0.13407529E+04</pdfrwt>
<totfact> 0.30294343E+00</totfact>
</mgrwt>
</event>
<event>
12    1  0.2019083E-007  0.2122167E+04  0.7818608E-02  0.8551541E-01
         -1   -1    0    0    0  501 -0.00000000000E+00  0.00000000000E+00  0.66590218798E+03  0.66590218798E+03  0.00000000000E+00 0.  1.
          1   -1    0    0  501    0  0.00000000000E+00 -0.00000000000E+00 -0.16907864199E+04  0.16907864199E+04  0.00000000000E+00 0. -1.
         23    2    1    2    0    0  0.58328230605E+02 -0.71273326659E+03 -0.96962995654E+03  0.12086143274E+04  0.95788558751E+02 0.  0.
        254    2    1    2    0    0 -0.58328230605E+02  0.71273326659E+03 -0.55254275418E+02  0.11480742805E+04  0.89645447560E+03 0.  0.
        -24    2    4    4    0    0  0.34218005363E+03  0.60119556050E+03 -0.15317948996E+03  0.71296084349E+03  0.79535634350E+02 0.  0.
         24    2    4    4    0    0 -0.40050828424E+03  0.11153770609E+03  0.97925214539E+02  0.43511343703E+03  0.82986805073E+02 0.  0.
         11    1    3    3    0    0  0.72600807897E+01 -0.19792868783E+03 -0.20172250450E+03  0.28270203936E+03  0.00000000000E+00 0.  1.
        -11    1    3    3    0    0  0.51068149815E+02 -0.51480457877E+03 -0.76790745204E+03  0.92591228804E+03  0.00000000000E+00 0. -1.
          4    1    6    6  502    0 -0.37354640777E+03  0.11622185929E+03  0.10817770208E+03  0.40589020013E+03  0.00000000000E+00 0. -1.
          1    1    5    5  503    0  0.27291997612E+03  0.51049488928E+03 -0.15335845430E+03  0.59883984575E+03  0.00000000000E+00 0. -1.
         -2    1    5    5    0  503  0.69260077514E+02  0.90700671218E+02  0.17896434739E+00  0.11412099774E+03  0.00000000000E+00 0.  1.
         -3    1    6    6    0  502 -0.26961876464E+02 -0.46841531977E+01 -0.10252487545E+02  0.29223236893E+02  0.00000000000E+00 0.  1.
<mgrwt>
<rscale>  0 0.21221672E+04</rscale>
<asrwt>0</asrwt>
<pdfrwt beam="1">  1        1 0.26012099E+00 0.21221672E+04</pdfrwt>
<pdfrwt beam="2">  1       -1 0.10244649E+00 0.21221672E+04</pdfrwt>
<totfact> 0.40009463E+00</totfact>
</mgrwt>
</event>
<event>
12    1  0.2019083E-007  0.3076253E+04  0.7818608E-02  0.8222285E-01
          2   -1    0    0  501    0  0.00000000000E+00  0.00000000000E+00  0.19164642014E+04  0.19164642014E+04  0.00000000000E+00 0. -1.
         -2   -1    0    0    0  501 -0.00000000000E+00 -0.00000000000E+00 -0.12344783564E+04  0.12344783564E+04  0.00000000000E+00 0.  1.
         23    2    1    2    0    0  0.30250313506E+03  0.84895318371E+03  0.14170428303E+04  0.16819307796E+04  0.93011341315E+02 0.  0.
        254    2    1    2    0    0 -0.30250313506E+03 -0.84895318371E+03 -0.73505698530E+03  0.14690117781E+04  0.89747266130E+03 0.  0.
        -24    2    4    4    0    0  0.19182959251E+03 -0.42542899961E+03 -0.65627082964E+03  0.80844634815E+03  0.71453969296E+02 0.  0.
         24    2    4    4    0    0 -0.49433272757E+03 -0.42352418410E+03 -0.78786155663E+02  0.66056542998E+03  0.80011554724E+02 0.  0.
         13    1    3    3    0    0  0.94836356562E+02  0.31160684686E+03  0.43566831974E+03  0.54396658570E+03  0.00000000000E+00 0. -1.
        -13    1    3    3    0    0  0.20766677850E+03  0.53734633685E+03  0.98137451058E+03  0.11379641939E+04  0.00000000000E+00 0.  1.
          2    1    6    6  502    0 -0.37373447082E+03 -0.35981514387E+03 -0.74435621826E+02  0.52410404905E+03  0.00000000000E+00 0. -1.
          3    1    5    5  503    0  0.10612103096E+03 -0.17654458804E+03 -0.24416492336E+03  0.31944666938E+03  0.00000000000E+00 0. -1.
         -4    1    5    5    0  503  0.85708561548E+02 -0.24888441157E+03 -0.41210590628E+03  0.48899967877E+03  0.00000000000E+00 0.  1.
         -1    1    6    6    0  502 -0.12059825675E+03 -0.63709040228E+02 -0.43505338369E+01  0.13646138092E+03  0.00000000000E+00 0.  1.
<mgrwt>
<rscale>  0 0.30762533E+04</rscale>
<asrwt>0</asrwt>
<pdfrwt beam="1">  1        2 0.29484065E+00 0.30762533E+04</pdfrwt>
<pdfrwt beam="2">  1       -2 0.18991975E+00 0.30762533E+04</pdfrwt>
<totfact> 0.98169555E-01</totfact>
</mgrwt>
</event>
<event>
12    1  0.2019083E-007  0.3553902E+04  0.7818608E-02  0.8101133E-01
          2   -1    0    0  501    0  0.00000000000E+00  0.00000000000E+00  0.13639746623E+04  0.13639746623E+04  0.00000000000E+00 0. -1.
         -2   -1    0    0    0  501 -0.00000000000E+00 -0.00000000000E+00 -0.23149662149E+04  0.23149662149E+04  0.00000000000E+00 0.  1.
         23    2    1    2    0    0  0.89342430507E+03 -0.11742854281E+04 -0.12372013317E+04  0.19276534999E+04  0.89597013810E+02 0.  0.
        254    2    1    2    0    0 -0.89342430507E+03  0.11742854281E+04  0.28620977912E+03  0.17512873773E+04  0.89885381722E+03 0.  0.
        -24    2    4    4    0    0 -0.83120624997E+03  0.61318048006E+03 -0.13222384754E+03  0.10439961631E+04  0.74503098200E+02 0.  0.
         24    2    4    4    0    0 -0.62218055101E+02  0.56110494799E+03  0.41843362666E+03  0.70729121416E+03  0.80400949386E+02 0.  0.
         13    1    3    3    0    0  0.69137696661E+03 -0.90478213922E+03 -0.90456751060E+03  0.14542610531E+04  0.00000000000E+00 0.  1.
        -13    1    3    3    0    0  0.20204733846E+03 -0.26950328883E+03 -0.33263382111E+03  0.47339244672E+03  0.00000000000E+00 0. -1.
          2    1    6    6  502    0 -0.80702461844E+02  0.49709107480E+03  0.37099511460E+03  0.62549963953E+03  0.00000000000E+00 0. -1.
          1    1    5    5  503    0 -0.81350938919E+03  0.59234747791E+03 -0.13890122277E+03  0.10158575740E+04  0.00000000000E+00 0. -1.
         -2    1    5    5    0  503 -0.17696860776E+02  0.20833002154E+02  0.66773752277E+01  0.28138589161E+02  0.00000000000E+00 0.  1.
         -1    1    6    6    0  502  0.18484406743E+02  0.64013873195E+02  0.47438512059E+02  0.81791574630E+02  0.00000000000E+00 0.  1.
<mgrwt>
<rscale>  0 0.35539022E+04</rscale>
<asrwt>0</asrwt>
<pdfrwt beam="1">  1        2 0.20984226E+00 0.35539022E+04</pdfrwt>
<pdfrwt beam="2">  1       -2 0.35614864E+00 0.35539022E+04</pdfrwt>
<totfact> 0.17655864E-01</totfact>
</mgrwt>
</event>
<event>
12    1  0.2019083E-007  0.2689786E+04  0.7818608E-02  0.8338327E-01
          2   -1    0    0  501    0  0.00000000000E+00  0.00000000000E+00  0.20491438727E+04  0.20491438727E+04  0.00000000000E+00 0. -1.
         -2   -1    0    0    0  501 -0.00000000000E+00 -0.00000000000E+00 -0.88267961819E+03  0.88267961819E+03  0.00000000000E+00 0.  1.
         23    2    1    2    0    0  0.11380590810E+04 -0.20546121193E+03  0.20190352290E+03  0.11777399958E+04  0.94412306732E+02 0.  0.
        254    2    1    2    0    0 -0.11380590810E+04  0.20546121193E+03  0.96456073157E+03  0.17540834950E+04  0.89946579765E+03 0.  0.
        -24    2    4    4    0    0 -0.10204547250E+04  0.41641174558E+03  0.47623929363E+03  0.12033567228E+04  0.80851406873E+02 0.  0.
         24    2    4    4    0    0 -0.11760435606E+03 -0.21095053364E+03  0.48832143794E+03  0.55072677221E+03  0.80692246672E+02 0.  0.
         13    1    3    3    0    0  0.60989958850E+03 -0.70516618815E+02  0.13383668521E+03  0.62838074437E+03  0.00000000000E+00 0. -1.
        -13    1    3    3    0    0  0.52815949253E+03 -0.13494459312E+03  0.68066837692E+02  0.54935925146E+03  0.00000000000E+00 0.  1.
          4    1    6    6  502    0  0.57089523559E+01 -0.42634236613E+02  0.11905464442E+03  0.12658703973E+03  0.00000000000E+00 0. -1.
          3    1    5    5  503    0 -0.16057011610E+03  0.62706204132E+02  0.10728124184E+03  0.20303717658E+03  0.00000000000E+00 0. -1.
         -4    1    5    5    0  503 -0.85988460887E+03  0.35370554145E+03  0.36895805179E+03  0.10003195462E+04  0.00000000000E+00 0.  1.
         -3    1    6    6    0  502 -0.12331330842E+03 -0.16831629703E+03  0.36926679352E+03  0.42413973249E+03  0.00000000000E+00 0.  1.
<mgrwt>
<rscale>  0 0.26897863E+04</rscale>
<asrwt>0</asrwt>
<pdfrwt beam="1">  1        2 0.31525290E+00 0.26897863E+04</pdfrwt>
<pdfrwt beam="2">  1       -2 0.13579686E+00 0.26897863E+04</pdfrwt>
<totfact> 0.21404917E+00</totfact>
</mgrwt>
</event>
<event>
12    1  0.2019083E-007  0.1129398E+04  0.7818608E-02  0.9177003E-01
          1   -1    0    0  501    0  0.00000000000E+00  0.00000000000E+00  0.68293652892E+03  0.68293652892E+03  0.00000000000E+00 0. -1.
         -1   -1    0    0    0  501 -0.00000000000E+00 -0.00000000000E+00 -0.46693203533E+03  0.46693203533E+03  0.00000000000E+00 0.  1.
         23    2    1    2    0    0  0.70218945176E+02 -0.61943845385E+02 -0.12168014733E+03  0.18558599906E+03  0.10425144868E+03 0.  0.
        254    2    1    2    0    0 -0.70218945176E+02  0.61943845385E+02  0.33768464092E+03  0.96428256519E+03  0.89835527971E+03 0.  0.
        -24    2    4    4    0    0  0.36081089154E+03 -0.33275717763E+02 -0.46184053208E+02  0.37389484829E+03  0.79828678817E+02 0.  0.
         24    2    4    4    0    0 -0.43102983671E+03  0.95219563147E+02  0.38386869413E+03  0.59038771690E+03  0.79680591108E+02 0.  0.
         13    1    3    3    0    0 -0.87602530292E+01 -0.23171931062E+02 -0.87928384880E+02  0.91351416463E+02  0.00000000000E+00 0.  1.
        -13    1    3    3    0    0  0.78979198205E+02 -0.38771914323E+02 -0.33751762453E+02  0.94234582601E+02  0.00000000000E+00 0. -1.
          2    1    6    6  502    0 -0.13668655627E+03  0.17605295162E+02  0.75754387522E+02  0.15726375397E+03  0.00000000000E+00 0. -1.
          1    1    5    5  503    0 -0.20559160422E+01  0.35322306734E+01  0.40131481393E+01  0.57278968470E+01  0.00000000000E+00 0. -1.
         -2    1    5    5    0  503  0.36286680758E+03 -0.36807948436E+02 -0.50197201347E+02  0.36816695144E+03  0.00000000000E+00 0.  1.
         -3    1    6    6    0  502 -0.29434328044E+03  0.77614267985E+02  0.30811430661E+03  0.43312396293E+03  0.00000000000E+00 0.  1.
<mgrwt>
<rscale>  0 0.11293980E+04</rscale>
<asrwt>0</asrwt>
<pdfrwt beam="1">  1        1 0.10506716E+00 0.11293980E+04</pdfrwt>
<pdfrwt beam="2">  1       -1 0.71835698E-01 0.11293980E+04</pdfrwt>
<totfact> 0.55039771E+01</totfact>
</mgrwt>
</event>
<event>
12    1  0.2019083E-007  0.3676968E+04  0.7818608E-02  0.8073085E-01
         -1   -1    0    0    0  501 -0.00000000000E+00  0.00000000000E+00  0.22121978228E+04  0.22121978228E+04  0.00000000000E+00 0.  1.
          1   -1    0    0  501    0  0.00000000000E+00 -0.00000000000E+00 -0.15279028290E+04  0.15279028290E+04  0.00000000000E+00 0. -1.
         23    2    1    2    0    0 -0.15435181921E+04 -0.52551107727E+03  0.90152600726E+03  0.18651638841E+04  0.86468903794E+02 0.  0.
        254    2    1    2    0    0  0.15435181921E+04  0.52551107727E+03 -0.21723101349E+03  0.18749367677E+04  0.89977123084E+03 0.  0.
        -24    2    4    4    0    0  0.96142441002E+03  0.42724983284E+03 -0.55303574564E+03  0.11912147496E+04  0.79150033237E+02 0.  0.
         24    2    4    4    0    0  0.58209378207E+03  0.98261244424E+02  0.33580473215E+03  0.68372201810E+03  0.78883056598E+02 0.  0.
         11    1    3    3    0    0 -0.26203801674E+03 -0.12129544201E+03  0.17424707776E+03  0.33725146490E+03  0.00000000000E+00 0.  1.
        -11    1    3    3    0    0 -0.12814801753E+04 -0.40421563526E+03  0.72727892950E+03  0.15279124192E+04  0.00000000000E+00 0. -1.
          2    1    6    6  502    0  0.30194433689E+03  0.55321477062E+02  0.21945807028E+03  0.37734956342E+03  0.00000000000E+00 0. -1.
          1    1    5    5  503    0  0.89755111515E+03  0.38680017363E+03 -0.49287217460E+03  0.10945936959E+04  0.00000000000E+00 0. -1.
         -2    1    5    5    0  503  0.63873294869E+02  0.40449659218E+02 -0.60163571038E+02  0.96621053649E+02  0.00000000000E+00 0.  1.
         -1    1    6    6    0  502  0.28014944518E+03  0.42939767362E+02  0.11634666187E+03  0.30637245468E+03  0.00000000000E+00 0.  1.
<mgrwt>
<rscale>  0 0.36769679E+04</rscale>
<asrwt>0</asrwt>
<pdfrwt beam="1">  1        1 0.23506197E+00 0.36769679E+04</pdfrwt>
<pdfrwt beam="2">  1       -1 0.34033813E+00 0.36769679E+04</pdfrwt>
<totfact> 0.90506892E-02</totfact>
</mgrwt>
</event>
<event>
12    1  0.2019083E-007  0.2594677E+04  0.7818608E-02  0.8370012E-01
          1   -1    0    0  501    0  0.00000000000E+00  0.00000000000E+00  0.27321776252E+04  0.27321776252E+04  0.00000000000E+00 0. -1.
         -1   -1    0    0    0  501 -0.00000000000E+00 -0.00000000000E+00 -0.61602398416E+03  0.61602398416E+03  0.00000000000E+00 0.  1.
         23    2    1    2    0    0  0.10698786334E+04  0.19037545089E+03  0.48628683492E+03  0.11941076684E+04  0.92385796464E+02 0.  0.
        254    2    1    2    0    0 -0.10698786334E+04 -0.19037545089E+03  0.16298668062E+04  0.21540939410E+04  0.89597533351E+03 0.  0.
        -24    2    4    4    0    0 -0.11541642735E+04 -0.68197769938E+02  0.16097591254E+04  0.19835654264E+04  0.80381919323E+02 0.  0.
         24    2    4    4    0    0  0.84285640040E+02 -0.12217768095E+03  0.20107680714E+02  0.17052851458E+03  0.81511966132E+02 0.  0.
         13    1    3    3    0    0  0.78814759152E+03  0.10007496683E+03  0.34224979086E+03  0.86505869416E+03  0.00000000000E+00 0.  1.
        -13    1    3    3    0    0  0.28173104191E+03  0.90300484051E+02  0.14403704407E+03  0.32904897425E+03  0.00000000000E+00 0. -1.
          2    1    6    6  502    0  0.19008642604E+02 -0.41923184877E+02 -0.30645424258E+02  0.55299402816E+02  0.00000000000E+00 0. -1.
          1    1    5    5  503    0 -0.61780698769E+03 -0.17411913300E+02  0.92022245524E+03  0.11085116219E+04  0.00000000000E+00 0. -1.
         -2    1    5    5    0  503 -0.53635728577E+03 -0.50785856638E+02  0.68953667021E+03  0.87505380452E+03  0.00000000000E+00 0.  1.
         -1    1    6    6    0  502  0.65276997437E+02 -0.80254496071E+02  0.50753104971E+02  0.11522911176E+03  0.00000000000E+00 0.  1.
<mgrwt>
<rscale>  0 0.25946768E+04</rscale>
<asrwt>0</asrwt>
<pdfrwt beam="1">  1        1 0.42033501E+00 0.25946768E+04</pdfrwt>
<pdfrwt beam="2">  1       -1 0.94772922E-01 0.25946768E+04</pdfrwt>
<totfact> 0.88305077E-01</totfact>
</mgrwt>
</event>
<event>
12    1  0.2019083E-007  0.1528405E+04  0.7818608E-02  0.8865781E-01
          2   -1    0    0  501    0  0.00000000000E+00  0.00000000000E+00  0.37668999087E+03  0.37668999087E+03  0.00000000000E+00 0. -1.
         -2   -1    0    0    0  501 -0.00000000000E+00 -0.00000000000E+00 -0.15503607659E+04  0.15503607659E+04  0.00000000000E+00 0.  1.
         23    2    1    2    0    0 -0.44669035995E+03 -0.19881816383E+03 -0.30657953500E+03  0.58374929204E+03  0.87813921088E+02 0.  0.
        254    2    1    2    0    0  0.44669035995E+03  0.19881816383E+03 -0.86709124005E+03  0.13433014648E+04  0.90197043560E+03 0.  0.
        -24    2    4    4    0    0 -0.16457906152E+03 -0.20243102936E+03 -0.35230389235E+03  0.44556849601E+03  0.79678497283E+02 0.  0.
         24    2    4    4    0    0  0.61126942147E+03  0.40124919320E+03 -0.51478734770E+03  0.89773296875E+03  0.79165959601E+02 0.  0.
         11    1    3    3    0    0 -0.17545255973E+03 -0.12441470363E+03 -0.12104225523E+03  0.24680730691E+03  0.00000000000E+00 0. -1.
        -11    1    3    3    0    0 -0.27123780022E+03 -0.74403460209E+02 -0.18553727978E+03  0.33694198513E+03  0.00000000000E+00 0.  1.
          4    1    6    6  502    0  0.20417783754E+03  0.13902204290E+03 -0.22029644962E+03  0.33097770842E+03  0.00000000000E+00 0. -1.
          1    1    5    5  503    0 -0.15851007846E+03 -0.14657386745E+03 -0.29203621643E+03  0.36317281741E+03  0.00000000000E+00 0. -1.
         -2    1    5    5    0  503 -0.60689830625E+01 -0.55857161908E+02 -0.60267675916E+02  0.82395678601E+02  0.00000000000E+00 0.  1.
         -3    1    6    6    0  502  0.40709158393E+03  0.26222715030E+03 -0.29449089808E+03  0.56675526033E+03  0.00000000000E+00 0.  1.
<mgrwt>
<rscale>  0 0.15284049E+04</rscale>
<asrwt>0</asrwt>
<pdfrwt beam="1">  1        2 0.57952307E-01 0.15284049E+04</pdfrwt>
<pdfrwt beam="2">  1       -2 0.23851704E+00 0.15284049E+04</pdfrwt>
<totfact> 0.62069239E+00</totfact>
</mgrwt>
</event>
<event>
12    1  0.2019083E-007  0.2063931E+04  0.7818608E-02  0.8577301E-01
          2   -1    0    0  501    0  0.00000000000E+00  0.00000000000E+00  0.31265127644E+04  0.31265127644E+04  0.00000000000E+00 0. -1.
         -2   -1    0    0    0  501 -0.00000000000E+00 -0.00000000000E+00 -0.34062007702E+03  0.34062007702E+03  0.00000000000E+00 0.  1.
         23    2    1    2    0    0  0.28205246690E+03 -0.73907713995E+03  0.15441258634E+04  0.17373513351E+04  0.90974538493E+02 0.  0.
        254    2    1    2    0    0 -0.28205246690E+03  0.73907713995E+03  0.12417668240E+04  0.17297815064E+04  0.90794856773E+03 0.  0.
        -24    2    4    4    0    0 -0.20942753975E+03  0.35023147619E+03  0.12594384646E+04  0.13263923218E+04  0.81297993272E+02 0.  0.
         24    2    4    4    0    0 -0.72624927152E+02  0.38884566376E+03 -0.17671640598E+02  0.40338918461E+03  0.77040360263E+02 0.  0.
         11    1    3    3    0    0  0.19419586801E+03 -0.51144846664E+03  0.97224853564E+03  0.11155979492E+04  0.00000000000E+00 0. -1.
        -11    1    3    3    0    0  0.87856598890E+02 -0.22762867331E+03  0.57187732771E+03  0.62175338586E+03  0.00000000000E+00 0.  1.
          4    1    6    6  502    0 -0.49215785374E+02  0.27864827672E+03 -0.47334672160E+02  0.28689305819E+03  0.00000000000E+00 0. -1.
          1    1    5    5  503    0 -0.21589862821E+03  0.33643542733E+03  0.12285326264E+04  0.12919339877E+04  0.00000000000E+00 0. -1.
         -2    1    5    5    0  503  0.64710884634E+01  0.13796048859E+02  0.30905838278E+02  0.34458334110E+02  0.00000000000E+00 0.  1.
         -1    1    6    6    0  502 -0.23409141778E+02  0.11019738704E+03  0.29663031563E+02  0.11649612642E+03  0.00000000000E+00 0.  1.
<mgrwt>
<rscale>  0 0.20639312E+04</rscale>
<asrwt>0</asrwt>
<pdfrwt beam="1">  1        2 0.48100195E+00 0.20639312E+04</pdfrwt>
<pdfrwt beam="2">  1       -2 0.52403091E-01 0.20639312E+04</pdfrwt>
<totfact> 0.46083971E+00</totfact>
</mgrwt>
</event>
<event>
12    1  0.2019083E-007  0.1557778E+04  0.7818608E-02  0.8846915E-01
         -2   -1    0    0    0  501 -0.00000000000E+00  0.00000000000E+00  0.75301007215E+03  0.75301007215E+03  0.00000000000E+00 0.  1.
          2   -1    0    0  501    0  0.00000000000E+00 -0.00000000000E+00 -0.80565708563E+03  0.80565708563E+03  0.00000000000E+00 0. -1.
         23    2    1    2    0    0 -0.12992870183E+03 -0.47996554001E+03 -0.15417382180E+03  0.52844858424E+03  0.90774179711E+02 0.  0.
        254    2    1    2    0    0  0.12992870183E+03  0.47996554001E+03  0.10152680832E+03  0.10302185735E+04  0.89654572069E+03 0.  0.
        -24    2    4    4    0    0  0.49751308745E+03  0.16359679900E+03  0.92781346614E+01  0.53016464652E+03  0.81885797313E+02 0.  0.
         24    2    4    4    0    0 -0.36758438562E+03  0.31636874101E+03  0.92248673658E+02  0.50005392702E+03  0.79603085929E+02 0.  0.
         13    1    3    3    0    0 -0.20978343653E+02 -0.18834545676E+03 -0.93351924672E+02  0.21125502083E+03  0.00000000000E+00 0. -1.
        -13    1    3    3    0    0 -0.10895035818E+03 -0.29162008325E+03 -0.60821897130E+02  0.31719356342E+03  0.00000000000E+00 0.  1.
          2    1    6    6  502    0 -0.61258771668E+02  0.95431963922E+02  0.29645752346E+02  0.11721248857E+03  0.00000000000E+00 0. -1.
          3    1    5    5  503    0  0.23875894312E+02 -0.94971376585E+01  0.28010673224E+01  0.25847629119E+02  0.00000000000E+00 0. -1.
         -4    1    5    5    0  503  0.47363719314E+03  0.17309393666E+03  0.64770673390E+01  0.50431701740E+03  0.00000000000E+00 0.  1.
         -1    1    6    6    0  502 -0.30632561396E+03  0.22093677709E+03  0.62602921311E+02  0.38284143845E+03  0.00000000000E+00 0.  1.
<mgrwt>
<rscale>  0 0.15577778E+04</rscale>
<asrwt>0</asrwt>
<pdfrwt beam="1">  1        2 0.12394724E+00 0.15577778E+04</pdfrwt>
<pdfrwt beam="2">  1       -2 0.11584770E+00 0.15577778E+04</pdfrwt>
<totfact> 0.19012091E+01</totfact>
</mgrwt>
</event>
<event>
12    1  0.2019083E-007  0.3740786E+04  0.7818608E-02  0.8058983E-01
         -2   -1    0    0    0  501 -0.00000000000E+00  0.00000000000E+00  0.41783656231E+04  0.41783656231E+04  0.00000000000E+00 0.  1.
          2   -1    0    0  501    0  0.00000000000E+00 -0.00000000000E+00 -0.83725797799E+03  0.83725797799E+03  0.00000000000E+00 0. -1.
         23    2    1    2    0    0  0.16006890263E+04 -0.40754880245E+03  0.75766732680E+03  0.18197967981E+04  0.96432477660E+02 0.  0.
        254    2    1    2    0    0 -0.16006890263E+04  0.40754880245E+03  0.25834403183E+04  0.31958268030E+04  0.90046859539E+03 0.  0.
        -24    2    4    4    0    0 -0.90531014879E+03 -0.22635008893E+03  0.13073818708E+04  0.16083983334E+04  0.82927767266E+02 0.  0.
         24    2    4    4    0    0 -0.69537887753E+03  0.63389889137E+03  0.12760584475E+04  0.15874284696E+04  0.78894846779E+02 0.  0.
         11    1    3    3    0    0  0.10336834121E+04 -0.22345076422E+03  0.51270075623E+03  0.11752845213E+04  0.00000000000E+00 0. -1.
        -11    1    3    3    0    0  0.56700561418E+03 -0.18409803823E+03  0.24496657057E+03  0.64451227676E+03  0.00000000000E+00 0.  1.
          4    1    6    6  502    0 -0.29057481605E+03  0.30756734203E+03  0.61191057403E+03  0.74395291801E+03  0.00000000000E+00 0. -1.
          3    1    5    5  503    0 -0.81394798926E+03 -0.18433684722E+03  0.11344872491E+04  0.14083865665E+04  0.00000000000E+00 0. -1.
         -4    1    5    5    0  503 -0.91362159527E+02 -0.42013241710E+02  0.17289462171E+03  0.20001176687E+03  0.00000000000E+00 0.  1.
         -3    1    6    6    0  502 -0.40480406149E+03  0.32633154935E+03  0.66414787347E+03  0.84347555159E+03  0.00000000000E+00 0.  1.
<mgrwt>
<rscale>  0 0.37407860E+04</rscale>
<asrwt>0</asrwt>
<pdfrwt beam="1">  1        2 0.12880892E+00 0.37407860E+04</pdfrwt>
<pdfrwt beam="2">  1       -2 0.64282547E+00 0.37407860E+04</pdfrwt>
<totfact> 0.92313926E-03</totfact>
</mgrwt>
</event>
<event>
12    1  0.2019083E-007  0.1649691E+04  0.7818608E-02  0.8790589E-01
         -2   -1    0    0    0  501 -0.00000000000E+00  0.00000000000E+00  0.82139578813E+03  0.82139578813E+03  0.00000000000E+00 0.  1.
          2   -1    0    0  501    0  0.00000000000E+00 -0.00000000000E+00 -0.82830981160E+03  0.82830981160E+03  0.00000000000E+00 0. -1.
         23    2    1    2    0    0  0.17262649215E+03  0.45600346887E+03 -0.30588433570E+03  0.58271167945E+03  0.90821831823E+02 0.  0.
        254    2    1    2    0    0 -0.17262649215E+03 -0.45600346887E+03  0.29897031223E+03  0.10669939203E+04  0.90075174654E+03 0.  0.
        -24    2    4    4    0    0  0.35602106104E+03 -0.28436794144E+03  0.14270443917E+03  0.48426702525E+03  0.80832374432E+02 0.  0.
         24    2    4    4    0    0 -0.52864755319E+03 -0.17163552742E+03  0.15626587306E+03  0.58272689503E+03  0.78896269495E+02 0.  0.
         11    1    3    3    0    0  0.39588109119E+02  0.23051520514E+03 -0.15397265656E+03  0.28002152980E+03  0.00000000000E+00 0. -1.
        -11    1    3    3    0    0  0.13303838303E+03  0.22548826373E+03 -0.15191167914E+03  0.30269014965E+03  0.00000000000E+00 0.  1.
          4    1    6    6  502    0 -0.11777568867E+03 -0.30316683534E+02  0.68073661554E+02  0.13937086330E+03  0.00000000000E+00 0. -1.
          3    1    5    5  503    0  0.40801683685E+02 -0.61483045615E+02  0.34807963744E+01  0.73871904220E+02  0.00000000000E+00 0. -1.
         -4    1    5    5    0  503  0.31521937735E+03 -0.22288489583E+03  0.13922364279E+03  0.41039512103E+03  0.00000000000E+00 0.  1.
         -3    1    6    6    0  502 -0.41087186452E+03 -0.14131884389E+03  0.88192211505E+02  0.44335603172E+03  0.00000000000E+00 0.  1.
<mgrwt>
<rscale>  0 0.16496911E+04</rscale>
<asrwt>0</asrwt>
<pdfrwt beam="1">  1        2 0.12743228E+00 0.16496911E+04</pdfrwt>
<pdfrwt beam="2">  1       -2 0.12636858E+00 0.16496911E+04</pdfrwt>
<totfact> 0.14649287E+01</totfact>
</mgrwt>
</event>
<event>
12    1  0.2019083E-007  0.2424897E+04  0.7818608E-02  0.8430241E-01
         -2   -1    0    0    0  501 -0.00000000000E+00  0.00000000000E+00  0.63700253126E+03  0.63700253126E+03  0.00000000000E+00 0.  1.
          2   -1    0    0  501    0  0.00000000000E+00 -0.00000000000E+00 -0.23077316749E+04  0.23077316749E+04  0.00000000000E+00 0. -1.
         23    2    1    2    0    0 -0.67361726214E+03 -0.79376408192E+03 -0.70297693560E+03  0.12595224095E+04  0.91643300451E+02 0.  0.
        254    2    1    2    0    0  0.67361726214E+03  0.79376408192E+03 -0.96775220808E+03  0.16852117967E+04  0.90530261780E+03 0.  0.
        -24    2    4    4    0    0  0.57795976183E+03  0.97328965772E+03 -0.92310510285E+03  0.14628733795E+04  0.80902716136E+02 0.  0.
         24    2    4    4    0    0  0.95657500312E+02 -0.17952557580E+03 -0.44647105233E+02  0.22233841715E+03  0.77853824583E+02 0.  0.
         13    1    3    3    0    0 -0.29601719666E+03 -0.38657843497E+03 -0.37511507929E+03  0.61463842201E+03  0.00000000000E+00 0. -1.
        -13    1    3    3    0    0 -0.37760006548E+03 -0.40718564694E+03 -0.32786185632E+03  0.64488398752E+03  0.00000000000E+00 0.  1.
          2    1    6    6  502    0  0.13132721479E+01 -0.36477299608E+00  0.12002778897E+02  0.12079919053E+02  0.00000000000E+00 0. -1.
          1    1    5    5  503    0  0.13684078986E+03  0.27625881725E+03 -0.21647325055E+03  0.37670280605E+03  0.00000000000E+00 0. -1.
         -2    1    5    5    0  503  0.44111897197E+03  0.69703084047E+03 -0.70663185230E+03  0.10861705735E+04  0.00000000000E+00 0.  1.
         -1    1    6    6    0  502  0.94344228165E+02 -0.17916080281E+03 -0.56649884131E+02  0.21025849810E+03  0.00000000000E+00 0.  1.
<mgrwt>
<rscale>  0 0.24248966E+04</rscale>
<asrwt>0</asrwt>
<pdfrwt beam="1">  1        2 0.35503564E+00 0.24248966E+04</pdfrwt>
<pdfrwt beam="2">  1       -2 0.98000389E-01 0.24248966E+04</pdfrwt>
<totfact> 0.34888807E+00</totfact>
</mgrwt>
</event>
<event>
12    1  0.2019083E-007  0.1258651E+04  0.7818608E-02  0.9063014E-01
         -2   -1    0    0    0  501 -0.00000000000E+00  0.00000000000E+00  0.22923271726E+03  0.22923271726E+03  0.00000000000E+00 0. -1.
          2   -1    0    0  501    0  0.00000000000E+00 -0.00000000000E+00 -0.17277216705E+04  0.17277216705E+04  0.00000000000E+00 0.  1.
         23    2    1    2    0    0  0.19015655869E+03  0.18180897987E+03 -0.57683725900E+03  0.64103541141E+03  0.94716172514E+02 0.  0.
        254    2    1    2    0    0 -0.19015655869E+03 -0.18180897987E+03 -0.92165169419E+03  0.13159189763E+04  0.90165785353E+03 0.  0.
        -24    2    4    4    0    0  0.26724202438E+03  0.13192571781E+03 -0.10536057666E+03  0.32604080434E+03  0.79869020097E+02 0.  0.
         24    2    4    4    0    0 -0.45739858306E+03 -0.31373469767E+03 -0.81629111753E+03  0.98987817197E+03  0.76711684040E+02 0.  0.
         11    1    3    3    0    0  0.17633259315E+03  0.17238427311E+03 -0.45032809303E+03  0.51342469009E+03  0.00000000000E+00 0. -1.
        -11    1    3    3    0    0  0.13823965537E+02  0.94247067578E+01 -0.12650916597E+03  0.12761072132E+03  0.00000000000E+00 0.  1.
          2    1    6    6  502    0 -0.20553802595E+03 -0.99189976858E+02 -0.30645077870E+03  0.38209502926E+03  0.00000000000E+00 0. -1.
          1    1    5    5  503    0  0.12016338807E+03  0.53250708889E+02 -0.53202201584E+01  0.13154156215E+03  0.00000000000E+00 0. -1.
         -2    1    5    5    0  503  0.14707863631E+03  0.78675008917E+02 -0.10004035650E+03  0.19449924220E+03  0.00000000000E+00 0.  1.
         -1    1    6    6    0  502 -0.25186055711E+03 -0.21454472082E+03 -0.50984033884E+03  0.60778314271E+03  0.00000000000E+00 0.  1.
<mgrwt>
<rscale>  0 0.12586506E+04</rscale>
<asrwt>0</asrwt>
<pdfrwt beam="1">  1        2 0.26580333E+00 0.12586506E+04</pdfrwt>
<pdfrwt beam="2">  1       -2 0.35266572E-01 0.12586506E+04</pdfrwt>
<totfact> 0.70233424E+01</totfact>
</mgrwt>
</event>
<event>
12    1  0.2019083E-007  0.1122671E+04  0.7818608E-02  0.9183373E-01
          2   -1    0    0  501    0  0.00000000000E+00  0.00000000000E+00  0.90846268622E+03  0.90846268622E+03  0.00000000000E+00 0. -1.
         -2   -1    0    0    0  501 -0.00000000000E+00 -0.00000000000E+00 -0.34684689378E+03  0.34684689378E+03  0.00000000000E+00 0.  1.
         23    2    1    2    0    0  0.94099072791E+02  0.15258573227E+03  0.86085866446E+02  0.21916639868E+03  0.92119990876E+02 0.  0.
        254    2    1    2    0    0 -0.94099072791E+02 -0.15258573227E+03  0.47552992600E+03  0.10361431813E+04  0.90295456169E+03 0.  0.
        -24    2    4    4    0    0 -0.30789297742E+03 -0.30904617913E+03 -0.46968834359E+02  0.44581225641E+03  0.78961194189E+02 0.  0.
         24    2    4    4    0    0  0.21379390463E+03  0.15646044686E+03  0.52249876036E+03  0.59033092490E+03  0.72786957851E+02 0.  0.
         13    1    3    3    0    0  0.70865966358E+02  0.10535056559E+03  0.10967631346E+02  0.12744024401E+03  0.00000000000E+00 0.  1.
        -13    1    3    3    0    0  0.23233106433E+02  0.47235166680E+02  0.75118235100E+02  0.91726154669E+02  0.00000000000E+00 0. -1.
          4    1    6    6  502    0  0.16410749314E+03  0.12692312613E+03  0.33418136898E+03  0.39334200974E+03  0.00000000000E+00 0. -1.
          1    1    5    5  503    0 -0.21864896581E+03 -0.25882490349E+03 -0.54317753959E+02  0.34314445838E+03  0.00000000000E+00 0. -1.
         -2    1    5    5    0  503 -0.89244011609E+02 -0.50221275636E+02  0.73489196000E+01  0.10266779804E+03  0.00000000000E+00 0.  1.
         -3    1    6    6    0  502  0.49686411487E+02  0.29537320734E+02  0.18831739138E+03  0.19698891517E+03  0.00000000000E+00 0.  1.
<mgrwt>
<rscale>  0 0.11226709E+04</rscale>
<asrwt>0</asrwt>
<pdfrwt beam="1">  1        2 0.13976349E+00 0.11226709E+04</pdfrwt>
<pdfrwt beam="2">  1       -2 0.53361061E-01 0.11226709E+04</pdfrwt>
<totfact> 0.94986663E+01</totfact>
</mgrwt>
</event>
<event>
12    1  0.2019083E-007  0.2152947E+04  0.7818608E-02  0.8538272E-01
          2   -1    0    0  501    0  0.00000000000E+00  0.00000000000E+00  0.13503514787E+04  0.13503514787E+04  0.00000000000E+00 0. -1.
         -2   -1    0    0    0  501 -0.00000000000E+00 -0.00000000000E+00 -0.85814357714E+03  0.85814357714E+03  0.00000000000E+00 0.  1.
         23    2    1    2    0    0 -0.80534062781E+03  0.23656200470E+03  0.48942874677E+03  0.97599814008E+03  0.92177884556E+02 0.  0.
        254    2    1    2    0    0  0.80534062781E+03 -0.23656200470E+03  0.27791547915E+01  0.12324969158E+04  0.90249975889E+03 0.  0.
        -24    2    4    4    0    0  0.29723861064E+03 -0.50420156314E+02 -0.43233115216E+03  0.53288563456E+03  0.78510448797E+02 0.  0.
         24    2    4    4    0    0  0.50810201718E+03 -0.18614184838E+03  0.43511030696E+03  0.69961128121E+03  0.85548337174E+02 0.  0.
         13    1    3    3    0    0 -0.49174784728E+03  0.11614369035E+03  0.33529755037E+03  0.60640724715E+03  0.00000000000E+00 0. -1.
        -13    1    3    3    0    0 -0.31359278053E+03  0.12041831435E+03  0.15413119640E+03  0.36959089293E+03  0.00000000000E+00 0.  1.
          4    1    6    6  502    0  0.76935954141E+02 -0.62379906174E+02  0.71151292506E+02  0.12195450036E+03  0.00000000000E+00 0. -1.
          1    1    5    5  503    0  0.60541201682E+02 -0.19689359774E+01 -0.14708449295E+03  0.15906904751E+03  0.00000000000E+00 0. -1.
         -2    1    5    5    0  503  0.23669740895E+03 -0.48451220337E+02 -0.28524665922E+03  0.37381658705E+03  0.00000000000E+00 0.  1.
         -3    1    6    6    0  502  0.43116606303E+03 -0.12376194221E+03  0.36395901445E+03  0.57765678084E+03  0.00000000000E+00 0.  1.
<mgrwt>
<rscale>  0 0.21529472E+04</rscale>
<asrwt>0</asrwt>
<pdfrwt beam="1">  1        2 0.20774638E+00 0.21529472E+04</pdfrwt>
<pdfrwt beam="2">  1       -2 0.13202209E+00 0.21529472E+04</pdfrwt>
<totfact> 0.59230860E+00</totfact>
</mgrwt>
</event>
<event>
12    1  0.2019083E-007  0.1754563E+04  0.7818608E-02  0.8730843E-01
          1   -1    0    0  501    0  0.00000000000E+00  0.00000000000E+00  0.30090299383E+03  0.30090299383E+03  0.00000000000E+00 0. -1.
         -1   -1    0    0    0  501 -0.00000000000E+00 -0.00000000000E+00 -0.25577099547E+04  0.25577099547E+04  0.00000000000E+00 0.  1.
         23    2    1    2    0    0  0.43051369753E+03  0.42906723210E+03 -0.49652073534E+03  0.79019856392E+03  0.91870541394E+02 0.  0.
        254    2    1    2    0    0 -0.43051369753E+03 -0.42906723210E+03 -0.17602862255E+04  0.20684143846E+04  0.90016095073E+03 0.  0.
        -24    2    4    4    0    0  0.29516906866E+02 -0.18382706797E+03 -0.14349133720E+04  0.14491388831E+04  0.79771413630E+02 0.  0.
         24    2    4    4    0    0 -0.46003060440E+03 -0.24524016412E+03 -0.32537285347E+03  0.61927550152E+03  0.76575178273E+02 0.  0.
         13    1    3    3    0    0  0.32550182888E+03  0.28725718465E+03 -0.39314803218E+03  0.58569062306E+03  0.00000000000E+00 0.  1.
        -13    1    3    3    0    0  0.10501186865E+03  0.14181004745E+03 -0.10337270316E+03  0.20450794086E+03  0.00000000000E+00 0. -1.
          4    1    6    6  502    0 -0.18304815804E+03 -0.10482076765E+03 -0.88704369808E+02  0.22882850940E+03  0.00000000000E+00 0. -1.
          3    1    5    5  503    0 -0.27030128292E+02 -0.74861813861E+02 -0.59576835677E+03  0.60106143940E+03  0.00000000000E+00 0. -1.
         -4    1    5    5    0  503  0.56547035159E+02 -0.10896525411E+03 -0.83914501528E+03  0.84807744366E+03  0.00000000000E+00 0.  1.
         -3    1    6    6    0  502 -0.27698244636E+03 -0.14041939648E+03 -0.23666848366E+03  0.39044699212E+03  0.00000000000E+00 0.  1.
<mgrwt>
<rscale>  0 0.17545627E+04</rscale>
<asrwt>0</asrwt>
<pdfrwt beam="1">  1        1 0.46292769E-01 0.17545627E+04</pdfrwt>
<pdfrwt beam="2">  1       -1 0.39349384E+00 0.17545627E+04</pdfrwt>
<totfact> 0.65784076E-01</totfact>
</mgrwt>
</event>
<event>
12    1  0.2019083E-007  0.1913273E+04  0.7818608E-02  0.8648278E-01
          2   -1    0    0  501    0  0.00000000000E+00  0.00000000000E+00  0.15516288944E+04  0.15516288944E+04  0.00000000000E+00 0. -1.
         -2   -1    0    0    0  501 -0.00000000000E+00 -0.00000000000E+00 -0.58980180799E+03  0.58980180799E+03  0.00000000000E+00 0.  1.
         23    2    1    2    0    0 -0.23477041663E+03  0.96547277760E+02  0.11569619031E+04  0.11878587723E+04  0.89493532037E+02 0.  0.
        254    2    1    2    0    0  0.23477041663E+03 -0.96547277760E+02 -0.19513481669E+03  0.95357193011E+03  0.89821116885E+03 0.  0.
        -24    2    4    4    0    0  0.31775145221E+03 -0.16919065075E+03  0.27808793739E+03  0.46178975674E+03  0.79532489123E+02 0.  0.
         24    2    4    4    0    0 -0.82981035579E+02  0.72643372990E+02 -0.47322275408E+03  0.49178217337E+03  0.75809096814E+02 0.  0.
         13    1    3    3    0    0 -0.19064346104E+03  0.88335163111E+02  0.76482992330E+03  0.79316633934E+03  0.00000000000E+00 0.  1.
        -13    1    3    3    0    0 -0.44126955585E+02  0.82121146487E+01  0.39213197982E+03  0.39469243296E+03  0.00000000000E+00 0. -1.
          4    1    6    6  502    0 -0.46790610033E+02  0.58862407356E+02 -0.16734192852E+03  0.18345971010E+03  0.00000000000E+00 0. -1.
          1    1    5    5  503    0  0.14591846935E+03 -0.12139830727E+03  0.15535787869E+03  0.24528721772E+03  0.00000000000E+00 0. -1.
         -2    1    5    5    0  503  0.17183298286E+03 -0.47792343477E+02  0.12273005871E+03  0.21650253903E+03  0.00000000000E+00 0.  1.
         -3    1    6    6    0  502 -0.36190425546E+02  0.13780965634E+02 -0.30588082556E+03  0.30832246327E+03  0.00000000000E+00 0.  1.
<mgrwt>
<rscale>  0 0.19132731E+04</rscale>
<asrwt>0</asrwt>
<pdfrwt beam="1">  1        2 0.23871214E+00 0.19132731E+04</pdfrwt>
<pdfrwt beam="2">  1       -2 0.90738740E-01 0.19132731E+04</pdfrwt>
<totfact> 0.11517852E+01</totfact>
</mgrwt>
</event>
<event>
12    1  0.2019083E-007  0.2228754E+04  0.7818608E-02  0.8506554E-01
         -1   -1    0    0    0  501 -0.00000000000E+00  0.00000000000E+00  0.45521137167E+03  0.45521137167E+03  0.00000000000E+00 0.  1.
          1   -1    0    0  501    0  0.00000000000E+00 -0.00000000000E+00 -0.27280429245E+04  0.27280429245E+04  0.00000000000E+00 0. -1.
         23    2    1    2    0    0  0.42265513246E+03 -0.18025118362E+03  0.20157530825E+03  0.51016863002E+03  0.92258202689E+02 0.  0.
        254    2    1    2    0    0 -0.42265513246E+03  0.18025118362E+03 -0.24744068611E+04  0.26730856661E+04  0.90087169686E+03 0.  0.
        -24    2    4    4    0    0 -0.25815857250E+03  0.25580614375E+03 -0.26861626288E+03  0.45846876155E+03  0.77176919467E+02 0.  0.
         24    2    4    4    0    0 -0.16449655996E+03 -0.75554960126E+02 -0.22057905982E+04  0.22146169046E+04  0.79045561440E+02 0.  0.
         11    1    3    3    0    0  0.14677015329E+03 -0.10855070719E+03  0.95497713966E+02  0.20602074483E+03  0.00000000000E+00 0. -1.
        -11    1    3    3    0    0  0.27588497917E+03 -0.71700476431E+02  0.10607759429E+03  0.30414788519E+03  0.00000000000E+00 0.  1.
          2    1    6    6  502    0 -0.26215256770E+01  0.45789888728E+01 -0.35374098510E+03  0.35378033309E+03  0.00000000000E+00 0. -1.
          3    1    5    5  503    0 -0.35782538210E+02  0.10866881038E+02 -0.10444937037E+02  0.38827514135E+02  0.00000000000E+00 0. -1.
         -4    1    5    5    0  503 -0.22237603429E+03  0.24493926271E+03 -0.25817132584E+03  0.41964124741E+03  0.00000000000E+00 0.  1.
         -1    1    6    6    0  502 -0.16187503429E+03 -0.80133948998E+02 -0.18520496131E+04  0.18608365715E+04  0.00000000000E+00 0.  1.
<mgrwt>
<rscale>  0 0.22287541E+04</rscale>
<asrwt>0</asrwt>
<pdfrwt beam="1">  1        1 0.41969891E+00 0.22287541E+04</pdfrwt>
<pdfrwt beam="2">  1       -1 0.70032519E-01 0.22287541E+04</pdfrwt>
<totfact> 0.17580192E+00</totfact>
</mgrwt>
</event>
<event>
12    1  0.2019083E-007  0.1977194E+04  0.7818608E-02  0.8617358E-01
          1   -1    0    0  501    0  0.00000000000E+00  0.00000000000E+00  0.14171904998E+04  0.14171904998E+04  0.00000000000E+00 0. -1.
         -1   -1    0    0    0  501 -0.00000000000E+00 -0.00000000000E+00 -0.68962092453E+03  0.68962092453E+03  0.00000000000E+00 0.  1.
         23    2    1    2    0    0 -0.18699352357E+02 -0.77431081229E+03  0.39047044248E+03  0.87202401921E+03  0.89731955371E+02 0.  0.
        254    2    1    2    0    0  0.18699352357E+02  0.77431081229E+03  0.33709913284E+03  0.12347874052E+04  0.90064266542E+03 0.  0.
        -24    2    4    4    0    0  0.40545483413E+03  0.17288651517E+03  0.19093182816E+02  0.44819813242E+03  0.78953445919E+02 0.  0.
         24    2    4    4    0    0 -0.38675548178E+03  0.60142429712E+03  0.31800595002E+03  0.78658927274E+03  0.79397178156E+02 0.  0.
         11    1    3    3    0    0 -0.30761587687E+02 -0.96705756255E+02  0.40278862154E+02  0.10918179934E+03  0.00000000000E+00 0.  1.
        -11    1    3    3    0    0  0.12062235330E+02 -0.67760505604E+03  0.35019158033E+03  0.76284221987E+03  0.00000000000E+00 0. -1.
          2    1    6    6  502    0 -0.33124838555E+03  0.49324001179E+03  0.23286629360E+03  0.63815195122E+03  0.00000000000E+00 0. -1.
          3    1    5    5  503    0  0.35531745303E+03  0.13103776694E+03  0.36908012613E+02  0.38050438918E+03  0.00000000000E+00 0. -1.
         -4    1    5    5    0  503  0.50137381107E+02  0.41848748235E+02 -0.17814829797E+02  0.67693743240E+02  0.00000000000E+00 0.  1.
         -1    1    6    6    0  502 -0.55507096231E+02  0.10818428533E+03  0.85139656429E+02  0.14843732153E+03  0.00000000000E+00 0.  1.
<mgrwt>
<rscale>  0 0.19771942E+04</rscale>
<asrwt>0</asrwt>
<pdfrwt beam="1">  1        1 0.21802931E+00 0.19771942E+04</pdfrwt>
<pdfrwt beam="2">  1       -1 0.10609553E+00 0.19771942E+04</pdfrwt>
<totfact> 0.57711841E+00</totfact>
</mgrwt>
</event>
<event>
12    1  0.2019083E-007  0.3470481E+04  0.7818608E-02  0.8120821E-01
         -1   -1    0    0    0  501 -0.00000000000E+00  0.00000000000E+00  0.85780132540E+03  0.85780132540E+03  0.00000000000E+00 0.  1.
          1   -1    0    0  501    0  0.00000000000E+00 -0.00000000000E+00 -0.35102053836E+04  0.35102053836E+04  0.00000000000E+00 0. -1.
         23    2    1    2    0    0 -0.23531290946E+03  0.15959075474E+04 -0.11067225230E+04  0.19581970717E+04  0.86069527445E+02 0.  0.
        254    2    1    2    0    0  0.23531290946E+03 -0.15959075474E+04 -0.15456815352E+04  0.24098096372E+04  0.90319323200E+03 0.  0.
        -24    2    4    4    0    0  0.23396851414E+03 -0.11963767746E+04 -0.15840467190E+04  0.20005407263E+04  0.83069472846E+02 0.  0.
         24    2    4    4    0    0  0.13443953123E+01 -0.39953077286E+03  0.38365183835E+02  0.40926891094E+03  0.80015675117E+02 0.  0.
         11    1    3    3    0    0 -0.21415821846E+02  0.37002741538E+03 -0.27267427568E+03  0.46014148495E+03  0.00000000000E+00 0. -1.
        -11    1    3    3    0    0 -0.21389708761E+03  0.12258801320E+04 -0.83404824733E+03  0.14980555868E+04  0.00000000000E+00 0.  1.
          2    1    6    6  502    0  0.24604009582E+02 -0.75127124333E+02 -0.12639286124E+02  0.80057439703E+02  0.00000000000E+00 0. -1.
          3    1    5    5  503    0  0.46166423753E+02 -0.10883447372E+03 -0.15531594925E+03  0.19519048502E+03  0.00000000000E+00 0. -1.
         -4    1    5    5    0  503  0.18780209039E+03 -0.10875423008E+04 -0.14287307698E+04  0.18053502413E+04  0.00000000000E+00 0.  1.
         -3    1    6    6    0  502 -0.23259614269E+02 -0.32440364853E+03  0.51004469959E+02  0.32921147123E+03  0.00000000000E+00 0.  1.
<mgrwt>
<rscale>  0 0.34704806E+04</rscale>
<asrwt>0</asrwt>
<pdfrwt beam="1">  1        1 0.54003161E+00 0.34704806E+04</pdfrwt>
<pdfrwt beam="2">  1       -1 0.13196943E+00 0.34704806E+04</pdfrwt>
<totfact> 0.97786221E-02</totfact>
</mgrwt>
</event>
<event>
12    1  0.2019083E-007  0.2499831E+04  0.7818608E-02  0.8403046E-01
         -1   -1    0    0    0  501 -0.00000000000E+00  0.00000000000E+00  0.10088626828E+04  0.10088626828E+04  0.00000000000E+00 0.  1.
          1   -1    0    0  501    0  0.00000000000E+00 -0.00000000000E+00 -0.15485645999E+04  0.15485645999E+04  0.00000000000E+00 0. -1.
         23    2    1    2    0    0 -0.89704993613E+03 -0.11025944379E+03  0.37832601483E+03  0.98501159749E+03  0.10129926381E+03 0.  0.
        254    2    1    2    0    0  0.89704993613E+03  0.11025944379E+03 -0.91802793200E+03  0.15724156852E+04  0.90158752777E+03 0.  0.
        -24    2    4    4    0    0  0.46329412709E+03  0.28060205145E+03 -0.92316969531E+01  0.54819919943E+03  0.84012966570E+02 0.  0.
         24    2    4    4    0    0  0.43375580903E+03 -0.17034260765E+03 -0.90879623505E+03  0.10242164858E+04  0.77123971679E+02 0.  0.
         11    1    3    3    0    0 -0.30605850030E+03 -0.51300279929E+02  0.80513020088E+02  0.32060235609E+03  0.00000000000E+00 0. -1.
        -11    1    3    3    0    0 -0.59099143582E+03 -0.58959163864E+02  0.29781299474E+03  0.66440924140E+03  0.00000000000E+00 0.  1.
          2    1    6    6  502    0  0.41380697569E+03 -0.17835387146E+03 -0.86017229687E+03  0.97105236568E+03  0.00000000000E+00 0. -1.
          1    1    5    5  503    0  0.30978092911E+03  0.14450438654E+03 -0.22865262309E+02  0.34259095434E+03  0.00000000000E+00 0. -1.
         -2    1    5    5    0  503  0.15351319798E+03  0.13609766490E+03  0.13633565356E+02  0.20560824509E+03  0.00000000000E+00 0.  1.
         -1    1    6    6    0  502  0.19948833344E+02  0.80112638037E+01 -0.48623938176E+02  0.53164120074E+02  0.00000000000E+00 0.  1.
<mgrwt>
<rscale>  0 0.24998312E+04</rscale>
<asrwt>0</asrwt>
<pdfrwt beam="1">  1        1 0.23824071E+00 0.24998312E+04</pdfrwt>
<pdfrwt beam="2">  1       -1 0.15520964E+00 0.24998312E+04</pdfrwt>
<totfact> 0.17102399E+00</totfact>
</mgrwt>
</event>
<event>
12    1  0.2019083E-007  0.2688008E+04  0.7818608E-02  0.8338906E-01
         -2   -1    0    0    0  501 -0.00000000000E+00  0.00000000000E+00  0.16426806018E+04  0.16426806018E+04  0.00000000000E+00 0.  1.
          2   -1    0    0  501    0  0.00000000000E+00 -0.00000000000E+00 -0.10996338542E+04  0.10996338542E+04  0.00000000000E+00 0. -1.
         23    2    1    2    0    0 -0.35491958261E+03  0.72968944771E+03  0.11296207939E+04  0.13938387405E+04  0.91261691826E+02 0.  0.
        254    2    1    2    0    0  0.35491958261E+03 -0.72968944771E+03 -0.58657404635E+03  0.13484757154E+04  0.90327351507E+03 0.  0.
        -24    2    4    4    0    0  0.13785532439E+03  0.17737474927E+03  0.10152971197E+02  0.23821393842E+03  0.78593291651E+02 0.  0.
         24    2    4    4    0    0  0.21706425822E+03 -0.90706419699E+03 -0.59672701755E+03  0.11102617770E+04  0.81949559887E+02 0.  0.
         13    1    3    3    0    0 -0.61121415372E+02  0.11556066981E+03  0.24373764526E+03  0.27658296322E+03  0.00000000000E+00 0.  1.
        -13    1    3    3    0    0 -0.29379816724E+03  0.61412877790E+03  0.88588314863E+03  0.11172557773E+04  0.00000000000E+00 0. -1.
          4    1    6    6  502    0  0.16291210382E+03 -0.57309107235E+03 -0.41625910071E+03  0.72680490484E+03  0.00000000000E+00 0. -1.
          1    1    5    5  503    0  0.45853973952E+02  0.12066277104E+03  0.15478606127E+02  0.13000645557E+03  0.00000000000E+00 0. -1.
         -2    1    5    5    0  503  0.92001350437E+02  0.56711978227E+02 -0.53256349301E+01  0.10820748285E+03  0.00000000000E+00 0.  1.
         -3    1    6    6    0  502  0.54152154403E+02 -0.33397312464E+03 -0.18046791685E+03  0.38345687217E+03  0.00000000000E+00 0.  1.
<mgrwt>
<rscale>  0 0.26880083E+04</rscale>
<asrwt>0</asrwt>
<pdfrwt beam="1">  1        2 0.16917444E+00 0.26880083E+04</pdfrwt>
<pdfrwt beam="2">  1       -2 0.25272009E+00 0.26880083E+04</pdfrwt>
<totfact> 0.11835284E+00</totfact>
</mgrwt>
</event>
<event>
12    1  0.2019083E-007  0.2587975E+04  0.7818608E-02  0.8372297E-01
          2   -1    0    0  501    0  0.00000000000E+00  0.00000000000E+00  0.75696393428E+03  0.75696393428E+03  0.00000000000E+00 0.  1.
         -2   -1    0    0    0  501 -0.00000000000E+00 -0.00000000000E+00 -0.22119998596E+04  0.22119998596E+04  0.00000000000E+00 0. -1.
         23    2    1    2    0    0  0.67127659747E+03  0.90126577182E+03 -0.45185786539E+03  0.12146284618E+04  0.90854322789E+02 0.  0.
        254    2    1    2    0    0 -0.67127659747E+03 -0.90126577182E+03 -0.10031780599E+04  0.17543353320E+04  0.89912956551E+03 0.  0.
        -24    2    4    4    0    0 -0.37652323221E+03  0.39682462547E+02 -0.53404853860E+03  0.65944310426E+03  0.79453910921E+02 0.  0.
         24    2    4    4    0    0 -0.29475336526E+03 -0.94094823437E+03 -0.46912952130E+03  0.10948922278E+04  0.80270521137E+02 0.  0.
         11    1    3    3    0    0  0.16809438026E+03  0.17709837279E+03 -0.72853590706E+02  0.25480816314E+03  0.00000000000E+00 0.  1.
        -11    1    3    3    0    0  0.50318221720E+03  0.72416739903E+03 -0.37900427468E+03  0.95982029868E+03  0.00000000000E+00 0. -1.
          4    1    6    6  502    0 -0.22956286718E+03 -0.68374572251E+03 -0.37828166681E+03  0.81443498358E+03  0.00000000000E+00 0. -1.
          1    1    5    5  503    0 -0.35301177033E+03  0.56944449108E+02 -0.49784556153E+03  0.61295202374E+03  0.00000000000E+00 0. -1.
         -2    1    5    5    0  503 -0.23511461874E+02 -0.17261986561E+02 -0.36202977069E+02  0.46491080522E+02  0.00000000000E+00 0.  1.
         -3    1    6    6    0  502 -0.65190498083E+02 -0.25720251186E+03 -0.90847854482E+02  0.28045724418E+03  0.00000000000E+00 0.  1.
<mgrwt>
<rscale>  0 0.25879754E+04</rscale>
<asrwt>0</asrwt>
<pdfrwt beam="1">  1        2 0.11645599E+00 0.25879754E+04</pdfrwt>
<pdfrwt beam="2">  1       -2 0.34030767E+00 0.25879754E+04</pdfrwt>
<totfact> 0.58744971E-01</totfact>
</mgrwt>
</event>
<event>
12    1  0.2019083E-007  0.5703938E+04  0.7818608E-02  0.7728234E-01
         -1   -1    0    0    0  501 -0.00000000000E+00  0.00000000000E+00  0.20913120205E+04  0.20913120205E+04  0.00000000000E+00 0.  1.
          1   -1    0    0  501    0  0.00000000000E+00 -0.00000000000E+00 -0.38892935550E+04  0.38892935550E+04  0.00000000000E+00 0. -1.
         23    2    1    2    0    0  0.11774802497E+04  0.17190859034E+04  0.10524872713E+04  0.23360760777E+04  0.88351021164E+02 0.  0.
        254    2    1    2    0    0 -0.11774802497E+04 -0.17190859034E+04 -0.28504688058E+04  0.36445294978E+04  0.90316486056E+03 0.  0.
        -24    2    4    4    0    0 -0.57030041516E+03 -0.20957525958E+03 -0.10576800337E+04  0.12222971436E+04  0.78478662985E+02 0.  0.
         24    2    4    4    0    0 -0.60717983454E+03 -0.15095106439E+04 -0.17927887721E+04  0.24222323542E+04  0.76343047220E+02 0.  0.
         13    1    3    3    0    0  0.41511648744E+03  0.60339096624E+03  0.32299692777E+03  0.80045572747E+03  0.00000000000E+00 0. -1.
        -13    1    3    3    0    0  0.76236376227E+03  0.11156949372E+04  0.72949034349E+03  0.15356203503E+04  0.00000000000E+00 0.  1.
          4    1    6    6  502    0 -0.34439546653E+03 -0.78759562970E+03 -0.90465206710E+03  0.12479224639E+04  0.00000000000E+00 0. -1.
          1    1    5    5  503    0 -0.77559331762E+02 -0.13446707112E+02 -0.18584740493E+03  0.20183042832E+03  0.00000000000E+00 0. -1.
         -2    1    5    5    0  503 -0.49274108340E+03 -0.19612855247E+03 -0.87183262879E+03  0.10204667153E+04  0.00000000000E+00 0.  1.
         -3    1    6    6    0  502 -0.26278436802E+03 -0.72191501417E+03 -0.88813670497E+03  0.11743098903E+04  0.00000000000E+00 0.  1.
<mgrwt>
<rscale>  0 0.57039377E+04</rscale>
<asrwt>0</asrwt>
<pdfrwt beam="1">  1        1 0.59835285E+00 0.57039377E+04</pdfrwt>
<pdfrwt beam="2">  1       -1 0.32174031E+00 0.57039377E+04</pdfrwt>
<totfact> 0.19447271E-03</totfact>
</mgrwt>
</event>
<event>
12    1  0.2019083E-007  0.1648693E+04  0.7818608E-02  0.8791180E-01
         -1   -1    0    0    0  501 -0.00000000000E+00  0.00000000000E+00  0.63693622132E+03  0.63693622132E+03  0.00000000000E+00 0.  1.
          1   -1    0    0  501    0  0.00000000000E+00 -0.00000000000E+00 -0.10668992182E+04  0.10668992182E+04  0.00000000000E+00 0. -1.
         23    2    1    2    0    0  0.33601594072E+03 -0.43524014685E+03  0.17404374274E+02  0.55760247651E+03  0.90977534146E+02 0.  0.
        254    2    1    2    0    0 -0.33601594072E+03  0.43524014685E+03 -0.44736737120E+03  0.11462329631E+04  0.90076175703E+03 0.  0.
        -24    2    4    4    0    0 -0.32681182147E+03  0.90059520401E+02 -0.64982790501E+03  0.73795965033E+03  0.85973574501E+02 0.  0.
         24    2    4    4    0    0 -0.92041192461E+01  0.34518062645E+03  0.20246053381E+03  0.40827331273E+03  0.80389361511E+02 0.  0.
         11    1    3    3    0    0  0.15467343009E+03 -0.18869599687E+03  0.52408834871E+02  0.24955307088E+03  0.00000000000E+00 0.  1.
        -11    1    3    3    0    0  0.18134251063E+03 -0.24654414998E+03 -0.35004460598E+02  0.30804940564E+03  0.00000000000E+00 0. -1.
          4    1    6    6  502    0 -0.40133192041E+02  0.12436026527E+03  0.88866392148E+02  0.15802969447E+03  0.00000000000E+00 0. -1.
          1    1    5    5  503    0 -0.21714934965E+03  0.62020612494E+02 -0.51211957323E+03  0.55970246892E+03  0.00000000000E+00 0. -1.
         -2    1    5    5    0  503 -0.10966247182E+03  0.28038907906E+02 -0.13770833178E+03  0.17825718141E+03  0.00000000000E+00 0.  1.
         -1    1    6    6    0  502  0.30929072795E+02  0.22082036119E+03  0.11359414166E+03  0.25024361826E+03  0.00000000000E+00 0.  1.
<mgrwt>
<rscale>  0 0.16486925E+04</rscale>
<asrwt>0</asrwt>
<pdfrwt beam="1">  1        1 0.16413834E+00 0.16486925E+04</pdfrwt>
<pdfrwt beam="2">  1       -1 0.97990188E-01 0.16486925E+04</pdfrwt>
<totfact> 0.12818604E+01</totfact>
</mgrwt>
</event>
<event>
12    1  0.2019083E-007  0.2405566E+04  0.7818608E-02  0.8437423E-01
         -2   -1    0    0    0  501 -0.00000000000E+00  0.00000000000E+00  0.97925016766E+03  0.97925016766E+03  0.00000000000E+00 0.  1.
          2   -1    0    0  501    0  0.00000000000E+00 -0.00000000000E+00 -0.14773412667E+04  0.14773412667E+04  0.00000000000E+00 0. -1.
         23    2    1    2    0    0  0.27136891238E+03  0.36105992633E+02  0.80229206535E+03  0.85263867451E+03  0.91517330805E+02 0.  0.
        254    2    1    2    0    0 -0.27136891238E+03 -0.36105992633E+02 -0.13003831644E+04  0.16039527598E+04  0.89817779545E+03 0.  0.
        -24    2    4    4    0    0 -0.37333344781E+03 -0.39848980502E+03 -0.82372702101E+03  0.99150922309E+03  0.79952150474E+02 0.  0.
         24    2    4    4    0    0  0.10196453543E+03  0.36238381239E+03 -0.47665614336E+03  0.61244353674E+03  0.78531603319E+02 0.  0.
         11    1    3    3    0    0  0.15904464936E+03  0.21383856197E+02  0.33000013008E+03  0.36695034493E+03  0.00000000000E+00 0. -1.
        -11    1    3    3    0    0  0.11232426302E+03  0.14722136436E+02  0.47229193528E+03  0.48568832958E+03  0.00000000000E+00 0.  1.
          2    1    6    6  502    0  0.75995113881E+02  0.27960345244E+03 -0.30854307048E+03  0.42326371719E+03  0.00000000000E+00 0. -1.
          1    1    5    5  503    0 -0.15787627460E+03 -0.22680477931E+03 -0.41812885929E+03  0.50119563942E+03  0.00000000000E+00 0. -1.
         -2    1    5    5    0  503 -0.21545717320E+03 -0.17168502571E+03 -0.40559816172E+03  0.49031358367E+03  0.00000000000E+00 0.  1.
         -1    1    6    6    0  502  0.25969421545E+02  0.82780359947E+02 -0.16811307289E+03  0.18917981955E+03  0.00000000000E+00 0.  1.
<mgrwt>
<rscale>  0 0.24055658E+04</rscale>
<asrwt>0</asrwt>
<pdfrwt beam="1">  1        2 0.22728327E+00 0.24055658E+04</pdfrwt>
<pdfrwt beam="2">  1       -2 0.15065387E+00 0.24055658E+04</pdfrwt>
<totfact> 0.34810872E+00</totfact>
</mgrwt>
</event>
<event>
12    1  0.2019083E-007  0.4024349E+04  0.7818608E-02  0.7999652E-01
          2   -1    0    0  501    0  0.00000000000E+00  0.00000000000E+00  0.51905984719E+04  0.51905984719E+04  0.00000000000E+00 0. -1.
         -2   -1    0    0    0  501 -0.00000000000E+00 -0.00000000000E+00 -0.78003473978E+03  0.78003473978E+03  0.00000000000E+00 0.  1.
         23    2    1    2    0    0 -0.99504446859E+03 -0.13373714380E+04  0.71032897768E+03  0.18142622837E+04  0.91129138409E+02 0.  0.
        254    2    1    2    0    0  0.99504446859E+03  0.13373714380E+04  0.37002347545E+04  0.41563709280E+04  0.89722137493E+03 0.  0.
        -24    2    4    4    0    0  0.71888463561E+03  0.35156715324E+03  0.11149165663E+04  0.13745943411E+04  0.77949151252E+02 0.  0.
         24    2    4    4    0    0  0.27615983298E+03  0.98580428474E+03  0.25853181881E+04  0.27817765869E+04  0.79602163771E+02 0.  0.
         13    1    3    3    0    0 -0.47483216981E+03 -0.59098656160E+03  0.28427229533E+03  0.80965513855E+03  0.00000000000E+00 0.  1.
        -13    1    3    3    0    0 -0.52021229878E+03 -0.74638487637E+03  0.42605668235E+03  0.10046071451E+04  0.00000000000E+00 0. -1.
          4    1    6    6  502    0  0.13601413883E+03  0.55225464450E+03  0.15301511233E+04  0.16324360626E+04  0.00000000000E+00 0. -1.
          1    1    5    5  503    0  0.50435313593E+03  0.28505544015E+03  0.81280014407E+03  0.99813464216E+03  0.00000000000E+00 0. -1.
         -2    1    5    5    0  503  0.21453149968E+03  0.66511713088E+02  0.30211642225E+03  0.37645969894E+03  0.00000000000E+00 0.  1.
         -3    1    6    6    0  502  0.14014569415E+03  0.43354964023E+03  0.10551670649E+04  0.11493405244E+04  0.00000000000E+00 0.  1.
<mgrwt>
<rscale>  0 0.40243495E+04</rscale>
<asrwt>0</asrwt>
<pdfrwt beam="1">  1        2 0.79855359E+00 0.40243495E+04</pdfrwt>
<pdfrwt beam="2">  1       -2 0.12000535E+00 0.40243495E+04</pdfrwt>
<totfact> 0.78375882E-03</totfact>
</mgrwt>
</event>
<event>
12    1  0.2019083E-007  0.1765235E+04  0.7818608E-02  0.8725009E-01
          1   -1    0    0  501    0  0.00000000000E+00  0.00000000000E+00  0.10454256872E+04  0.10454256872E+04  0.00000000000E+00 0. -1.
         -1   -1    0    0    0  501 -0.00000000000E+00 -0.00000000000E+00 -0.74516376978E+03  0.74516376978E+03  0.00000000000E+00 0.  1.
         23    2    1    2    0    0  0.20472727020E+03  0.61117554833E+03  0.28091062056E+02  0.65163915103E+03  0.91627885191E+02 0.  0.
        254    2    1    2    0    0 -0.20472727020E+03 -0.61117554833E+03  0.27217085540E+03  0.11389503060E+04  0.89871131010E+03 0.  0.
        -24    2    4    4    0    0  0.21785290299E+02 -0.59029390818E+03 -0.18321261661E+03  0.62344752506E+03  0.78730278211E+02 0.  0.
         24    2    4    4    0    0 -0.22651256050E+03 -0.20881640150E+02  0.45538347201E+03  0.51550278091E+03  0.81394272458E+02 0.  0.
         13    1    3    3    0    0  0.16431938031E+03  0.45534692705E+03 -0.17242061115E+02  0.48439547003E+03  0.00000000000E+00 0.  1.
        -13    1    3    3    0    0  0.40407889889E+02  0.15582862129E+03  0.45333123171E+02  0.16724368100E+03  0.00000000000E+00 0. -1.
          4    1    6    6  502    0 -0.35247805687E+02  0.24580090414E+02  0.58386058202E+02  0.72494968397E+02  0.00000000000E+00 0. -1.
          1    1    5    5  503    0  0.14315033832E+02 -0.27496358910E+03 -0.44639400952E+02  0.27893112347E+03  0.00000000000E+00 0. -1.
         -2    1    5    5    0  503  0.74702564668E+01 -0.31533031908E+03 -0.13857321566E+03  0.34451640159E+03  0.00000000000E+00 0.  1.
         -3    1    6    6    0  502 -0.19126475481E+03 -0.45461730564E+02  0.39699741381E+03  0.44300781251E+03  0.00000000000E+00 0.  1.
<mgrwt>
<rscale>  0 0.17652347E+04</rscale>
<asrwt>0</asrwt>
<pdfrwt beam="1">  1        1 0.16083472E+00 0.17652347E+04</pdfrwt>
<pdfrwt beam="2">  1       -1 0.11464058E+00 0.17652347E+04</pdfrwt>
<totfact> 0.91331341E+00</totfact>
</mgrwt>
</event>
<event>
12    1  0.2019083E-007  0.1328824E+04  0.7818608E-02  0.9007015E-01
         -1   -1    0    0    0  501 -0.00000000000E+00  0.00000000000E+00  0.31454009262E+03  0.31454009262E+03  0.00000000000E+00 0.  1.
          1   -1    0    0  501    0  0.00000000000E+00 -0.00000000000E+00 -0.14034562153E+04  0.14034562153E+04  0.00000000000E+00 0. -1.
         23    2    1    2    0    0 -0.97539758601E+02  0.24997370399E+03 -0.58816248369E+03  0.65241698188E+03  0.87817730715E+02 0.  0.
        254    2    1    2    0    0  0.97539758601E+02 -0.24997370399E+03 -0.50075363902E+03  0.10655793261E+04  0.90150110149E+03 0.  0.
        -24    2    4    4    0    0 -0.20505838776E+03  0.23329873606E+03 -0.34083173628E+03  0.46773282152E+03  0.78297364143E+02 0.  0.
         24    2    4    4    0    0  0.30259814636E+03 -0.48327244005E+03 -0.15992190274E+03  0.59784650456E+03  0.82021573646E+02 0.  0.
         11    1    3    3    0    0  0.72965397166E+01  0.76256159000E+02 -0.20505496439E+03  0.21889673295E+03  0.00000000000E+00 0. -1.
        -11    1    3    3    0    0 -0.10483629832E+03  0.17371754499E+03 -0.38310751930E+03  0.43352024892E+03  0.00000000000E+00 0.  1.
          2    1    6    6  502    0  0.25597172629E+03 -0.36233700706E+03 -0.14808241646E+03  0.46769438035E+03  0.00000000000E+00 0. -1.
          1    1    5    5  503    0 -0.83222979127E+02  0.11786592625E+03 -0.10576274554E+03  0.17889717485E+03  0.00000000000E+00 0. -1.
         -2    1    5    5    0  503 -0.12183540864E+03  0.11543280981E+03 -0.23506899075E+03  0.28883564667E+03  0.00000000000E+00 0.  1.
         -1    1    6    6    0  502  0.46626420077E+02 -0.12093543299E+03 -0.11839486279E+02  0.13015212421E+03  0.00000000000E+00 0.  1.
<mgrwt>
<rscale>  0 0.13288239E+04</rscale>
<asrwt>0</asrwt>
<pdfrwt beam="1">  1        1 0.21591634E+00 0.13288239E+04</pdfrwt>
<pdfrwt beam="2">  1       -1 0.48390783E-01 0.13288239E+04</pdfrwt>
<totfact> 0.31988611E+01</totfact>
</mgrwt>
</event>
<event>
12    1  0.2019083E-007  0.2048333E+04  0.7818608E-02  0.8584351E-01
         -1   -1    0    0    0  501 -0.00000000000E+00  0.00000000000E+00  0.39240150135E+03  0.39240150135E+03  0.00000000000E+00 0.  1.
          1   -1    0    0  501    0  0.00000000000E+00 -0.00000000000E+00 -0.26730700789E+04  0.26730700789E+04  0.00000000000E+00 0. -1.
         23    2    1    2    0    0  0.35787627652E+02 -0.74113209549E+03 -0.15019690910E+04  0.16778072225E+04  0.92565589953E+02 0.  0.
        254    2    1    2    0    0 -0.35787627652E+02  0.74113209549E+03 -0.77869948659E+03  0.13876643577E+04  0.87674508384E+03 0.  0.
        -24    2    4    4    0    0  0.23326693702E+03  0.54091854452E+03 -0.84891368507E+03  0.10362932768E+04  0.79012499555E+02 0.  0.
         24    2    4    4    0    0 -0.26905456468E+03  0.20021355097E+03  0.70214198484E+02  0.35137108095E+03  0.77818880063E+02 0.  0.
         11    1    3    3    0    0 -0.14522197510E+02 -0.40827077210E+02 -0.60260146749E+02  0.74222838401E+02  0.00000000000E+00 0. -1.
        -11    1    3    3    0    0  0.50309825162E+02 -0.70030501828E+03 -0.14417089442E+04  0.16035843841E+04  0.00000000000E+00 0.  1.
          4    1    6    6  502    0 -0.75710119981E+02  0.10305147676E+03  0.24014639625E+02  0.13010892377E+03  0.00000000000E+00 0. -1.
          3    1    5    5  503    0  0.16708954140E+03  0.31956705975E+03 -0.56474186447E+03  0.67005626182E+03  0.00000000000E+00 0. -1.
         -4    1    5    5    0  503  0.66177395622E+02  0.22135148477E+03 -0.28417182060E+03  0.36623701496E+03  0.00000000000E+00 0.  1.
         -3    1    6    6    0  502 -0.19334444469E+03  0.97162074218E+02  0.46199558858E+02  0.22126215718E+03  0.00000000000E+00 0.  1.
<mgrwt>
<rscale>  0 0.20483327E+04</rscale>
<asrwt>0</asrwt>
<pdfrwt beam="1">  1        1 0.41124155E+00 0.20483327E+04</pdfrwt>
<pdfrwt beam="2">  1       -1 0.60369462E-01 0.20483327E+04</pdfrwt>
<totfact> 0.26371955E+00</totfact>
</mgrwt>
</event>
<event>
12    1  0.2019083E-007  0.1171794E+04  0.7818608E-02  0.9137910E-01
          2   -1    0    0  501    0  0.00000000000E+00  0.00000000000E+00  0.24609180874E+04  0.24609180874E+04  0.00000000000E+00 0. -1.
         -2   -1    0    0    0  501 -0.00000000000E+00 -0.00000000000E+00 -0.13949070511E+03  0.13949070511E+03  0.00000000000E+00 0.  1.
         23    2    1    2    0    0 -0.13991440872E+03  0.12759255665E+03  0.19878177448E+03  0.28880144668E+03  0.89644740270E+02 0.  0.
        254    2    1    2    0    0  0.13991440872E+03 -0.12759255665E+03  0.21226456078E+04  0.23116073459E+04  0.89557146152E+03 0.  0.
        -24    2    4    4    0    0  0.17947028214E+03  0.29348332192E+03  0.38944454167E+03  0.52569262984E+03  0.79647018820E+02 0.  0.
         24    2    4    4    0    0 -0.39555873420E+02 -0.42107587857E+03  0.17332010662E+04  0.17859147160E+04  0.81460877219E+02 0.  0.
         13    1    3    3    0    0 -0.39713479726E+02  0.24510805144E+02  0.11087723708E+03  0.12029838629E+03  0.00000000000E+00 0. -1.
        -13    1    3    3    0    0 -0.10020092900E+03  0.10308175151E+03  0.87904537391E+02  0.16850306039E+03  0.00000000000E+00 0.  1.
          4    1    6    6  502    0  0.25345764498E+02 -0.10312177639E+03  0.42494858308E+03  0.43801576091E+03  0.00000000000E+00 0. -1.
          1    1    5    5  503    0  0.11058576175E+02  0.40632139879E+02  0.88795931397E+02  0.98275023942E+02  0.00000000000E+00 0. -1.
         -2    1    5    5    0  503  0.16841170597E+03  0.25285118205E+03  0.30064861027E+03  0.42741760590E+03  0.00000000000E+00 0.  1.
         -3    1    6    6    0  502 -0.64901637918E+02 -0.31795410218E+03  0.13082524831E+04  0.13478989551E+04  0.00000000000E+00 0.  1.
<mgrwt>
<rscale>  0 0.11717938E+04</rscale>
<asrwt>0</asrwt>
<pdfrwt beam="1">  1        2 0.37860275E+00 0.11717938E+04</pdfrwt>
<pdfrwt beam="2">  1       -2 0.21460110E-01 0.11717938E+04</pdfrwt>
<totfact> 0.68855413E+01</totfact>
</mgrwt>
</event>
<event>
12    1  0.2019083E-007  0.2042986E+04  0.7818608E-02  0.8586783E-01
         -1   -1    0    0    0  501 -0.00000000000E+00  0.00000000000E+00  0.41077999556E+03  0.41077999556E+03  0.00000000000E+00 0.  1.
          1   -1    0    0  501    0  0.00000000000E+00 -0.00000000000E+00 -0.25401620879E+04  0.25401620879E+04  0.00000000000E+00 0. -1.
         23    2    1    2    0    0 -0.78634401269E+03 -0.21844046222E+03 -0.88066960705E+03  0.12060995768E+04  0.11421072841E+03 0.  0.
        254    2    1    2    0    0  0.78634401269E+03  0.21844046222E+03 -0.12487124853E+04  0.17448425067E+04  0.90506318034E+03 0.  0.
        -24    2    4    4    0    0  0.76948705682E+03 -0.14942868958E+02 -0.12797845226E+04  0.14954826878E+04  0.79286979490E+02 0.  0.
         24    2    4    4    0    0  0.16856955872E+02  0.23338333118E+03  0.31072037307E+02  0.24935981894E+03  0.80392235725E+02 0.  0.
         13    1    3    3    0    0 -0.42432285678E+03 -0.16187395182E+03 -0.54229135326E+03  0.70734219080E+03  0.00000000000E+00 0. -1.
        -13    1    3    3    0    0 -0.36202115592E+03 -0.56566510400E+02 -0.33837825378E+03  0.49875738597E+03  0.00000000000E+00 0.  1.
          2    1    6    6  502    0  0.40798488192E+02  0.19369243992E+03  0.93326313569E+01  0.19816249879E+03  0.00000000000E+00 0. -1.
          3    1    5    5  503    0  0.46936621232E+03  0.22007134927E+02 -0.82262801962E+03  0.94736783454E+03  0.00000000000E+00 0. -1.
         -4    1    5    5    0  503  0.30012084450E+03 -0.36950003885E+02 -0.45715650301E+03  0.54811485324E+03  0.00000000000E+00 0.  1.
         -1    1    6    6    0  502 -0.23941532320E+02  0.39690891265E+02  0.21739405950E+02  0.51197320148E+02  0.00000000000E+00 0.  1.
<mgrwt>
<rscale>  0 0.20429858E+04</rscale>
<asrwt>0</asrwt>
<pdfrwt beam="1">  1        1 0.39079417E+00 0.20429858E+04</pdfrwt>
<pdfrwt beam="2">  1       -1 0.63196922E-01 0.20429858E+04</pdfrwt>
<totfact> 0.29829613E+00</totfact>
</mgrwt>
</event>
<event>
12    1  0.2019083E-007  0.1050937E+04  0.7818608E-02  0.9254377E-01
         -1   -1    0    0    0  501 -0.00000000000E+00  0.00000000000E+00  0.31629161201E+03  0.31629161201E+03  0.00000000000E+00 0.  1.
          1   -1    0    0  501    0  0.00000000000E+00 -0.00000000000E+00 -0.87298256325E+03  0.87298256325E+03  0.00000000000E+00 0. -1.
         23    2    1    2    0    0  0.33727955913E+02 -0.69255364593E+02  0.13509420147E+02  0.12002066299E+03  0.91041609038E+02 0.  0.
        254    2    1    2    0    0 -0.33727955913E+02  0.69255364593E+02 -0.57020037138E+03  0.10692535123E+04  0.90124398997E+03 0.  0.
        -24    2    4    4    0    0 -0.24775927883E+03 -0.29018410015E+03 -0.44655872883E+02  0.39273400036E+03  0.81574357673E+02 0.  0.
         24    2    4    4    0    0  0.21403132292E+03  0.35943946474E+03 -0.52554449850E+03  0.67651951191E+03  0.80470454745E+02 0.  0.
         13    1    3    3    0    0  0.44220788986E+02 -0.15884070009E+02 -0.25144544317E+02  0.53291931543E+02  0.00000000000E+00 0. -1.
        -13    1    3    3    0    0 -0.10492833073E+02 -0.53371294583E+02  0.38653964463E+02  0.66728731444E+02  0.00000000000E+00 0.  1.
          4    1    6    6  502    0  0.60002993306E+01  0.66064288444E+02 -0.79284850831E+02  0.10337592259E+03  0.00000000000E+00 0. -1.
          1    1    5    5  503    0 -0.73720839907E+02 -0.46919435144E+02  0.12307292610E+02  0.88247748313E+02  0.00000000000E+00 0. -1.
         -2    1    5    5    0  503 -0.17403843893E+03 -0.24326466501E+03 -0.56963165493E+02  0.30448625205E+03  0.00000000000E+00 0.  1.
         -3    1    6    6    0  502  0.20803102359E+03  0.29337517630E+03 -0.44625964767E+03  0.57314358932E+03  0.00000000000E+00 0.  1.
<mgrwt>
<rscale>  0 0.10509368E+04</rscale>
<asrwt>0</asrwt>
<pdfrwt beam="1">  1        1 0.13430501E+00 0.10509368E+04</pdfrwt>
<pdfrwt beam="2">  1       -1 0.48660249E-01 0.10509368E+04</pdfrwt>
<totfact> 0.80905122E+01</totfact>
</mgrwt>
</event>
<event>
12    1  0.2019083E-007  0.1224884E+04  0.7818608E-02  0.9091350E-01
         -2   -1    0    0    0  501 -0.00000000000E+00  0.00000000000E+00  0.42717964090E+03  0.42717964090E+03  0.00000000000E+00 0. -1.
          2   -1    0    0  501    0  0.00000000000E+00 -0.00000000000E+00 -0.87805079197E+03  0.87805079197E+03  0.00000000000E+00 0.  1.
         23    2    1    2    0    0  0.25639244879E+03  0.35282506286E+02 -0.19067891136E+03  0.33441957365E+03  0.92174079648E+02 0.  0.
        254    2    1    2    0    0 -0.25639244879E+03 -0.35282506286E+02 -0.26019223971E+03  0.97081085922E+03  0.89877237370E+03 0.  0.
        -24    2    4    4    0    0  0.51698254030E+02 -0.40316134323E+03 -0.25231407606E+03  0.48512303102E+03  0.80437454581E+02 0.  0.
         24    2    4    4    0    0 -0.30809070282E+03  0.36787883695E+03 -0.78781636527E+01  0.48568782820E+03  0.74671823117E+02 0.  0.
         13    1    3    3    0    0  0.29182168912E+02 -0.20787464868E+02 -0.60592486920E+01  0.36337751344E+02  0.00000000000E+00 0. -1.
        -13    1    3    3    0    0  0.22721027988E+03  0.56069971155E+02 -0.18461966267E+03  0.29808182231E+03  0.00000000000E+00 0.  1.
          4    1    6    6  502    0 -0.22011320798E+03  0.25318822847E+03  0.28297975433E+02  0.33668216285E+03  0.00000000000E+00 0. -1.
          3    1    5    5  503    0  0.77242119496E+01 -0.29373149888E+03 -0.20383822290E+03  0.35761414682E+03  0.00000000000E+00 0. -1.
         -4    1    5    5    0  503  0.43974042080E+02 -0.10942984435E+03 -0.48475853154E+02  0.12750888420E+03  0.00000000000E+00 0.  1.
         -3    1    6    6    0  502 -0.87977494832E+02  0.11469060847E+03 -0.36176139085E+02  0.14900566536E+03  0.00000000000E+00 0.  1.
<mgrwt>
<rscale>  0 0.12248844E+04</rscale>
<asrwt>0</asrwt>
<pdfrwt beam="1">  1        2 0.13508473E+00 0.12248844E+04</pdfrwt>
<pdfrwt beam="2">  1       -2 0.65719946E-01 0.12248844E+04</pdfrwt>
<totfact> 0.63763762E+01</totfact>
</mgrwt>
</event>
<event>
12    1  0.2019083E-007  0.2460853E+04  0.7818608E-02  0.8417066E-01
         -2   -1    0    0    0  501 -0.00000000000E+00  0.00000000000E+00  0.15578792614E+04  0.15578792614E+04  0.00000000000E+00 0. -1.
          2   -1    0    0  501    0  0.00000000000E+00 -0.00000000000E+00 -0.97180177282E+03  0.97180177282E+03  0.00000000000E+00 0.  1.
         23    2    1    2    0    0  0.18071465244E+03  0.10404498661E+04  0.13071779333E+03  0.10679760111E+04  0.91059922188E+02 0.  0.
        254    2    1    2    0    0 -0.18071465244E+03 -0.10404498661E+04  0.45535969522E+03  0.14617050231E+04  0.90223911079E+03 0.  0.
        -24    2    4    4    0    0 -0.10625155786E+03 -0.57151972787E+03  0.70661139772E+03  0.91851878855E+03  0.80329973485E+02 0.  0.
         24    2    4    4    0    0 -0.74463094573E+02 -0.46893013820E+03 -0.25125170250E+03  0.54318623452E+03  0.80521055646E+02 0.  0.
         11    1    3    3    0    0  0.12337960684E+03  0.82133747964E+03  0.13496171417E+03  0.84144663951E+03  0.00000000000E+00 0. -1.
        -11    1    3    3    0    0  0.57335045595E+02  0.21911238643E+03 -0.42439208388E+01  0.22652937161E+03  0.00000000000E+00 0.  1.
          4    1    6    6  502    0 -0.20058774652E+02 -0.44079252287E+02 -0.39265623561E+01  0.48587578811E+02  0.00000000000E+00 0. -1.
          3    1    5    5  503    0  0.49251311920E+01 -0.39357667540E+02  0.77432406292E+02  0.87000347446E+02  0.00000000000E+00 0. -1.
         -4    1    5    5    0  503 -0.11117668906E+03 -0.53216206033E+03  0.62917899143E+03  0.83151844111E+03  0.00000000000E+00 0.  1.
         -3    1    6    6    0  502 -0.54404319920E+02 -0.42485088591E+03 -0.24732514014E+03  0.49459865571E+03  0.00000000000E+00 0.  1.
<mgrwt>
<rscale>  0 0.24608534E+04</rscale>
<asrwt>0</asrwt>
<pdfrwt beam="1">  1        2 0.14950796E+00 0.24608534E+04</pdfrwt>
<pdfrwt beam="2">  1       -2 0.23967373E+00 0.24608534E+04</pdfrwt>
<totfact> 0.17490446E+00</totfact>
</mgrwt>
</event>
<event>
12    1  0.2019083E-007  0.1242893E+04  0.7818608E-02  0.9076119E-01
          1   -1    0    0  501    0  0.00000000000E+00  0.00000000000E+00  0.52609594214E+03  0.52609594214E+03  0.00000000000E+00 0.  1.
         -1   -1    0    0    0  501 -0.00000000000E+00 -0.00000000000E+00 -0.73407858079E+03  0.73407858079E+03  0.00000000000E+00 0. -1.
         23    2    1    2    0    0 -0.14691279891E+03  0.22939184561E+03  0.21631228975E+02  0.28796706559E+03  0.90846747233E+02 0.  0.
        254    2    1    2    0    0  0.14691279891E+03 -0.22939184561E+03 -0.22961386762E+03  0.97220745734E+03  0.90457770401E+03 0.  0.
        -24    2    4    4    0    0 -0.10450214846E+03 -0.22870220266E+03 -0.51790176488E+03  0.58131750188E+03  0.80513373967E+02 0.  0.
         24    2    4    4    0    0  0.25141494737E+03 -0.68964294512E+00  0.28828789726E+03  0.39088995547E+03  0.80467970099E+02 0.  0.
         13    1    3    3    0    0 -0.15343326273E+03  0.23192323655E+03  0.26651665691E+02  0.27935723554E+03  0.00000000000E+00 0.  1.
        -13    1    3    3    0    0  0.65204638283E+01 -0.25313909413E+01 -0.50204367159E+01  0.86098300478E+01  0.00000000000E+00 0. -1.
          2    1    6    6  502    0  0.98236216134E+02 -0.37459535004E+02  0.96594023927E+02  0.14277246367E+03  0.00000000000E+00 0. -1.
          1    1    5    5  503    0 -0.11318066206E+03 -0.19297462534E+03 -0.47334549422E+03  0.52355040367E+03  0.00000000000E+00 0. -1.
         -2    1    5    5    0  503  0.86785135961E+01 -0.35727577327E+02 -0.44556270658E+02  0.57767098203E+02  0.00000000000E+00 0.  1.
         -1    1    6    6    0  502  0.15317873123E+03  0.36769892059E+02  0.19169387333E+03  0.24811749180E+03  0.00000000000E+00 0.  1.
<mgrwt>
<rscale>  0 0.12428930E+04</rscale>
<asrwt>0</asrwt>
<pdfrwt beam="1">  1        1 0.80937837E-01 0.12428930E+04</pdfrwt>
<pdfrwt beam="2">  1       -1 0.11293517E+00 0.12428930E+04</pdfrwt>
<totfact> 0.29220425E+01</totfact>
</mgrwt>
</event>
<event>
12    1  0.2019083E-007  0.1382830E+04  0.7818608E-02  0.8966341E-01
          1   -1    0    0  501    0  0.00000000000E+00  0.00000000000E+00  0.30472845290E+04  0.30472845290E+04  0.00000000000E+00 0. -1.
         -1   -1    0    0    0  501 -0.00000000000E+00 -0.00000000000E+00 -0.15687898020E+03  0.15687898020E+03  0.00000000000E+00 0.  1.
         23    2    1    2    0    0  0.34144614432E+01 -0.26699708623E+03  0.17362717600E+03  0.33072680088E+03  0.89077033929E+02 0.  0.
        254    2    1    2    0    0 -0.34144614432E+01  0.26699708623E+03  0.27167783728E+04  0.28734367083E+04  0.89691397985E+03 0.  0.
        -24    2    4    4    0    0  0.41121044832E+02  0.40088021339E+03  0.26752466032E+04  0.27066161581E+04  0.80191981080E+02 0.  0.
         24    2    4    4    0    0 -0.44535506275E+02 -0.13388312716E+03  0.41531769608E+02  0.16682055018E+03  0.78715341696E+02 0.  0.
         13    1    3    3    0    0  0.27222974337E+02 -0.15088139371E+03  0.54606712927E+02  0.16275189214E+03  0.00000000000E+00 0.  1.
        -13    1    3    3    0    0 -0.23808512893E+02 -0.11611569252E+03  0.11902046307E+03  0.16797490874E+03  0.00000000000E+00 0. -1.
          2    1    6    6  502    0 -0.55131241538E+02 -0.49706937367E+02  0.33998294654E+02  0.81646294805E+02  0.00000000000E+00 0. -1.
          1    1    5    5  503    0  0.47494926577E+02  0.39878637292E+03  0.26569085487E+04  0.26870893873E+04  0.00000000000E+00 0. -1.
         -2    1    5    5    0  503 -0.63738817447E+01  0.20938404704E+01  0.18338054475E+02  0.19526770812E+02  0.00000000000E+00 0.  1.
         -1    1    6    6    0  502  0.10595735263E+02 -0.84176189795E+02  0.75334749536E+01  0.85174255377E+02  0.00000000000E+00 0.  1.
<mgrwt>
<rscale>  0 0.13828303E+04</rscale>
<asrwt>0</asrwt>
<pdfrwt beam="1">  1        1 0.46881296E+00 0.13828303E+04</pdfrwt>
<pdfrwt beam="2">  1       -1 0.24135230E-01 0.13828303E+04</pdfrwt>
<totfact> 0.80886067E+00</totfact>
</mgrwt>
</event>
<event>
12    1  0.2019083E-007  0.2096367E+04  0.7818608E-02  0.8562845E-01
          1   -1    0    0  501    0  0.00000000000E+00  0.00000000000E+00  0.97990434787E+03  0.97990434787E+03  0.00000000000E+00 0. -1.
         -1   -1    0    0    0  501 -0.00000000000E+00 -0.00000000000E+00 -0.11212204080E+04  0.11212204080E+04  0.00000000000E+00 0.  1.
         23    2    1    2    0    0  0.23688555004E+03  0.53861727493E+03 -0.67188837094E+03  0.90160402420E+03  0.12342001768E+03 0.  0.
        254    2    1    2    0    0 -0.23688555004E+03 -0.53861727493E+03  0.53057231078E+03  0.11995207317E+04  0.90062182750E+03 0.  0.
        -24    2    4    4    0    0 -0.19947329428E+03 -0.62654153390E+03  0.71612404576E+03  0.97541162286E+03  0.79058815151E+02 0.  0.
         24    2    4    4    0    0 -0.37412255765E+02  0.87924258969E+02 -0.18555173499E+03  0.22410910886E+03  0.81640027681E+02 0.  0.
         11    1    3    3    0    0  0.18187795711E+03  0.32016997611E+03 -0.48475372989E+03  0.60874837455E+03  0.00000000000E+00 0.  1.
        -11    1    3    3    0    0  0.55007592934E+02  0.21844729883E+03 -0.18713464106E+03  0.29285564965E+03  0.00000000000E+00 0. -1.
          2    1    6    6  502    0 -0.20147230742E+01  0.12038528640E+02 -0.11198274243E+03  0.11264599364E+03  0.00000000000E+00 0. -1.
          1    1    5    5  503    0 -0.20106025079E+03 -0.57521637864E+03  0.64094663395E+03  0.88437079004E+03  0.00000000000E+00 0. -1.
         -2    1    5    5    0  503  0.15869565108E+01 -0.51325155267E+02  0.75177411810E+02  0.91040832820E+02  0.00000000000E+00 0.  1.
         -1    1    6    6    0  502 -0.35397532691E+02  0.75885730329E+02 -0.73568992554E+02  0.11146311522E+03  0.00000000000E+00 0.  1.
<mgrwt>
<rscale>  0 0.20963671E+04</rscale>
<asrwt>0</asrwt>
<pdfrwt beam="1">  1        1 0.15075452E+00 0.20963671E+04</pdfrwt>
<pdfrwt beam="2">  1       -1 0.17249545E+00 0.20963671E+04</pdfrwt>
<totfact> 0.34056072E+00</totfact>
</mgrwt>
</event>
<event>
12    1  0.2019083E-007  0.1689422E+04  0.7818608E-02  0.8767420E-01
          2   -1    0    0  501    0  0.00000000000E+00  0.00000000000E+00  0.15910295127E+04  0.15910295127E+04  0.00000000000E+00 0.  1.
         -2   -1    0    0    0  501 -0.00000000000E+00 -0.00000000000E+00 -0.44847499984E+03  0.44847499984E+03  0.00000000000E+00 0. -1.
         23    2    1    2    0    0  0.56380976013E+03  0.19102697218E+03  0.49248871809E+03  0.77982345497E+03  0.10586186171E+03 0.  0.
        254    2    1    2    0    0 -0.56380976013E+03 -0.19102697218E+03  0.65006579474E+03  0.12596810575E+04  0.89991003966E+03 0.  0.
        -24    2    4    4    0    0 -0.18743193029E+01 -0.43880736529E+03  0.37107326735E+03  0.58027394530E+03  0.80418063534E+02 0.  0.
         24    2    4    4    0    0 -0.56193544083E+03  0.24778039311E+03  0.27899252739E+03  0.67940711223E+03  0.81182701051E+02 0.  0.
         11    1    3    3    0    0  0.69903718852E+02  0.57800562874E+01  0.10078718617E+03  0.12279249104E+03  0.00000000000E+00 0.  1.
        -11    1    3    3    0    0  0.49390604128E+03  0.18524691589E+03  0.39170153192E+03  0.65703096393E+03  0.00000000000E+00 0. -1.
          4    1    6    6  502    0 -0.77365737933E+01  0.10553098704E+02  0.18585706865E+02  0.22729957457E+02  0.00000000000E+00 0. -1.
          3    1    5    5  503    0  0.25098022555E+02 -0.11002955729E+03  0.64810720839E+02  0.13014162958E+03  0.00000000000E+00 0. -1.
         -4    1    5    5    0  503 -0.26972341857E+02 -0.32877780800E+03  0.30626254651E+03  0.45013231572E+03  0.00000000000E+00 0.  1.
         -3    1    6    6    0  502 -0.55419886703E+03  0.23722729440E+03  0.26040682053E+03  0.65667715478E+03  0.00000000000E+00 0.  1.
<mgrwt>
<rscale>  0 0.16894223E+04</rscale>
<asrwt>0</asrwt>
<pdfrwt beam="1">  1        2 0.24477377E+00 0.16894223E+04</pdfrwt>
<pdfrwt beam="2">  1       -2 0.68996155E-01 0.16894223E+04</pdfrwt>
<totfact> 0.20610109E+01</totfact>
</mgrwt>
</event>
<event>
12    1  0.2019083E-007  0.3025213E+04  0.7818608E-02  0.8236568E-01
          1   -1    0    0  501    0  0.00000000000E+00  0.00000000000E+00  0.20479334407E+04  0.20479334407E+04  0.00000000000E+00 0. -1.
         -1   -1    0    0    0  501 -0.00000000000E+00 -0.00000000000E+00 -0.11172131200E+04  0.11172131200E+04  0.00000000000E+00 0.  1.
         23    2    1    2    0    0 -0.34133742329E+02 -0.12569808138E+04  0.10120120646E+04  0.16164243607E+04  0.86564521919E+02 0.  0.
        254    2    1    2    0    0  0.34133742329E+02  0.12569808138E+04 -0.81291743890E+02  0.15487222000E+04  0.90042558081E+03 0.  0.
        -24    2    4    4    0    0 -0.94561858674E+02  0.10784730602E+04 -0.39585226488E+03  0.11559713736E+04  0.86745110327E+02 0.  0.
         24    2    4    4    0    0  0.12869560100E+03  0.17850775358E+03  0.31456052099E+03  0.39275082645E+03  0.82929575541E+02 0.  0.
         13    1    3    3    0    0 -0.63111005392E+02 -0.84725468218E+03  0.69009233371E+03  0.10945551263E+04  0.00000000000E+00 0.  1.
        -13    1    3    3    0    0  0.28977263062E+02 -0.40972613164E+03  0.32191973086E+03  0.52186923443E+03  0.00000000000E+00 0. -1.
          4    1    6    6  502    0  0.68046816213E+02  0.14237755685E+03  0.17047415928E+03  0.23229975651E+03  0.00000000000E+00 0. -1.
          3    1    5    5  503    0 -0.61699216339E+02  0.85289276335E+03 -0.34693810252E+03  0.92282116688E+03  0.00000000000E+00 0. -1.
         -4    1    5    5    0  503 -0.32862642335E+02  0.22558029689E+03 -0.48914162361E+02  0.23315020670E+03  0.00000000000E+00 0.  1.
         -3    1    6    6    0  502  0.60648784790E+02  0.36130196731E+02  0.14408636171E+03  0.16045106994E+03  0.00000000000E+00 0.  1.
<mgrwt>
<rscale>  0 0.30252128E+04</rscale>
<asrwt>0</asrwt>
<pdfrwt beam="1">  1        1 0.31506668E+00 0.30252128E+04</pdfrwt>
<pdfrwt beam="2">  1       -1 0.17187894E+00 0.30252128E+04</pdfrwt>
<totfact> 0.55966515E-01</totfact>
</mgrwt>
</event>
<event>
12    1  0.2019083E-007  0.1697671E+04  0.7818608E-02  0.8762694E-01
         -2   -1    0    0    0  501 -0.00000000000E+00  0.00000000000E+00  0.63033728402E+03  0.63033728402E+03  0.00000000000E+00 0.  1.
          2   -1    0    0  501    0  0.00000000000E+00 -0.00000000000E+00 -0.11430731006E+04  0.11430731006E+04  0.00000000000E+00 0. -1.
         23    2    1    2    0    0 -0.36582681004E+03 -0.38007051836E+03  0.12553804167E+03  0.54989117653E+03  0.91310745529E+02 0.  0.
        254    2    1    2    0    0  0.36582681004E+03  0.38007051836E+03 -0.63827385827E+03  0.12235192081E+04  0.90073463383E+03 0.  0.
        -24    2    4    4    0    0 -0.56349995913E+02 -0.74949587517E+02  0.16439544174E+03  0.20537050197E+03  0.79739695932E+02 0.  0.
         24    2    4    4    0    0  0.42217680595E+03  0.45502010588E+03 -0.80266930001E+03  0.10181487061E+04  0.84096553924E+02 0.  0.
         11    1    3    3    0    0 -0.15203368657E+03 -0.16074841950E+03  0.66901321799E+01  0.22135729962E+03  0.00000000000E+00 0.  1.
        -11    1    3    3    0    0 -0.21379312347E+03 -0.21932209886E+03  0.11884790949E+03  0.32853387691E+03  0.00000000000E+00 0. -1.
          2    1    6    6  502    0  0.56989521736E+02  0.55292858534E+02 -0.15356522370E+03  0.17287967990E+03  0.00000000000E+00 0. -1.
          3    1    5    5  503    0 -0.23858209730E+02 -0.29881435840E+02  0.13921579344E+03  0.14437157449E+03  0.00000000000E+00 0. -1.
         -4    1    5    5    0  503 -0.32491786182E+02 -0.45068151677E+02  0.25179648302E+02  0.60998927478E+02  0.00000000000E+00 0.  1.
         -1    1    6    6    0  502  0.36518728421E+03  0.39972724734E+03 -0.64910407631E+03  0.84526902623E+03  0.00000000000E+00 0.  1.
<mgrwt>
<rscale>  0 0.16976709E+04</rscale>
<asrwt>0</asrwt>
<pdfrwt beam="1">  1        2 0.17585740E+00 0.16976709E+04</pdfrwt>
<pdfrwt beam="2">  1       -2 0.96974967E-01 0.16976709E+04</pdfrwt>
<totfact> 0.17330665E+01</totfact>
</mgrwt>
</event>
<event>
12    1  0.2019083E-007  0.3827829E+04  0.7818608E-02  0.8040209E-01
          1   -1    0    0  501    0  0.00000000000E+00  0.00000000000E+00  0.38437244676E+04  0.38437244676E+04  0.00000000000E+00 0. -1.
         -1   -1    0    0    0  501 -0.00000000000E+00 -0.00000000000E+00 -0.95299967682E+03  0.95299967682E+03  0.00000000000E+00 0.  1.
         23    2    1    2    0    0 -0.26756671583E+03 -0.17860888438E+04  0.14176763173E+04  0.22978700010E+04  0.93247495045E+02 0.  0.
        254    2    1    2    0    0  0.26756671583E+03  0.17860888438E+04  0.14730484735E+04  0.24988541435E+04  0.90149593433E+03 0.  0.
        -24    2    4    4    0    0  0.54945836184E+03  0.95068332427E+03  0.10349204893E+04  0.15110753303E+04  0.81147768127E+02 0.  0.
         24    2    4    4    0    0 -0.28189164601E+03  0.83540551956E+03  0.43812798424E+03  0.98777881318E+03  0.79909767916E+02 0.  0.
         11    1    3    3    0    0 -0.15603582918E+03 -0.74730029709E+03  0.61742991912E+03  0.98184755388E+03  0.00000000000E+00 0. -1.
        -11    1    3    3    0    0 -0.11153088665E+03 -0.10387885467E+04  0.80024639818E+03  0.13160224471E+04  0.00000000000E+00 0.  1.
          4    1    6    6  502    0 -0.18302574883E+02  0.10741163089E+03  0.32438350771E+02  0.11368592392E+03  0.00000000000E+00 0. -1.
          1    1    5    5  503    0  0.32246490082E+02  0.38563619609E+02  0.69435778890E+02  0.85722320722E+02  0.00000000000E+00 0. -1.
         -2    1    5    5    0  503  0.51721187176E+03  0.91211970466E+03  0.96548471039E+03  0.14253530096E+04  0.00000000000E+00 0.  1.
         -3    1    6    6    0  502 -0.26358907112E+03  0.72799388867E+03  0.40568963347E+03  0.87409288926E+03  0.00000000000E+00 0.  1.
<mgrwt>
<rscale>  0 0.38278287E+04</rscale>
<asrwt>0</asrwt>
<pdfrwt beam="1">  1        1 0.59134222E+00 0.38278287E+04</pdfrwt>
<pdfrwt beam="2">  1       -1 0.14661534E+00 0.38278287E+04</pdfrwt>
<totfact> 0.38455367E-02</totfact>
</mgrwt>
</event>
<event>
12    1  0.2019083E-007  0.1076034E+04  0.7818608E-02  0.9228871E-01
         -1   -1    0    0    0  501 -0.00000000000E+00  0.00000000000E+00  0.12760508553E+03  0.12760508553E+03  0.00000000000E+00 0.  1.
          1   -1    0    0  501    0  0.00000000000E+00 -0.00000000000E+00 -0.22684222952E+04  0.22684222952E+04  0.00000000000E+00 0. -1.
         23    2    1    2    0    0  0.11802381911E+03 -0.12786339222E+01 -0.49371928519E+03  0.51543177423E+03  0.89330423350E+02 0.  0.
        254    2    1    2    0    0 -0.11802381911E+03  0.12786339222E+01 -0.16470979245E+04  0.18805956065E+04  0.89987610569E+03 0.  0.
        -24    2    4    4    0    0 -0.37697145322E+03 -0.21264681708E+03 -0.42932533011E+03  0.61476128265E+03  0.79278308561E+02 0.  0.
         24    2    4    4    0    0  0.25894763412E+03  0.21392545100E+03 -0.12177725944E+04  0.12658343239E+04  0.80922605309E+02 0.  0.
         13    1    3    3    0    0 -0.12059681405E+02  0.95623966300E+01 -0.30380352538E+02  0.34056440878E+02  0.00000000000E+00 0.  1.
        -13    1    3    3    0    0  0.13008350051E+03 -0.10841030552E+02 -0.46333893265E+03  0.48137533335E+03  0.00000000000E+00 0. -1.
          4    1    6    6  502    0  0.19809981579E+03  0.11427635355E+03 -0.81513438480E+03  0.84660893409E+03  0.00000000000E+00 0. -1.
          3    1    5    5  503    0 -0.37970004858E+03 -0.21090623603E+03 -0.41735447046E+03  0.60236062397E+03  0.00000000000E+00 0. -1.
         -4    1    5    5    0  503  0.27285953603E+01 -0.17405810521E+01 -0.11970859645E+02  0.12400658679E+02  0.00000000000E+00 0.  1.
         -1    1    6    6    0  502  0.60847818322E+02  0.99649097452E+02 -0.40263820957E+03  0.41922538977E+03  0.00000000000E+00 0.  1.
<mgrwt>
<rscale>  0 0.10760339E+04</rscale>
<asrwt>0</asrwt>
<pdfrwt beam="1">  1        1 0.34898801E+00 0.10760339E+04</pdfrwt>
<pdfrwt beam="2">  1       -1 0.19631554E-01 0.10760339E+04</pdfrwt>
<totfact> 0.41459995E+01</totfact>
</mgrwt>
</event>
<event>
12    1  0.2019083E-007  0.1965734E+04  0.7818608E-02  0.8622811E-01
         -1   -1    0    0    0  501 -0.00000000000E+00  0.00000000000E+00  0.45132557306E+03  0.45132557306E+03  0.00000000000E+00 0.  1.
          1   -1    0    0  501    0  0.00000000000E+00 -0.00000000000E+00 -0.21404218222E+04  0.21404218222E+04  0.00000000000E+00 0. -1.
         23    2    1    2    0    0 -0.74727795589E+03 -0.15139374777E+03 -0.85032895600E+03  0.11458957306E+04  0.93130455184E+02 0.  0.
        254    2    1    2    0    0  0.74727795589E+03  0.15139374777E+03 -0.83876729316E+03  0.14458516647E+04  0.89755894184E+03 0.  0.
        -24    2    4    4    0    0  0.92849614074E+03  0.23333668468E+03 -0.64914328651E+03  0.11594715846E+04  0.80226288316E+02 0.  0.
         24    2    4    4    0    0 -0.18121818485E+03 -0.81942936908E+02 -0.18962400665E+03  0.28638008010E+03  0.80632567544E+02 0.  0.
         11    1    3    3    0    0 -0.36749230923E+03 -0.86632664733E+02 -0.35378992915E+03  0.51741968450E+03  0.00000000000E+00 0.  1.
        -11    1    3    3    0    0 -0.37978564666E+03 -0.64761083037E+02 -0.49653902685E+03  0.62847604606E+03  0.00000000000E+00 0. -1.
          4    1    6    6  502    0 -0.16880326177E+03 -0.49971742042E+02 -0.17751921507E+03  0.25000957563E+03  0.00000000000E+00 0. -1.
          3    1    5    5  503    0  0.85222085951E+03  0.23045341197E+03 -0.57863882163E+03  0.10555624351E+04  0.00000000000E+00 0. -1.
         -4    1    5    5    0  503  0.76275281224E+02  0.28832727027E+01 -0.70504464881E+02  0.10390914953E+03  0.00000000000E+00 0.  1.
         -3    1    6    6    0  502 -0.12414923083E+02 -0.31971194866E+02 -0.12104791584E+02  0.36370504473E+02  0.00000000000E+00 0.  1.
<mgrwt>
<rscale>  0 0.19657336E+04</rscale>
<asrwt>0</asrwt>
<pdfrwt beam="1">  1        1 0.32929567E+00 0.19657336E+04</pdfrwt>
<pdfrwt beam="2">  1       -1 0.69434703E-01 0.19657336E+04</pdfrwt>
<totfact> 0.46691795E+00</totfact>
</mgrwt>
</event>
<event>
12    1  0.2019083E-007  0.2147740E+04  0.7818608E-02  0.8540500E-01
          2   -1    0    0  501    0  0.00000000000E+00  0.00000000000E+00  0.13415658748E+04  0.13415658748E+04  0.00000000000E+00 0. -1.
         -2   -1    0    0    0  501 -0.00000000000E+00 -0.00000000000E+00 -0.85958987594E+03  0.85958987594E+03  0.00000000000E+00 0.  1.
         23    2    1    2    0    0  0.83049760895E+03 -0.26412930630E+02  0.51629797908E+03  0.98246629725E+03  0.90843275190E+02 0.  0.
        254    2    1    2    0    0 -0.83049760895E+03  0.26412930630E+02 -0.34321980268E+02  0.12186894535E+04  0.89084345665E+03 0.  0.
        -24    2    4    4    0    0 -0.44837717651E+03 -0.36336482234E+03 -0.23928930392E+03  0.63023217895E+03  0.82807861253E+02 0.  0.
         24    2    4    4    0    0 -0.38212043244E+03  0.38977775297E+03  0.20496732365E+03  0.58845727450E+03  0.79546455293E+02 0.  0.
         11    1    3    3    0    0  0.13165303308E+03 -0.22307774792E+02  0.11727636839E+03  0.17771861050E+03  0.00000000000E+00 0. -1.
        -11    1    3    3    0    0  0.69884457587E+03 -0.41051558374E+01  0.39902161070E+03  0.80474768675E+03  0.00000000000E+00 0.  1.
          4    1    6    6  502    0 -0.34708650418E+03  0.34909054990E+03  0.20859075938E+03  0.53464320655E+03  0.00000000000E+00 0. -1.
          3    1    5    5  503    0 -0.44125102231E+03 -0.33872515031E+03 -0.22024257744E+03  0.59828420091E+03  0.00000000000E+00 0. -1.
         -4    1    5    5    0  503 -0.71261542063E+01 -0.24639672031E+02 -0.19046726480E+02  0.31947978045E+02  0.00000000000E+00 0.  1.
         -1    1    6    6    0  502 -0.35033928260E+02  0.40687203067E+02 -0.36234357240E+01  0.53814067949E+02  0.00000000000E+00 0.  1.
<mgrwt>
<rscale>  0 0.21477397E+04</rscale>
<asrwt>0</asrwt>
<pdfrwt beam="1">  1        2 0.20639475E+00 0.21477397E+04</pdfrwt>
<pdfrwt beam="2">  1       -2 0.13224460E+00 0.21477397E+04</pdfrwt>
<totfact> 0.59697285E+00</totfact>
</mgrwt>
</event>
<event>
12    1  0.2019083E-007  0.1818169E+04  0.7818608E-02  0.8696697E-01
         -1   -1    0    0    0  501 -0.00000000000E+00  0.00000000000E+00  0.35809884836E+03  0.35809884836E+03  0.00000000000E+00 0.  1.
          1   -1    0    0  501    0  0.00000000000E+00 -0.00000000000E+00 -0.23078384371E+04  0.23078384371E+04  0.00000000000E+00 0. -1.
         23    2    1    2    0    0  0.56743365046E+03 -0.27854639611E+03 -0.11180565235E+04  0.12875347099E+04  0.90145421319E+02 0.  0.
        254    2    1    2    0    0 -0.56743365046E+03  0.27854639611E+03 -0.83168306518E+03  0.13784025755E+04  0.89929299833E+03 0.  0.
        -24    2    4    4    0    0 -0.56353653283E+03 -0.20431004083E+03 -0.52286369082E+03  0.79951325822E+03  0.80740289073E+02 0.  0.
         24    2    4    4    0    0 -0.38971176325E+01  0.48285643694E+03 -0.30881937436E+03  0.57888931730E+03  0.81104312369E+02 0.  0.
         11    1    3    3    0    0  0.22595297139E+03 -0.15940652837E+03 -0.46434527093E+03  0.54044585039E+03  0.00000000000E+00 0.  1.
        -11    1    3    3    0    0  0.34148067907E+03 -0.11913986774E+03 -0.65371125262E+03  0.74708885955E+03  0.00000000000E+00 0. -1.
          4    1    6    6  502    0  0.55368767121E+01  0.46106503241E+03 -0.27281900164E+03  0.53576284751E+03  0.00000000000E+00 0. -1.
          1    1    5    5  503    0 -0.48661961122E+03 -0.15555730018E+03 -0.41387848637E+03  0.65748925553E+03  0.00000000000E+00 0. -1.
         -2    1    5    5    0  503 -0.76916921607E+02 -0.48752740652E+02 -0.10898520445E+03  0.14202400269E+03  0.00000000000E+00 0.  1.
         -3    1    6    6    0  502 -0.94339943446E+01  0.21791404523E+02 -0.36000372715E+02  0.43126469784E+02  0.00000000000E+00 0.  1.
<mgrwt>
<rscale>  0 0.18181686E+04</rscale>
<asrwt>0</asrwt>
<pdfrwt beam="1">  1        1 0.35505207E+00 0.18181686E+04</pdfrwt>
<pdfrwt beam="2">  1       -1 0.55092130E-01 0.18181686E+04</pdfrwt>
<totfact> 0.57708917E+00</totfact>
</mgrwt>
</event>
<event>
12    1  0.2019083E-007  0.2469629E+04  0.7818608E-02  0.8413886E-01
         -2   -1    0    0    0  501 -0.00000000000E+00  0.00000000000E+00  0.88254601502E+03  0.88254601502E+03  0.00000000000E+00 0.  1.
          2   -1    0    0  501    0  0.00000000000E+00 -0.00000000000E+00 -0.17276909551E+04  0.17276909551E+04  0.00000000000E+00 0. -1.
         23    2    1    2    0    0  0.41845036035E+03  0.89070589110E+03  0.73304476387E+02  0.99092264831E+03  0.89980332033E+02 0.  0.
        254    2    1    2    0    0 -0.41845036035E+03 -0.89070589110E+03 -0.91844941651E+03  0.16193143219E+04  0.90009546925E+03 0.  0.
        -24    2    4    4    0    0  0.52242180155E+01  0.10796062637E+03 -0.38300407313E+03  0.40640412227E+03  0.82397823171E+02 0.  0.
         24    2    4    4    0    0 -0.42367457837E+03 -0.99866651747E+03 -0.53544534338E+03  0.12129101996E+04  0.87260959513E+02 0.  0.
         11    1    3    3    0    0  0.21333021844E+03  0.54317193796E+03  0.66226714269E+02  0.58730870415E+03  0.00000000000E+00 0. -1.
        -11    1    3    3    0    0  0.20512014191E+03  0.34753395314E+03  0.70777621178E+01  0.40361394416E+03  0.00000000000E+00 0.  1.
          2    1    6    6  502    0 -0.38436811356E+03 -0.82365087455E+03 -0.44403198598E+03  0.10115849022E+04  0.00000000000E+00 0. -1.
          1    1    5    5  503    0  0.38727256389E+02  0.25919519076E+02 -0.11310374718E+03  0.12232775434E+03  0.00000000000E+00 0. -1.
         -2    1    5    5    0  503 -0.33503038373E+02  0.82041107290E+02 -0.26990032595E+03  0.28407636792E+03  0.00000000000E+00 0.  1.
         -1    1    6    6    0  502 -0.39306464810E+02 -0.17501564291E+03 -0.91413357406E+02  0.20132529735E+03  0.00000000000E+00 0.  1.
<mgrwt>
<rscale>  0 0.24696289E+04</rscale>
<asrwt>0</asrwt>
<pdfrwt beam="1">  1        2 0.26579861E+00 0.24696289E+04</pdfrwt>
<pdfrwt beam="2">  1       -2 0.13577631E+00 0.24696289E+04</pdfrwt>
<totfact> 0.32905118E+00</totfact>
</mgrwt>
</event>
<event>
12    1  0.2019083E-007  0.2005326E+04  0.7818608E-02  0.8604135E-01
         -1   -1    0    0    0  501 -0.00000000000E+00  0.00000000000E+00  0.68732861441E+03  0.68732861441E+03  0.00000000000E+00 0.  1.
          1   -1    0    0  501    0  0.00000000000E+00 -0.00000000000E+00 -0.14626675619E+04  0.14626675619E+04  0.00000000000E+00 0. -1.
         23    2    1    2    0    0  0.77694446586E+02  0.68039475853E+03  0.12903579739E+03  0.70230153431E+03  0.87199504712E+02 0.  0.
        254    2    1    2    0    0 -0.77694446586E+02 -0.68039475853E+03 -0.90437474491E+03  0.14476946420E+04  0.89941794671E+03 0.  0.
        -24    2    4    4    0    0  0.37688981431E+03 -0.16131062036E+03 -0.21300823474E+03  0.46750550856E+03  0.71567060146E+02 0.  0.
         24    2    4    4    0    0 -0.45458426089E+03 -0.51908413816E+03 -0.69136651017E+03  0.98018913347E+03  0.81779540508E+02 0.  0.
         13    1    3    3    0    0  0.84644634316E+02  0.67323841838E+03  0.13320430457E+03  0.69148974602E+03  0.00000000000E+00 0. -1.
        -13    1    3    3    0    0 -0.69501877297E+01  0.71563401511E+01 -0.41685071822E+01  0.10811788287E+02  0.00000000000E+00 0.  1.
          2    1    6    6  502    0 -0.71226775083E+01 -0.14649476764E+02 -0.37679072957E+02  0.41049387855E+02  0.00000000000E+00 0. -1.
          3    1    5    5  503    0  0.26932423049E+02 -0.19029918897E+02  0.16222728181E+01  0.33017040958E+02  0.00000000000E+00 0. -1.
         -4    1    5    5    0  503  0.34995739126E+03 -0.14228070147E+03 -0.21463050756E+03  0.43448846760E+03  0.00000000000E+00 0.  1.
         -1    1    6    6    0  502 -0.44746158338E+03 -0.50443466140E+03 -0.65368743721E+03  0.93913974562E+03  0.00000000000E+00 0.  1.
<mgrwt>
<rscale>  0 0.20053262E+04</rscale>
<asrwt>0</asrwt>
<pdfrwt beam="1">  1        1 0.22502577E+00 0.20053262E+04</pdfrwt>
<pdfrwt beam="2">  1       -1 0.10574287E+00 0.20053262E+04</pdfrwt>
<totfact> 0.53925384E+00</totfact>
</mgrwt>
</event>
<event>
12    1  0.2019083E-007  0.1813989E+04  0.7818608E-02  0.8698896E-01
         -1   -1    0    0    0  501 -0.00000000000E+00  0.00000000000E+00  0.10464144392E+04  0.10464144392E+04  0.00000000000E+00 0.  1.
          1   -1    0    0  501    0  0.00000000000E+00 -0.00000000000E+00 -0.78615005559E+03  0.78615005559E+03  0.00000000000E+00 0. -1.
         23    2    1    2    0    0  0.43263766060E+03  0.45866503878E+03 -0.15885752003E+03  0.65603688197E+03  0.87176348079E+02 0.  0.
        254    2    1    2    0    0 -0.43263766060E+03 -0.45866503878E+03  0.41912190360E+03  0.11765276128E+04  0.90055821043E+03 0.  0.
        -24    2    4    4    0    0 -0.10432958392E+03 -0.21092320113E+03 -0.27202284972E+03  0.36843738797E+03  0.79852484158E+02 0.  0.
         24    2    4    4    0    0 -0.32830807668E+03 -0.24774183766E+03  0.69114475332E+03  0.80809022481E+03  0.78527256746E+02 0.  0.
         13    1    3    3    0    0  0.82348365621E+02  0.90388254830E+02 -0.67369603712E+02  0.13960642333E+03  0.00000000000E+00 0. -1.
        -13    1    3    3    0    0  0.35028929498E+03  0.36827678395E+03 -0.91487916316E+02  0.51643045864E+03  0.00000000000E+00 0.  1.
          4    1    6    6  502    0 -0.10192251296E+03 -0.12419462023E+03  0.25461174077E+03  0.30106418066E+03  0.00000000000E+00 0. -1.
          1    1    5    5  503    0 -0.59189872481E+02 -0.39409716243E+02 -0.80505869009E+02  0.10741397341E+03  0.00000000000E+00 0. -1.
         -4    1    5    5    0  503 -0.45139711441E+02 -0.17151348488E+03 -0.19151698071E+03  0.26102341456E+03  0.00000000000E+00 0.  1.
         -3    1    6    6    0  502 -0.22638556372E+03 -0.12354721743E+03  0.43653301255E+03  0.50702604415E+03  0.00000000000E+00 0.  1.
<mgrwt>
<rscale>  0 0.18139887E+04</rscale>
<asrwt>0</asrwt>
<pdfrwt beam="1">  1        1 0.12094616E+00 0.18139887E+04</pdfrwt>
<pdfrwt beam="2">  1       -1 0.16098684E+00 0.18139887E+04</pdfrwt>
<totfact> 0.61557987E+00</totfact>
</mgrwt>
</event>
<event>
12    1  0.2019083E-007  0.1381287E+04  0.7818608E-02  0.8967477E-01
          2   -1    0    0  501    0  0.00000000000E+00  0.00000000000E+00  0.18824885142E+04  0.18824885142E+04  0.00000000000E+00 0.  1.
         -2   -1    0    0    0  501 -0.00000000000E+00 -0.00000000000E+00 -0.25338182298E+03  0.25338182298E+03  0.00000000000E+00 0. -1.
         23    2    1    2    0    0 -0.32285052079E+03 -0.19932614948E+03  0.33041544979E+03  0.51123334544E+03  0.90674094408E+02 0.  0.
        254    2    1    2    0    0  0.32285052079E+03  0.19932614948E+03  0.12986912414E+04  0.16246369917E+04  0.89937925354E+03 0.  0.
        -24    2    4    4    0    0  0.15782418871E+03  0.30997572986E+03  0.53444265361E+02  0.36117186143E+03  0.81212045554E+02 0.  0.
         24    2    4    4    0    0  0.16502633208E+03 -0.11064958039E+03  0.12452469760E+04  0.12634651303E+04  0.78911876084E+02 0.  0.
         13    1    3    3    0    0 -0.28673551147E+03 -0.18645888266E+03  0.25497653211E+03  0.42661129895E+03  0.00000000000E+00 0. -1.
        -13    1    3    3    0    0 -0.36115009316E+02 -0.12867266815E+02  0.75438917671E+02  0.84622046493E+02  0.00000000000E+00 0.  1.
          2    1    6    6  502    0  0.26209877589E+02 -0.19670395219E+02  0.79914165282E+02  0.86372194276E+02  0.00000000000E+00 0. -1.
          1    1    5    5  503    0 -0.33624194788E+01  0.32948219952E+02  0.20558172325E+02  0.38981143032E+02  0.00000000000E+00 0. -1.
         -2    1    5    5    0  503  0.16118660819E+03  0.27702750991E+03  0.32886093036E+02  0.32219071840E+03  0.00000000000E+00 0.  1.
         -1    1    6    6    0  502  0.13881645449E+03 -0.90979185167E+02  0.11653328107E+04  0.11770929360E+04  0.00000000000E+00 0.  1.
<mgrwt>
<rscale>  0 0.13812869E+04</rscale>
<asrwt>0</asrwt>
<pdfrwt beam="1">  1        2 0.28961361E+00 0.13812869E+04</pdfrwt>
<pdfrwt beam="2">  1       -2 0.38981820E-01 0.13812869E+04</pdfrwt>
<totfact> 0.47087775E+01</totfact>
</mgrwt>
</event>
<event>
12    1  0.2019083E-007  0.1910189E+04  0.7818608E-02  0.8649801E-01
         -1   -1    0    0    0  501 -0.00000000000E+00  0.00000000000E+00  0.92870096348E+03  0.92870096348E+03  0.00000000000E+00 0.  1.
          1   -1    0    0  501    0  0.00000000000E+00 -0.00000000000E+00 -0.98223792154E+03  0.98223792154E+03  0.00000000000E+00 0. -1.
         23    2    1    2    0    0  0.26219818617E+03  0.69069378998E+03 -0.31971367140E+02  0.74512925834E+03  0.91594994225E+02 0.  0.
        254    2    1    2    0    0 -0.26219818617E+03 -0.69069378998E+03 -0.21565590925E+02  0.11658096267E+04  0.90157706858E+03 0.  0.
        -24    2    4    4    0    0  0.31125261553E+03 -0.16890374296E+03 -0.11398998726E+03  0.38100597961E+03  0.82250679268E+02 0.  0.
         24    2    4    4    0    0 -0.57345080170E+03 -0.52179004703E+03  0.92424396332E+02  0.78480364707E+03  0.79144300341E+02 0.  0.
         11    1    3    3    0    0  0.77640728373E+02  0.32390671759E+03  0.24024553166E+01  0.33309070266E+03  0.00000000000E+00 0. -1.
        -11    1    3    3    0    0  0.18455745780E+03  0.36678707239E+03 -0.34373822457E+02  0.41203855568E+03  0.00000000000E+00 0.  1.
          2    1    6    6  502    0 -0.13942522873E+03 -0.17463729189E+03  0.32008367224E+02  0.22574789854E+03  0.00000000000E+00 0. -1.
          1    1    5    5  503    0  0.23229656127E+03 -0.92976352810E+02 -0.53479703199E+02  0.25586397404E+03  0.00000000000E+00 0. -1.
         -2    1    5    5    0  503  0.78956054264E+02 -0.75927390146E+02 -0.60510284059E+02  0.12514200556E+03  0.00000000000E+00 0.  1.
         -1    1    6    6    0  502 -0.43402557297E+03 -0.34715275514E+03  0.60416029108E+02  0.55905574853E+03  0.00000000000E+00 0.  1.
<mgrwt>
<rscale>  0 0.19101888E+04</rscale>
<asrwt>0</asrwt>
<pdfrwt beam="1">  1        1 0.15111353E+00 0.19101888E+04</pdfrwt>
<pdfrwt beam="2">  1       -1 0.14287707E+00 0.19101888E+04</pdfrwt>
<totfact> 0.58040395E+00</totfact>
</mgrwt>
</event>
<event>
12    1  0.2019083E-007  0.1291475E+04  0.7818608E-02  0.9036353E-01
          2   -1    0    0  501    0  0.00000000000E+00  0.00000000000E+00  0.15659652272E+04  0.15659652272E+04  0.00000000000E+00 0. -1.
         -2   -1    0    0    0  501 -0.00000000000E+00 -0.00000000000E+00 -0.26627455437E+03  0.26627455437E+03  0.00000000000E+00 0.  1.
         23    2    1    2    0    0  0.26045031330E+03  0.56554977845E+02  0.59417945389E+03  0.65740660922E+03  0.90007750850E+02 0.  0.
        254    2    1    2    0    0 -0.26045031330E+03 -0.56554977845E+02  0.70551121890E+03  0.11748331723E+04  0.90080745530E+03 0.  0.
        -24    2    4    4    0    0  0.27924819252E+03  0.44870291812E+02  0.50590227773E+03  0.58507470906E+03  0.79889952137E+02 0.  0.
         24    2    4    4    0    0 -0.53969850583E+03 -0.10142526966E+03  0.19960894117E+03  0.58975846324E+03  0.80060933370E+02 0.  0.
         11    1    3    3    0    0  0.19496683840E+03  0.78324884903E+02  0.48035723630E+03  0.52429946609E+03  0.00000000000E+00 0. -1.
        -11    1    3    3    0    0  0.65483474902E+02 -0.21769907058E+02  0.11382221758E+03  0.13310714314E+03  0.00000000000E+00 0.  1.
          2    1    6    6  502    0 -0.51360068112E+03 -0.86854125996E+02  0.20425751971E+03  0.55950910020E+03  0.00000000000E+00 0. -1.
          3    1    5    5  503    0  0.20379537654E+03  0.92999507236E+01  0.29877583939E+03  0.36178176679E+03  0.00000000000E+00 0. -1.
         -4    1    5    5    0  503  0.75452815984E+02  0.35570341088E+02  0.20712643834E+03  0.22329294227E+03  0.00000000000E+00 0.  1.
         -1    1    6    6    0  502 -0.26097824706E+02 -0.14571143661E+02 -0.46485785352E+01  0.30249363040E+02  0.00000000000E+00 0.  1.
<mgrwt>
<rscale>  0 0.12914747E+04</rscale>
<asrwt>0</asrwt>
<pdfrwt beam="1">  1        2 0.24091772E+00 0.12914747E+04</pdfrwt>
<pdfrwt beam="2">  1       -2 0.40965317E-01 0.12914747E+04</pdfrwt>
<totfact> 0.64474711E+01</totfact>
</mgrwt>
</event>
<event>
12    1  0.2019083E-007  0.1485043E+04  0.7818608E-02  0.8894460E-01
         -2   -1    0    0    0  501 -0.00000000000E+00  0.00000000000E+00  0.14314281768E+03  0.14314281768E+03  0.00000000000E+00 0.  1.
          2   -1    0    0  501    0  0.00000000000E+00 -0.00000000000E+00 -0.38516665416E+04  0.38516665416E+04  0.00000000000E+00 0. -1.
         23    2    1    2    0    0 -0.16754887424E+03  0.14712429159E+03 -0.85930960420E+02  0.25520344602E+03  0.89590660603E+02 0.  0.
        254    2    1    2    0    0  0.16754887424E+03 -0.14712429159E+03 -0.36225927635E+04  0.37396059132E+04  0.90097495743E+03 0.  0.
        -24    2    4    4    0    0  0.22563519034E+03 -0.29212450002E+03 -0.58073494167E+03  0.69290797755E+03  0.81366026389E+02 0.  0.
         24    2    4    4    0    0 -0.58086316103E+02  0.14500020843E+03 -0.30418578218E+04  0.30466979357E+04  0.71205495948E+02 0.  0.
         13    1    3    3    0    0 -0.42683843052E+02  0.27192265120E+02 -0.62610401955E+02  0.80507093930E+02  0.00000000000E+00 0. -1.
        -13    1    3    3    0    0 -0.12486503119E+03  0.11993202647E+03 -0.23320558465E+02  0.17469635209E+03  0.00000000000E+00 0.  1.
          2    1    6    6  502    0 -0.58925176922E+02  0.15043587065E+03 -0.30125001037E+04  0.30168294619E+04  0.00000000000E+00 0. -1.
          3    1    5    5  503    0  0.23103727339E+03 -0.27815044599E+03 -0.56756434748E+03  0.67296001428E+03  0.00000000000E+00 0. -1.
         -4    1    5    5    0  503 -0.54020830431E+01 -0.13974054031E+02 -0.13170594189E+02  0.19947963269E+02  0.00000000000E+00 0.  1.
         -1    1    6    6    0  502  0.83886081889E+00 -0.54356622183E+01 -0.29357718112E+02  0.29868473747E+02  0.00000000000E+00 0.  1.
<mgrwt>
<rscale>  0 0.14850433E+04</rscale>
<asrwt>0</asrwt>
<pdfrwt beam="1">  1        2 0.59256404E+00 0.14850433E+04</pdfrwt>
<pdfrwt beam="2">  1       -2 0.22021974E-01 0.14850433E+04</pdfrwt>
<totfact> 0.79826996E+00</totfact>
</mgrwt>
</event>
<event>
12    1  0.2019083E-007  0.3883156E+04  0.7818608E-02  0.8028542E-01
          1   -1    0    0  501    0  0.00000000000E+00  0.00000000000E+00  0.10294400036E+04  0.10294400036E+04  0.00000000000E+00 0. -1.
         -1   -1    0    0    0  501 -0.00000000000E+00 -0.00000000000E+00 -0.36619181451E+04  0.36619181451E+04  0.00000000000E+00 0.  1.
         23    2    1    2    0    0  0.11703341890E+04  0.11177503911E+04 -0.22930220570E+04  0.28080417494E+04  0.90001452479E+02 0.  0.
        254    2    1    2    0    0 -0.11703341890E+04 -0.11177503911E+04 -0.33945608445E+03  0.18833163994E+04  0.90144449408E+03 0.  0.
        -24    2    4    4    0    0 -0.31747987268E+03  0.11136649418E+03  0.45753643313E+01  0.34606019928E+03  0.80874977482E+02 0.  0.
         24    2    4    4    0    0 -0.85285431637E+03 -0.12291168853E+04 -0.34403144878E+03  0.15372562001E+04  0.81915714306E+02 0.  0.
         13    1    3    3    0    0  0.64883326898E+03  0.59550484010E+03 -0.11757721905E+04  0.14690305883E+04  0.00000000000E+00 0. -1.
        -13    1    3    3    0    0  0.52150092007E+03  0.52224555103E+03 -0.11172498665E+04  0.13390111611E+04  0.00000000000E+00 0.  1.
          4    1    6    6  502    0 -0.63401510033E+03 -0.96237498778E+03 -0.28570376479E+03  0.11873362648E+04  0.00000000000E+00 0. -1.
          3    1    5    5  503    0 -0.30599100576E+03  0.90467948893E+02 -0.78252776102E+01  0.31918048241E+03  0.00000000000E+00 0. -1.
         -4    1    5    5    0  503 -0.11488866918E+02  0.20898545285E+02  0.12400641942E+02  0.26879716863E+02  0.00000000000E+00 0.  1.
         -3    1    6    6    0  502 -0.21883921603E+03 -0.26674189752E+03 -0.58327683996E+02  0.34991993525E+03  0.00000000000E+00 0.  1.
<mgrwt>
<rscale>  0 0.38831559E+04</rscale>
<asrwt>0</asrwt>
<pdfrwt beam="1">  1        1 0.15837538E+00 0.38831559E+04</pdfrwt>
<pdfrwt beam="2">  1       -1 0.56337202E+00 0.38831559E+04</pdfrwt>
<totfact> 0.72703083E-03</totfact>
</mgrwt>
</event>
<event>
12    1  0.2019083E-007  0.2414396E+04  0.7818608E-02  0.8434133E-01
          1   -1    0    0  501    0  0.00000000000E+00  0.00000000000E+00  0.31800274669E+04  0.31800274669E+04  0.00000000000E+00 0. -1.
         -1   -1    0    0    0  501 -0.00000000000E+00 -0.00000000000E+00 -0.45827515818E+03  0.45827515818E+03  0.00000000000E+00 0.  1.
         23    2    1    2    0    0  0.25276382494E+03  0.93062628273E+03  0.59335246106E+03  0.11364309953E+04  0.97228775752E+02 0.  0.
        254    2    1    2    0    0 -0.25276382494E+03 -0.93062628273E+03  0.21283998477E+04  0.25018716298E+04  0.89404748803E+03 0.  0.
        -24    2    4    4    0    0  0.26543318338E+03 -0.37356850449E+02  0.45023278539E+03  0.52983034078E+03  0.78487705127E+02 0.  0.
         24    2    4    4    0    0 -0.51819700832E+03 -0.89326943228E+03  0.16781670623E+04  0.19720412890E+04  0.79017329652E+02 0.  0.
         11    1    3    3    0    0  0.37122302059E+02  0.30356589998E+03  0.20049488449E+03  0.36568910245E+03  0.00000000000E+00 0. -1.
        -11    1    3    3    0    0  0.21564152289E+03  0.62706038274E+03  0.39285757657E+03  0.77074189290E+03  0.00000000000E+00 0.  1.
          4    1    6    6  502    0 -0.38341764374E+03 -0.60677648115E+03  0.12098058474E+04  0.14067042958E+04  0.00000000000E+00 0. -1.
          1    1    5    5  503    0  0.14429250081E+03 -0.16897586733E+02  0.16853901104E+03  0.22251124122E+03  0.00000000000E+00 0. -1.
         -2    1    5    5    0  503  0.12114068257E+03 -0.20459263716E+02  0.28169377436E+03  0.30731909956E+03  0.00000000000E+00 0.  1.
         -3    1    6    6    0  502 -0.13477936458E+03 -0.28649295113E+03  0.46836121495E+03  0.56533699316E+03  0.00000000000E+00 0.  1.
<mgrwt>
<rscale>  0 0.24143965E+04</rscale>
<asrwt>0</asrwt>
<pdfrwt beam="1">  1        1 0.48923498E+00 0.24143965E+04</pdfrwt>
<pdfrwt beam="2">  1       -1 0.70503872E-01 0.24143965E+04</pdfrwt>
<totfact> 0.80100406E-01</totfact>
</mgrwt>
</event>
<event>
12    1  0.2019083E-007  0.1234744E+04  0.7818608E-02  0.9082977E-01
         -1   -1    0    0    0  501 -0.00000000000E+00  0.00000000000E+00  0.20779316193E+03  0.20779316193E+03  0.00000000000E+00 0.  1.
          1   -1    0    0  501    0  0.00000000000E+00 -0.00000000000E+00 -0.18342666160E+04  0.18342666160E+04  0.00000000000E+00 0. -1.
         23    2    1    2    0    0 -0.22252237752E+03  0.68906007097E+02 -0.13401319512E+03  0.28433637885E+03  0.92862228908E+02 0.  0.
        254    2    1    2    0    0  0.22252237752E+03 -0.68906007097E+02 -0.14924602589E+04  0.17577233991E+04  0.89882683359E+03 0.  0.
        -24    2    4    4    0    0  0.15774765197E+03 -0.45379744174E+03 -0.55060777895E+03  0.73502795738E+03  0.79251069712E+02 0.  0.
         24    2    4    4    0    0  0.64774725550E+02  0.38489143464E+03 -0.94185247999E+03  0.10226954417E+04  0.80515159127E+02 0.  0.
         11    1    3    3    0    0 -0.85393589505E+02  0.47756758472E+02 -0.10319675063E+03  0.14220528277E+03  0.00000000000E+00 0. -1.
        -11    1    3    3    0    0 -0.13712878802E+03  0.21149248625E+02 -0.30816444494E+02  0.14213109608E+03  0.00000000000E+00 0.  1.
          2    1    6    6  502    0 -0.64758294064E+01  0.16004881985E+03 -0.32612456579E+03  0.36333840083E+03  0.00000000000E+00 0. -1.
          3    1    5    5  503    0  0.15363153994E+03 -0.34070757371E+03 -0.42528725195E+03  0.56617448505E+03  0.00000000000E+00 0. -1.
         -4    1    5    5    0  503  0.41161120298E+01 -0.11308986803E+03 -0.12532052700E+03  0.16885347233E+03  0.00000000000E+00 0.  1.
         -1    1    6    6    0  502  0.71250554956E+02  0.22484261480E+03 -0.61572791419E+03  0.65935704086E+03  0.00000000000E+00 0.  1.
<mgrwt>
<rscale>  0 0.12347438E+04</rscale>
<asrwt>0</asrwt>
<pdfrwt beam="1">  1        1 0.28219485E+00 0.12347438E+04</pdfrwt>
<pdfrwt beam="2">  1       -1 0.31968180E-01 0.12347438E+04</pdfrwt>
<totfact> 0.34797677E+01</totfact>
</mgrwt>
</event>
<event>
12    1  0.2019083E-007  0.2034051E+04  0.7818608E-02  0.8590864E-01
         -2   -1    0    0    0  501 -0.00000000000E+00  0.00000000000E+00  0.57499693446E+03  0.57499693446E+03  0.00000000000E+00 0.  1.
          2   -1    0    0  501    0  0.00000000000E+00 -0.00000000000E+00 -0.17988630729E+04  0.17988630729E+04  0.00000000000E+00 0. -1.
         23    2    1    2    0    0  0.83053633786E+02 -0.37116568812E+03 -0.13344803827E+04  0.13904974801E+04  0.89350300874E+02 0.  0.
        254    2    1    2    0    0 -0.83053633786E+02  0.37116568812E+03  0.11061424424E+03  0.98336252726E+03  0.90005803973E+03 0.  0.
        -24    2    4    4    0    0 -0.42090348625E+03  0.17251262558E+03  0.28950069657E+03  0.54514137510E+03  0.80300154452E+02 0.  0.
         24    2    4    4    0    0  0.33784985247E+03  0.19865306254E+03 -0.17888645232E+03  0.43822115217E+03  0.80198836124E+02 0.  0.
         13    1    3    3    0    0  0.77008954727E+02 -0.31988162199E+03 -0.12390617755E+04  0.12820018388E+04  0.00000000000E+00 0. -1.
        -13    1    3    3    0    0  0.60446790596E+01 -0.51284066130E+02 -0.95418607257E+02  0.10849564136E+03  0.00000000000E+00 0.  1.
          2    1    6    6  502    0  0.12422111776E+03  0.30388796388E+02 -0.64106944327E+02  0.14305266636E+03  0.00000000000E+00 0. -1.
          3    1    5    5  503    0 -0.68364214253E+02  0.18922041713E+02  0.81145495782E+02  0.10777894478E+03  0.00000000000E+00 0. -1.
         -4    1    5    5    0  503 -0.35253927200E+03  0.15359058387E+03  0.20835520078E+03  0.43736243031E+03  0.00000000000E+00 0.  1.
         -1    1    6    6    0  502  0.21362873471E+03  0.16826426615E+03 -0.11477950800E+03  0.29516848580E+03  0.00000000000E+00 0.  1.
<mgrwt>
<rscale>  0 0.20340509E+04</rscale>
<asrwt>0</asrwt>
<pdfrwt beam="1">  1        2 0.27674816E+00 0.20340509E+04</pdfrwt>
<pdfrwt beam="2">  1       -2 0.88461068E-01 0.20340509E+04</pdfrwt>
<totfact> 0.88038495E+00</totfact>
</mgrwt>
</event>
<event>
12    1  0.2019083E-007  0.3641852E+04  0.7818608E-02  0.8080972E-01
         -1   -1    0    0    0  501 -0.00000000000E+00  0.00000000000E+00  0.46159088708E+04  0.46159088708E+04  0.00000000000E+00 0.  1.
          1   -1    0    0  501    0  0.00000000000E+00 -0.00000000000E+00 -0.71833554430E+03  0.71833554430E+03  0.00000000000E+00 0. -1.
         23    2    1    2    0    0 -0.17077176321E+04  0.70704722132E+02  0.17038802047E+04  0.24149399638E+04  0.86189374495E+02 0.  0.
        254    2    1    2    0    0  0.17077176321E+04 -0.70704722132E+02  0.21936931218E+04  0.29193044513E+04  0.88811615110E+03 0.  0.
        -24    2    4    4    0    0  0.12110468837E+04  0.29078926788E+03  0.17824915211E+04  0.21759252444E+04  0.78623746988E+02 0.  0.
         24    2    4    4    0    0  0.49667074837E+03 -0.36149399002E+03  0.41120160072E+03  0.74337920686E+03  0.78524847403E+02 0.  0.
         13    1    3    3    0    0 -0.98349361308E+03  0.18794910232E+02  0.92849087508E+03  0.13526670842E+04  0.00000000000E+00 0. -1.
        -13    1    3    3    0    0 -0.72422401902E+03  0.51909811901E+02  0.77538932961E+03  0.10622728796E+04  0.00000000000E+00 0.  1.
          2    1    6    6  502    0  0.29940972671E+03 -0.22836980537E+03  0.20645648112E+03  0.42944525967E+03  0.00000000000E+00 0. -1.
          1    1    5    5  503    0  0.67104329060E+03  0.17611388009E+03  0.10554698144E+04  0.12630644187E+04  0.00000000000E+00 0. -1.
         -2    1    5    5    0  503  0.54000359312E+03  0.11467538780E+03  0.72702170673E+03  0.91286082576E+03  0.00000000000E+00 0.  1.
         -1    1    6    6    0  502  0.19726102166E+03 -0.13312418464E+03  0.20474511959E+03  0.31393394720E+03  0.00000000000E+00 0.  1.
<mgrwt>
<rscale>  0 0.36418520E+04</rscale>
<asrwt>0</asrwt>
<pdfrwt beam="1">  1        1 0.11051316E+00 0.36418520E+04</pdfrwt>
<pdfrwt beam="2">  1       -1 0.71013981E+00 0.36418520E+04</pdfrwt>
<totfact> 0.38820202E-03</totfact>
</mgrwt>
</event>
<event>
12    1  0.2019083E-007  0.1257186E+04  0.7818608E-02  0.9064224E-01
         -2   -1    0    0    0  501 -0.00000000000E+00  0.00000000000E+00  0.25701847721E+03  0.25701847721E+03  0.00000000000E+00 0. -1.
          2   -1    0    0  501    0  0.00000000000E+00 -0.00000000000E+00 -0.15373561860E+04  0.15373561860E+04  0.00000000000E+00 0.  1.
         23    2    1    2    0    0  0.25577515504E+03 -0.76938334235E+02 -0.51838091928E+03  0.59025665494E+03  0.91343877852E+02 0.  0.
        254    2    1    2    0    0 -0.25577515504E+03  0.76938334235E+02 -0.76195678951E+03  0.12041180083E+04  0.89329815379E+03 0.  0.
        -24    2    4    4    0    0 -0.33787786985E+03 -0.77673075782E+02  0.59540104083E+02  0.36083243416E+03  0.80376986179E+02 0.  0.
         24    2    4    4    0    0  0.82102714812E+02  0.15461141002E+03 -0.82149689359E+03  0.84328557411E+03  0.75019127187E+02 0.  0.
         11    1    3    3    0    0  0.11227909243E+03 -0.40381485148E+02 -0.32825253073E+03  0.34926634947E+03  0.00000000000E+00 0.  1.
        -11    1    3    3    0    0  0.14349606262E+03 -0.36556849087E+02 -0.19012838854E+03  0.24099030547E+03  0.00000000000E+00 0. -1.
          2    1    6    6  502    0  0.54885219555E+02  0.54694314071E+02 -0.22760999737E+03  0.24043744762E+03  0.00000000000E+00 0. -1.
          3    1    5    5  503    0 -0.26194263696E+03 -0.31135128489E+02  0.23767035617E+02  0.26485507974E+03  0.00000000000E+00 0. -1.
         -4    1    5    5    0  503 -0.75935232892E+02 -0.46537947293E+02  0.35773068466E+02  0.95977354413E+02  0.00000000000E+00 0.  1.
         -1    1    6    6    0  502  0.27217495257E+02  0.99917095946E+02 -0.59388689622E+03  0.60284812649E+03  0.00000000000E+00 0.  1.
<mgrwt>
<rscale>  0 0.12571857E+04</rscale>
<asrwt>0</asrwt>
<pdfrwt beam="1">  1        2 0.23651634E+00 0.12571857E+04</pdfrwt>
<pdfrwt beam="2">  1       -2 0.39541304E-01 0.12571857E+04</pdfrwt>
<totfact> 0.71879777E+01</totfact>
</mgrwt>
</event>
<event>
12    1  0.2019083E-007  0.1493097E+04  0.7818608E-02  0.8889057E-01
         -2   -1    0    0    0  501 -0.00000000000E+00  0.00000000000E+00  0.64801478415E+03  0.64801478415E+03  0.00000000000E+00 0.  1.
          2   -1    0    0  501    0  0.00000000000E+00 -0.00000000000E+00 -0.86006444834E+03  0.86006444834E+03  0.00000000000E+00 0. -1.
         23    2    1    2    0    0  0.69086254888E+02 -0.24537484323E+03  0.33067317996E+03  0.42731108215E+03  0.90930108781E+02 0.  0.
        254    2    1    2    0    0 -0.69086254888E+02  0.24537484323E+03 -0.54272284414E+03  0.10807681503E+04  0.89918295410E+03 0.  0.
        -24    2    4    4    0    0  0.39044619732E+03  0.57112696640E+01 -0.15495911863E+03  0.42789384818E+03  0.81240170211E+02 0.  0.
         24    2    4    4    0    0 -0.45953245221E+03  0.23966357356E+03 -0.38776372551E+03  0.65287430216E+03  0.85296216097E+02 0.  0.
         13    1    3    3    0    0  0.11904299996E+02 -0.16673584739E+03  0.25119012157E+03  0.30172675112E+03  0.00000000000E+00 0.  1.
        -13    1    3    3    0    0  0.57181954892E+02 -0.78638995833E+02  0.79483058386E+02  0.12558433103E+03  0.00000000000E+00 0. -1.
          4    1    6    6  502    0 -0.32895653699E+03  0.20001687479E+03 -0.25046362336E+03  0.45929421949E+03  0.00000000000E+00 0. -1.
          3    1    5    5  503    0  0.23935727335E+03 -0.19859155971E+02 -0.12848272580E+03  0.27238594166E+03  0.00000000000E+00 0. -1.
         -4    1    5    5    0  503  0.15108892397E+03  0.25570425635E+02 -0.26476392833E+02  0.15550790652E+03  0.00000000000E+00 0.  1.
         -3    1    6    6    0  502 -0.13057591522E+03  0.39646698771E+02 -0.13730010214E+03  0.19358008267E+03  0.00000000000E+00 0.  1.
<mgrwt>
<rscale>  0 0.14930968E+04</rscale>
<asrwt>0</asrwt>
<pdfrwt beam="1">  1        2 0.13231761E+00 0.14930968E+04</pdfrwt>
<pdfrwt beam="2">  1       -2 0.99694582E-01 0.14930968E+04</pdfrwt>
<totfact> 0.25124309E+01</totfact>
</mgrwt>
</event>
<event>
12    1  0.2019083E-007  0.1392490E+04  0.7818608E-02  0.8959272E-01
          1   -1    0    0  501    0  0.00000000000E+00  0.00000000000E+00  0.87406974329E+03  0.87406974329E+03  0.00000000000E+00 0. -1.
         -1   -1    0    0    0  501 -0.00000000000E+00 -0.00000000000E+00 -0.55459809575E+03  0.55459809575E+03  0.00000000000E+00 0.  1.
         23    2    1    2    0    0 -0.53574052678E+02 -0.36024713244E+03 -0.54939961763E+02  0.38094578634E+03  0.97227142203E+02 0.  0.
        254    2    1    2    0    0  0.53574052678E+02  0.36024713244E+03  0.37441160930E+03  0.10477220527E+04  0.90823414987E+03 0.  0.
        -24    2    4    4    0    0  0.23415408700E+03  0.34106023851E+02  0.56812446864E+03  0.62029125856E+03  0.77488555642E+02 0.  0.
         24    2    4    4    0    0 -0.18058003432E+03  0.32614110859E+03 -0.19371285934E+03  0.42743079415E+03  0.78709849482E+02 0.  0.
         11    1    3    3    0    0 -0.43280942188E+01 -0.17115951067E+03  0.18487336282E+02  0.17220944252E+03  0.00000000000E+00 0. -1.
        -11    1    3    3    0    0 -0.49245958459E+02 -0.18908762177E+03 -0.73427298045E+02  0.20873634382E+03  0.00000000000E+00 0.  1.
          2    1    6    6  502    0 -0.16970828938E+03  0.27823186930E+03 -0.19203655346E+03  0.37827491913E+03  0.00000000000E+00 0. -1.
          1    1    5    5  503    0  0.46164983145E+02  0.19022052513E+02  0.20641730309E+03  0.21237030670E+03  0.00000000000E+00 0. -1.
         -2    1    5    5    0  503  0.18798910385E+03  0.15083971338E+02  0.36170716554E+03  0.40792095186E+03  0.00000000000E+00 0.  1.
         -1    1    6    6    0  502 -0.10871744946E+02  0.47909239286E+02 -0.16763058754E+01  0.49155875016E+02  0.00000000000E+00 0.  1.
<mgrwt>
<rscale>  0 0.13924905E+04</rscale>
<asrwt>0</asrwt>
<pdfrwt beam="1">  1        1 0.13447227E+00 0.13924905E+04</pdfrwt>
<pdfrwt beam="2">  1       -1 0.85322785E-01 0.13924905E+04</pdfrwt>
<totfact> 0.25335680E+01</totfact>
</mgrwt>
</event>
<event>
12    1  0.2019083E-007  0.1666578E+04  0.7818608E-02  0.8780659E-01
          1   -1    0    0  501    0  0.00000000000E+00  0.00000000000E+00  0.72037758681E+03  0.72037758681E+03  0.00000000000E+00 0. -1.
         -1   -1    0    0    0  501 -0.00000000000E+00 -0.00000000000E+00 -0.96389850187E+03  0.96389850187E+03  0.00000000000E+00 0.  1.
         23    2    1    2    0    0  0.10731007818E+03  0.21185403326E+03 -0.62693129319E+03  0.67675704760E+03  0.92518489010E+02 0.  0.
        254    2    1    2    0    0 -0.10731007818E+03 -0.21185403326E+03  0.38341037813E+03  0.10075190411E+04  0.90094035086E+03 0.  0.
        -24    2    4    4    0    0  0.22261301450E+03 -0.14528185690E+03 -0.19116870255E+03  0.33661900799E+03  0.78124973835E+02 0.  0.
         24    2    4    4    0    0 -0.32992309269E+03 -0.66572176361E+02  0.57457908067E+03  0.67090003309E+03  0.81759603114E+02 0.  0.
         11    1    3    3    0    0 -0.14098779662E+02  0.49137434368E+02 -0.10665578295E+03  0.11827391548E+03  0.00000000000E+00 0. -1.
        -11    1    3    3    0    0  0.12140885785E+03  0.16271659889E+03 -0.52027551024E+03  0.55848313213E+03  0.00000000000E+00 0.  1.
          2    1    6    6  502    0 -0.30811715179E+03 -0.50366138980E+02  0.55702771947E+03  0.63855525011E+03  0.00000000000E+00 0. -1.
          3    1    5    5  503    0  0.66590043502E+02 -0.29220860454E+02 -0.95126671797E+02  0.11973794831E+03  0.00000000000E+00 0. -1.
         -4    1    5    5    0  503  0.15602297100E+03 -0.11606099644E+03 -0.96042030752E+02  0.21688105968E+03  0.00000000000E+00 0.  1.
         -1    1    6    6    0  502 -0.21805940903E+02 -0.16206037381E+02  0.17551361200E+02  0.32344782984E+02  0.00000000000E+00 0.  1.
<mgrwt>
<rscale>  0 0.16665784E+04</rscale>
<asrwt>0</asrwt>
<pdfrwt beam="1">  1        1 0.11082732E+00 0.16665784E+04</pdfrwt>
<pdfrwt beam="2">  1       -1 0.14829208E+00 0.16665784E+04</pdfrwt>
<totfact> 0.89534888E+00</totfact>
</mgrwt>
</event>
<event>
12    1  0.2019083E-007  0.2008086E+04  0.7818608E-02  0.8602849E-01
          1   -1    0    0  501    0  0.00000000000E+00  0.00000000000E+00  0.16498149752E+04  0.16498149752E+04  0.00000000000E+00 0. -1.
         -1   -1    0    0    0  501 -0.00000000000E+00 -0.00000000000E+00 -0.61103988158E+03  0.61103988158E+03  0.00000000000E+00 0.  1.
         23    2    1    2    0    0  0.56805563321E+03  0.19330704902E+03  0.10145019176E+04  0.11822325921E+04  0.91678478718E+02 0.  0.
        254    2    1    2    0    0 -0.56805563321E+03 -0.19330704902E+03  0.24273176058E+02  0.10786222647E+04  0.89598101831E+03 0.  0.
        -24    2    4    4    0    0 -0.35658147435E+03  0.30620696514E+03 -0.15603301331E+03  0.50142697376E+03  0.78547154139E+02 0.  0.
         24    2    4    4    0    0 -0.21147415886E+03 -0.49951401416E+03  0.18030618937E+03  0.57719529092E+03  0.80053180678E+02 0.  0.
         13    1    3    3    0    0  0.10814028180E+03  0.15896964296E+02  0.13191697954E+03  0.17131585890E+03  0.00000000000E+00 0.  1.
        -13    1    3    3    0    0  0.45991535142E+03  0.17741008472E+03  0.88258493807E+03  0.10109167332E+04  0.00000000000E+00 0. -1.
          2    1    6    6  502    0 -0.12518829613E+02 -0.10797245139E+03  0.44912291354E+02  0.11760903566E+03  0.00000000000E+00 0. -1.
          3    1    5    5  503    0 -0.14053471078E+03  0.72137834946E+02 -0.54334176456E+02  0.16705111462E+03  0.00000000000E+00 0. -1.
         -4    1    5    5    0  503 -0.21604676357E+03  0.23406913019E+03 -0.10169883686E+03  0.33437585914E+03  0.00000000000E+00 0.  1.
         -1    1    6    6    0  502 -0.19895532925E+03 -0.39154156277E+03  0.13539389801E+03  0.45958625527E+03  0.00000000000E+00 0.  1.
<mgrwt>
<rscale>  0 0.20080864E+04</rscale>
<asrwt>0</asrwt>
<pdfrwt beam="1">  1        1 0.25381769E+00 0.20080864E+04</pdfrwt>
<pdfrwt beam="2">  1       -1 0.94006136E-01 0.20080864E+04</pdfrwt>
<totfact> 0.52415562E+00</totfact>
</mgrwt>
</event>
<event>
12    1  0.2019083E-007  0.1825247E+04  0.7818608E-02  0.8692988E-01
          2   -1    0    0  501    0  0.00000000000E+00  0.00000000000E+00  0.32657255694E+04  0.32657255694E+04  0.00000000000E+00 0. -1.
         -2   -1    0    0    0  501 -0.00000000000E+00 -0.00000000000E+00 -0.25503716220E+03  0.25503716220E+03  0.00000000000E+00 0.  1.
         23    2    1    2    0    0  0.92517622472E+02 -0.36163386375E+03  0.32510642630E+02  0.38613391770E+03  0.93294687069E+02 0.  0.
        254    2    1    2    0    0 -0.92517622472E+02  0.36163386375E+03  0.29781777646E+04  0.31346288139E+04  0.90388961813E+03 0.  0.
        -24    2    4    4    0    0  0.17060183886E+03  0.28853279350E+03  0.27454604219E+04  0.27670434144E+04  0.81364418249E+02 0.  0.
         24    2    4    4    0    0 -0.26311946133E+03  0.73101070246E+02  0.23271734265E+03  0.36758539951E+03  0.79912745880E+02 0.  0.
         11    1    3    3    0    0  0.18716557020E+01 -0.18785257468E+03  0.27223049498E+01  0.18788162191E+03  0.00000000000E+00 0. -1.
        -11    1    3    3    0    0  0.90645966770E+02 -0.17378128907E+03  0.29788337680E+02  0.19825229579E+03  0.00000000000E+00 0.  1.
          2    1    6    6  502    0 -0.10184777111E+03  0.37246213157E+02  0.44699132580E+02  0.11729561513E+03  0.00000000000E+00 0. -1.
          3    1    5    5  503    0  0.17326152706E+03  0.26988894870E+03  0.24376751067E+04  0.24586824779E+04  0.00000000000E+00 0. -1.
         -4    1    5    5    0  503 -0.26596881975E+01  0.18643844798E+02  0.30778531526E+03  0.30836093654E+03  0.00000000000E+00 0.  1.
         -1    1    6    6    0  502 -0.16127169022E+03  0.35854857089E+02  0.18801821007E+03  0.25028978438E+03  0.00000000000E+00 0.  1.
<mgrwt>
<rscale>  0 0.18252467E+04</rscale>
<asrwt>0</asrwt>
<pdfrwt beam="1">  1        2 0.50241929E+00 0.18252467E+04</pdfrwt>
<pdfrwt beam="2">  1       -2 0.39236489E-01 0.18252467E+04</pdfrwt>
<totfact> 0.68310920E+00</totfact>
</mgrwt>
</event>
<event>
12    1  0.2019083E-007  0.2075803E+04  0.7818608E-02  0.8571978E-01
         -2   -1    0    0    0  501 -0.00000000000E+00  0.00000000000E+00  0.50193220490E+03  0.50193220490E+03  0.00000000000E+00 0.  1.
          2   -1    0    0  501    0  0.00000000000E+00 -0.00000000000E+00 -0.21461853691E+04  0.21461853691E+04  0.00000000000E+00 0. -1.
         23    2    1    2    0    0 -0.26980187650E+03 -0.79354963781E+03 -0.76445337785E+03  0.11384037833E+04  0.95184697953E+02 0.  0.
        254    2    1    2    0    0  0.26980187650E+03  0.79354963781E+03 -0.87979978634E+03  0.15097137907E+04  0.89592074732E+03 0.  0.
        -24    2    4    4    0    0  0.21923918570E+03  0.95826177227E+03 -0.55057970888E+03  0.11296279072E+04  0.81177263984E+02 0.  0.
         24    2    4    4    0    0  0.50562690801E+02 -0.16471213446E+03 -0.32922007746E+03  0.38008588346E+03  0.79954652544E+02 0.  0.
         13    1    3    3    0    0 -0.12355128283E+03 -0.28704321668E+03 -0.23288193482E+03  0.38973417004E+03  0.00000000000E+00 0.  1.
        -13    1    3    3    0    0 -0.14625059367E+03 -0.50650642113E+03 -0.53157144303E+03  0.74866961327E+03  0.00000000000E+00 0. -1.
          2    1    6    6  502    0 -0.30599962184E+01 -0.25639305748E+02 -0.98322497677E+01  0.27629888012E+02  0.00000000000E+00 0. -1.
          1    1    5    5  503    0  0.15972975187E+03  0.62222752196E+03 -0.39889256870E+03  0.75617191437E+03  0.00000000000E+00 0. -1.
         -2    1    5    5    0  503  0.59509433832E+02  0.33603425032E+03 -0.15168714018E+03  0.37345599285E+03  0.00000000000E+00 0.  1.
         -3    1    6    6    0  502  0.53622687020E+02 -0.13907282871E+03 -0.31938782769E+03  0.35245599544E+03  0.00000000000E+00 0.  1.
<mgrwt>
<rscale>  0 0.20758030E+04</rscale>
<asrwt>0</asrwt>
<pdfrwt beam="1">  1        2 0.33018236E+00 0.20758030E+04</pdfrwt>
<pdfrwt beam="2">  1       -2 0.77220340E-01 0.20758030E+04</pdfrwt>
<totfact> 0.76488133E+00</totfact>
</mgrwt>
</event>
<event>
12    1  0.2019083E-007  0.1528949E+04  0.7818608E-02  0.8865427E-01
          1   -1    0    0  501    0  0.00000000000E+00  0.00000000000E+00  0.68183877722E+03  0.68183877722E+03  0.00000000000E+00 0. -1.
         -1   -1    0    0    0  501 -0.00000000000E+00 -0.00000000000E+00 -0.85712539002E+03  0.85712539002E+03  0.00000000000E+00 0.  1.
         23    2    1    2    0    0 -0.32536356884E+03 -0.28412549263E+03  0.17941211670E+03  0.47672864874E+03  0.92156114373E+02 0.  0.
        254    2    1    2    0    0  0.32536356884E+03  0.28412549263E+03 -0.35469872950E+03  0.10622355185E+04  0.90329638578E+03 0.  0.
        -24    2    4    4    0    0  0.63301057410E+03  0.23035670001E+03 -0.25673858644E+03  0.72526637924E+03  0.79561441205E+02 0.  0.
         24    2    4    4    0    0 -0.30764700527E+03  0.53768792623E+02 -0.97960143054E+02  0.33696913925E+03  0.80089002190E+02 0.  0.
         11    1    3    3    0    0 -0.29872757454E+03 -0.28453519410E+03  0.17993737752E+03  0.45008432576E+03  0.00000000000E+00 0. -1.
        -11    1    3    3    0    0 -0.26635994301E+02  0.40970146734E+00 -0.52526081929E+00  0.26644322972E+02  0.00000000000E+00 0.  1.
          2    1    6    6  502    0 -0.19781581005E+03  0.45214891972E+00 -0.80795343997E+02  0.21368010379E+03  0.00000000000E+00 0. -1.
          1    1    5    5  503    0  0.58120335607E+03  0.22835149885E+03 -0.22147911719E+03  0.66256678719E+03  0.00000000000E+00 0. -1.
         -2    1    5    5    0  503  0.51807218028E+02  0.20052011622E+01 -0.35259469250E+02  0.62699592050E+02  0.00000000000E+00 0.  1.
         -3    1    6    6    0  502 -0.10983119522E+03  0.53316643703E+02 -0.17164799057E+02  0.12328903546E+03  0.00000000000E+00 0.  1.
<mgrwt>
<rscale>  0 0.15289491E+04</rscale>
<asrwt>0</asrwt>
<pdfrwt beam="1">  1        1 0.10489827E+00 0.15289491E+04</pdfrwt>
<pdfrwt beam="2">  1       -1 0.13186545E+00 0.15289491E+04</pdfrwt>
<totfact> 0.13387049E+01</totfact>
</mgrwt>
</event>
<event>
12    1  0.2019083E-007  0.3093546E+04  0.7818608E-02  0.8217511E-01
         -2   -1    0    0    0  501 -0.00000000000E+00  0.00000000000E+00  0.11173276104E+04  0.11173276104E+04  0.00000000000E+00 0.  1.
          2   -1    0    0  501    0  0.00000000000E+00 -0.00000000000E+00 -0.21412758970E+04  0.21412758970E+04  0.00000000000E+00 0. -1.
         23    2    1    2    0    0  0.36236467205E+03 -0.61086713600E+03 -0.17577468684E+04  0.18980077077E+04  0.91062570872E+02 0.  0.
        254    2    1    2    0    0 -0.36236467205E+03  0.61086713600E+03  0.73379858180E+03  0.13605957996E+04  0.89905158800E+03 0.  0.
        -24    2    4    4    0    0  0.28534659857E+03  0.21982256344E+03  0.34872734486E+03  0.50776693058E+03  0.80447834143E+02 0.  0.
         24    2    4    4    0    0 -0.64771127063E+03  0.39104457257E+03  0.38507123694E+03  0.85282886904E+03  0.81187896385E+02 0.  0.
         13    1    3    3    0    0  0.28466458863E+03 -0.40671609330E+03 -0.11689988355E+04  0.12700433795E+04  0.00000000000E+00 0.  1.
        -13    1    3    3    0    0  0.77700083420E+02 -0.20415104271E+03 -0.58874803294E+03  0.62796432820E+03  0.00000000000E+00 0. -1.
          4    1    6    6  502    0 -0.19739942960E+03  0.16191514236E+03  0.11656943795E+03  0.28066257676E+03  0.00000000000E+00 0. -1.
          3    1    5    5  503    0  0.25570459977E+03  0.19223623822E+03  0.33902039492E+03  0.46612706616E+03  0.00000000000E+00 0. -1.
         -4    1    5    5    0  503  0.29641998801E+02  0.27586325214E+02  0.97069499410E+01  0.41639864419E+02  0.00000000000E+00 0.  1.
         -3    1    6    6    0  502 -0.45031184103E+03  0.22912943020E+03  0.26850179899E+03  0.57216629228E+03  0.00000000000E+00 0.  1.
<mgrwt>
<rscale>  0 0.30935460E+04</rscale>
<asrwt>0</asrwt>
<pdfrwt beam="1">  1        2 0.32942706E+00 0.30935460E+04</pdfrwt>
<pdfrwt beam="2">  1       -2 0.17189656E+00 0.30935460E+04</pdfrwt>
<totfact> 0.97793528E-01</totfact>
</mgrwt>
</event>
<event>
12    1  0.2019083E-007  0.4585496E+04  0.7818608E-02  0.7895838E-01
         -1   -1    0    0    0  501 -0.00000000000E+00  0.00000000000E+00  0.17459119117E+04  0.17459119117E+04  0.00000000000E+00 0.  1.
          1   -1    0    0  501    0  0.00000000000E+00 -0.00000000000E+00 -0.30108585448E+04  0.30108585448E+04  0.00000000000E+00 0. -1.
         23    2    1    2    0    0  0.35599319572E+03 -0.13890583276E+04  0.11261533493E+04  0.18276531156E+04  0.12601726829E+03 0.  0.
        254    2    1    2    0    0 -0.35599319572E+03  0.13890583276E+04 -0.23910999824E+04  0.29291173410E+04  0.89786139162E+03 0.  0.
        -24    2    4    4    0    0 -0.61025497082E+03  0.12225039113E+04 -0.18314397416E+04  0.22863941265E+04  0.80620297400E+02 0.  0.
         24    2    4    4    0    0  0.25426177510E+03  0.16655441630E+03 -0.55966024082E+03  0.64272321443E+03  0.86510816396E+02 0.  0.
         11    1    3    3    0    0  0.17793595779E+03 -0.83085316201E+03  0.73179613595E+03  0.11213847540E+04  0.00000000000E+00 0.  1.
        -11    1    3    3    0    0  0.17805723793E+03 -0.55820516557E+03  0.39435721335E+03  0.70626836158E+03  0.00000000000E+00 0. -1.
          2    1    6    6  502    0  0.10783249319E+03  0.93018620727E+02 -0.34049953049E+03  0.36908026316E+03  0.00000000000E+00 0. -1.
          1    1    5    5  503    0 -0.46937948855E+03  0.87894913966E+03 -0.12950104749E+04  0.16339892363E+04  0.00000000000E+00 0. -1.
         -2    1    5    5    0  503 -0.14087548227E+03  0.34355477162E+03 -0.53642926672E+03  0.65240489024E+03  0.00000000000E+00 0.  1.
         -1    1    6    6    0  502  0.14642928191E+03  0.73535795574E+02 -0.21916071033E+03  0.27364295128E+03  0.00000000000E+00 0.  1.
<mgrwt>
<rscale>  0 0.45854962E+04</rscale>
<asrwt>0</asrwt>
<pdfrwt beam="1">  1        1 0.46320900E+00 0.45854962E+04</pdfrwt>
<pdfrwt beam="2">  1       -1 0.26860184E+00 0.45854962E+04</pdfrwt>
<totfact> 0.23102175E-02</totfact>
</mgrwt>
</event>
<event>
12    1  0.2019083E-007  0.1745771E+04  0.7818608E-02  0.8735682E-01
          1   -1    0    0  501    0  0.00000000000E+00  0.00000000000E+00  0.15077782052E+04  0.15077782052E+04  0.00000000000E+00 0. -1.
         -1   -1    0    0    0  501 -0.00000000000E+00 -0.00000000000E+00 -0.50533236602E+03  0.50533236602E+03  0.00000000000E+00 0.  1.
         23    2    1    2    0    0  0.34524438480E+03  0.34757298547E+02  0.97959993391E+03  0.10431991817E+04  0.90811602581E+02 0.  0.
        254    2    1    2    0    0 -0.34524438480E+03 -0.34757298547E+02  0.22845905316E+02  0.96991138956E+03  0.90543051261E+03 0.  0.
        -24    2    4    4    0    0  0.11547054835E+03 -0.31762606710E+03  0.19311082003E+03  0.39735769097E+03  0.79884790292E+02 0.  0.
         24    2    4    4    0    0 -0.46071493315E+03  0.28286876855E+03 -0.17026491472E+03  0.57255369859E+03  0.80960525800E+02 0.  0.
         13    1    3    3    0    0  0.94171875274E+02  0.23071756004E+02  0.17265308685E+03  0.19801448537E+03  0.00000000000E+00 0.  1.
        -13    1    3    3    0    0  0.25107250953E+03  0.11685542542E+02  0.80694684706E+03  0.84518469634E+03  0.00000000000E+00 0. -1.
          4    1    6    6  502    0 -0.18624665866E+03  0.74331908850E+02 -0.42875954436E+02  0.20506437527E+03  0.00000000000E+00 0. -1.
          1    1    5    5  503    0  0.11416889070E+03 -0.27012456510E+03  0.19062996883E+03  0.34977364293E+03  0.00000000000E+00 0. -1.
         -2    1    5    5    0  503  0.13016576535E+01 -0.47501501998E+02  0.24808512028E+01  0.47584048035E+02  0.00000000000E+00 0.  1.
         -3    1    6    6    0  502 -0.27446827450E+03  0.20853685970E+03 -0.12738896028E+03  0.36748932333E+03  0.00000000000E+00 0.  1.
<mgrwt>
<rscale>  0 0.17457710E+04</rscale>
<asrwt>0</asrwt>
<pdfrwt beam="1">  1        1 0.23196588E+00 0.17457710E+04</pdfrwt>
<pdfrwt beam="2">  1       -1 0.77743442E-01 0.17457710E+04</pdfrwt>
<totfact> 0.10152133E+01</totfact>
</mgrwt>
</event>
<event>
12    1  0.2019083E-007  0.2290598E+04  0.7818608E-02  0.8481637E-01
         -1   -1    0    0    0  501 -0.00000000000E+00  0.00000000000E+00  0.86957729905E+03  0.86957729905E+03  0.00000000000E+00 0.  1.
          1   -1    0    0  501    0  0.00000000000E+00 -0.00000000000E+00 -0.15084457456E+04  0.15084457456E+04  0.00000000000E+00 0. -1.
         23    2    1    2    0    0 -0.66615607274E+03 -0.69788040922E+03 -0.31235901224E+03  0.10181236448E+04  0.90590423320E+02 0.  0.
        254    2    1    2    0    0  0.66615607274E+03  0.69788040922E+03 -0.32650943433E+03  0.13598993998E+04  0.90106436404E+03 0.  0.
        -24    2    4    4    0    0  0.26076893590E+02  0.27168769227E+03 -0.49343448200E+03  0.56953371886E+03  0.79980387524E+02 0.  0.
         24    2    4    4    0    0  0.64007917915E+03  0.42619271696E+03  0.16692504767E+03  0.79036568098E+03  0.73975337534E+02 0.  0.
         11    1    3    3    0    0 -0.26213480455E+03 -0.32799660736E+03 -0.10865936294E+03  0.43370875867E+03  0.00000000000E+00 0.  1.
        -11    1    3    3    0    0 -0.40402126819E+03 -0.36988380187E+03 -0.20369964929E+03  0.58441488615E+03  0.00000000000E+00 0. -1.
          2    1    6    6  502    0  0.16315890079E+03  0.13089083600E+03  0.17736995429E+02  0.20992341190E+03  0.00000000000E+00 0. -1.
          3    1    5    5  503    0 -0.24551344839E+02  0.14901316012E+03 -0.28220546239E+03  0.32007438733E+03  0.00000000000E+00 0. -1.
         -4    1    5    5    0  503  0.50628238429E+02  0.12267453215E+03 -0.21122901961E+03  0.24945933153E+03  0.00000000000E+00 0.  1.
         -1    1    6    6    0  502  0.47692027835E+03  0.29530188096E+03  0.14918805224E+03  0.58044226908E+03  0.00000000000E+00 0.  1.
<mgrwt>
<rscale>  0 0.22905983E+04</rscale>
<asrwt>0</asrwt>
<pdfrwt beam="1">  1        1 0.23206857E+00 0.22905983E+04</pdfrwt>
<pdfrwt beam="2">  1       -1 0.13378113E+00 0.22905983E+04</pdfrwt>
<totfact> 0.27527102E+00</totfact>
</mgrwt>
</event>
<event>
12    1  0.2019083E-007  0.1457235E+04  0.7818608E-02  0.8913400E-01
         -1   -1    0    0    0  501 -0.00000000000E+00  0.00000000000E+00  0.23526987390E+03  0.23526987390E+03  0.00000000000E+00 0.  1.
          1   -1    0    0  501    0  0.00000000000E+00 -0.00000000000E+00 -0.22564883742E+04  0.22564883742E+04  0.00000000000E+00 0. -1.
         23    2    1    2    0    0 -0.26539775808E+03 -0.34517570961E+03 -0.48048832611E+03  0.65443683623E+03  0.88522881704E+02 0.  0.
        254    2    1    2    0    0  0.26539775808E+03  0.34517570961E+03 -0.15407301742E+04  0.18373214119E+04  0.90128700221E+03 0.  0.
        -24    2    4    4    0    0  0.11740135434E+03  0.72035074459E+02 -0.15062976171E+04  0.15144868103E+04  0.75931926537E+02 0.  0.
         24    2    4    4    0    0  0.14799640374E+03  0.27314063515E+03 -0.34432557121E+02  0.32283460156E+03  0.80795030049E+02 0.  0.
         13    1    3    3    0    0 -0.17601345596E+02 -0.49473225978E+01 -0.40860605291E+01  0.18734440433E+02  0.00000000000E+00 0.  1.
        -13    1    3    3    0    0 -0.24779641249E+03 -0.34022838702E+03 -0.47640226558E+03  0.63570239580E+03  0.00000000000E+00 0. -1.
          2    1    6    6  502    0  0.13690562721E+03  0.17847147691E+03 -0.14112426008E+02  0.22537608435E+03  0.00000000000E+00 0. -1.
          3    1    5    5  503    0  0.71252036904E+02  0.78270406351E+02 -0.12013797291E+04  0.12060333174E+04  0.00000000000E+00 0. -1.
         -4    1    5    5    0  503  0.46149317441E+02 -0.62353318922E+01 -0.30491788797E+03  0.30845349287E+03  0.00000000000E+00 0.  1.
         -1    1    6    6    0  502  0.11090776532E+02  0.94669158247E+02 -0.20320131113E+02  0.97458517205E+02  0.00000000000E+00 0.  1.
<mgrwt>
<rscale>  0 0.14572354E+04</rscale>
<asrwt>0</asrwt>
<pdfrwt beam="1">  1        1 0.34715205E+00 0.14572354E+04</pdfrwt>
<pdfrwt beam="2">  1       -1 0.36195366E-01 0.14572354E+04</pdfrwt>
<totfact> 0.14157734E+01</totfact>
</mgrwt>
</event>
<event>
12    1  0.2019083E-007  0.2285752E+04  0.7818608E-02  0.8483560E-01
         -1   -1    0    0    0  501 -0.00000000000E+00  0.00000000000E+00  0.40664596122E+03  0.40664596122E+03  0.00000000000E+00 0.  1.
          1   -1    0    0  501    0  0.00000000000E+00 -0.00000000000E+00 -0.32120465226E+04  0.32120465226E+04  0.00000000000E+00 0. -1.
         23    2    1    2    0    0  0.40671930639E+03 -0.12561478417E+03  0.18066200939E+03  0.47126255468E+03  0.90829321337E+02 0.  0.
        254    2    1    2    0    0 -0.40671930639E+03  0.12561478417E+03 -0.29860625707E+04  0.31474299291E+04  0.89919175603E+03 0.  0.
        -24    2    4    4    0    0 -0.58114779284E+03 -0.19808456751E+03 -0.18338792299E+04  0.19355854976E+04  0.80049582764E+02 0.  0.
         24    2    4    4    0    0  0.17442848644E+03  0.32369935169E+03 -0.11521833409E+04  0.12118444315E+04  0.76380024141E+02 0.  0.
         13    1    3    3    0    0  0.21820588013E+03 -0.77969719509E+02  0.50152745983E+02  0.23708306817E+03  0.00000000000E+00 0. -1.
        -13    1    3    3    0    0  0.18851342626E+03 -0.47645064664E+02  0.13050926341E+03  0.23417948651E+03  0.00000000000E+00 0.  1.
          2    1    6    6  502    0  0.13071212091E+03  0.26649854061E+03 -0.10062829185E+04  0.10491484369E+04  0.00000000000E+00 0. -1.
          3    1    5    5  503    0 -0.55032292928E+03 -0.19668343835E+03 -0.17801534808E+04  0.18736291300E+04  0.00000000000E+00 0. -1.
         -4    1    5    5    0  503 -0.30824863554E+02 -0.14011291636E+01 -0.53725749031E+02  0.61956367590E+02  0.00000000000E+00 0.  1.
         -1    1    6    6    0  502  0.43716365533E+02  0.57200811079E+02 -0.14590042238E+03  0.16269599458E+03  0.00000000000E+00 0.  1.
<mgrwt>
<rscale>  0 0.22857522E+04</rscale>
<asrwt>0</asrwt>
<pdfrwt beam="1">  1        1 0.49416097E+00 0.22857522E+04</pdfrwt>
<pdfrwt beam="2">  1       -1 0.62560921E-01 0.22857522E+04</pdfrwt>
<totfact> 0.97748996E-01</totfact>
</mgrwt>
</event>
<event>
12    1  0.2019083E-007  0.1646102E+04  0.7818608E-02  0.8792716E-01
         -2   -1    0    0    0  501 -0.00000000000E+00  0.00000000000E+00  0.34726199989E+03  0.34726199989E+03  0.00000000000E+00 0. -1.
          2   -1    0    0  501    0  0.00000000000E+00 -0.00000000000E+00 -0.19507252155E+04  0.19507252155E+04  0.00000000000E+00 0.  1.
         23    2    1    2    0    0 -0.14712296279E+03 -0.45759531981E+03 -0.99501909228E+03  0.11086618487E+04  0.89607242304E+02 0.  0.
        254    2    1    2    0    0  0.14712296279E+03  0.45759531981E+03 -0.60844412331E+03  0.11893253667E+04  0.90180482019E+03 0.  0.
        -24    2    4    4    0    0  0.33164353144E+03 -0.21543409729E+02 -0.57398001245E+03  0.66855034209E+03  0.83993778123E+02 0.  0.
         24    2    4    4    0    0 -0.18452056865E+03  0.47913872954E+03 -0.34464110860E+02  0.52077502458E+03  0.79981803479E+02 0.  0.
         11    1    3    3    0    0 -0.28369246671E+02 -0.77952349274E+02 -0.25993639160E+03  0.27285217718E+03  0.00000000000E+00 0.  1.
        -11    1    3    3    0    0 -0.11875371612E+03 -0.37964297054E+03 -0.73508270068E+03  0.83580967152E+03  0.00000000000E+00 0. -1.
          4    1    6    6  502    0 -0.16234963541E+03  0.42920674256E+03 -0.55505697572E+02  0.46223015311E+03  0.00000000000E+00 0. -1.
          1    1    5    5  503    0  0.23667957672E+03 -0.52767841681E+02 -0.41965559765E+03  0.48467771538E+03  0.00000000000E+00 0. -1.
         -2    1    5    5    0  503  0.94963954719E+02  0.31224431952E+02 -0.15432441481E+03  0.18387262671E+03  0.00000000000E+00 0.  1.
         -3    1    6    6    0  502 -0.22170933236E+02  0.49931986978E+02  0.21041586712E+02  0.58544871470E+02  0.00000000000E+00 0.  1.
<mgrwt>
<rscale>  0 0.16461017E+04</rscale>
<asrwt>0</asrwt>
<pdfrwt beam="1">  1        2 0.30011158E+00 0.16461017E+04</pdfrwt>
<pdfrwt beam="2">  1       -2 0.53424922E-01 0.16461017E+04</pdfrwt>
<totfact> 0.22457417E+01</totfact>
</mgrwt>
</event>
<event>
12    1  0.2019083E-007  0.3562063E+04  0.7818608E-02  0.8099237E-01
          1   -1    0    0  501    0  0.00000000000E+00  0.00000000000E+00  0.14685246440E+04  0.14685246440E+04  0.00000000000E+00 0. -1.
         -1   -1    0    0    0  501 -0.00000000000E+00 -0.00000000000E+00 -0.21600407543E+04  0.21600407543E+04  0.00000000000E+00 0.  1.
         23    2    1    2    0    0 -0.67524527102E+03 -0.12566406419E+04 -0.11960527851E+04  0.18637216815E+04  0.88398881934E+02 0.  0.
        254    2    1    2    0    0  0.67524527102E+03  0.12566406419E+04  0.50453667475E+03  0.17648437168E+04  0.90830292833E+03 0.  0.
        -24    2    4    4    0    0  0.59413300828E+03  0.97798965135E+03  0.75503694221E+03  0.13732782527E+04  0.79715654167E+02 0.  0.
         24    2    4    4    0    0  0.81112262738E+02  0.27865099059E+03 -0.25050026746E+03  0.39156546413E+03  0.79671544346E+02 0.  0.
         13    1    3    3    0    0 -0.45624092517E+03 -0.83282401213E+03 -0.84883632146E+03  0.12736854861E+04  0.00000000000E+00 0.  1.
        -13    1    3    3    0    0 -0.21900434585E+03 -0.42381662981E+03 -0.34721646362E+03  0.59003619534E+03  0.00000000000E+00 0. -1.
          2    1    6    6  502    0  0.30539891964E+02  0.13834124733E+03 -0.71876887410E+02  0.15886243312E+03  0.00000000000E+00 0. -1.
          3    1    5    5  503    0  0.23100053686E+03  0.33007563649E+03  0.29903995004E+03  0.50173306205E+03  0.00000000000E+00 0. -1.
         -4    1    5    5    0  503  0.36313247143E+03  0.64791401486E+03  0.45599699217E+03  0.87154519064E+03  0.00000000000E+00 0.  1.
         -1    1    6    6    0  502  0.50572370774E+02  0.14030974326E+03 -0.17862338005E+03  0.23270303101E+03  0.00000000000E+00 0.  1.
<mgrwt>
<rscale>  0 0.35620629E+04</rscale>
<asrwt>0</asrwt>
<pdfrwt beam="1">  1        1 0.22592687E+00 0.35620629E+04</pdfrwt>
<pdfrwt beam="2">  1       -1 0.33231396E+00 0.35620629E+04</pdfrwt>
<totfact> 0.11346974E-01</totfact>
</mgrwt>
</event>
<event>
12    1  0.2019083E-007  0.1431956E+04  0.7818608E-02  0.8931007E-01
          1   -1    0    0  501    0  0.00000000000E+00  0.00000000000E+00  0.18228136712E+04  0.18228136712E+04  0.00000000000E+00 0. -1.
         -1   -1    0    0    0  501 -0.00000000000E+00 -0.00000000000E+00 -0.28122701129E+03  0.28122701129E+03  0.00000000000E+00 0.  1.
         23    2    1    2    0    0 -0.39785681007E+03  0.10635203874E+03  0.30556180292E+03  0.52090544511E+03  0.91507758581E+02 0.  0.
        254    2    1    2    0    0  0.39785681007E+03 -0.10635203874E+03  0.12360248570E+04  0.15831352374E+04  0.89942144473E+03 0.  0.
        -24    2    4    4    0    0  0.16139553787E+03  0.22005737703E+03  0.43485598153E+01  0.28465919403E+03  0.80859000370E+02 0.  0.
         24    2    4    4    0    0  0.23646127220E+03 -0.32640941577E+03  0.12316762972E+04  0.12984760433E+04  0.80972181398E+02 0.  0.
         13    1    3    3    0    0 -0.24795347302E+03  0.11146358730E+03  0.19962062310E+03  0.33727355254E+03  0.00000000000E+00 0.  1.
        -13    1    3    3    0    0 -0.14990333705E+03 -0.51115485625E+01  0.10594117982E+03  0.18363189257E+03  0.00000000000E+00 0. -1.
          4    1    6    6  502    0  0.20456285551E+03 -0.24734702269E+03  0.88303732517E+03  0.93956448907E+03  0.00000000000E+00 0. -1.
          3    1    5    5  503    0  0.22839306096E+02  0.95638919067E+02  0.46731884409E+01  0.98439196631E+02  0.00000000000E+00 0. -1.
         -4    1    5    5    0  503  0.13855623178E+03  0.12441845796E+03 -0.32462862557E+00  0.18621999739E+03  0.00000000000E+00 0.  1.
         -3    1    6    6    0  502  0.31898416695E+02 -0.79062393080E+02  0.34863897201E+03  0.35891155427E+03  0.00000000000E+00 0.  1.
<mgrwt>
<rscale>  0 0.14319559E+04</rscale>
<asrwt>0</asrwt>
<pdfrwt beam="1">  1        1 0.28043287E+00 0.14319559E+04</pdfrwt>
<pdfrwt beam="2">  1       -1 0.43265695E-01 0.14319559E+04</pdfrwt>
<totfact> 0.20155242E+01</totfact>
</mgrwt>
</event>
<event>
12    1  0.2019083E-007  0.2123265E+04  0.7818608E-02  0.8551064E-01
          2   -1    0    0  501    0  0.00000000000E+00  0.00000000000E+00  0.52866466028E+03  0.52866466028E+03  0.00000000000E+00 0. -1.
         -2   -1    0    0    0  501 -0.00000000000E+00 -0.00000000000E+00 -0.21319058761E+04  0.21319058761E+04  0.00000000000E+00 0.  1.
         23    2    1    2    0    0 -0.37219677755E+03  0.70804141359E+03 -0.23504742354E+03  0.83864209272E+03  0.90665229270E+02 0.  0.
        254    2    1    2    0    0  0.37219677755E+03 -0.70804141359E+03 -0.13681937922E+04  0.18219284436E+04  0.89867453282E+03 0.  0.
        -24    2    4    4    0    0 -0.18383354369E+03  0.73795025712E+02 -0.41806085166E+03  0.46934875260E+03  0.79201630491E+02 0.  0.
         24    2    4    4    0    0  0.55603032124E+03 -0.78183643930E+03 -0.95013294057E+03  0.13525796910E+04  0.79254525419E+02 0.  0.
         11    1    3    3    0    0 -0.37556291907E+02  0.14671685497E+03 -0.39702342115E+02  0.15656495957E+03  0.00000000000E+00 0.  1.
        -11    1    3    3    0    0 -0.33464048564E+03  0.56132455862E+03 -0.19534508143E+03  0.68207713316E+03  0.00000000000E+00 0. -1.
          2    1    6    6  502    0  0.66403027725E+02 -0.58458853603E+02 -0.73129181263E+02  0.11478099498E+03  0.00000000000E+00 0. -1.
          1    1    5    5  503    0 -0.13626167322E+03  0.16001353218E+02 -0.29435370614E+03  0.32475743442E+03  0.00000000000E+00 0. -1.
         -2    1    5    5    0  503 -0.47571870469E+02  0.57793672494E+02 -0.12370714552E+03  0.14459131818E+03  0.00000000000E+00 0.  1.
         -1    1    6    6    0  502  0.48962729351E+03 -0.72337758570E+03 -0.87700375931E+03  0.12377986960E+04  0.00000000000E+00 0.  1.
<mgrwt>
<rscale>  0 0.21232647E+04</rscale>
<asrwt>0</asrwt>
<pdfrwt beam="1">  1        2 0.81333023E-01 0.21232647E+04</pdfrwt>
<pdfrwt beam="2">  1       -2 0.32798553E+00 0.21232647E+04</pdfrwt>
<totfact> 0.11352203E+00</totfact>
</mgrwt>
</event>
<event>
12    1  0.2019083E-007  0.1517528E+04  0.7818608E-02  0.8872880E-01
         -1   -1    0    0    0  501 -0.00000000000E+00  0.00000000000E+00  0.48510838140E+03  0.48510838140E+03  0.00000000000E+00 0.  1.
          1   -1    0    0  501    0  0.00000000000E+00 -0.00000000000E+00 -0.11867925738E+04  0.11867925738E+04  0.00000000000E+00 0. -1.
         23    2    1    2    0    0 -0.15436434361E+03 -0.45751975148E+03 -0.29408783300E+03  0.57284022171E+03  0.92225769303E+02 0.  0.
        254    2    1    2    0    0  0.15436434361E+03  0.45751975148E+03 -0.40759635938E+03  0.10990607335E+04  0.89924803590E+03 0.  0.
        -24    2    4    4    0    0  0.49058577748E+02  0.10018970666E+03  0.27946429600E+03  0.31351287461E+03  0.88007433977E+02 0.  0.
         24    2    4    4    0    0  0.10530576586E+03  0.35733004483E+03 -0.68706065538E+03  0.78554785885E+03  0.79114026022E+02 0.  0.
         13    1    3    3    0    0 -0.36597496880E+02 -0.35443938031E+02 -0.14219163922E+02  0.52894556844E+02  0.00000000000E+00 0.  1.
        -13    1    3    3    0    0 -0.11776684673E+03 -0.42207581345E+03 -0.27986866907E+03  0.51994566487E+03  0.00000000000E+00 0. -1.
          2    1    6    6  502    0  0.66464521984E+01  0.13878539424E+03 -0.21329885458E+03  0.25456229561E+03  0.00000000000E+00 0. -1.
          1    1    5    5  503    0  0.38281975978E+01  0.22558541426E+02  0.33209035382E+01  0.23120797746E+02  0.00000000000E+00 0. -1.
         -2    1    5    5    0  503  0.45230380151E+02  0.77631165231E+02  0.27614339246E+03  0.29039207686E+03  0.00000000000E+00 0.  1.
         -1    1    6    6    0  502  0.98659313662E+02  0.21854465059E+03 -0.47376180080E+03  0.53098556324E+03  0.00000000000E+00 0.  1.
<mgrwt>
<rscale>  0 0.15175283E+04</rscale>
<asrwt>0</asrwt>
<pdfrwt beam="1">  1        1 0.18258347E+00 0.15175283E+04</pdfrwt>
<pdfrwt beam="2">  1       -1 0.74632059E-01 0.15175283E+04</pdfrwt>
<totfact> 0.19068166E+01</totfact>
</mgrwt>
</event>
<event>
12    1  0.2019083E-007  0.2454338E+04  0.7818608E-02  0.8419436E-01
          2   -1    0    0  501    0  0.00000000000E+00  0.00000000000E+00  0.33711293346E+04  0.33711293346E+04  0.00000000000E+00 0. -1.
         -2   -1    0    0    0  501 -0.00000000000E+00 -0.00000000000E+00 -0.44671770080E+03  0.44671770080E+03  0.00000000000E+00 0.  1.
         23    2    1    2    0    0 -0.10520797080E+04 -0.10779806319E+03  0.13630401243E+04  0.17272837223E+04  0.84489894380E+02 0.  0.
        254    2    1    2    0    0  0.10520797080E+04  0.10779806319E+03  0.15613715095E+04  0.20905633131E+04  0.90226483975E+03 0.  0.
        -24    2    4    4    0    0  0.10811946842E+04 -0.23196646005E+01  0.88301651716E+03  0.13982255030E+04  0.79555400526E+02 0.  0.
         24    2    4    4    0    0 -0.29114976168E+02  0.11011772779E+03  0.67835499232E+03  0.69233781009E+03  0.78692768805E+02 0.  0.
         13    1    3    3    0    0 -0.74652964374E+03 -0.90768007443E+02  0.90927542191E+03  0.11799691238E+04  0.00000000000E+00 0.  1.
        -13    1    3    3    0    0 -0.30555006430E+03 -0.17030055743E+02  0.45376470237E+03  0.54731459848E+03  0.00000000000E+00 0. -1.
          4    1    6    6  502    0  0.54996425604E+01 -0.10166667787E+02  0.95357715746E+02  0.96055719010E+02  0.00000000000E+00 0. -1.
          1    1    5    5  503    0  0.32567696413E+03  0.15831052479E+02  0.30889311538E+03  0.44914481397E+03  0.00000000000E+00 0. -1.
         -2    1    5    5    0  503  0.75551772007E+03 -0.18150717079E+02  0.57412340179E+03  0.94908068906E+03  0.00000000000E+00 0.  1.
         -3    1    6    6    0  502 -0.34614618728E+02  0.12028439557E+03  0.58299727658E+03  0.59628209108E+03  0.00000000000E+00 0.  1.
<mgrwt>
<rscale>  0 0.24543375E+04</rscale>
<asrwt>0</asrwt>
<pdfrwt beam="1">  1        2 0.51863527E+00 0.24543375E+04</pdfrwt>
<pdfrwt beam="2">  1       -2 0.68725802E-01 0.24543375E+04</pdfrwt>
<totfact> 0.17300402E+00</totfact>
</mgrwt>
</event>
<event>
12    1  0.2019083E-007  0.4362281E+04  0.7818608E-02  0.7935201E-01
          3   -1    0    0  501    0  0.00000000000E+00  0.00000000000E+00  0.17264901813E+04  0.17264901813E+04  0.00000000000E+00 0. -1.
         -3   -1    0    0    0  501 -0.00000000000E+00 -0.00000000000E+00 -0.27555171811E+04  0.27555171811E+04  0.00000000000E+00 0.  1.
         23    2    1    2    0    0  0.27159532772E+03  0.87321196631E+03  0.14349098608E+04  0.17040705161E+04  0.92880865006E+02 0.  0.
        254    2    1    2    0    0 -0.27159532772E+03 -0.87321196631E+03 -0.24639368606E+04  0.27779368462E+04  0.89982504321E+03 0.  0.
        -24    2    4    4    0    0 -0.40884160299E+03 -0.24577944426E+03 -0.44691041373E+03  0.65959854363E+03  0.88217511341E+02 0.  0.
         24    2    4    4    0    0  0.13724627528E+03 -0.62743252204E+03 -0.20170264469E+04  0.21183383026E+04  0.80332851161E+02 0.  0.
         11    1    3    3    0    0  0.14428838275E+03  0.46106830117E+03  0.84359458131E+03  0.97213935902E+03  0.00000000000E+00 0. -1.
        -11    1    3    3    0    0  0.12730694496E+03  0.41214366514E+03  0.59131527953E+03  0.73193115711E+03  0.00000000000E+00 0.  1.
          2    1    6    6  502    0  0.78670341681E+02 -0.47432951771E+03 -0.15820080782E+04  0.16534591236E+04  0.00000000000E+00 0. -1.
          1    1    5    5  503    0 -0.29983436294E+03 -0.15146725521E+03 -0.26725182808E+03  0.42926275661E+03  0.00000000000E+00 0. -1.
         -2    1    5    5    0  503 -0.10900724006E+03 -0.94312189053E+02 -0.17965858565E+03  0.23033578703E+03  0.00000000000E+00 0.  1.
         -1    1    6    6    0  502  0.58575933598E+02 -0.15310300434E+03 -0.43501836872E+03  0.46487917899E+03  0.00000000000E+00 0.  1.
<mgrwt>
<rscale>  0 0.43622808E+04</rscale>
<asrwt>0</asrwt>
<pdfrwt beam="1">  1        3 0.26561387E+00 0.43622808E+04</pdfrwt>
<pdfrwt beam="2">  1       -3 0.42392572E+00 0.43622808E+04</pdfrwt>
<totfact> 0.92519053E-04</totfact>
</mgrwt>
</event>
<event>
12    1  0.2019083E-007  0.1666300E+04  0.7818608E-02  0.8780822E-01
          2   -1    0    0  501    0  0.00000000000E+00  0.00000000000E+00  0.42245748298E+03  0.42245748298E+03  0.00000000000E+00 0. -1.
         -2   -1    0    0    0  501 -0.00000000000E+00 -0.00000000000E+00 -0.16430971539E+04  0.16430971539E+04  0.00000000000E+00 0.  1.
         23    2    1    2    0    0  0.46960667294E+03  0.29456332186E+03 -0.66500516625E+03  0.87061641919E+03  0.91886344878E+02 0.  0.
        254    2    1    2    0    0 -0.46960667294E+03 -0.29456332186E+03 -0.55563450464E+03  0.11949382176E+04  0.90102700481E+03 0.  0.
        -24    2    4    4    0    0 -0.27675377545E+03 -0.46995625123E+03 -0.69605516499E+03  0.88796371408E+03  0.80840797295E+02 0.  0.
         24    2    4    4    0    0 -0.19285289749E+03  0.17539292937E+03  0.14042066036E+03  0.30697450357E+03  0.80996692801E+02 0.  0.
         11    1    3    3    0    0 -0.25847230104E+01 -0.24160545318E+01 -0.16686049223E+01  0.39118224561E+01  0.00000000000E+00 0. -1.
        -11    1    3    3    0    0  0.47219139595E+03  0.29697937639E+03 -0.66333656133E+03  0.86670459674E+03  0.00000000000E+00 0.  1.
          4    1    6    6  502    0 -0.10099184128E+03  0.55201325837E+02  0.94393624292E+02  0.14885125020E+03  0.00000000000E+00 0. -1.
          3    1    5    5  503    0 -0.71378637616E+02 -0.93978930805E+02 -0.20277549230E+03  0.23461638821E+03  0.00000000000E+00 0. -1.
         -4    1    5    5    0  503 -0.20537513783E+03 -0.37597732043E+03 -0.49327967270E+03  0.65334732586E+03  0.00000000000E+00 0.  1.
         -3    1    6    6    0  502 -0.91861056208E+02  0.12019160353E+03  0.46027036064E+02  0.15812325337E+03  0.00000000000E+00 0.  1.
<mgrwt>
<rscale>  0 0.16662997E+04</rscale>
<asrwt>0</asrwt>
<pdfrwt beam="1">  1        2 0.64993460E-01 0.16662997E+04</pdfrwt>
<pdfrwt beam="2">  1       -2 0.25278417E+00 0.16662997E+04</pdfrwt>
<totfact> 0.44064585E+00</totfact>
</mgrwt>
</event>
<event>
12    1  0.2019083E-007  0.2139732E+04  0.7818608E-02  0.8543940E-01
          1   -1    0    0  501    0  0.00000000000E+00  0.00000000000E+00  0.30891727791E+04  0.30891727791E+04  0.00000000000E+00 0. -1.
         -1   -1    0    0    0  501 -0.00000000000E+00 -0.00000000000E+00 -0.37052414763E+03  0.37052414763E+03  0.00000000000E+00 0.  1.
         23    2    1    2    0    0 -0.70837009521E+02 -0.86563527694E+03  0.13074870438E+04  0.15722584010E+04  0.90176467721E+02 0.  0.
        254    2    1    2    0    0  0.70837009521E+02  0.86563527694E+03  0.14111615877E+04  0.18874385257E+04  0.90371723852E+03 0.  0.
        -24    2    4    4    0    0 -0.16742024505E+03  0.40057401526E+03  0.12631473582E+04  0.13387167875E+04  0.90179313048E+02 0.  0.
         24    2    4    4    0    0  0.23825725457E+03  0.46506126168E+03  0.14801422948E+03  0.54872173819E+03  0.78350732983E+02 0.  0.
         13    1    3    3    0    0 -0.34630109969E+02 -0.23579029467E+03  0.29410501360E+03  0.37854202752E+03  0.00000000000E+00 0. -1.
        -13    1    3    3    0    0 -0.36206899552E+02 -0.62984498227E+03  0.10133820302E+04  0.11937163735E+04  0.00000000000E+00 0.  1.
          2    1    6    6  502    0  0.21463407769E+03  0.34983939267E+03  0.10692345648E+03  0.42413207084E+03  0.00000000000E+00 0. -1.
          1    1    5    5  503    0 -0.15211392724E+03  0.38663147814E+03  0.11298372652E+04  0.12038084534E+04  0.00000000000E+00 0. -1.
         -2    1    5    5    0  503 -0.15306317815E+02  0.13942537117E+02  0.13331009305E+03  0.13490833412E+03  0.00000000000E+00 0.  1.
         -1    1    6    6    0  502  0.23623176884E+02  0.11522186901E+03  0.41090772998E+02  0.12458966735E+03  0.00000000000E+00 0.  1.
<mgrwt>
<rscale>  0 0.21397319E+04</rscale>
<asrwt>0</asrwt>
<pdfrwt beam="1">  1        1 0.47525733E+00 0.21397319E+04</pdfrwt>
<pdfrwt beam="2">  1       -1 0.57003717E-01 0.21397319E+04</pdfrwt>
<totfact> 0.14701276E+00</totfact>
</mgrwt>
</event>
<event>
12    1  0.2019083E-007  0.1294889E+04  0.7818608E-02  0.9033628E-01
         -2   -1    0    0    0  501 -0.00000000000E+00  0.00000000000E+00  0.35102212687E+03  0.35102212687E+03  0.00000000000E+00 0.  1.
          2   -1    0    0  501    0  0.00000000000E+00 -0.00000000000E+00 -0.11941824700E+04  0.11941824700E+04  0.00000000000E+00 0. -1.
         23    2    1    2    0    0 -0.12430354347E+03 -0.23654366029E+03 -0.44573538435E+03  0.52796934208E+03  0.93098438072E+02 0.  0.
        254    2    1    2    0    0  0.12430354347E+03  0.23654366029E+03 -0.39742495875E+03  0.10172352548E+04  0.89745010534E+03 0.  0.
        -24    2    4    4    0    0 -0.31390681298E+03  0.34927793969E+03 -0.21462827020E+03  0.52270453726E+03  0.81376731985E+02 0.  0.
         24    2    4    4    0    0  0.43821035645E+03 -0.11273427941E+03 -0.18279668855E+03  0.49453071751E+03  0.80054150209E+02 0.  0.
         13    1    3    3    0    0 -0.79301317087E+02 -0.91256444899E+02 -0.26820639342E+03  0.29419569524E+03  0.00000000000E+00 0. -1.
        -13    1    3    3    0    0 -0.45002226382E+02 -0.14528721539E+03 -0.17752899093E+03  0.23377364684E+03  0.00000000000E+00 0.  1.
          2    1    6    6  502    0  0.41858795174E+03 -0.91188350113E+02 -0.15918658094E+03  0.45702467777E+03  0.00000000000E+00 0. -1.
          1    1    5    5  503    0 -0.22390286915E+03  0.20262665598E+03 -0.16244961908E+03  0.34289930777E+03  0.00000000000E+00 0. -1.
         -2    1    5    5    0  503 -0.90003943828E+02  0.14665128371E+03 -0.52178651119E+02  0.17980522949E+03  0.00000000000E+00 0.  1.
         -1    1    6    6    0  502  0.19622404706E+02 -0.21545929295E+02 -0.23610107613E+02  0.37506039742E+02  0.00000000000E+00 0.  1.
<mgrwt>
<rscale>  0 0.12948891E+04</rscale>
<asrwt>0</asrwt>
<pdfrwt beam="1">  1        2 0.18372038E+00 0.12948891E+04</pdfrwt>
<pdfrwt beam="2">  1       -2 0.54003403E-01 0.12948891E+04</pdfrwt>
<totfact> 0.60450495E+01</totfact>
</mgrwt>
</event>
<event>
12    1  0.2019083E-007  0.1368927E+04  0.7818608E-02  0.8976623E-01
          2   -1    0    0  501    0  0.00000000000E+00  0.00000000000E+00  0.32576934018E+04  0.32576934018E+04  0.00000000000E+00 0.  1.
         -2   -1    0    0    0  501 -0.00000000000E+00 -0.00000000000E+00 -0.14381043638E+03  0.14381043638E+03  0.00000000000E+00 0. -1.
         23    2    1    2    0    0  0.22179899620E+03 -0.26192269240E+03  0.12930170859E+04  0.13408968893E+04  0.91175609875E+02 0.  0.
        254    2    1    2    0    0 -0.22179899620E+03  0.26192269240E+03  0.18208658795E+04  0.20606069489E+04  0.90152656923E+03 0.  0.
        -24    2    4    4    0    0  0.15584152089E+03  0.37096025656E+03  0.14753104652E+04  0.15311384094E+04  0.77108807284E+02 0.  0.
         24    2    4    4    0    0 -0.37764051709E+03 -0.10903756416E+03  0.34555541427E+03  0.52946853951E+03  0.80167571065E+02 0.  0.
         13    1    3    3    0    0  0.81371516831E+02 -0.82223927597E+02  0.28876035079E+03  0.31107014998E+03  0.00000000000E+00 0.  1.
        -13    1    3    3    0    0  0.14042747937E+03 -0.17969876480E+03  0.10042567351E+04  0.10298267393E+04  0.00000000000E+00 0. -1.
          4    1    6    6  502    0 -0.81540646458E+02 -0.30945321299E+02  0.12356728333E+03  0.15124603613E+03  0.00000000000E+00 0. -1.
          3    1    5    5  503    0  0.94919645855E+02  0.20795984453E+03  0.69382755491E+03  0.73051605872E+03  0.00000000000E+00 0. -1.
         -4    1    5    5    0  503  0.60921875040E+02  0.16300041203E+03  0.78148291033E+03  0.80062235063E+03  0.00000000000E+00 0.  1.
         -3    1    6    6    0  502 -0.29609987063E+03 -0.78092242862E+02  0.22198813094E+03  0.37822250338E+03  0.00000000000E+00 0.  1.
<mgrwt>
<rscale>  0 0.13689270E+04</rscale>
<asrwt>0</asrwt>
<pdfrwt beam="1">  1        2 0.50118355E+00 0.13689270E+04</pdfrwt>
<pdfrwt beam="2">  1       -2 0.22124685E-01 0.13689270E+04</pdfrwt>
<totfact> 0.21008528E+01</totfact>
</mgrwt>
</event>
<event>
12    1  0.2019083E-007  0.2781120E+04  0.7818608E-02  0.8309154E-01
         -1   -1    0    0    0  501 -0.00000000000E+00  0.00000000000E+00  0.10190744756E+04  0.10190744756E+04  0.00000000000E+00 0.  1.
          1   -1    0    0  501    0  0.00000000000E+00 -0.00000000000E+00 -0.18974641445E+04  0.18974641445E+04  0.00000000000E+00 0. -1.
         23    2    1    2    0    0 -0.94176304536E+02  0.45006289784E+03 -0.16031285681E+04  0.16702714754E+04  0.91431982703E+02 0.  0.
        254    2    1    2    0    0  0.94176304536E+02 -0.45006289784E+03  0.72473889923E+03  0.12462671447E+04  0.90360917185E+03 0.  0.
        -24    2    4    4    0    0 -0.23295136542E+03  0.17531529920E+03  0.24722664659E+03  0.39076354096E+03  0.81076120865E+02 0.  0.
         24    2    4    4    0    0  0.32712766996E+03 -0.62537819704E+03  0.47751225264E+03  0.85550360370E+03  0.75881899928E+02 0.  0.
         13    1    3    3    0    0 -0.52047080748E+02  0.98154390337E+02 -0.30401649990E+03  0.32368073030E+03  0.00000000000E+00 0. -1.
        -13    1    3    3    0    0 -0.42129223789E+02  0.35190850750E+03 -0.12991120682E+04  0.13465907451E+04  0.00000000000E+00 0.  1.
          4    1    6    6  502    0  0.24202120973E+03 -0.38520190748E+03  0.31310848974E+03  0.55226053800E+03  0.00000000000E+00 0. -1.
          3    1    5    5  503    0 -0.22661483567E+03  0.15794131895E+03  0.24938324721E+03  0.37214479435E+03  0.00000000000E+00 0. -1.
         -4    1    5    5    0  503 -0.63365297561E+01  0.17373980247E+02 -0.21566006186E+01  0.18618746607E+02  0.00000000000E+00 0.  1.
         -3    1    6    6    0  502  0.85106460233E+02 -0.24017628956E+03  0.16440376290E+03  0.30324306570E+03  0.00000000000E+00 0.  1.
<mgrwt>
<rscale>  0 0.27811201E+04</rscale>
<asrwt>0</asrwt>
<pdfrwt beam="1">  1        1 0.29191756E+00 0.27811201E+04</pdfrwt>
<pdfrwt beam="2">  1       -1 0.15678069E+00 0.27811201E+04</pdfrwt>
<totfact> 0.93789910E-01</totfact>
</mgrwt>
</event>
<event>
12    1  0.2019083E-007  0.1967860E+04  0.7818608E-02  0.8621796E-01
         -1   -1    0    0    0  501 -0.00000000000E+00  0.00000000000E+00  0.91815828517E+03  0.91815828517E+03  0.00000000000E+00 0.  1.
          1   -1    0    0  501    0  0.00000000000E+00 -0.00000000000E+00 -0.10544133067E+04  0.10544133067E+04  0.00000000000E+00 0. -1.
         23    2    1    2    0    0 -0.49358534176E+03 -0.24153048760E+03 -0.60182123102E+03  0.82015696584E+03  0.92223578679E+02 0.  0.
        254    2    1    2    0    0  0.49358534176E+03  0.24153048760E+03  0.46556620949E+03  0.11524146260E+04  0.89963554222E+03 0.  0.
        -24    2    4    4    0    0  0.39868776867E+03  0.56900054370E+03  0.36154329880E+03  0.78738910434E+03  0.80959799347E+02 0.  0.
         24    2    4    4    0    0  0.94897573082E+02 -0.32747005610E+03  0.10402291069E+03  0.36502552169E+03  0.78617291468E+02 0.  0.
         11    1    3    3    0    0 -0.54755431398E+02 -0.39967370780E+02 -0.37685699838E+02  0.77561330359E+02  0.00000000000E+00 0. -1.
        -11    1    3    3    0    0 -0.43882991036E+03 -0.20156311682E+03 -0.56413553119E+03  0.74259563548E+03  0.00000000000E+00 0.  1.
          2    1    6    6  502    0  0.45404330251E+01 -0.58763823261E+02 -0.94041011793E+01  0.59684500294E+02  0.00000000000E+00 0. -1.
          3    1    5    5  503    0  0.67199367959E+02  0.67839612440E+02  0.76410821970E+02  0.12229710456E+03  0.00000000000E+00 0. -1.
         -4    1    5    5    0  503  0.33148840072E+03  0.50116093126E+03  0.28513247683E+03  0.66509199978E+03  0.00000000000E+00 0.  1.
         -1    1    6    6    0  502  0.90357140056E+02 -0.26870623284E+03  0.11342701187E+03  0.30534102139E+03  0.00000000000E+00 0.  1.
<mgrwt>
<rscale>  0 0.19678601E+04</rscale>
<asrwt>0</asrwt>
<pdfrwt beam="1">  1        1 0.16221743E+00 0.19678601E+04</pdfrwt>
<pdfrwt beam="2">  1       -1 0.14125512E+00 0.19678601E+04</pdfrwt>
<totfact> 0.52307017E+00</totfact>
</mgrwt>
</event>
<event>
12    1  0.2019083E-007  0.3470524E+04  0.7818608E-02  0.8120811E-01
          2   -1    0    0  501    0  0.00000000000E+00  0.00000000000E+00  0.40047133483E+04  0.40047133483E+04  0.00000000000E+00 0. -1.
         -2   -1    0    0    0  501 -0.00000000000E+00 -0.00000000000E+00 -0.75189773172E+03  0.75189773172E+03  0.00000000000E+00 0.  1.
         23    2    1    2    0    0  0.13710705123E+04 -0.85409323451E+03  0.16058339293E+04  0.22796102306E+04  0.92793274403E+02 0.  0.
        254    2    1    2    0    0 -0.13710705123E+04  0.85409323451E+03  0.16469816873E+04  0.24770008494E+04  0.90203931559E+03 0.  0.
        -24    2    4    4    0    0 -0.11742834689E+04  0.26638600144E+03  0.91403278039E+03  0.15136486693E+04  0.75981599467E+02 0.  0.
         24    2    4    4    0    0 -0.19678704348E+03  0.58770723307E+03  0.73294890687E+03  0.96335218013E+03  0.81904765375E+02 0.  0.
         11    1    3    3    0    0  0.67593770512E+03 -0.46186852063E+03  0.85658255619E+03  0.11848831112E+04  0.00000000000E+00 0.  1.
        -11    1    3    3    0    0  0.69513280722E+03 -0.39222471389E+03  0.74925137311E+03  0.10947271194E+04  0.00000000000E+00 0. -1.
          2    1    6    6  502    0 -0.17537031086E+03  0.43159781800E+03  0.57783817337E+03  0.74224549648E+03  0.00000000000E+00 0. -1.
          1    1    5    5  503    0 -0.90945382922E+03  0.18803719557E+03  0.67057893236E+03  0.11454869528E+04  0.00000000000E+00 0. -1.
         -2    1    5    5    0  503 -0.26482963963E+03  0.78348805873E+02  0.24345384804E+03  0.36816171655E+03  0.00000000000E+00 0.  1.
         -1    1    6    6    0  502 -0.21416732622E+02  0.15610941507E+03  0.15511073350E+03  0.22110668365E+03  0.00000000000E+00 0.  1.
<mgrwt>
<rscale>  0 0.34705244E+04</rscale>
<asrwt>0</asrwt>
<pdfrwt beam="1">  1        2 0.61610973E+00 0.34705244E+04</pdfrwt>
<pdfrwt beam="2">  1       -2 0.11567658E+00 0.34705244E+04</pdfrwt>
<totfact> 0.16193873E-01</totfact>
</mgrwt>
</event>
<event>
12    1  0.2019083E-007  0.1874082E+04  0.7818608E-02  0.8667866E-01
          1   -1    0    0  501    0  0.00000000000E+00  0.00000000000E+00  0.97037665968E+03  0.97037665968E+03  0.00000000000E+00 0. -1.
         -1   -1    0    0    0  501 -0.00000000000E+00 -0.00000000000E+00 -0.90485017351E+03  0.90485017351E+03  0.00000000000E+00 0.  1.
         23    2    1    2    0    0 -0.17870279143E+03  0.39930681631E+03 -0.54638544126E+03  0.70586779561E+03  0.91277999781E+02 0.  0.
        254    2    1    2    0    0  0.17870279143E+03 -0.39930681631E+03  0.61191192742E+03  0.11693590376E+04  0.89531208561E+03 0.  0.
        -24    2    4    4    0    0 -0.33744500149E+03 -0.27048310287E+03  0.38868634209E+03  0.58710152924E+03  0.81122716601E+02 0.  0.
         24    2    4    4    0    0  0.51614779292E+03 -0.12882371344E+03  0.22322558533E+03  0.58225750834E+03  0.78676875798E+02 0.  0.
         11    1    3    3    0    0 -0.26612103943E+02  0.35845607802E+02 -0.10565697359E+03  0.11470182101E+03  0.00000000000E+00 0. -1.
        -11    1    3    3    0    0 -0.15209068749E+03  0.36346120851E+03 -0.44072846766E+03  0.59116597460E+03  0.00000000000E+00 0.  1.
          4    1    6    6  502    0  0.54450320459E+02 -0.29073484059E+02  0.48962537786E+02  0.78787276764E+02  0.00000000000E+00 0. -1.
          3    1    5    5  503    0 -0.11028030341E+02  0.57050330112E+01  0.10245310596E+02  0.16097553978E+02  0.00000000000E+00 0. -1.
         -4    1    5    5    0  503 -0.32641697115E+03 -0.27618813588E+03  0.37844103149E+03  0.57100397526E+03  0.00000000000E+00 0.  1.
         -3    1    6    6    0  502  0.46169747246E+03 -0.99750229384E+02  0.17426304755E+03  0.50347023157E+03  0.00000000000E+00 0.  1.
<mgrwt>
<rscale>  0 0.18740816E+04</rscale>
<asrwt>0</asrwt>
<pdfrwt beam="1">  1        1 0.14928872E+00 0.18740816E+04</pdfrwt>
<pdfrwt beam="2">  1       -1 0.13920772E+00 0.18740816E+04</pdfrwt>
<totfact> 0.63700587E+00</totfact>
</mgrwt>
</event>
<event>
12    1  0.2019083E-007  0.1388686E+04  0.7818608E-02  0.8962049E-01
         -2   -1    0    0    0  501 -0.00000000000E+00  0.00000000000E+00  0.50104124508E+03  0.50104124508E+03  0.00000000000E+00 0.  1.
          2   -1    0    0  501    0  0.00000000000E+00 -0.00000000000E+00 -0.96222115216E+03  0.96222115216E+03  0.00000000000E+00 0. -1.
         23    2    1    2    0    0  0.39281117287E+03 -0.57084290401E+02 -0.25019420667E+03  0.47741868475E+03  0.88160227741E+02 0.  0.
        254    2    1    2    0    0 -0.39281117287E+03  0.57084290401E+02 -0.21098570042E+03  0.98584371249E+03  0.87739023583E+03 0.  0.
        -24    2    4    4    0    0 -0.49673791209E+03 -0.15317867127E+03 -0.41098855631E+03  0.66742656068E+03  0.79588704265E+02 0.  0.
         24    2    4    4    0    0  0.10392673922E+03  0.21026296167E+03  0.20000285589E+03  0.31841715181E+03  0.79856496460E+02 0.  0.
         13    1    3    3    0    0  0.72167717171E+02  0.15181879116E+02 -0.20884424394E+02  0.76647426815E+02  0.00000000000E+00 0. -1.
        -13    1    3    3    0    0  0.32064345570E+03 -0.72266169517E+02 -0.22930978227E+03  0.40077125793E+03  0.00000000000E+00 0.  1.
          2    1    6    6  502    0  0.49387491444E+02  0.16469480688E+03  0.11157679713E+03  0.20497045002E+03  0.00000000000E+00 0. -1.
          1    1    5    5  503    0 -0.22502160319E+03 -0.75305957350E+02 -0.23776965835E+03  0.33591683427E+03  0.00000000000E+00 0. -1.
         -2    1    5    5    0  503 -0.27171630890E+03 -0.77872713917E+02 -0.17321889797E+03  0.33150972642E+03  0.00000000000E+00 0.  1.
         -1    1    6    6    0  502  0.54539247775E+02  0.45568154791E+02  0.88426058757E+02  0.11344670179E+03  0.00000000000E+00 0.  1.
<mgrwt>
<rscale>  0 0.13886864E+04</rscale>
<asrwt>0</asrwt>
<pdfrwt beam="1">  1        2 0.14803402E+00 0.13886864E+04</pdfrwt>
<pdfrwt beam="2">  1       -2 0.77083268E-01 0.13886864E+04</pdfrwt>
<totfact> 0.39014482E+01</totfact>
</mgrwt>
</event>
<event>
12    1  0.2019083E-007  0.1397283E+04  0.7818608E-02  0.8955788E-01
         -1   -1    0    0    0  501 -0.00000000000E+00  0.00000000000E+00  0.12850556933E+04  0.12850556933E+04  0.00000000000E+00 0. -1.
          1   -1    0    0  501    0  0.00000000000E+00 -0.00000000000E+00 -0.37982778065E+03  0.37982778065E+03  0.00000000000E+00 0.  1.
         23    2    1    2    0    0 -0.27559882807E+03 -0.76843768986E+02 -0.67843813442E+02  0.30909619316E+03  0.95278511418E+02 0.  0.
        254    2    1    2    0    0  0.27559882807E+03  0.76843768986E+02  0.97307172608E+03  0.13557872808E+04  0.89968377098E+03 0.  0.
        -24    2    4    4    0    0  0.14639135638E+03  0.27546923886E+02  0.11236387816E+04  0.11363269547E+04  0.80533063174E+02 0.  0.
         24    2    4    4    0    0  0.12920747169E+03  0.49296845100E+02 -0.15056705552E+03  0.21946032607E+03  0.79797536519E+02 0.  0.
         11    1    3    3    0    0 -0.57920890626E+02 -0.36526949687E+02 -0.54137692113E+02  0.87292252415E+02  0.00000000000E+00 0. -1.
        -11    1    3    3    0    0 -0.21767793744E+03 -0.40316819298E+02 -0.13706121329E+02  0.22180394074E+03  0.00000000000E+00 0.  1.
          4    1    6    6  502    0  0.68041257193E+02  0.66973190471E+02 -0.98915389220E+02  0.13747463456E+03  0.00000000000E+00 0. -1.
          3    1    5    5  503    0  0.73116517832E+02 -0.19429137487E+02  0.36830918689E+03  0.37599890121E+03  0.00000000000E+00 0. -1.
         -4    1    5    5    0  503  0.73274838546E+02  0.46976061373E+02  0.75532959470E+03  0.76032805350E+03  0.00000000000E+00 0.  1.
         -3    1    6    6    0  502  0.61166214494E+02 -0.17676345371E+02 -0.51651666295E+02  0.81985691509E+02  0.00000000000E+00 0.  1.
<mgrwt>
<rscale>  0 0.13972829E+04</rscale>
<asrwt>0</asrwt>
<pdfrwt beam="1">  1        1 0.58435044E-01 0.13972829E+04</pdfrwt>
<pdfrwt beam="2">  1       -1 0.19770087E+00 0.13972829E+04</pdfrwt>
<totfact> 0.97855188E+00</totfact>
</mgrwt>
</event>
<event>
12    1  0.2019083E-007  0.1583017E+04  0.7818608E-02  0.8831050E-01
          3   -1    0    0  501    0  0.00000000000E+00  0.00000000000E+00  0.32731393913E+03  0.32731393913E+03  0.00000000000E+00 0. -1.
         -3   -1    0    0    0  501 -0.00000000000E+00 -0.00000000000E+00 -0.19140211013E+04  0.19140211013E+04  0.00000000000E+00 0.  1.
         23    2    1    2    0    0 -0.42999552877E+03 -0.27522900783E+03 -0.74266169921E+03  0.90580670729E+03  0.91061682350E+02 0.  0.
        254    2    1    2    0    0  0.42999552877E+03  0.27522900783E+03 -0.84404546299E+03  0.13355283332E+04  0.90031995623E+03 0.  0.
        -24    2    4    4    0    0 -0.93570635614E+02 -0.24738267438E+03 -0.33314210361E+03  0.43284413800E+03  0.80104526504E+02 0.  0.
         24    2    4    4    0    0  0.52356616438E+03  0.52261168221E+03 -0.51090335937E+03  0.90268419516E+03  0.81067963503E+02 0.  0.
         11    1    3    3    0    0 -0.59161053534E+02 -0.63654522879E+01 -0.68143910377E+02  0.90466246520E+02  0.00000000000E+00 0. -1.
        -11    1    3    3    0    0 -0.37083447524E+03 -0.26886355554E+03 -0.67451778883E+03  0.81534046077E+03  0.00000000000E+00 0.  1.
          4    1    6    6  502    0  0.37345113468E+03  0.37801482463E+03 -0.40972028594E+03  0.67099304791E+03  0.00000000000E+00 0. -1.
          1    1    5    5  503    0 -0.93489450352E+02 -0.22886672840E+03 -0.33247163967E+03  0.41431587935E+03  0.00000000000E+00 0. -1.
         -2    1    5    5    0  503 -0.81185262715E-01 -0.18515945986E+02 -0.67046394355E+00  0.18528258653E+02  0.00000000000E+00 0.  1.
         -3    1    6    6    0  502  0.15011502971E+03  0.14459685758E+03 -0.10118307343E+03  0.23169114725E+03  0.00000000000E+00 0.  1.
<mgrwt>
<rscale>  0 0.15830171E+04</rscale>
<asrwt>0</asrwt>
<pdfrwt beam="1">  1        3 0.50355991E-01 0.15830171E+04</pdfrwt>
<pdfrwt beam="2">  1       -3 0.29446478E+00 0.15830171E+04</pdfrwt>
<totfact> 0.40266746E-01</totfact>
</mgrwt>
</event>
<event>
12    1  0.2019083E-007  0.3978597E+04  0.7818608E-02  0.8008878E-01
          2   -1    0    0  501    0  0.00000000000E+00  0.00000000000E+00  0.15086857774E+04  0.15086857774E+04  0.00000000000E+00 0. -1.
         -2   -1    0    0    0  501 -0.00000000000E+00 -0.00000000000E+00 -0.26230164996E+04  0.26230164996E+04  0.00000000000E+00 0.  1.
         23    2    1    2    0    0  0.16575182100E+04  0.82099094818E+03 -0.14480922825E+03  0.18574704661E+04  0.88510260911E+02 0.  0.
        254    2    1    2    0    0 -0.16575182100E+04 -0.82099094818E+03 -0.96952149395E+03  0.22742318110E+04  0.90042526033E+03 0.  0.
        -24    2    4    4    0    0 -0.81554545972E+02  0.73220104946E+02  0.10005037285E+03  0.16872903257E+03  0.80293720721E+02 0.  0.
         24    2    4    4    0    0 -0.15759636640E+04 -0.89421105313E+03 -0.10695718668E+04  0.21055027784E+04  0.76701328702E+02 0.  0.
         11    1    3    3    0    0  0.89745345340E+03  0.43735706822E+03 -0.34364784429E+02  0.99894186245E+03  0.00000000000E+00 0.  1.
        -11    1    3    3    0    0  0.76006475658E+03  0.38363387996E+03 -0.11044444382E+03  0.85852860361E+03  0.00000000000E+00 0. -1.
          2    1    6    6  502    0 -0.74365467143E+03 -0.44224911370E+03 -0.47118164306E+03  0.98519982220E+03  0.00000000000E+00 0. -1.
          1    1    5    5  503    0 -0.34487879519E+02  0.53173612804E+01 -0.48160340431E+01  0.35226160003E+02  0.00000000000E+00 0. -1.
         -2    1    5    5    0  503 -0.47066666454E+02  0.67902743666E+02  0.10486640690E+03  0.13350287257E+03  0.00000000000E+00 0.  1.
         -1    1    6    6    0  502 -0.83230899257E+03 -0.45196193942E+03 -0.59839022375E+03  0.11203029562E+04  0.00000000000E+00 0.  1.
<mgrwt>
<rscale>  0 0.39785966E+04</rscale>
<asrwt>0</asrwt>
<pdfrwt beam="1">  1        2 0.23210550E+00 0.39785966E+04</pdfrwt>
<pdfrwt beam="2">  1       -2 0.40354100E+00 0.39785966E+04</pdfrwt>
<totfact> 0.69756008E-02</totfact>
</mgrwt>
</event>
<event>
12    1  0.2019083E-007  0.4376738E+04  0.7818608E-02  0.7932579E-01
         -2   -1    0    0    0  501 -0.00000000000E+00  0.00000000000E+00  0.45296119549E+04  0.45296119549E+04  0.00000000000E+00 0.  1.
          2   -1    0    0  501    0  0.00000000000E+00 -0.00000000000E+00 -0.10572557452E+04  0.10572557452E+04  0.00000000000E+00 0. -1.
         23    2    1    2    0    0 -0.38064966037E+03  0.20268202781E+04  0.11919013190E+04  0.23835472929E+04  0.88172215442E+02 0.  0.
        254    2    1    2    0    0  0.38064966037E+03 -0.20268202781E+04  0.22804548907E+04  0.32033204072E+04  0.89882841445E+03 0.  0.
        -24    2    4    4    0    0  0.15598459115E+03 -0.16072581536E+04  0.21736395243E+04  0.27089841023E+04  0.79221967684E+02 0.  0.
         24    2    4    4    0    0  0.22466506923E+03 -0.41956212454E+03  0.10681536640E+03  0.49433630482E+03  0.80324903265E+02 0.  0.
         11    1    3    3    0    0 -0.70708570109E+02  0.22479982634E+03  0.13567950572E+03  0.27192571059E+03  0.00000000000E+00 0.  1.
        -11    1    3    3    0    0 -0.30994109027E+03  0.18020204518E+04  0.10562218132E+04  0.21116215823E+04  0.00000000000E+00 0. -1.
          2    1    6    6  502    0  0.20774834273E+03 -0.41563338474E+03  0.10757916034E+03  0.47695257642E+03  0.00000000000E+00 0. -1.
          1    1    5    5  503    0  0.10299497970E+03 -0.13470326276E+04  0.18329652745E+04  0.22770302070E+04  0.00000000000E+00 0. -1.
         -4    1    5    5    0  503  0.52989611446E+02 -0.26022552593E+03  0.34067424979E+03  0.43195389538E+03  0.00000000000E+00 0.  1.
         -1    1    6    6    0  502  0.16916726497E+02 -0.39287397979E+01 -0.76379393426E+00  0.17383728396E+02  0.00000000000E+00 0.  1.
<mgrwt>
<rscale>  0 0.43767377E+04</rscale>
<asrwt>0</asrwt>
<pdfrwt beam="1">  1        2 0.16265473E+00 0.43767377E+04</pdfrwt>
<pdfrwt beam="2">  1       -2 0.69686337E+00 0.43767377E+04</pdfrwt>
<totfact> 0.41499081E-03</totfact>
</mgrwt>
</event>
<event>
12    1  0.2019083E-007  0.3528031E+04  0.7818608E-02  0.8107179E-01
          1   -1    0    0  501    0  0.00000000000E+00  0.00000000000E+00  0.30565433228E+04  0.30565433228E+04  0.00000000000E+00 0. -1.
         -1   -1    0    0    0  501 -0.00000000000E+00 -0.00000000000E+00 -0.10180620705E+04  0.10180620705E+04  0.00000000000E+00 0.  1.
         23    2    1    2    0    0  0.12390477951E+04 -0.81298009715E+03  0.11780101541E+03  0.14893867760E+04  0.90663181112E+02 0.  0.
        254    2    1    2    0    0 -0.12390477951E+04  0.81298009715E+03  0.19206802369E+04  0.25852186173E+04  0.89340172935E+03 0.  0.
        -24    2    4    4    0    0 -0.13176079731E+04  0.53105067511E+03  0.16448858417E+04  0.21749789280E+04  0.82330521282E+02 0.  0.
         24    2    4    4    0    0  0.78560178011E+02  0.28192942204E+03  0.27579439515E+03  0.41023968927E+03  0.81105817757E+02 0.  0.
         11    1    3    3    0    0  0.66434344374E+03 -0.40408481712E+03  0.98520348309E+02  0.78380036342E+03  0.00000000000E+00 0.  1.
        -11    1    3    3    0    0  0.57470435136E+03 -0.40889528003E+03  0.19280667103E+02  0.70558641259E+03  0.00000000000E+00 0. -1.
          2    1    6    6  502    0  0.67716614977E+02  0.16497488735E+03  0.11924511060E+03  0.21452657132E+03  0.00000000000E+00 0. -1.
          1    1    5    5  503    0 -0.11559069936E+04  0.43739974401E+03  0.14155877531E+04  0.18791828545E+04  0.00000000000E+00 0. -1.
         -2    1    5    5    0  503 -0.16170097952E+03  0.93650931098E+02  0.22929808866E+03  0.29579607356E+03  0.00000000000E+00 0.  1.
         -1    1    6    6    0  502  0.10843563034E+02  0.11695453469E+03  0.15654928455E+03  0.19571311795E+03  0.00000000000E+00 0.  1.
<mgrwt>
<rscale>  0 0.35280311E+04</rscale>
<asrwt>0</asrwt>
<pdfrwt beam="1">  1        1 0.47023743E+00 0.35280311E+04</pdfrwt>
<pdfrwt beam="2">  1       -1 0.15662494E+00 0.35280311E+04</pdfrwt>
<totfact> 0.13701560E-01</totfact>
</mgrwt>
</event>
<event>
12    1  0.2019083E-007  0.1898389E+04  0.7818608E-02  0.8655659E-01
         -2   -1    0    0    0  501 -0.00000000000E+00  0.00000000000E+00  0.14428129818E+04  0.14428129818E+04  0.00000000000E+00 0.  1.
          2   -1    0    0  501    0  0.00000000000E+00 -0.00000000000E+00 -0.62445376082E+03  0.62445376082E+03  0.00000000000E+00 0. -1.
         23    2    1    2    0    0 -0.34346436896E+03  0.35741179079E+03  0.89993957430E+03  0.10315426841E+04  0.92076657074E+02 0.  0.
        254    2    1    2    0    0  0.34346436896E+03 -0.35741179079E+03 -0.81580353286E+02  0.10357240586E+04  0.90573617046E+03 0.  0.
        -24    2    4    4    0    0  0.41350767485E+01  0.27244107100E+03  0.85641087692E+02  0.29680775903E+03  0.80741649044E+02 0.  0.
         24    2    4    4    0    0  0.33932929221E+03 -0.62985286179E+03 -0.16722144098E+03  0.73891629953E+03  0.78583021874E+02 0.  0.
         11    1    3    3    0    0 -0.85660383791E+02  0.71292022097E+02  0.28427517153E+03  0.30534018228E+03  0.00000000000E+00 0. -1.
        -11    1    3    3    0    0 -0.25780398517E+03  0.28611976869E+03  0.61566440278E+03  0.72620250182E+03  0.00000000000E+00 0.  1.
          2    1    6    6  502    0  0.46066690550E+02 -0.14306062345E+03 -0.52103392333E+02  0.15906993887E+03  0.00000000000E+00 0. -1.
          1    1    5    5  503    0  0.24565323658E+02  0.29728953950E+02  0.24470460652E+02  0.45673507353E+02  0.00000000000E+00 0. -1.
         -2    1    5    5    0  503 -0.20430246909E+02  0.24271211705E+03  0.61170627040E+02  0.25113425168E+03  0.00000000000E+00 0.  1.
         -1    1    6    6    0  502  0.29326260167E+03 -0.48679223834E+03 -0.11511804864E+03  0.57984636066E+03  0.00000000000E+00 0.  1.
<mgrwt>
<rscale>  0 0.18983888E+04</rscale>
<asrwt>0</asrwt>
<pdfrwt beam="1">  1        2 0.96069810E-01 0.18983888E+04</pdfrwt>
<pdfrwt beam="2">  1       -2 0.22197123E+00 0.18983888E+04</pdfrwt>
<totfact> 0.42469126E+00</totfact>
</mgrwt>
</event>
<event>
12    1  0.2019083E-007  0.1200443E+04  0.7818608E-02  0.9112469E-01
          1   -1    0    0  501    0  0.00000000000E+00  0.00000000000E+00  0.14849721604E+04  0.14849721604E+04  0.00000000000E+00 0. -1.
         -1   -1    0    0    0  501 -0.00000000000E+00 -0.00000000000E+00 -0.24260763128E+03  0.24260763128E+03  0.00000000000E+00 0.  1.
         23    2    1    2    0    0 -0.83274747875E+02 -0.21288815542E+03  0.43529157279E+03  0.49976510146E+03  0.89612236582E+02 0.  0.
        254    2    1    2    0    0  0.83274747875E+02  0.21288815542E+03  0.80707295633E+03  0.12278146902E+04  0.89660811189E+03 0.  0.
        -24    2    4    4    0    0 -0.16261711744E+03  0.76491554071E+02 -0.13627759962E+03  0.24012391371E+03  0.82417383167E+02 0.  0.
         24    2    4    4    0    0  0.24589186532E+03  0.13639660135E+03  0.94335055595E+03  0.98769077650E+03  0.80968860008E+02 0.  0.
         13    1    3    3    0    0 -0.68877595257E+02 -0.14532653168E+03  0.37517276956E+03  0.40818933224E+03  0.00000000000E+00 0. -1.
        -13    1    3    3    0    0 -0.14397152618E+02 -0.67561623744E+02  0.60118803234E+02  0.91575769222E+02  0.00000000000E+00 0.  1.
          2    1    6    6  502    0  0.10674428010E+03  0.83413319617E+02  0.33432846407E+03  0.36073209603E+03  0.00000000000E+00 0. -1.
          3    1    5    5  503    0 -0.63838140779E+02  0.61347400236E+02 -0.28186507656E+02  0.92915504345E+02  0.00000000000E+00 0. -1.
         -4    1    5    5    0  503 -0.98778976663E+02  0.15144153835E+02 -0.10809109196E+03  0.14720840936E+03  0.00000000000E+00 0.  1.
         -1    1    6    6    0  502  0.13914758521E+03  0.52983281731E+02  0.60902209188E+03  0.62695868047E+03  0.00000000000E+00 0.  1.
<mgrwt>
<rscale>  0 0.12004425E+04</rscale>
<asrwt>0</asrwt>
<pdfrwt beam="1">  1        1 0.22845725E+00 0.12004425E+04</pdfrwt>
<pdfrwt beam="2">  1       -1 0.37324252E-01 0.12004425E+04</pdfrwt>
<totfact> 0.45814066E+01</totfact>
</mgrwt>
</event>
<event>
12    1  0.2019083E-007  0.1526032E+04  0.7818608E-02  0.8867324E-01
         -2   -1    0    0    0  501 -0.00000000000E+00  0.00000000000E+00  0.18579270468E+03  0.18579270468E+03  0.00000000000E+00 0.  1.
          2   -1    0    0  501    0  0.00000000000E+00 -0.00000000000E+00 -0.31335636936E+04  0.31335636936E+04  0.00000000000E+00 0. -1.
         23    2    1    2    0    0 -0.31264780900E+03 -0.26767782054E+03 -0.37683648271E+03  0.56526708867E+03  0.90117028074E+02 0.  0.
        254    2    1    2    0    0  0.31264780900E+03  0.26767782054E+03 -0.25709345062E+04  0.27540893096E+04  0.89772134986E+03 0.  0.
        -24    2    4    4    0    0  0.38857595435E+03  0.54239434775E+03 -0.15126041555E+04  0.16550568718E+04  0.77839687697E+02 0.  0.
         24    2    4    4    0    0 -0.75928145351E+02 -0.27471652721E+03 -0.10583303508E+04  0.10990324378E+04  0.81085846319E+02 0.  0.
         13    1    3    3    0    0 -0.27646220866E+03 -0.24521238321E+03 -0.29438656489E+03  0.47246578213E+03  0.00000000000E+00 0.  1.
        -13    1    3    3    0    0 -0.36185600340E+02 -0.22465437323E+02 -0.82449917816E+02  0.92801306532E+02  0.00000000000E+00 0. -1.
          4    1    6    6  502    0 -0.48987787016E+02 -0.18931278818E+03 -0.85118328665E+03  0.87335681283E+03  0.00000000000E+00 0. -1.
          3    1    5    5  503    0  0.27349719960E+03  0.40507619048E+03 -0.10246663373E+04  0.11352658460E+04  0.00000000000E+00 0. -1.
         -4    1    5    5    0  503  0.11507875476E+03  0.13731815727E+03 -0.48793781815E+03  0.51979102580E+03  0.00000000000E+00 0.  1.
         -3    1    6    6    0  502 -0.26940358335E+02 -0.85403739033E+02 -0.20714706413E+03  0.22567562501E+03  0.00000000000E+00 0.  1.
<mgrwt>
<rscale>  0 0.15260318E+04</rscale>
<asrwt>0</asrwt>
<pdfrwt beam="1">  1        2 0.48208675E+00 0.15260318E+04</pdfrwt>
<pdfrwt beam="2">  1       -2 0.28583491E-01 0.15260318E+04</pdfrwt>
<totfact> 0.15625880E+01</totfact>
</mgrwt>
</event>
<event>
12    1  0.2019083E-007  0.1834331E+04  0.7818608E-02  0.8688253E-01
         -2   -1    0    0    0  501 -0.00000000000E+00  0.00000000000E+00  0.60985860589E+03  0.60985860589E+03  0.00000000000E+00 0.  1.
          2   -1    0    0  501    0  0.00000000000E+00 -0.00000000000E+00 -0.13793231787E+04  0.13793231787E+04  0.00000000000E+00 0. -1.
         23    2    1    2    0    0 -0.40509514170E+03  0.53283953625E+03 -0.90593730181E+02  0.68193309939E+03  0.93837534450E+02 0.  0.
        254    2    1    2    0    0  0.40509514170E+03 -0.53283953625E+03 -0.67887084266E+03  0.13072486852E+04  0.89443471467E+03 0.  0.
        -24    2    4    4    0    0 -0.63382330777E+02  0.95551629585E+02  0.12094196776E+03  0.18469970366E+03  0.79621524711E+02 0.  0.
         24    2    4    4    0    0  0.46847747248E+03 -0.62839116584E+03 -0.79981281042E+03  0.11225489816E+04  0.77904330980E+02 0.  0.
         13    1    3    3    0    0 -0.10386159978E+03  0.13536066976E+03 -0.64899138345E+02  0.18254216221E+03  0.00000000000E+00 0. -1.
        -13    1    3    3    0    0 -0.30123354192E+03  0.39747886649E+03 -0.25694591835E+02  0.49939093718E+03  0.00000000000E+00 0.  1.
          2    1    6    6  502    0  0.46225716154E+03 -0.62694028582E+03 -0.78252994588E+03  0.11041235989E+04  0.00000000000E+00 0. -1.
          1    1    5    5  503    0 -0.74846069085E+02  0.47421274236E+02  0.90261082349E+02  0.12648230823E+03  0.00000000000E+00 0. -1.
         -2    1    5    5    0  503  0.11463738307E+02  0.48130355349E+02  0.30680885410E+02  0.58217395438E+02  0.00000000000E+00 0.  1.
         -1    1    6    6    0  502  0.62203109390E+01 -0.14508800192E+01 -0.17282864536E+02  0.18425382698E+02  0.00000000000E+00 0.  1.
<mgrwt>
<rscale>  0 0.18343305E+04</rscale>
<asrwt>0</asrwt>
<pdfrwt beam="1">  1        2 0.21220357E+00 0.18343305E+04</pdfrwt>
<pdfrwt beam="2">  1       -2 0.93824401E-01 0.18343305E+04</pdfrwt>
<totfact> 0.13435969E+01</totfact>
</mgrwt>
</event>
<event>
12    1  0.2019083E-007  0.2722939E+04  0.7818608E-02  0.8327600E-01
          2   -1    0    0  501    0  0.00000000000E+00  0.00000000000E+00  0.22972375524E+04  0.22972375524E+04  0.00000000000E+00 0. -1.
         -2   -1    0    0    0  501 -0.00000000000E+00 -0.00000000000E+00 -0.80688204621E+03  0.80688204621E+03  0.00000000000E+00 0.  1.
         23    2    1    2    0    0 -0.98920462230E+03 -0.64506262379E+03  0.34209106109E+03  0.12326840758E+04  0.88612432599E+02 0.  0.
        254    2    1    2    0    0  0.98920462230E+03  0.64506262379E+03  0.11482644451E+04  0.18714355228E+04  0.88832882811E+03 0.  0.
        -24    2    4    4    0    0  0.57044974807E+03 -0.13124015706E+03  0.48424377656E+03  0.76458709077E+03  0.86397281934E+02 0.  0.
         24    2    4    4    0    0  0.41875487422E+03  0.77630278085E+03  0.66402066853E+03  0.11068484321E+04  0.78666073215E+02 0.  0.
         13    1    3    3    0    0 -0.82585683267E+03 -0.57473962091E+03  0.29987360345E+03  0.10498996704E+04  0.00000000000E+00 0. -1.
        -13    1    3    3    0    0 -0.16334778963E+03 -0.70323002877E+02  0.42217457638E+02  0.18278440535E+03  0.00000000000E+00 0.  1.
          2    1    6    6  502    0  0.10755809295E+03  0.27461955991E+03  0.20889198055E+03  0.36141458961E+03  0.00000000000E+00 0. -1.
          1    1    5    5  503    0  0.55339396761E+03 -0.10961867173E+03  0.46255907682E+03  0.72953549340E+03  0.00000000000E+00 0. -1.
         -2    1    5    5    0  503  0.17055780464E+02 -0.21621485333E+02  0.21684699745E+02  0.35051597372E+02  0.00000000000E+00 0.  1.
         -1    1    6    6    0  502  0.31119678127E+03  0.50168322094E+03  0.45512868798E+03  0.74543384245E+03  0.00000000000E+00 0.  1.
<mgrwt>
<rscale>  0 0.27229394E+04</rscale>
<asrwt>0</asrwt>
<pdfrwt beam="1">  1        2 0.35342116E+00 0.27229394E+04</pdfrwt>
<pdfrwt beam="2">  1       -2 0.12413570E+00 0.27229394E+04</pdfrwt>
<totfact> 0.19436783E+00</totfact>
</mgrwt>
</event>
<event>
12    1  0.2019083E-007  0.2865377E+04  0.7818608E-02  0.8283254E-01
          2   -1    0    0  501    0  0.00000000000E+00  0.00000000000E+00  0.31763788568E+04  0.31763788568E+04  0.00000000000E+00 0.  1.
         -2   -1    0    0    0  501 -0.00000000000E+00 -0.00000000000E+00 -0.64620631327E+03  0.64620631327E+03  0.00000000000E+00 0. -1.
         23    2    1    2    0    0 -0.11640558326E+04 -0.11569645005E+03  0.18642066427E+04  0.22028495809E+04  0.94171224089E+02 0.  0.
        254    2    1    2    0    0  0.11640558326E+04  0.11569645005E+03  0.66596590091E+03  0.16197355892E+04  0.90090018753E+03 0.  0.
        -24    2    4    4    0    0  0.20032369219E+02 -0.16707167152E+03 -0.99906040464E+02  0.21193761278E+03  0.81376259135E+02 0.  0.
         24    2    4    4    0    0  0.11440234634E+04  0.28276812157E+03  0.76587194137E+03  0.14077979765E+04  0.81165365557E+02 0.  0.
         13    1    3    3    0    0 -0.38778040753E+03 -0.68816517091E+01  0.55956938634E+03  0.68083691125E+03  0.00000000000E+00 0.  1.
        -13    1    3    3    0    0 -0.77627542508E+03 -0.10881479834E+03  0.13046372563E+04  0.15220126696E+04  0.00000000000E+00 0. -1.
          2    1    6    6  502    0  0.65117472337E+03  0.15502021456E+03  0.48218662632E+03  0.82496286576E+03  0.00000000000E+00 0. -1.
          3    1    5    5  503    0 -0.19503529577E+01 -0.62430465584E+02 -0.82699439392E+02  0.10363669324E+03  0.00000000000E+00 0. -1.
         -4    1    5    5    0  503  0.21982722176E+02 -0.10464120594E+03 -0.17206601071E+02  0.10830091955E+03  0.00000000000E+00 0.  1.
         -1    1    6    6    0  502  0.49284874002E+03  0.12774790701E+03  0.28368531505E+03  0.58283511070E+03  0.00000000000E+00 0.  1.
<mgrwt>
<rscale>  0 0.28653768E+04</rscale>
<asrwt>0</asrwt>
<pdfrwt beam="1">  1        2 0.48867366E+00 0.28653768E+04</pdfrwt>
<pdfrwt beam="2">  1       -2 0.99416357E-01 0.28653768E+04</pdfrwt>
<totfact> 0.97344804E-01</totfact>
</mgrwt>
</event>
<event>
12    1  0.2019083E-007  0.1423405E+04  0.7818608E-02  0.8937049E-01
         -2   -1    0    0    0  501 -0.00000000000E+00  0.00000000000E+00  0.14647353445E+03  0.14647353445E+03  0.00000000000E+00 0. -1.
          2   -1    0    0  501    0  0.00000000000E+00 -0.00000000000E+00 -0.34581010558E+04  0.34581010558E+04  0.00000000000E+00 0.  1.
         23    2    1    2    0    0 -0.40701778778E+02  0.39326872682E+03 -0.63803302596E+03  0.75615684793E+03  0.91488306177E+02 0.  0.
        254    2    1    2    0    0  0.40701778778E+02 -0.39326872682E+03 -0.26735944954E+04  0.28484177423E+04  0.89947717183E+03 0.  0.
        -24    2    4    4    0    0 -0.11931567409E+03 -0.80004526524E+02 -0.14521162643E+02  0.16507317842E+03  0.80008347826E+02 0.  0.
         24    2    4    4    0    0  0.16001745287E+03 -0.31326420029E+03 -0.26590733328E+04  0.26833445639E+04  0.76987110664E+02 0.  0.
         11    1    3    3    0    0 -0.60078864543E+02  0.17065622377E+03 -0.25405843112E+03  0.31189533998E+03  0.00000000000E+00 0. -1.
        -11    1    3    3    0    0  0.19377085765E+02  0.22261250304E+03 -0.38397459484E+03  0.44426150795E+03  0.00000000000E+00 0.  1.
          4    1    6    6  502    0  0.12390997977E+03 -0.18851759058E+03 -0.14716411962E+04  0.14888318828E+04  0.00000000000E+00 0. -1.
          1    1    5    5  503    0 -0.12350282546E+03 -0.90087998336E+02 -0.98134635538E+01  0.15318322169E+03  0.00000000000E+00 0. -1.
         -4    1    5    5    0  503  0.41871513690E+01  0.10083471812E+02 -0.47076990889E+01  0.11889956731E+02  0.00000000000E+00 0.  1.
         -3    1    6    6    0  502  0.36107473102E+02 -0.12474660972E+03 -0.11874321366E+04  0.11945126811E+04  0.00000000000E+00 0.  1.
<mgrwt>
<rscale>  0 0.14234048E+04</rscale>
<asrwt>0</asrwt>
<pdfrwt beam="1">  1        2 0.53201558E+00 0.14234048E+04</pdfrwt>
<pdfrwt beam="2">  1       -2 0.22534389E-01 0.14234048E+04</pdfrwt>
<totfact> 0.14846330E+01</totfact>
</mgrwt>
</event>
<event>
12    1  0.2019083E-007  0.1153077E+04  0.7818608E-02  0.9154950E-01
          2   -1    0    0  501    0  0.00000000000E+00  0.00000000000E+00  0.46605424747E+03  0.46605424747E+03  0.00000000000E+00 0. -1.
         -2   -1    0    0    0  501 -0.00000000000E+00 -0.00000000000E+00 -0.71321418119E+03  0.71321418119E+03  0.00000000000E+00 0.  1.
         23    2    1    2    0    0  0.19320738568E+03 -0.62706985340E+02 -0.34750348072E+02  0.23083451639E+03  0.10399868930E+03 0.  0.
        254    2    1    2    0    0 -0.19320738568E+03  0.62706985340E+02 -0.21240958565E+03  0.94843391227E+03  0.90174707871E+03 0.  0.
        -24    2    4    4    0    0 -0.13107642057E+03  0.34493981202E+03  0.20914933757E+03  0.43149588369E+03  0.79251184807E+02 0.  0.
         24    2    4    4    0    0 -0.62130965107E+02 -0.28223282668E+03 -0.42155892321E+03  0.51693802857E+03  0.77442716639E+02 0.  0.
         13    1    3    3    0    0  0.41723169139E+02  0.28497972859E+02  0.52132983930E+00  0.50529487281E+02  0.00000000000E+00 0. -1.
        -13    1    3    3    0    0  0.15148421654E+03 -0.91204958199E+02 -0.35271677911E+02  0.18030502911E+03  0.00000000000E+00 0.  1.
          4    1    6    6  502    0 -0.66044335660E+01 -0.30667411302E+02 -0.13041434160E+02  0.33973337540E+02  0.00000000000E+00 0. -1.
          1    1    5    5  503    0 -0.52850664443E+02  0.82953450291E+02  0.89729066075E+02  0.13313817238E+03  0.00000000000E+00 0. -1.
         -2    1    5    5    0  503 -0.78225756129E+02  0.26198636173E+03  0.11942027149E+03  0.29835771131E+03  0.00000000000E+00 0.  1.
         -3    1    6    6    0  502 -0.55526531541E+02 -0.25156541538E+03 -0.40851748905E+03  0.48296469103E+03  0.00000000000E+00 0.  1.
<mgrwt>
<rscale>  0 0.11530768E+04</rscale>
<asrwt>0</asrwt>
<pdfrwt beam="1">  1        2 0.71700654E-01 0.11530768E+04</pdfrwt>
<pdfrwt beam="2">  1       -2 0.10972526E+00 0.11530768E+04</pdfrwt>
<totfact> 0.43701062E+01</totfact>
</mgrwt>
</event>
<event>
12    1  0.2019083E-007  0.2278281E+04  0.7818608E-02  0.8486534E-01
         -2   -1    0    0    0  501 -0.00000000000E+00  0.00000000000E+00  0.30460218214E+03  0.30460218214E+03  0.00000000000E+00 0.  1.
          2   -1    0    0  501    0  0.00000000000E+00 -0.00000000000E+00 -0.42601173707E+04  0.42601173707E+04  0.00000000000E+00 0. -1.
         23    2    1    2    0    0  0.91681524483E+03 -0.45486824939E+02 -0.11170683114E+04  0.14486551976E+04  0.90227626706E+02 0.  0.
        254    2    1    2    0    0 -0.91681524483E+03  0.45486824939E+02 -0.28384468771E+04  0.31160643553E+04  0.90025393508E+03 0.  0.
        -24    2    4    4    0    0 -0.20579840437E+03  0.42037323726E+03 -0.94628335140E+03  0.10586710278E+04  0.79155051639E+02 0.  0.
         24    2    4    4    0    0 -0.71101684046E+03 -0.37488641232E+03 -0.18921635257E+04  0.20573933275E+04  0.80620879267E+02 0.  0.
         13    1    3    3    0    0  0.51308601834E+03 -0.43065350040E+02 -0.56088270625E+03  0.76138117704E+03  0.00000000000E+00 0.  1.
        -13    1    3    3    0    0  0.40372922649E+03 -0.24214748986E+01 -0.55618560520E+03  0.68727402053E+03  0.00000000000E+00 0. -1.
          2    1    6    6  502    0 -0.48761547369E+03 -0.24385722646E+03 -0.11885065771E+04  0.13075867393E+04  0.00000000000E+00 0. -1.
          1    1    5    5  503    0 -0.20608695184E+03  0.42019157265E+03 -0.94783478104E+03  0.10570825708E+04  0.00000000000E+00 0. -1.
         -4    1    5    5    0  503  0.28854746942E+00  0.18166461455E+00  0.15514296411E+01  0.15884569889E+01  0.00000000000E+00 0.  1.
         -1    1    6    6    0  502 -0.22340136677E+03 -0.13102918587E+03 -0.70365694866E+03  0.74980658815E+03  0.00000000000E+00 0.  1.
<mgrwt>
<rscale>  0 0.22782810E+04</rscale>
<asrwt>0</asrwt>
<pdfrwt beam="1">  1        2 0.65540262E+00 0.22782810E+04</pdfrwt>
<pdfrwt beam="2">  1       -2 0.46861878E-01 0.22782810E+04</pdfrwt>
<totfact> 0.81379897E-01</totfact>
</mgrwt>
</event>
<event>
12    1  0.2019083E-007  0.3820945E+04  0.7818608E-02  0.8041675E-01
          2   -1    0    0  501    0  0.00000000000E+00  0.00000000000E+00  0.23675104249E+04  0.23675104249E+04  0.00000000000E+00 0. -1.
         -2   -1    0    0    0  501 -0.00000000000E+00 -0.00000000000E+00 -0.15416639508E+04  0.15416639508E+04  0.00000000000E+00 0.  1.
         23    2    1    2    0    0  0.17366029221E+04  0.48536027948E+03  0.41502266899E+03  0.18524393560E+04  0.89013717704E+02 0.  0.
        254    2    1    2    0    0 -0.17366029221E+04 -0.48536027948E+03  0.41082380513E+03  0.20567350197E+04  0.90001024001E+03 0.  0.
        -24    2    4    4    0    0 -0.19536368408E+03 -0.36714378541E+02 -0.24087729245E+03  0.32236505674E+03  0.79890206761E+02 0.  0.
         24    2    4    4    0    0 -0.15412392381E+04 -0.44864590094E+03  0.65170109759E+03  0.17343699629E+04  0.81383747179E+02 0.  0.
         11    1    3    3    0    0  0.10475704028E+04  0.29387989519E+03  0.20564760070E+03  0.11072759717E+04  0.00000000000E+00 0.  1.
        -11    1    3    3    0    0  0.68903251930E+03  0.19148038430E+03  0.20937506830E+03  0.74516338439E+03  0.00000000000E+00 0. -1.
          4    1    6    6  502    0 -0.82482286560E+03 -0.27908198618E+03  0.36995794401E+03  0.94609111346E+03  0.00000000000E+00 0. -1.
          1    1    5    5  503    0 -0.50511923684E+02 -0.77017307696E+01 -0.16446027910E+02  0.53677210482E+02  0.00000000000E+00 0. -1.
         -2    1    5    5    0  503 -0.14485176040E+03 -0.29012647771E+02 -0.22443126454E+03  0.26868784626E+03  0.00000000000E+00 0.  1.
         -3    1    6    6    0  502 -0.71641637246E+03 -0.16956391476E+03  0.28174315358E+03  0.78827884946E+03  0.00000000000E+00 0.  1.
<mgrwt>
<rscale>  0 0.38209452E+04</rscale>
<asrwt>0</asrwt>
<pdfrwt beam="1">  1        2 0.36423237E+00 0.38209452E+04</pdfrwt>
<pdfrwt beam="2">  1       -2 0.23717907E+00 0.38209452E+04</pdfrwt>
<totfact> 0.25616016E-01</totfact>
</mgrwt>
</event>
<event>
12    1  0.2019083E-007  0.2079013E+04  0.7818608E-02  0.8570545E-01
         -1   -1    0    0    0  501 -0.00000000000E+00  0.00000000000E+00  0.86054112078E+03  0.86054112078E+03  0.00000000000E+00 0.  1.
          1   -1    0    0  501    0  0.00000000000E+00 -0.00000000000E+00 -0.12556915164E+04  0.12556915164E+04  0.00000000000E+00 0. -1.
         23    2    1    2    0    0 -0.83749201607E+03 -0.76713446365E+02 -0.13899156985E+03  0.85716052696E+03  0.90153661347E+02 0.  0.
        254    2    1    2    0    0  0.83749201607E+03  0.76713446365E+02 -0.25615882578E+03  0.12590721102E+04  0.90131426532E+03 0.  0.
        -24    2    4    4    0    0  0.22787299531E+03 -0.14407234708E+03  0.29259905127E+03  0.40593737570E+03  0.80548153329E+02 0.  0.
         24    2    4    4    0    0  0.60961902076E+03  0.22078579345E+03 -0.54875787705E+03  0.85313473452E+03  0.79510694572E+02 0.  0.
         13    1    3    3    0    0 -0.71281494520E+03 -0.38775166876E+02 -0.98121225344E+02  0.72058062320E+03  0.00000000000E+00 0.  1.
        -13    1    3    3    0    0 -0.12467707087E+03 -0.37938279489E+02 -0.40870344503E+02  0.13657990376E+03  0.00000000000E+00 0. -1.
          4    1    6    6  502    0  0.31364059117E+03  0.14085129022E+03 -0.32952986089E+03  0.47623464343E+03  0.00000000000E+00 0. -1.
          1    1    5    5  503    0  0.22941382122E+03 -0.14682871818E+03  0.27141691041E+03  0.38452114780E+03  0.00000000000E+00 0. -1.
         -2    1    5    5    0  503 -0.15408259130E+01  0.27563710984E+01  0.21182140863E+02  0.21416227905E+02  0.00000000000E+00 0.  1.
         -3    1    6    6    0  502  0.29597842960E+03  0.79934503227E+02 -0.21922801616E+03  0.37690009109E+03  0.00000000000E+00 0.  1.
<mgrwt>
<rscale>  0 0.20790134E+04</rscale>
<asrwt>0</asrwt>
<pdfrwt beam="1">  1        1 0.19318331E+00 0.20790134E+04</pdfrwt>
<pdfrwt beam="2">  1       -1 0.13239094E+00 0.20790134E+04</pdfrwt>
<totfact> 0.43430666E+00</totfact>
</mgrwt>
</event>
<event>
12    1  0.2019083E-007  0.1174813E+04  0.7818608E-02  0.9135193E-01
          1   -1    0    0  501    0  0.00000000000E+00  0.00000000000E+00  0.60340340951E+03  0.60340340951E+03  0.00000000000E+00 0. -1.
         -1   -1    0    0    0  501 -0.00000000000E+00 -0.00000000000E+00 -0.57183337860E+03  0.57183337860E+03  0.00000000000E+00 0.  1.
         23    2    1    2    0    0  0.89737578734E+02  0.18031124060E+03  0.10119773207E+03  0.24393482643E+03  0.93264366425E+02 0.  0.
        254    2    1    2    0    0 -0.89737578734E+02 -0.18031124060E+03 -0.69627701156E+02  0.93130196169E+03  0.90659271481E+03 0.  0.
        -24    2    4    4    0    0  0.27348614336E+03 -0.21432343173E+03  0.25270743072E+03  0.43799809096E+03  0.85159134277E+02 0.  0.
         24    2    4    4    0    0 -0.36322372209E+03  0.34012191130E+02 -0.32233513187E+03  0.49330387073E+03  0.79752556051E+02 0.  0.
         13    1    3    3    0    0  0.41434317168E+02  0.13811735902E+03  0.10696347214E+03  0.17953938809E+03  0.00000000000E+00 0. -1.
        -13    1    3    3    0    0  0.48303261566E+02  0.42193881575E+02 -0.57657400706E+01  0.64395438339E+02  0.00000000000E+00 0.  1.
          2    1    6    6  502    0 -0.32887459241E+03  0.36343508375E+02 -0.31744347614E+03  0.45852994306E+03  0.00000000000E+00 0. -1.
          3    1    5    5  503    0  0.27885426787E+03 -0.20440140663E+03  0.23932450502E+03  0.42049477576E+03  0.00000000000E+00 0. -1.
         -4    1    5    5    0  503 -0.53681245098E+01 -0.99220250988E+01  0.13382925695E+02  0.17503315200E+02  0.00000000000E+00 0.  1.
         -3    1    6    6    0  502 -0.34349129678E+02 -0.23313172449E+01 -0.48916557364E+01  0.34773927670E+02  0.00000000000E+00 0.  1.
<mgrwt>
<rscale>  0 0.11748127E+04</rscale>
<asrwt>0</asrwt>
<pdfrwt beam="1">  1        1 0.92831294E-01 0.11748127E+04</pdfrwt>
<pdfrwt beam="2">  1       -1 0.87974365E-01 0.11748127E+04</pdfrwt>
<totfact> 0.42798549E+01</totfact>
</mgrwt>
</event>
<event>
12    1  0.2019083E-007  0.1968184E+04  0.7818608E-02  0.8621642E-01
         -1   -1    0    0    0  501 -0.00000000000E+00  0.00000000000E+00  0.90815204131E+03  0.90815204131E+03  0.00000000000E+00 0.  1.
          1   -1    0    0  501    0  0.00000000000E+00 -0.00000000000E+00 -0.10663822581E+04  0.10663822581E+04  0.00000000000E+00 0. -1.
         23    2    1    2    0    0  0.38806717265E+03  0.60565979138E+03  0.22825799743E+03  0.76010020314E+03  0.90723161587E+02 0.  0.
        254    2    1    2    0    0 -0.38806717265E+03 -0.60565979138E+03 -0.38648821426E+03  0.12144340963E+04  0.89891997483E+03 0.  0.
        -24    2    4    4    0    0  0.49587181836E+01  0.21783602233E+03 -0.44769828303E+02  0.23679992092E+03  0.81195711161E+02 0.  0.
         24    2    4    4    0    0 -0.39302589083E+03 -0.82349581371E+03 -0.34171838595E+03  0.97763417540E+03  0.79890046595E+02 0.  0.
         13    1    3    3    0    0  0.12885521625E+03  0.23245104636E+03  0.42281675896E+02  0.26911873927E+03  0.00000000000E+00 0. -1.
        -13    1    3    3    0    0  0.25921195640E+03  0.37320874502E+03  0.18597632153E+03  0.49098146388E+03  0.00000000000E+00 0.  1.
          2    1    6    6  502    0 -0.31349676663E+03 -0.72094427379E+03 -0.29024645608E+03  0.83802379075E+03  0.00000000000E+00 0. -1.
          3    1    5    5  503    0 -0.13167069521E+02  0.17452232753E+03 -0.47135199573E+01  0.17508178602E+03  0.00000000000E+00 0. -1.
         -4    1    5    5    0  503  0.18125787705E+02  0.43313694804E+02 -0.40056308346E+02  0.61718134902E+02  0.00000000000E+00 0.  1.
         -1    1    6    6    0  502 -0.79529124203E+02 -0.10255153992E+03 -0.51471929871E+02  0.13961038465E+03  0.00000000000E+00 0.  1.
<mgrwt>
<rscale>  0 0.19681842E+04</rscale>
<asrwt>0</asrwt>
<pdfrwt beam="1">  1        1 0.16405881E+00 0.19681842E+04</pdfrwt>
<pdfrwt beam="2">  1       -1 0.13971570E+00 0.19681842E+04</pdfrwt>
<totfact> 0.52708519E+00</totfact>
</mgrwt>
</event>
<event>
12    1  0.2019083E-007  0.1081813E+04  0.7818608E-02  0.9223102E-01
          1   -1    0    0  501    0  0.00000000000E+00  0.00000000000E+00  0.15103869830E+04  0.15103869830E+04  0.00000000000E+00 0. -1.
         -1   -1    0    0    0  501 -0.00000000000E+00 -0.00000000000E+00 -0.19371180046E+03  0.19371180046E+03  0.00000000000E+00 0.  1.
         23    2    1    2    0    0 -0.14167197927E+02 -0.14116800623E+03  0.23497565625E+03  0.28999583770E+03  0.93567683381E+02 0.  0.
        254    2    1    2    0    0  0.14167197927E+02  0.14116800623E+03  0.10816995263E+04  0.14141029457E+04  0.89971337688E+03 0.  0.
        -24    2    4    4    0    0 -0.43216714980E+03  0.52516355251E+02  0.61218326181E+03  0.75466497703E+03  0.72280485477E+02 0.  0.
         24    2    4    4    0    0  0.44633434773E+03  0.88651650974E+02  0.46951626446E+03  0.65943796871E+03  0.85670571416E+02 0.  0.
         11    1    3    3    0    0 -0.45029058945E+02 -0.95080219633E+02  0.19518811085E+03  0.22173466786E+03  0.00000000000E+00 0. -1.
        -11    1    3    3    0    0  0.30861861017E+02 -0.46087786592E+02  0.39787545403E+02  0.68261169838E+02  0.00000000000E+00 0.  1.
          2    1    6    6  502    0  0.47189158935E+02  0.26453635135E+02  0.27678411489E+02  0.60767639377E+02  0.00000000000E+00 0. -1.
          3    1    5    5  503    0 -0.69939086955E+02  0.19864798018E+02  0.14867379268E+03  0.16549919249E+03  0.00000000000E+00 0. -1.
         -4    1    5    5    0  503 -0.36222806284E+03  0.32651557233E+02  0.46350946913E+03  0.58916578454E+03  0.00000000000E+00 0.  1.
         -1    1    6    6    0  502  0.39914518879E+03  0.62198015839E+02  0.44183785297E+03  0.59867032933E+03  0.00000000000E+00 0.  1.
<mgrwt>
<rscale>  0 0.10818129E+04</rscale>
<asrwt>0</asrwt>
<pdfrwt beam="1">  1        1 0.23236722E+00 0.10818129E+04</pdfrwt>
<pdfrwt beam="2">  1       -1 0.29801817E-01 0.10818129E+04</pdfrwt>
<totfact> 0.66252043E+01</totfact>
</mgrwt>
</event>
<event>
12    1  0.2019083E-007  0.1845567E+04  0.7818608E-02  0.8682436E-01
         -2   -1    0    0    0  501 -0.00000000000E+00  0.00000000000E+00  0.42647634157E+03  0.42647634157E+03  0.00000000000E+00 0.  1.
          2   -1    0    0  501    0  0.00000000000E+00 -0.00000000000E+00 -0.19966629134E+04  0.19966629134E+04  0.00000000000E+00 0. -1.
         23    2    1    2    0    0 -0.24248441770E+03  0.32169489308E+03  0.15072463886E+03  0.43977824460E+03  0.91655281353E+02 0.  0.
        254    2    1    2    0    0  0.24248441770E+03 -0.32169489308E+03 -0.17209112106E+04  0.19833610103E+04  0.89994400123E+03 0.  0.
        -24    2    4    4    0    0  0.32720071756E+03  0.21435962586E+03 -0.10074251924E+04  0.10836719558E+04  0.80181237192E+02 0.  0.
         24    2    4    4    0    0 -0.84716299855E+02 -0.53605451895E+03 -0.71348601825E+03  0.89968905451E+03  0.76464356600E+02 0.  0.
         11    1    3    3    0    0 -0.22775869478E+03  0.31463786284E+03  0.16102022307E+03  0.42047416094E+03  0.00000000000E+00 0.  1.
        -11    1    3    3    0    0 -0.14725722926E+02  0.70570302431E+01 -0.10295584218E+02  0.19304083660E+02  0.00000000000E+00 0. -1.
          4    1    6    6  502    0 -0.55451690734E+02 -0.15095849465E+03 -0.23556863806E+03  0.28522962740E+03  0.00000000000E+00 0. -1.
          3    1    5    5  503    0  0.31387092258E+03  0.22111896438E+03 -0.95927552474E+03  0.10332560597E+04  0.00000000000E+00 0. -1.
         -4    1    5    5    0  503  0.13329794976E+02 -0.67593385134E+01 -0.48149667654E+02  0.50415896168E+02  0.00000000000E+00 0.  1.
         -3    1    6    6    0  502 -0.29264609121E+02 -0.38509602429E+03 -0.47791738019E+03  0.61445942711E+03  0.00000000000E+00 0.  1.
<mgrwt>
<rscale>  0 0.18455671E+04</rscale>
<asrwt>0</asrwt>
<pdfrwt beam="1">  1        2 0.30717891E+00 0.18455671E+04</pdfrwt>
<pdfrwt beam="2">  1       -2 0.65611745E-01 0.18455671E+04</pdfrwt>
<totfact> 0.13503116E+01</totfact>
</mgrwt>
</event>
<event>
12    1  0.2650254E-007  0.2190907E+04  0.7818608E-02  0.8522222E-01
          1   -1    0    0  501    0  0.00000000000E+00  0.00000000000E+00  0.85519046848E+03  0.85519046848E+03  0.00000000000E+00 0. -1.
         -1   -1    0    0    0  501 -0.00000000000E+00 -0.00000000000E+00 -0.14032175748E+04  0.14032175748E+04  0.00000000000E+00 0.  1.
         23    2    1    2    0    0  0.29816225040E+03  0.80229122688E+03 -0.52949002197E+03  0.10106274153E+04  0.91848511104E+02 0.  0.
        254    2    1    2    0    0 -0.29816225040E+03 -0.80229122688E+03 -0.18537084329E+02  0.12477806279E+04  0.90776700293E+03 0.  0.
        -24    2    4    4    0    0 -0.21205644432E+03 -0.58072930496E+03 -0.43632178009E+03  0.76078713368E+03  0.78777571486E+02 0.  0.
         24    2    4    4    0    0 -0.86105806084E+02 -0.22156192192E+03  0.41778469576E+03  0.48699349424E+03  0.78196651672E+02 0.  0.
         13    1    3    3    0    0  0.31399414914E+02  0.17604070108E+03 -0.13317405343E+03  0.22296093873E+03  0.00000000000E+00 0.  1.
        -13    1    3    3    0    0  0.26676283549E+03  0.62625052580E+03 -0.39631596855E+03  0.78766647662E+03  0.00000000000E+00 0. -1.
          2    1    6    6  502    0 -0.44767937067E+01 -0.45974072285E+02  0.34772925183E+02  0.57817067810E+02  0.00000000000E+00 0. -1.
          1    1    5    5  503    0 -0.13050376728E+02 -0.84673268910E+01 -0.21382149576E+02  0.26442471101E+02  0.00000000000E+00 0. -1.
         -2    1    5    5    0  503 -0.19900606759E+03 -0.57226197807E+03 -0.41493963052E+03  0.73434466257E+03  0.00000000000E+00 0.  1.
         -1    1    6    6    0  502 -0.81629012377E+02 -0.17558784964E+03  0.38301177058E+03  0.42917642643E+03  0.00000000000E+00 0.  1.
<mgrwt>
<rscale>  0 0.21909069E+04</rscale>
<asrwt>0</asrwt>
<pdfrwt beam="1">  1        1 0.13156776E+00 0.21909069E+04</pdfrwt>
<pdfrwt beam="2">  1       -1 0.21587963E+00 0.21909069E+04</pdfrwt>
<totfact> 0.21218671E+00</totfact>
</mgrwt>
</event>
<event>
12    1  0.2019083E-007  0.2860523E+04  0.7818608E-02  0.8284721E-01
          1   -1    0    0  501    0  0.00000000000E+00  0.00000000000E+00  0.16941420525E+04  0.16941420525E+04  0.00000000000E+00 0. -1.
         -1   -1    0    0    0  501 -0.00000000000E+00 -0.00000000000E+00 -0.12074828860E+04  0.12074828860E+04  0.00000000000E+00 0.  1.
         23    2    1    2    0    0  0.21903212510E+03 -0.79953556836E+03  0.12182554043E+04  0.14764848230E+04  0.92892439851E+02 0.  0.
        254    2    1    2    0    0 -0.21903212510E+03  0.79953556836E+03 -0.73159623778E+03  0.14251401156E+04  0.89919914202E+03 0.  0.
        -24    2    4    4    0    0  0.54147648898E+02 -0.15575443299E+03  0.84894489162E+01  0.18375738417E+03  0.80643004760E+02 0.  0.
         24    2    4    4    0    0 -0.27317977400E+03  0.95529000135E+03 -0.74008568670E+03  0.12413827314E+04  0.78090246500E+02 0.  0.
         11    1    3    3    0    0  0.15064282591E+03 -0.66998214351E+03  0.10303583967E+04  0.12382276686E+04  0.00000000000E+00 0.  1.
        -11    1    3    3    0    0  0.68389299192E+02 -0.12955342485E+03  0.18789700759E+03  0.23825715434E+03  0.00000000000E+00 0. -1.
          4    1    6    6  502    0 -0.10943774971E+03  0.28333876533E+03 -0.25533532691E+03  0.39680424162E+03  0.00000000000E+00 0. -1.
          1    1    5    5  503    0 -0.74642446267E+01 -0.36946115021E+02  0.30041132396E+02  0.48199585046E+02  0.00000000000E+00 0. -1.
         -4    1    5    5    0  503  0.61611893525E+02 -0.11880831797E+03 -0.21551683480E+02  0.13555779912E+03  0.00000000000E+00 0.  1.
         -3    1    6    6    0  502 -0.16374202429E+03  0.67195123602E+03 -0.48475035979E+03  0.84457848979E+03  0.00000000000E+00 0.  1.
<mgrwt>
<rscale>  0 0.28605227E+04</rscale>
<asrwt>0</asrwt>
<pdfrwt beam="1">  1        1 0.26063724E+00 0.28605227E+04</pdfrwt>
<pdfrwt beam="2">  1       -1 0.18576660E+00 0.28605227E+04</pdfrwt>
<totfact> 0.78419683E-01</totfact>
</mgrwt>
</event>
<event>
12    1  0.2019083E-007  0.1718452E+04  0.7818608E-02  0.8750910E-01
         -2   -1    0    0    0  501 -0.00000000000E+00  0.00000000000E+00  0.54371225140E+03  0.54371225140E+03  0.00000000000E+00 0.  1.
          2   -1    0    0  501    0  0.00000000000E+00 -0.00000000000E+00 -0.13578305211E+04  0.13578305211E+04  0.00000000000E+00 0. -1.
         23    2    1    2    0    0 -0.25114010582E+02  0.34247732351E+03 -0.86818352161E+03  0.93806916421E+03  0.91157550385E+02 0.  0.
        254    2    1    2    0    0  0.25114010582E+02 -0.34247732351E+03  0.54065251929E+02  0.96347360828E+03  0.89857493385E+03 0.  0.
        -24    2    4    4    0    0  0.28574735250E+03 -0.51898110578E+02  0.35328049998E+03  0.46524417723E+03  0.85440443820E+02 0.  0.
         24    2    4    4    0    0 -0.26063334192E+03 -0.29057921293E+03 -0.29921524805E+03  0.49822943105E+03  0.79603915639E+02 0.  0.
         13    1    3    3    0    0 -0.58662824116E+01 -0.15070054810E+01 -0.28904215980E+01  0.67111006450E+01  0.00000000000E+00 0.  1.
        -13    1    3    3    0    0 -0.19247728170E+02  0.34398432899E+03 -0.86529310001E+03  0.93135806356E+03  0.00000000000E+00 0. -1.
          2    1    6    6  502    0 -0.13508418975E+03 -0.20363936085E+03 -0.20343081359E+03  0.31796355692E+03  0.00000000000E+00 0. -1.
          3    1    5    5  503    0  0.11475623479E+03  0.10883564724E+02  0.18058907751E+03  0.21424252687E+03  0.00000000000E+00 0. -1.
         -4    1    5    5    0  503  0.17099111771E+03 -0.62781675302E+02  0.17269142247E+03  0.25100165036E+03  0.00000000000E+00 0.  1.
         -1    1    6    6    0  502 -0.12554915217E+03 -0.86939852078E+02 -0.95784434460E+02  0.18026587413E+03  0.00000000000E+00 0.  1.
<mgrwt>
<rscale>  0 0.17184517E+04</rscale>
<asrwt>0</asrwt>
<pdfrwt beam="1">  1        2 0.20889700E+00 0.17184517E+04</pdfrwt>
<pdfrwt beam="2">  1       -2 0.83648040E-01 0.17184517E+04</pdfrwt>
<totfact> 0.18170712E+01</totfact>
</mgrwt>
</event>
<event>
12    1  0.2019083E-007  0.2206275E+04  0.7818608E-02  0.8515821E-01
         -1   -1    0    0    0  501 -0.00000000000E+00  0.00000000000E+00  0.24195340120E+04  0.24195340120E+04  0.00000000000E+00 0.  1.
          1   -1    0    0  501    0  0.00000000000E+00 -0.00000000000E+00 -0.50295338972E+03  0.50295338972E+03  0.00000000000E+00 0. -1.
         23    2    1    2    0    0  0.37339971036E+03 -0.70881040393E+03  0.13867347505E+04  0.16040731595E+04  0.90431744200E+02 0.  0.
        254    2    1    2    0    0 -0.37339971036E+03  0.70881040393E+03  0.52984587181E+03  0.13184142422E+04  0.90312786131E+03 0.  0.
        -24    2    4    4    0    0 -0.27611230554E+03 -0.10611529048E+03  0.36694482146E+03  0.47792875086E+03  0.79176566959E+02 0.  0.
         24    2    4    4    0    0 -0.97287404818E+02  0.81492569441E+03  0.16290105035E+03  0.84048549139E+03  0.79437915918E+02 0.  0.
         13    1    3    3    0    0  0.24160085496E+03 -0.37471223451E+03  0.81190131157E+03  0.92626344608E+03  0.00000000000E+00 0.  1.
        -13    1    3    3    0    0  0.13179885539E+03 -0.33409816942E+03  0.57483343894E+03  0.67780971343E+03  0.00000000000E+00 0. -1.
          4    1    6    6  502    0 -0.25466985306E+02  0.13152496005E+03 -0.13045488849E+01  0.13397419269E+03  0.00000000000E+00 0. -1.
          1    1    5    5  503    0 -0.35440814969E+02 -0.14660349657E+02  0.99783460346E+02  0.10690049661E+03  0.00000000000E+00 0. -1.
         -2    1    5    5    0  503 -0.24067149057E+03 -0.91454940822E+02  0.26716136112E+03  0.37102825425E+03  0.00000000000E+00 0.  1.
         -3    1    6    6    0  502 -0.71820419512E+02  0.68340073435E+03  0.16420559923E+03  0.70651129870E+03  0.00000000000E+00 0.  1.
<mgrwt>
<rscale>  0 0.22062754E+04</rscale>
<asrwt>0</asrwt>
<pdfrwt beam="1">  1        1 0.77377446E-01 0.22062754E+04</pdfrwt>
<pdfrwt beam="2">  1       -1 0.37223600E+00 0.22062754E+04</pdfrwt>
<totfact> 0.44259621E-01</totfact>
</mgrwt>
</event>
<event>
12    1  0.2019083E-007  0.3264663E+04  0.7818608E-02  0.8171946E-01
          3   -1    0    0  501    0  0.00000000000E+00  0.00000000000E+00  0.25500499785E+04  0.25500499785E+04  0.00000000000E+00 0. -1.
         -3   -1    0    0    0  501 -0.00000000000E+00 -0.00000000000E+00 -0.10448837142E+04  0.10448837142E+04  0.00000000000E+00 0.  1.
         23    2    1    2    0    0 -0.68429155806E+03  0.17408423427E+03  0.21610541473E+04  0.22758063135E+04  0.10285471193E+03 0.  0.
        254    2    1    2    0    0  0.68429155806E+03 -0.17408423427E+03 -0.65588788305E+03  0.13191273792E+04  0.90074850555E+03 0.  0.
        -24    2    4    4    0    0  0.23962552491E+01 -0.30104277721E+03 -0.52332942608E+03  0.60821535052E+03  0.73618806406E+02 0.  0.
         24    2    4    4    0    0  0.68189530281E+03  0.12695854295E+03 -0.13255845697E+03  0.71091202864E+03  0.82003001903E+02 0.  0.
         13    1    3    3    0    0 -0.15549020971E+03  0.75652499465E+02  0.44439674034E+03  0.47685319420E+03  0.00000000000E+00 0. -1.
        -13    1    3    3    0    0 -0.52880134835E+03  0.98431734805E+02  0.17166574070E+04  0.17989531193E+04  0.00000000000E+00 0.  1.
          4    1    6    6  502    0  0.50134933170E+03  0.10344873227E+03 -0.13274330308E+03  0.52884173164E+03  0.00000000000E+00 0. -1.
          1    1    5    5  503    0  0.20829122270E+02 -0.79568335720E+02 -0.94963418765E+02  0.12563050301E+03  0.00000000000E+00 0. -1.
         -2    1    5    5    0  503 -0.18432867021E+02 -0.22147444149E+03 -0.42836600731E+03  0.48258484751E+03  0.00000000000E+00 0.  1.
         -3    1    6    6    0  502  0.18054597111E+03  0.23509810670E+02  0.18484610641E+00  0.18207029700E+03  0.00000000000E+00 0.  1.
<mgrwt>
<rscale>  0 0.32646627E+04</rscale>
<asrwt>0</asrwt>
<pdfrwt beam="1">  1        3 0.39231538E+00 0.32646627E+04</pdfrwt>
<pdfrwt beam="2">  1       -3 0.16075134E+00 0.32646627E+04</pdfrwt>
<totfact> 0.71299012E-03</totfact>
</mgrwt>
</event>
<event>
12    1  0.2019083E-007  0.2234133E+04  0.7818608E-02  0.8504354E-01
          1   -1    0    0  501    0  0.00000000000E+00  0.00000000000E+00  0.35400655740E+04  0.35400655740E+04  0.00000000000E+00 0. -1.
         -1   -1    0    0    0  501 -0.00000000000E+00 -0.00000000000E+00 -0.35248990703E+03  0.35248990703E+03  0.00000000000E+00 0.  1.
         23    2    1    2    0    0  0.80930774631E+03 -0.46286811809E+03  0.12616867285E+04  0.15714164361E+04  0.90941145104E+02 0.  0.
        254    2    1    2    0    0 -0.80930774631E+03  0.46286811809E+03  0.19258889384E+04  0.23211390449E+04  0.89967346271E+03 0.  0.
        -24    2    4    4    0    0 -0.95181549174E+03  0.18655935653E+03  0.14056935496E+04  0.17097598758E+04  0.80915719456E+02 0.  0.
         24    2    4    4    0    0  0.14250774543E+03  0.27630876156E+03  0.52019538888E+03  0.61137916912E+03  0.80785249916E+02 0.  0.
         13    1    3    3    0    0  0.41776687669E+03 -0.26339597371E+03  0.73467702962E+03  0.88524400030E+03  0.00000000000E+00 0. -1.
        -13    1    3    3    0    0  0.39154086962E+03 -0.19947214437E+03  0.52700969889E+03  0.68617243582E+03  0.00000000000E+00 0.  1.
          2    1    6    6  502    0  0.13238346885E+03  0.26789137586E+03  0.51803084319E+03  0.59803605793E+03  0.00000000000E+00 0. -1.
          1    1    5    5  503    0 -0.47790055842E+03  0.10794544223E+03  0.64305023517E+03  0.80842734194E+03  0.00000000000E+00 0. -1.
         -2    1    5    5    0  503 -0.47391493332E+03  0.78613914297E+02  0.76264331439E+03  0.90133253382E+03  0.00000000000E+00 0.  1.
         -1    1    6    6    0  502  0.10124276583E+02  0.84173856973E+01  0.21645456881E+01  0.13343111194E+02  0.00000000000E+00 0.  1.
<mgrwt>
<rscale>  0 0.22341328E+04</rscale>
<asrwt>0</asrwt>
<pdfrwt beam="1">  1        1 0.54462545E+00 0.22341328E+04</pdfrwt>
<pdfrwt beam="2">  1       -1 0.54229219E-01 0.22341328E+04</pdfrwt>
<totfact> 0.72699396E-01</totfact>
</mgrwt>
</event>
<event>
12    1  0.2019083E-007  0.1102707E+04  0.7818608E-02  0.9202557E-01
          1   -1    0    0  501    0  0.00000000000E+00  0.00000000000E+00  0.29854686138E+03  0.29854686138E+03  0.00000000000E+00 0. -1.
         -1   -1    0    0    0  501 -0.00000000000E+00 -0.00000000000E+00 -0.10182352091E+04  0.10182352091E+04  0.00000000000E+00 0.  1.
         23    2    1    2    0    0  0.15018139076E+03  0.20197704261E+02 -0.20231335540E+03  0.26826318947E+03  0.89844575037E+02 0.  0.
        254    2    1    2    0    0 -0.15018139076E+03 -0.20197704261E+02 -0.51737499235E+03  0.10485188810E+04  0.89930671285E+03 0.  0.
        -24    2    4    4    0    0 -0.80340844156E+02  0.12612014158E+03  0.22723045749E+03  0.28239193988E+03  0.75832615302E+02 0.  0.
         24    2    4    4    0    0 -0.69840546602E+02 -0.14631784584E+03 -0.74460544984E+03  0.76612694115E+03  0.78908808516E+02 0.  0.
         13    1    3    3    0    0  0.75507432937E+02 -0.23906949796E+02 -0.52068273202E+02  0.94784069081E+02  0.00000000000E+00 0. -1.
        -13    1    3    3    0    0  0.74673957820E+02  0.44104654057E+02 -0.15024508219E+03  0.17347912038E+03  0.00000000000E+00 0.  1.
          4    1    6    6  502    0 -0.20812265638E+02 -0.15915219029E+02 -0.39560869488E+02  0.47450047338E+02  0.00000000000E+00 0. -1.
          3    1    5    5  503    0 -0.18765552493E+02  0.54203577865E+02  0.32651342989E+02  0.66002151576E+02  0.00000000000E+00 0. -1.
         -4    1    5    5    0  503 -0.61575291663E+02  0.71916563716E+02  0.19457911450E+03  0.21638978830E+03  0.00000000000E+00 0.  1.
         -3    1    6    6    0  502 -0.49028280963E+02 -0.13040262681E+03 -0.70504458035E+03  0.71867689381E+03  0.00000000000E+00 0.  1.
<mgrwt>
<rscale>  0 0.11027074E+04</rscale>
<asrwt>0</asrwt>
<pdfrwt beam="1">  1        1 0.45930286E-01 0.11027074E+04</pdfrwt>
<pdfrwt beam="2">  1       -1 0.15665157E+00 0.11027074E+04</pdfrwt>
<totfact> 0.27248171E+01</totfact>
</mgrwt>
</event>
<event>
12    1  0.2019083E-007  0.1537026E+04  0.7818608E-02  0.8860197E-01
          2   -1    0    0  501    0  0.00000000000E+00  0.00000000000E+00  0.22462122541E+04  0.22462122541E+04  0.00000000000E+00 0. -1.
         -2   -1    0    0    0  501 -0.00000000000E+00 -0.00000000000E+00 -0.26293708564E+03  0.26293708564E+03  0.00000000000E+00 0.  1.
         23    2    1    2    0    0  0.28555380132E+03 -0.38663381739E+03  0.45920461014E+03  0.67096770396E+03  0.91115879983E+02 0.  0.
        254    2    1    2    0    0 -0.28555380132E+03  0.38663381739E+03  0.15240705583E+04  0.18381816358E+04  0.90834683751E+03 0.  0.
        -24    2    4    4    0    0 -0.53503223557E+03  0.11453525349E+03  0.12634533458E+04  0.13791762655E+04  0.80218433165E+02 0.  0.
         24    2    4    4    0    0  0.24947843425E+03  0.27209856390E+03  0.26061721254E+03  0.45900537026E+03  0.80544899435E+02 0.  0.
         13    1    3    3    0    0  0.21510709868E+03 -0.31150151391E+03  0.40577930273E+03  0.55494242908E+03  0.00000000000E+00 0. -1.
        -13    1    3    3    0    0  0.70446702639E+02 -0.75132303476E+02  0.53425307415E+02  0.11602527488E+03  0.00000000000E+00 0.  1.
          2    1    6    6  502    0  0.24220856753E+03  0.25943432750E+03  0.26589706442E+03  0.44347763116E+03  0.00000000000E+00 0. -1.
          1    1    5    5  503    0 -0.38969066960E+03  0.10210097070E+03  0.84712180449E+03  0.93802919882E+03  0.00000000000E+00 0. -1.
         -2    1    5    5    0  503 -0.14534156597E+03  0.12434282787E+02  0.41633154129E+03  0.44114706671E+03  0.00000000000E+00 0.  1.
         -1    1    6    6    0  502  0.72698667281E+01  0.12664236397E+02 -0.52798518845E+01  0.15527739104E+02  0.00000000000E+00 0.  1.
<mgrwt>
<rscale>  0 0.15370264E+04</rscale>
<asrwt>0</asrwt>
<pdfrwt beam="1">  1        2 0.34557110E+00 0.15370264E+04</pdfrwt>
<pdfrwt beam="2">  1       -2 0.40451861E-01 0.15370264E+04</pdfrwt>
<totfact> 0.27138664E+01</totfact>
</mgrwt>
</event>
<event>
12    1  0.2019083E-007  0.1626837E+04  0.7818608E-02  0.8804229E-01
          1   -1    0    0  501    0  0.00000000000E+00  0.00000000000E+00  0.18579098642E+04  0.18579098642E+04  0.00000000000E+00 0.  1.
         -1   -1    0    0    0  501 -0.00000000000E+00 -0.00000000000E+00 -0.35612572669E+03  0.35612572669E+03  0.00000000000E+00 0. -1.
         23    2    1    2    0    0  0.41679368571E+03  0.74882685164E+02  0.10190546090E+04  0.11073400485E+04  0.91680390275E+02 0.  0.
        254    2    1    2    0    0 -0.41679368571E+03 -0.74882685164E+02  0.48272952859E+03  0.11066955424E+04  0.90134501325E+03 0.  0.
        -24    2    4    4    0    0  0.21331213952E+03 -0.24890956070E+03  0.17170695310E+03  0.37840658349E+03  0.79058373456E+02 0.  0.
         24    2    4    4    0    0 -0.63010582523E+03  0.17402687554E+03  0.31102257549E+03  0.72828895895E+03  0.79693543506E+02 0.  0.
         13    1    3    3    0    0  0.96248372404E+02 -0.21016541708E+02  0.24535116449E+03  0.26439107045E+03  0.00000000000E+00 0.  1.
        -13    1    3    3    0    0  0.32054531330E+03  0.95899226872E+02  0.77370344446E+03  0.84294897804E+03  0.00000000000E+00 0. -1.
          4    1    6    6  502    0 -0.44069757475E+03  0.86527937014E+02  0.19571335135E+03  0.48990320693E+03  0.00000000000E+00 0. -1.
          3    1    5    5  503    0  0.19855764796E+03 -0.25326648873E+03  0.16370511283E+03  0.36106566971E+03  0.00000000000E+00 0. -1.
         -4    1    5    5    0  503  0.14754491561E+02  0.43569280308E+01  0.80018402766E+01  0.17340913785E+02  0.00000000000E+00 0.  1.
         -3    1    6    6    0  502 -0.18940825048E+03  0.87498938521E+02  0.11530922415E+03  0.23838575202E+03  0.00000000000E+00 0.  1.
<mgrwt>
<rscale>  0 0.16268368E+04</rscale>
<asrwt>0</asrwt>
<pdfrwt beam="1">  1        1 0.28583228E+00 0.16268368E+04</pdfrwt>
<pdfrwt beam="2">  1       -1 0.54788575E-01 0.16268368E+04</pdfrwt>
<totfact> 0.11994339E+01</totfact>
</mgrwt>
</event>
<event>
12    1  0.2019083E-007  0.2584311E+04  0.7818608E-02  0.8373550E-01
          1   -1    0    0  501    0  0.00000000000E+00  0.00000000000E+00  0.20722041402E+04  0.20722041402E+04  0.00000000000E+00 0.  1.
         -1   -1    0    0    0  501 -0.00000000000E+00 -0.00000000000E+00 -0.80574378095E+03  0.80574378095E+03  0.00000000000E+00 0. -1.
         23    2    1    2    0    0 -0.10597115952E+04 -0.10145665894E+03  0.12359473818E+03  0.10755246242E+04  0.90528665312E+02 0.  0.
        254    2    1    2    0    0  0.10597115952E+04  0.10145665894E+03  0.11428656211E+04  0.18024232970E+04  0.89961424779E+03 0.  0.
        -24    2    4    4    0    0  0.12229347975E+03 -0.13870907633E+03  0.71258582801E+03  0.74055732584E+03  0.80316172235E+02 0.  0.
         24    2    4    4    0    0  0.93741811548E+03  0.24016573527E+03  0.43027979308E+03  0.10618659711E+04  0.77371420170E+02 0.  0.
         11    1    3    3    0    0 -0.18805233767E+03 -0.17109894470E+02  0.57097923715E+02  0.19727291523E+03  0.00000000000E+00 0.  1.
        -11    1    3    3    0    0 -0.87165925756E+03 -0.84346764467E+02  0.66496814460E+02  0.87825170897E+03  0.00000000000E+00 0. -1.
          2    1    6    6  502    0  0.48188081170E+02  0.18606374429E+02  0.60134366263E+01  0.52004324400E+02  0.00000000000E+00 0. -1.
          3    1    5    5  503    0  0.99753061445E+02 -0.64926462670E+02  0.34472564316E+03  0.36469423889E+03  0.00000000000E+00 0. -1.
         -4    1    5    5    0  503  0.22540418307E+02 -0.73782613663E+02  0.36786018485E+03  0.37586308695E+03  0.00000000000E+00 0.  1.
         -1    1    6    6    0  502  0.88923003431E+03  0.22155936084E+03  0.42426635645E+03  0.10098616467E+04  0.00000000000E+00 0.  1.
<mgrwt>
<rscale>  0 0.25843108E+04</rscale>
<asrwt>0</asrwt>
<pdfrwt beam="1">  1        1 0.31880063E+00 0.25843108E+04</pdfrwt>
<pdfrwt beam="2">  1       -1 0.12396058E+00 0.25843108E+04</pdfrwt>
<totfact> 0.13410631E+00</totfact>
</mgrwt>
</event>
<event>
12    1  0.2019083E-007  0.2728222E+04  0.7818608E-02  0.8325906E-01
          2   -1    0    0  501    0  0.00000000000E+00  0.00000000000E+00  0.12604638799E+04  0.12604638799E+04  0.00000000000E+00 0. -1.
         -2   -1    0    0    0  501 -0.00000000000E+00 -0.00000000000E+00 -0.14762812186E+04  0.14762812186E+04  0.00000000000E+00 0.  1.
         23    2    1    2    0    0 -0.11459851799E+04 -0.40397884946E+03 -0.78071969697E+02  0.12210076371E+04  0.91013592673E+02 0.  0.
        254    2    1    2    0    0  0.11459851799E+04  0.40397884946E+03 -0.13774536905E+03  0.15157374613E+04  0.89554749821E+03 0.  0.
        -24    2    4    4    0    0 -0.10315977491E+03  0.43585685500E+02 -0.16274965371E+03  0.21295937027E+03  0.79514731115E+02 0.  0.
         24    2    4    4    0    0  0.12491449549E+04  0.36039316396E+03  0.25004284654E+02  0.13027780911E+04  0.79744526103E+02 0.  0.
         11    1    3    3    0    0 -0.80877529454E+03 -0.24084872198E+03 -0.49616805646E+02  0.84533272227E+03  0.00000000000E+00 0. -1.
        -11    1    3    3    0    0 -0.33720988540E+03 -0.16313012747E+03 -0.28455164050E+02  0.37567491487E+03  0.00000000000E+00 0.  1.
          4    1    6    6  502    0  0.42036838409E+02 -0.13252601846E+01  0.60964301657E+01  0.42497277075E+02  0.00000000000E+00 0. -1.
          3    1    5    5  503    0 -0.54865277942E+02  0.61115621051E+02 -0.74718856699E+02  0.11103254211E+03  0.00000000000E+00 0. -1.
         -4    1    5    5    0  503 -0.48294496972E+02 -0.17529935551E+02 -0.88030797008E+02  0.10192682817E+03  0.00000000000E+00 0.  1.
         -3    1    6    6    0  502  0.12071081164E+04  0.36171842414E+03  0.18907854488E+02  0.12602808140E+04  0.00000000000E+00 0.  1.
<mgrwt>
<rscale>  0 0.27282222E+04</rscale>
<asrwt>0</asrwt>
<pdfrwt beam="1">  1        2 0.19391752E+00 0.27282222E+04</pdfrwt>
<pdfrwt beam="2">  1       -2 0.22712019E+00 0.27282222E+04</pdfrwt>
<totfact> 0.13603716E+00</totfact>
</mgrwt>
</event>
<event>
12    1  0.2019083E-007  0.1380290E+04  0.7818608E-02  0.8968210E-01
          2   -1    0    0  501    0  0.00000000000E+00  0.00000000000E+00  0.21763986921E+04  0.21763986921E+04  0.00000000000E+00 0.  1.
         -2   -1    0    0    0  501 -0.00000000000E+00 -0.00000000000E+00 -0.21884795140E+03  0.21884795140E+03  0.00000000000E+00 0. -1.
         23    2    1    2    0    0 -0.23900875759E+03 -0.27214266008E+03  0.77404452512E+03  0.85935711209E+03  0.90348799654E+02 0.  0.
        254    2    1    2    0    0  0.23900875759E+03  0.27214266008E+03  0.11835062156E+04  0.15358895314E+04  0.90944096933E+03 0.  0.
        -24    2    4    4    0    0  0.11027687730E+03 -0.25655664504E+03  0.77471257790E+02  0.30062016351E+03  0.79927374186E+02 0.  0.
         24    2    4    4    0    0  0.12873188028E+03  0.52869930512E+03  0.11060349578E+04  0.12352693679E+04  0.80512304332E+02 0.  0.
         11    1    3    3    0    0 -0.21052248786E+03 -0.27302465186E+03  0.71190422478E+03  0.79099292264E+03  0.00000000000E+00 0.  1.
        -11    1    3    3    0    0 -0.28486269726E+02  0.88199177770E+00  0.62140300341E+02  0.68364189448E+02  0.00000000000E+00 0. -1.
          4    1    6    6  502    0  0.11637465932E+03  0.52064795203E+03  0.10560867512E+04  0.11831891554E+04  0.00000000000E+00 0. -1.
          3    1    5    5  503    0  0.11715360030E+03 -0.22310523978E+03  0.84440948031E+02  0.26576528702E+03  0.00000000000E+00 0. -1.
         -4    1    5    5    0  503 -0.68767230001E+01 -0.33451405260E+02 -0.69696902405E+01  0.34854876490E+02  0.00000000000E+00 0.  1.
         -3    1    6    6    0  502  0.12357220959E+02  0.80513530944E+01  0.49948206534E+02  0.52080212485E+02  0.00000000000E+00 0.  1.
<mgrwt>
<rscale>  0 0.13802904E+04</rscale>
<asrwt>0</asrwt>
<pdfrwt beam="1">  1        2 0.33483055E+00 0.13802904E+04</pdfrwt>
<pdfrwt beam="2">  1       -2 0.33668917E-01 0.13802904E+04</pdfrwt>
<totfact> 0.42873918E+01</totfact>
</mgrwt>
</event>
<event>
12    1  0.2019083E-007  0.2088510E+04  0.7818608E-02  0.8566322E-01
         -2   -1    0    0    0  501 -0.00000000000E+00  0.00000000000E+00  0.30715469437E+03  0.30715469437E+03  0.00000000000E+00 0. -1.
          2   -1    0    0  501    0  0.00000000000E+00 -0.00000000000E+00 -0.35502262070E+04  0.35502262070E+04  0.00000000000E+00 0.  1.
         23    2    1    2    0    0  0.28829588321E+03  0.70293228380E+03 -0.20026406591E+04  0.21438659367E+04  0.91450715575E+02 0.  0.
        254    2    1    2    0    0 -0.28829588321E+03 -0.70293228380E+03 -0.12404308536E+04  0.17135149647E+04  0.90566910058E+03 0.  0.
        -24    2    4    4    0    0 -0.40973063166E+03  0.42403225186E+02 -0.48436108983E+03  0.64196920111E+03  0.88552616003E+02 0.  0.
         24    2    4    4    0    0  0.12143474846E+03 -0.74533550899E+03 -0.75606976374E+03  0.10715457636E+04  0.79356264132E+02 0.  0.
         13    1    3    3    0    0  0.13545580726E+03  0.39531237690E+03 -0.12052700013E+04  0.12756550972E+04  0.00000000000E+00 0.  1.
        -13    1    3    3    0    0  0.15284007595E+03  0.30761990690E+03 -0.79737065779E+03  0.86821083951E+03  0.00000000000E+00 0. -1.
          2    1    6    6  502    0  0.30517064573E+02 -0.17673572527E+03 -0.13403217559E+03  0.22390049556E+03  0.00000000000E+00 0. -1.
          3    1    5    5  503    0 -0.13162498734E+03  0.45053367899E+02 -0.20517670146E+03  0.24789599043E+03  0.00000000000E+00 0. -1.
         -4    1    5    5    0  503 -0.27810564433E+03 -0.26501427138E+01 -0.27918438837E+03  0.39407321068E+03  0.00000000000E+00 0.  1.
         -3    1    6    6    0  502  0.90917683883E+02 -0.56859978372E+03 -0.62203758815E+03  0.84764526800E+03  0.00000000000E+00 0.  1.
<mgrwt>
<rscale>  0 0.20885101E+04</rscale>
<asrwt>0</asrwt>
<pdfrwt beam="1">  1        2 0.54618861E+00 0.20885101E+04</pdfrwt>
<pdfrwt beam="2">  1       -2 0.47254571E-01 0.20885101E+04</pdfrwt>
<totfact> 0.29484156E+00</totfact>
</mgrwt>
</event>
<event>
12    1  0.2019083E-007  0.4701247E+04  0.7818608E-02  0.7876321E-01
          1   -1    0    0  501    0  0.00000000000E+00  0.00000000000E+00  0.25708431366E+04  0.25708431366E+04  0.00000000000E+00 0. -1.
         -1   -1    0    0    0  501 -0.00000000000E+00 -0.00000000000E+00 -0.21492681598E+04  0.21492681598E+04  0.00000000000E+00 0.  1.
         23    2    1    2    0    0  0.10946360038E+04  0.19414756755E+04  0.62073611748E+03  0.23154046868E+04  0.90718007410E+02 0.  0.
        254    2    1    2    0    0 -0.10946360038E+04 -0.19414756755E+04 -0.19916114064E+03  0.24047066096E+04  0.88056398923E+03 0.  0.
        -24    2    4    4    0    0 -0.63585192834E+03 -0.10762382170E+04  0.32110506757E+03  0.12931069815E+04  0.80130060036E+02 0.  0.
         24    2    4    4    0    0 -0.45878407549E+03 -0.86523745843E+03 -0.52026620821E+03  0.11115996282E+04  0.76538346707E+02 0.  0.
         13    1    3    3    0    0  0.19795988583E+03  0.40599775626E+03  0.15135824029E+03  0.47637339492E+03  0.00000000000E+00 0. -1.
        -13    1    3    3    0    0  0.89667611800E+03  0.15354779192E+04  0.46937787718E+03  0.18390312919E+04  0.00000000000E+00 0.  1.
          2    1    6    6  502    0 -0.42953670232E+03 -0.83452056977E+03 -0.50901677976E+03  0.10677192712E+04  0.00000000000E+00 0. -1.
          3    1    5    5  503    0 -0.53393252976E+03 -0.88476250645E+03  0.29474982139E+03  0.10746004357E+04  0.00000000000E+00 0. -1.
         -4    1    5    5    0  503 -0.10191939858E+03 -0.19147571057E+03  0.26355246181E+02  0.21850654578E+03  0.00000000000E+00 0.  1.
         -1    1    6    6    0  502 -0.29247373169E+02 -0.30716888654E+02 -0.11249428451E+02  0.43880356954E+02  0.00000000000E+00 0.  1.
<mgrwt>
<rscale>  0 0.47012472E+04</rscale>
<asrwt>0</asrwt>
<pdfrwt beam="1">  1        1 0.39551433E+00 0.47012472E+04</pdfrwt>
<pdfrwt beam="2">  1       -1 0.33065664E+00 0.47012472E+04</pdfrwt>
<totfact> 0.18635405E-02</totfact>
</mgrwt>
</event>
<event>
12    1  0.2019083E-007  0.2170585E+04  0.7818608E-02  0.8530772E-01
          2   -1    0    0  501    0  0.00000000000E+00  0.00000000000E+00  0.47126544870E+03  0.47126544870E+03  0.00000000000E+00 0. -1.
         -2   -1    0    0    0  501 -0.00000000000E+00 -0.00000000000E+00 -0.24993561571E+04  0.24993561571E+04  0.00000000000E+00 0.  1.
         23    2    1    2    0    0  0.55601758331E+03  0.68926462515E+03 -0.10210325742E+04  0.13546436568E+04  0.91162726974E+02 0.  0.
        254    2    1    2    0    0 -0.55601758331E+03 -0.68926462515E+03 -0.10070581342E+04  0.16159779491E+04  0.90165257707E+03 0.  0.
        -24    2    4    4    0    0 -0.23855907649E+02 -0.26385346998E+03 -0.87424824522E+03  0.91726667348E+03  0.82948164872E+02 0.  0.
         24    2    4    4    0    0 -0.53216167566E+03 -0.42541115517E+03 -0.13280988900E+03  0.69871127559E+03  0.79926716596E+02 0.  0.
         11    1    3    3    0    0  0.22352731556E+03  0.20917884677E+03 -0.36248657393E+03  0.47446471631E+03  0.00000000000E+00 0. -1.
        -11    1    3    3    0    0  0.33249026775E+03  0.48008577838E+03 -0.65854600028E+03  0.88017894046E+03  0.00000000000E+00 0.  1.
          2    1    6    6  502    0 -0.35008555284E+03 -0.31631464627E+03 -0.67451243662E+02  0.47661779239E+03  0.00000000000E+00 0. -1.
          3    1    5    5  503    0 -0.46446920716E+02 -0.83373954024E+02 -0.28139888144E+03  0.29714283288E+03  0.00000000000E+00 0. -1.
         -2    1    5    5    0  503  0.22591013067E+02 -0.18047951595E+03 -0.59284936378E+03  0.62012384060E+03  0.00000000000E+00 0.  1.
         -1    1    6    6    0  502 -0.18207612283E+03 -0.10909650890E+03 -0.65358645337E+02  0.22209348320E+03  0.00000000000E+00 0.  1.
<mgrwt>
<rscale>  0 0.21705854E+04</rscale>
<asrwt>0</asrwt>
<pdfrwt beam="1">  1        2 0.72502375E-01 0.21705854E+04</pdfrwt>
<pdfrwt beam="2">  1       -2 0.38451634E+00 0.21705854E+04</pdfrwt>
<totfact> 0.56671864E-01</totfact>
</mgrwt>
</event>
<event>
12    1  0.2019083E-007  0.1424571E+04  0.7818608E-02  0.8936223E-01
          2   -1    0    0  501    0  0.00000000000E+00  0.00000000000E+00  0.17566596920E+04  0.17566596920E+04  0.00000000000E+00 0. -1.
         -2   -1    0    0    0  501 -0.00000000000E+00 -0.00000000000E+00 -0.28881536177E+03  0.28881536177E+03  0.00000000000E+00 0.  1.
         23    2    1    2    0    0  0.19477493272E+03 -0.19005824694E+03 -0.96110991744E+01  0.29374886554E+03  0.11016628855E+03 0.  0.
        254    2    1    2    0    0 -0.19477493272E+03  0.19005824694E+03  0.14774554294E+04  0.17517261882E+04  0.90089437838E+03 0.  0.
        -24    2    4    4    0    0  0.18121394130E+03  0.40188245456E+03  0.10386852921E+04  0.11311722788E+04  0.79596410635E+02 0.  0.
         24    2    4    4    0    0 -0.37598887403E+03 -0.21182420762E+03  0.43877013725E+03  0.62055390934E+03  0.79566278843E+02 0.  0.
         13    1    3    3    0    0  0.11892910949E+03 -0.53461911842E+02  0.27270640242E+02  0.13321410181E+03  0.00000000000E+00 0. -1.
        -13    1    3    3    0    0  0.75845823231E+02 -0.13659633509E+03 -0.36881739417E+02  0.16053476373E+03  0.00000000000E+00 0.  1.
          2    1    6    6  502    0 -0.34356858660E+03 -0.16783609850E+03  0.36383584479E+03  0.52781137882E+03  0.00000000000E+00 0. -1.
          1    1    5    5  503    0  0.14373310595E+03  0.23933190822E+03  0.70052129273E+03  0.75410148495E+03  0.00000000000E+00 0. -1.
         -2    1    5    5    0  503  0.37480835357E+02  0.16255054634E+03  0.33816399938E+03  0.37707079390E+03  0.00000000000E+00 0.  1.
         -1    1    6    6    0  502 -0.32420287430E+02 -0.43988109122E+02  0.74934292462E+02  0.92742530524E+02  0.00000000000E+00 0.  1.
<mgrwt>
<rscale>  0 0.14245705E+04</rscale>
<asrwt>0</asrwt>
<pdfrwt beam="1">  1        2 0.27025533E+00 0.14245705E+04</pdfrwt>
<pdfrwt beam="2">  1       -2 0.44433134E-01 0.14245705E+04</pdfrwt>
<totfact> 0.42563115E+01</totfact>
</mgrwt>
</event>
<event>
12    1  0.2019083E-007  0.2325598E+04  0.7818608E-02  0.8467896E-01
          1   -1    0    0  501    0  0.00000000000E+00  0.00000000000E+00  0.11057335391E+04  0.11057335391E+04  0.00000000000E+00 0. -1.
         -1   -1    0    0    0  501 -0.00000000000E+00 -0.00000000000E+00 -0.12228095399E+04  0.12228095399E+04  0.00000000000E+00 0.  1.
         23    2    1    2    0    0  0.67384936712E+02 -0.55240499257E+03  0.76574357516E+03  0.95038603465E+03  0.84725359002E+02 0.  0.
        254    2    1    2    0    0 -0.67384936712E+02  0.55240499257E+03 -0.88281957598E+03  0.13781570444E+04  0.90014133881E+03 0.  0.
        -24    2    4    4    0    0  0.21800714525E+03  0.20796019329E+02 -0.70722801365E+03  0.74477359407E+03  0.80973164286E+02 0.  0.
         24    2    4    4    0    0 -0.28539208196E+03  0.53160897324E+03 -0.17559156233E+03  0.63338345035E+03  0.79280877533E+02 0.  0.
         11    1    3    3    0    0  0.58942980899E+02 -0.25412758881E+03  0.30366898003E+03  0.40033730257E+03  0.00000000000E+00 0. -1.
        -11    1    3    3    0    0  0.84419558137E+01 -0.29827740376E+03  0.46207459512E+03  0.55004873209E+03  0.00000000000E+00 0.  1.
          2    1    6    6  502    0 -0.15777288904E+03  0.36796180299E+03 -0.10147944698E+03  0.41302088463E+03  0.00000000000E+00 0. -1.
          3    1    5    5  503    0  0.16764078761E+03  0.25561849365E+02 -0.63020205922E+03  0.65261893726E+03  0.00000000000E+00 0. -1.
         -4    1    5    5    0  503  0.50366357635E+02 -0.47658300361E+01 -0.77025954422E+02  0.92154656811E+02  0.00000000000E+00 0.  1.
         -1    1    6    6    0  502 -0.12761919292E+03  0.16364717025E+03 -0.74112115351E+02  0.22036256573E+03  0.00000000000E+00 0.  1.
<mgrwt>
<rscale>  0 0.23255980E+04</rscale>
<asrwt>0</asrwt>
<pdfrwt beam="1">  1        1 0.17011285E+00 0.23255980E+04</pdfrwt>
<pdfrwt beam="2">  1       -1 0.18812454E+00 0.23255980E+04</pdfrwt>
<totfact> 0.20623355E+00</totfact>
</mgrwt>
</event>
<event>
12    1  0.2019083E-007  0.2832375E+04  0.7818608E-02  0.8293287E-01
          2   -1    0    0  501    0  0.00000000000E+00  0.00000000000E+00  0.41969643682E+03  0.41969643682E+03  0.00000000000E+00 0. -1.
         -2   -1    0    0    0  501 -0.00000000000E+00 -0.00000000000E+00 -0.47786618871E+04  0.47786618871E+04  0.00000000000E+00 0.  1.
         23    2    1    2    0    0  0.12458431034E+04 -0.16711163072E+03 -0.16025032183E+04  0.20387369066E+04  0.91543837310E+02 0.  0.
        254    2    1    2    0    0 -0.12458431034E+04  0.16711163072E+03 -0.27564622320E+04  0.31596214174E+04  0.89725811723E+03 0.  0.
        -24    2    4    4    0    0 -0.10265972409E+04 -0.22114413679E+03 -0.15791555028E+04  0.18982104569E+04  0.81634629332E+02 0.  0.
         24    2    4    4    0    0 -0.21924586255E+03  0.38825576750E+03 -0.11773067293E+04  0.12614109604E+04  0.79342214750E+02 0.  0.
         11    1    3    3    0    0  0.36286250171E+03 -0.16373661648E+02 -0.50570942580E+03  0.62263899275E+03  0.00000000000E+00 0.  1.
        -11    1    3    3    0    0  0.88298060172E+03 -0.15073796907E+03 -0.10967937925E+04  0.14160979138E+04  0.00000000000E+00 0. -1.
          4    1    6    6  502    0 -0.91308324918E+02  0.13131171618E+03 -0.52314012299E+03  0.54704256259E+03  0.00000000000E+00 0. -1.
          1    1    5    5  503    0 -0.16922848093E+03 -0.28298488507E+02 -0.20835124368E+03  0.26990613915E+03  0.00000000000E+00 0. -1.
         -2    1    5    5    0  503 -0.85736875996E+03 -0.19284564828E+03 -0.13708042591E+04  0.16283043178E+04  0.00000000000E+00 0.  1.
         -3    1    6    6    0  502 -0.12793753763E+03  0.25694405132E+03 -0.65416660629E+03  0.71436839784E+03  0.00000000000E+00 0.  1.
<mgrwt>
<rscale>  0 0.28323752E+04</rscale>
<asrwt>0</asrwt>
<pdfrwt beam="1">  1        2 0.64568687E-01 0.28323752E+04</pdfrwt>
<pdfrwt beam="2">  1       -2 0.73517870E+00 0.28323752E+04</pdfrwt>
<totfact> 0.10835261E-02</totfact>
</mgrwt>
</event>
<event>
12    1  0.2019083E-007  0.1966074E+04  0.7818608E-02  0.8622649E-01
         -1   -1    0    0    0  501 -0.00000000000E+00  0.00000000000E+00  0.57078495937E+03  0.57078495937E+03  0.00000000000E+00 0.  1.
          1   -1    0    0  501    0  0.00000000000E+00 -0.00000000000E+00 -0.16930396477E+04  0.16930396477E+04  0.00000000000E+00 0. -1.
         23    2    1    2    0    0 -0.29601671857E+03  0.63449550518E+03 -0.80050764762E+03  0.10674902168E+04  0.92262805240E+02 0.  0.
        254    2    1    2    0    0  0.29601671857E+03 -0.63449550518E+03 -0.32174704069E+03  0.11963343903E+04  0.91514172203E+03 0.  0.
        -24    2    4    4    0    0  0.25382211430E+03 -0.76532306192E+03 -0.50368278570E+03  0.95398754973E+03  0.79062264203E+02 0.  0.
         24    2    4    4    0    0  0.42194604274E+02  0.13082755674E+03  0.18193574501E+03  0.24234684055E+03  0.82067908338E+02 0.  0.
         11    1    3    3    0    0 -0.22955459770E+03  0.42301194854E+03 -0.49923610914E+03  0.69344871087E+03  0.00000000000E+00 0.  1.
        -11    1    3    3    0    0 -0.66462120874E+02  0.21148355664E+03 -0.30127153848E+03  0.37404150590E+03  0.00000000000E+00 0. -1.
          2    1    6    6  502    0  0.12530723307E+00  0.11156608434E+03  0.14608071626E+03  0.18381126880E+03  0.00000000000E+00 0. -1.
          3    1    5    5  503    0  0.16819575874E+03 -0.55578013177E+03 -0.39931914218E+03  0.70472487216E+03  0.00000000000E+00 0. -1.
         -4    1    5    5    0  503  0.85626355556E+02 -0.20954293015E+03 -0.10436364351E+03  0.24926267757E+03  0.00000000000E+00 0.  1.
         -1    1    6    6    0  502  0.42069297040E+02  0.19261472396E+02  0.35855028751E+02  0.58535571742E+02  0.00000000000E+00 0.  1.
<mgrwt>
<rscale>  0 0.19660738E+04</rscale>
<asrwt>0</asrwt>
<pdfrwt beam="1">  1        1 0.26046764E+00 0.19660738E+04</pdfrwt>
<pdfrwt beam="2">  1       -1 0.87813070E-01 0.19660738E+04</pdfrwt>
<totfact> 0.57158737E+00</totfact>
</mgrwt>
</event>
<event>
12    1  0.2019083E-007  0.3142198E+04  0.7818608E-02  0.8204251E-01
          1   -1    0    0  501    0  0.00000000000E+00  0.00000000000E+00  0.15821304180E+04  0.15821304180E+04  0.00000000000E+00 0. -1.
         -1   -1    0    0    0  501 -0.00000000000E+00 -0.00000000000E+00 -0.15601446536E+04  0.15601446536E+04  0.00000000000E+00 0.  1.
         23    2    1    2    0    0  0.91158486950E+03  0.48537717147E+03  0.10144742498E+04  0.14505203059E+04  0.90957030508E+02 0.  0.
        254    2    1    2    0    0 -0.91158486950E+03 -0.48537717147E+03 -0.99248848545E+03  0.16917547658E+04  0.90023486981E+03 0.  0.
        -24    2    4    4    0    0 -0.31684232663E+03 -0.45258797645E+03 -0.32404385868E+02  0.55911439680E+03  0.79585979375E+02 0.  0.
         24    2    4    4    0    0 -0.59474254287E+03 -0.32789195017E+02 -0.96008409959E+03  0.11326403690E+04  0.79491531000E+02 0.  0.
         11    1    3    3    0    0  0.60075691577E+03  0.28813183226E+03  0.69942680630E+03  0.96598482492E+03  0.00000000000E+00 0.  1.
        -11    1    3    3    0    0  0.31082795373E+03  0.19724533921E+03  0.31504744351E+03  0.48453548097E+03  0.00000000000E+00 0. -1.
          4    1    6    6  502    0 -0.11906941775E+03  0.19479676311E+02 -0.22955287838E+03  0.25932895713E+03  0.00000000000E+00 0. -1.
          3    1    5    5  503    0 -0.23585041596E+03 -0.27560265675E+03 -0.35298389058E+02  0.36445605961E+03  0.00000000000E+00 0. -1.
         -4    1    5    5    0  503 -0.80991910675E+02 -0.17698531970E+03  0.28940031892E+01  0.19465833719E+03  0.00000000000E+00 0.  1.
         -3    1    6    6    0  502 -0.47567312512E+03 -0.52268871329E+02 -0.73053122120E+03  0.87331141183E+03  0.00000000000E+00 0.  1.
<mgrwt>
<rscale>  0 0.31421982E+04</rscale>
<asrwt>0</asrwt>
<pdfrwt beam="1">  1        1 0.24340468E+00 0.31421982E+04</pdfrwt>
<pdfrwt beam="2">  1       -1 0.24002225E+00 0.31421982E+04</pdfrwt>
<totfact> 0.39117238E-01</totfact>
</mgrwt>
</event>
<event>
12    1  0.2019083E-007  0.2642262E+04  0.7818608E-02  0.8353986E-01
          2   -1    0    0  501    0  0.00000000000E+00  0.00000000000E+00  0.85892580140E+03  0.85892580140E+03  0.00000000000E+00 0. -1.
         -2   -1    0    0    0  501 -0.00000000000E+00 -0.00000000000E+00 -0.20320576151E+04  0.20320576151E+04  0.00000000000E+00 0.  1.
         23    2    1    2    0    0  0.10850881696E+04 -0.38864135787E+03 -0.70923118792E+03  0.13563314645E+04  0.90375454416E+02 0.  0.
        254    2    1    2    0    0 -0.10850881696E+04  0.38864135787E+03 -0.46390062580E+03  0.15346519520E+04  0.90082982991E+03 0.  0.
        -24    2    4    4    0    0  0.91004184671E+02  0.23571539757E+03 -0.15163527858E+03  0.30563281364E+03  0.81084207972E+02 0.  0.
         24    2    4    4    0    0 -0.11760923543E+04  0.15292596031E+03 -0.31226534722E+03  0.12290191384E+04  0.79992627162E+02 0.  0.
         11    1    3    3    0    0  0.41648172743E+03 -0.18215784962E+03 -0.31635082502E+03  0.55381978653E+03  0.00000000000E+00 0.  1.
        -11    1    3    3    0    0  0.66860644216E+03 -0.20648350825E+03 -0.39288036290E+03  0.80251167794E+03  0.00000000000E+00 0. -1.
          2    1    6    6  502    0 -0.56672856744E+03  0.33405247812E+02 -0.14839504869E+03  0.58678639232E+03  0.00000000000E+00 0. -1.
          1    1    5    5  503    0  0.94038463130E+02  0.23742457158E+03 -0.13543229023E+03  0.28905979481E+03  0.00000000000E+00 0. -1.
         -2    1    5    5    0  503 -0.30342784595E+01 -0.17091740096E+01 -0.16202988354E+02  0.16573018831E+02  0.00000000000E+00 0.  1.
         -1    1    6    6    0  502 -0.60936378683E+03  0.11952071249E+03 -0.16387029853E+03  0.64223274609E+03  0.00000000000E+00 0.  1.
<mgrwt>
<rscale>  0 0.26422617E+04</rscale>
<asrwt>0</asrwt>
<pdfrwt beam="1">  1        2 0.13214243E+00 0.26422617E+04</pdfrwt>
<pdfrwt beam="2">  1       -2 0.31262424E+00 0.26422617E+04</pdfrwt>
<totfact> 0.73335892E-01</totfact>
</mgrwt>
</event>
<event>
12    1  0.2019083E-007  0.2371401E+04  0.7818608E-02  0.8450289E-01
          2   -1    0    0  501    0  0.00000000000E+00  0.00000000000E+00  0.11124169118E+04  0.11124169118E+04  0.00000000000E+00 0. -1.
         -2   -1    0    0    0  501 -0.00000000000E+00 -0.00000000000E+00 -0.12638121071E+04  0.12638121071E+04  0.00000000000E+00 0.  1.
         23    2    1    2    0    0 -0.57218237756E+03  0.71423324048E+03  0.36792819847E+03  0.99053346857E+03  0.90904335004E+02 0.  0.
        254    2    1    2    0    0  0.57218237756E+03 -0.71423324048E+03 -0.51932339378E+03  0.13856955504E+04  0.90162829147E+03 0.  0.
        -24    2    4    4    0    0  0.45038704010E+03 -0.84371519489E+03 -0.15437707258E+03  0.97205770329E+03  0.79750122358E+02 0.  0.
         24    2    4    4    0    0  0.12179533746E+03  0.12948195440E+03 -0.36494632119E+03  0.41363784708E+03  0.79440357747E+02 0.  0.
         13    1    3    3    0    0 -0.22172136795E+03  0.33652252978E+03  0.18877094647E+03  0.44501937967E+03  0.00000000000E+00 0. -1.
        -13    1    3    3    0    0 -0.35046100961E+03  0.37771071071E+03  0.17915725200E+03  0.54551408889E+03  0.00000000000E+00 0.  1.
          4    1    6    6  502    0  0.24498609355E+02 -0.76970768587E+01 -0.36380932476E+02  0.44530878055E+02  0.00000000000E+00 0. -1.
          1    1    5    5  503    0  0.19195599956E+03 -0.32518690916E+03 -0.96921102593E+02  0.38985552681E+03  0.00000000000E+00 0. -1.
         -2    1    5    5    0  503  0.25843104054E+03 -0.51852828572E+03 -0.57455969990E+02  0.58220217648E+03  0.00000000000E+00 0.  1.
         -1    1    6    6    0  502  0.97296728102E+02  0.13717903126E+03 -0.32856538872E+03  0.36910696902E+03  0.00000000000E+00 0.  1.
<mgrwt>
<rscale>  0 0.23714012E+04</rscale>
<asrwt>0</asrwt>
<pdfrwt beam="1">  1        2 0.17114106E+00 0.23714012E+04</pdfrwt>
<pdfrwt beam="2">  1       -2 0.19443263E+00 0.23714012E+04</pdfrwt>
<totfact> 0.27928730E+00</totfact>
</mgrwt>
</event>
<event>
12    1  0.2019083E-007  0.2670439E+04  0.7818608E-02  0.8344661E-01
         -2   -1    0    0    0  501 -0.00000000000E+00  0.00000000000E+00  0.44472327372E+03  0.44472327372E+03  0.00000000000E+00 0.  1.
          2   -1    0    0  501    0  0.00000000000E+00 -0.00000000000E+00 -0.40088110227E+04  0.40088110227E+04  0.00000000000E+00 0. -1.
         23    2    1    2    0    0 -0.86006621604E+03  0.36138811483E+03 -0.27921452194E+04  0.29452664018E+04  0.90575857141E+02 0.  0.
        254    2    1    2    0    0  0.86006621604E+03 -0.36138811483E+03 -0.77194252957E+03  0.15082678946E+04  0.89925608554E+03 0.  0.
        -24    2    4    4    0    0  0.84241961431E+03  0.53605876940E+02 -0.37310815049E+03  0.92674834341E+03  0.84311348182E+02 0.  0.
         24    2    4    4    0    0  0.17646601733E+02 -0.41499399177E+03 -0.39883437907E+03  0.58151955118E+03  0.81022902450E+02 0.  0.
         13    1    3    3    0    0 -0.47895983102E+03  0.15814676707E+03 -0.14365669979E+04  0.15225431551E+04  0.00000000000E+00 0.  1.
        -13    1    3    3    0    0 -0.38110638502E+03  0.20324134776E+03 -0.13555782215E+04  0.14227232467E+04  0.00000000000E+00 0. -1.
          2    1    6    6  502    0  0.17744763227E+02 -0.53461661978E+02 -0.89297734655E+02  0.10557988131E+03  0.00000000000E+00 0. -1.
          1    1    5    5  503    0 -0.41072436102E+00  0.32829445896E+01 -0.41894543979E+01  0.53383469193E+01  0.00000000000E+00 0. -1.
         -2    1    5    5    0  503  0.84283033867E+03  0.50322932351E+02 -0.36891869610E+03  0.92140999649E+03  0.00000000000E+00 0.  1.
         -3    1    6    6    0  502 -0.98161493867E-01 -0.36153232979E+03 -0.30953664442E+03  0.47593966987E+03  0.00000000000E+00 0.  1.
<mgrwt>
<rscale>  0 0.26704393E+04</rscale>
<asrwt>0</asrwt>
<pdfrwt beam="1">  1        2 0.61674016E+00 0.26704393E+04</pdfrwt>
<pdfrwt beam="2">  1       -2 0.68418965E-01 0.26704393E+04</pdfrwt>
<totfact> 0.57928086E-01</totfact>
</mgrwt>
</event>
<event>
12    1  0.2019083E-007  0.2510003E+04  0.7818608E-02  0.8399431E-01
          2   -1    0    0  501    0  0.00000000000E+00  0.00000000000E+00  0.11450037807E+04  0.11450037807E+04  0.00000000000E+00 0. -1.
         -2   -1    0    0    0  501 -0.00000000000E+00 -0.00000000000E+00 -0.13755664667E+04  0.13755664667E+04  0.00000000000E+00 0.  1.
         23    2    1    2    0    0  0.95068956468E+03 -0.32598648582E+03  0.33171773685E+03  0.10621623089E+04  0.89856975713E+02 0.  0.
        254    2    1    2    0    0 -0.95068956468E+03  0.32598648582E+03 -0.56228042282E+03  0.14584079386E+04  0.89482769517E+03 0.  0.
        -24    2    4    4    0    0 -0.25493764736E+03  0.43745333489E+03  0.58959230260E+02  0.51565547413E+03  0.77882943682E+02 0.  0.
         24    2    4    4    0    0 -0.69575191732E+03 -0.11146684907E+03 -0.62123965308E+03  0.94275246444E+03  0.79673795856E+02 0.  0.
         13    1    3    3    0    0  0.57948723139E+03 -0.15206531100E+03  0.19789290157E+03  0.63094445924E+03  0.00000000000E+00 0.  1.
        -13    1    3    3    0    0  0.37120233329E+03 -0.17392117481E+03  0.13382483528E+03  0.43121784962E+03  0.00000000000E+00 0. -1.
          4    1    6    6  502    0 -0.25466623790E+03 -0.75501797126E+02 -0.25674756016E+03  0.36942485534E+03  0.00000000000E+00 0. -1.
          1    1    5    5  503    0 -0.20791279750E+03  0.37799761501E+03  0.75773418714E+02  0.43800860643E+03  0.00000000000E+00 0. -1.
         -2    1    5    5    0  503 -0.47024849856E+02  0.59455719875E+02 -0.16814188454E+02  0.77646867697E+02  0.00000000000E+00 0.  1.
         -3    1    6    6    0  502 -0.44108567942E+03 -0.35965051946E+02 -0.36449209292E+03  0.57332760910E+03  0.00000000000E+00 0.  1.
<mgrwt>
<rscale>  0 0.25100030E+04</rscale>
<asrwt>0</asrwt>
<pdfrwt beam="1">  1        2 0.17615443E+00 0.25100030E+04</pdfrwt>
<pdfrwt beam="2">  1       -2 0.21162561E+00 0.25100030E+04</pdfrwt>
<totfact> 0.20364613E+00</totfact>
</mgrwt>
</event>
<event>
12    1  0.2019083E-007  0.1326675E+04  0.7818608E-02  0.9008675E-01
         -1   -1    0    0    0  501 -0.00000000000E+00  0.00000000000E+00  0.52061680287E+03  0.52061680287E+03  0.00000000000E+00 0.  1.
          1   -1    0    0  501    0  0.00000000000E+00 -0.00000000000E+00 -0.84518325052E+03  0.84518325052E+03  0.00000000000E+00 0. -1.
         23    2    1    2    0    0  0.33730918355E+03 -0.65899836527E+01 -0.18108416005E+03  0.39315470310E+03  0.89208936534E+02 0.  0.
        254    2    1    2    0    0 -0.33730918355E+03  0.65899836527E+01 -0.14348228760E+03  0.97264535028E+03  0.90090559848E+03 0.  0.
        -24    2    4    4    0    0 -0.61635669083E+03 -0.83706283052E+02  0.19467684874E+02  0.62712688055E+03  0.77503686400E+02 0.  0.
         24    2    4    4    0    0  0.27904750727E+03  0.90296266705E+02 -0.16294997247E+03  0.34551846973E+03  0.82519042040E+02 0.  0.
         13    1    3    3    0    0  0.22176713907E+03  0.37399636501E+02 -0.10736818338E+03  0.24921340972E+03  0.00000000000E+00 0. -1.
        -13    1    3    3    0    0  0.11554204448E+03 -0.43989620154E+02 -0.73715976667E+02  0.14394129338E+03  0.00000000000E+00 0.  1.
          2    1    6    6  502    0  0.14181332813E+03  0.88984632278E+02 -0.91550924412E+02  0.19081629013E+03  0.00000000000E+00 0. -1.
          3    1    5    5  503    0 -0.48427938695E+03 -0.97021264630E+02  0.92779329827E+01  0.49398960562E+03  0.00000000000E+00 0. -1.
         -4    1    5    5    0  503 -0.13207730387E+03  0.13314981578E+02  0.10189751892E+02  0.13313727493E+03  0.00000000000E+00 0.  1.
         -1    1    6    6    0  502  0.13723417914E+03  0.13116344269E+01 -0.71399048061E+02  0.15470217960E+03  0.00000000000E+00 0.  1.
<mgrwt>
<rscale>  0 0.13266749E+04</rscale>
<asrwt>0</asrwt>
<pdfrwt beam="1">  1        1 0.13002819E+00 0.13266749E+04</pdfrwt>
<pdfrwt beam="2">  1       -1 0.80094894E-01 0.13266749E+04</pdfrwt>
<totfact> 0.30856222E+01</totfact>
</mgrwt>
</event>
<event>
12    1  0.2019083E-007  0.3999767E+04  0.7818608E-02  0.8004593E-01
         -1   -1    0    0    0  501 -0.00000000000E+00  0.00000000000E+00  0.12308071886E+04  0.12308071886E+04  0.00000000000E+00 0.  1.
          1   -1    0    0  501    0  0.00000000000E+00 -0.00000000000E+00 -0.32495217327E+04  0.32495217327E+04  0.00000000000E+00 0. -1.
         23    2    1    2    0    0  0.16002164868E+04  0.62942742878E+03 -0.60071978342E+02  0.17229984212E+04  0.90792203382E+02 0.  0.
        254    2    1    2    0    0 -0.16002164868E+04 -0.62942742878E+03 -0.19586425658E+04  0.27573305001E+04  0.89984392746E+03 0.  0.
        -24    2    4    4    0    0 -0.10897157409E+04 -0.79261680818E+03 -0.10964997628E+04  0.17389334605E+04  0.76524831432E+02 0.  0.
         24    2    4    4    0    0 -0.51050074583E+03  0.16318937940E+03 -0.86214280305E+03  0.10183970396E+04  0.81243660448E+02 0.  0.
         11    1    3    3    0    0  0.12491478806E+04  0.45725127154E+03 -0.67407508497E+02  0.13319132574E+04  0.00000000000E+00 0. -1.
        -11    1    3    3    0    0  0.35106860614E+03  0.17217615724E+03  0.73355301548E+01  0.39108516380E+03  0.00000000000E+00 0.  1.
          2    1    6    6  502    0 -0.29484408189E+03  0.13307199750E+03 -0.48723419115E+03  0.58484044505E+03  0.00000000000E+00 0. -1.
          3    1    5    5  503    0 -0.10708529903E+04 -0.77015454589E+03 -0.10604565575E+04  0.16924633709E+04  0.00000000000E+00 0. -1.
         -4    1    5    5    0  503 -0.18862750613E+02 -0.22462262286E+02 -0.36043205265E+02  0.46470089665E+02  0.00000000000E+00 0.  1.
         -1    1    6    6    0  502 -0.21565666394E+03  0.30117381901E+02 -0.37490861190E+03  0.43355659454E+03  0.00000000000E+00 0.  1.
<mgrwt>
<rscale>  0 0.39997673E+04</rscale>
<asrwt>0</asrwt>
<pdfrwt beam="1">  1        1 0.49992641E+00 0.39997673E+04</pdfrwt>
<pdfrwt beam="2">  1       -1 0.18935496E+00 0.39997673E+04</pdfrwt>
<totfact> 0.54459026E-02</totfact>
</mgrwt>
</event>
<event>
12    1  0.2019083E-007  0.2844913E+04  0.7818608E-02  0.8289459E-01
          2   -1    0    0  501    0  0.00000000000E+00  0.00000000000E+00  0.97812846846E+03  0.97812846846E+03  0.00000000000E+00 0.  1.
         -2   -1    0    0    0  501 -0.00000000000E+00 -0.00000000000E+00 -0.20686269480E+04  0.20686269480E+04  0.00000000000E+00 0. -1.
         23    2    1    2    0    0 -0.36257819904E+03 -0.45826925586E+02  0.82073771846E+03  0.90284681501E+03  0.89212730871E+02 0.  0.
        254    2    1    2    0    0  0.36257819904E+03  0.45826925586E+02 -0.19112361980E+04  0.21439086014E+04  0.89997623817E+03 0.  0.
        -24    2    4    4    0    0  0.14190418805E+03 -0.41772754058E+03 -0.97573465663E+03  0.10738281204E+04  0.80097535927E+02 0.  0.
         24    2    4    4    0    0  0.22067401099E+03  0.46355446617E+03 -0.93550154132E+03  0.10700804810E+04  0.79557147858E+02 0.  0.
         13    1    3    3    0    0 -0.22475016562E+03 -0.89206100691E+01  0.40447627837E+03  0.46281019219E+03  0.00000000000E+00 0. -1.
        -13    1    3    3    0    0 -0.13782803342E+03 -0.36906315516E+02  0.41626144009E+03  0.44003662283E+03  0.00000000000E+00 0.  1.
          4    1    6    6  502    0  0.39174714680E+02  0.74194168068E+02 -0.22087068115E+03  0.23626952965E+03  0.00000000000E+00 0. -1.
          3    1    5    5  503    0  0.24589415476E+02 -0.56704385894E+02 -0.80924984825E+02  0.10182769713E+03  0.00000000000E+00 0. -1.
         -4    1    5    5    0  503  0.11731477257E+03 -0.36102315469E+03 -0.89480967181E+03  0.97200042327E+03  0.00000000000E+00 0.  1.
         -3    1    6    6    0  502  0.18149929631E+03  0.38936029810E+03 -0.71463086017E+03  0.83381095136E+03  0.00000000000E+00 0.  1.
<mgrwt>
<rscale>  0 0.28449133E+04</rscale>
<asrwt>0</asrwt>
<pdfrwt beam="1">  1        2 0.15048130E+00 0.28449133E+04</pdfrwt>
<pdfrwt beam="2">  1       -2 0.31825030E+00 0.28449133E+04</pdfrwt>
<totfact> 0.55378638E-01</totfact>
</mgrwt>
</event>
<event>
12    1  0.2019083E-007  0.4733053E+04  0.7818608E-02  0.7871060E-01
          2   -1    0    0  501    0  0.00000000000E+00  0.00000000000E+00  0.35743701916E+04  0.35743701916E+04  0.00000000000E+00 0.  1.
         -2   -1    0    0    0  501 -0.00000000000E+00 -0.00000000000E+00 -0.15668346886E+04  0.15668346886E+04  0.00000000000E+00 0. -1.
         23    2    1    2    0    0 -0.19416169580E+03  0.22713821582E+04  0.10016934832E+04  0.24917063028E+04  0.91295086857E+02 0.  0.
        254    2    1    2    0    0  0.19416169580E+03 -0.22713821582E+04  0.10058420198E+04  0.26494985774E+04  0.90069354963E+03 0.  0.
        -24    2    4    4    0    0  0.15992128057E+03 -0.49999357107E+03 -0.12581693968E+03  0.54572288695E+03  0.80094818411E+02 0.  0.
         24    2    4    4    0    0  0.34240415229E+02 -0.17713885871E+04  0.11316589595E+04  0.21037756904E+04  0.78931759754E+02 0.  0.
         13    1    3    3    0    0 -0.51659586014E+02  0.85770420540E+03  0.41982124144E+03  0.95633419449E+03  0.00000000000E+00 0. -1.
        -13    1    3    3    0    0 -0.14250210979E+03  0.14136779528E+04  0.58187224173E+03  0.15353721084E+04  0.00000000000E+00 0.  1.
          4    1    6    6  502    0  0.58338461237E+02 -0.11312661282E+04  0.71054195819E+03  0.13371747467E+04  0.00000000000E+00 0. -1.
          1    1    5    5  503    0  0.12114373505E+03 -0.45672134675E+03 -0.11859909906E+03  0.48717136555E+03  0.00000000000E+00 0. -1.
         -2    1    5    5    0  503  0.38777545519E+02 -0.43272224324E+02 -0.72178406187E+01  0.58551521394E+02  0.00000000000E+00 0.  1.
         -3    1    6    6    0  502 -0.24098046008E+02 -0.64012245893E+03  0.42111700127E+03  0.76660094378E+03  0.00000000000E+00 0.  1.
<mgrwt>
<rscale>  0 0.47330528E+04</rscale>
<asrwt>0</asrwt>
<pdfrwt beam="1">  1        2 0.54990311E+00 0.47330528E+04</pdfrwt>
<pdfrwt beam="2">  1       -2 0.24105149E+00 0.47330528E+04</pdfrwt>
<totfact> 0.38993927E-02</totfact>
</mgrwt>
</event>
<event>
12    1  0.2019083E-007  0.2764847E+04  0.7818608E-02  0.8314266E-01
          2   -1    0    0  501    0  0.00000000000E+00  0.00000000000E+00  0.26583060292E+04  0.26583060292E+04  0.00000000000E+00 0. -1.
         -2   -1    0    0    0  501 -0.00000000000E+00 -0.00000000000E+00 -0.71891460309E+03  0.71891460309E+03  0.00000000000E+00 0.  1.
         23    2    1    2    0    0 -0.94457729799E+03 -0.77152714085E+03  0.10955130979E+04  0.16418943918E+04  0.90486714296E+02 0.  0.
        254    2    1    2    0    0  0.94457729799E+03  0.77152714085E+03  0.84387832829E+03  0.17353262405E+04  0.90096954831E+03 0.  0.
        -24    2    4    4    0    0  0.85119628673E+03  0.96040914475E+03  0.76348823159E+03  0.14953376251E+04  0.78736836872E+02 0.  0.
         24    2    4    4    0    0  0.93381011256E+02 -0.18888200390E+03  0.80390096691E+02  0.23998861534E+03  0.82070355114E+02 0.  0.
         13    1    3    3    0    0 -0.24225269057E+03 -0.21999863353E+03  0.24624757386E+03  0.40954075802E+03  0.00000000000E+00 0.  1.
        -13    1    3    3    0    0 -0.70232460742E+03 -0.55152850732E+03  0.84926552400E+03  0.12323536338E+04  0.00000000000E+00 0. -1.
          4    1    6    6  502    0  0.39124618960E+02 -0.95736318957E+02 -0.33684806972E+01  0.10347717255E+03  0.00000000000E+00 0. -1.
          3    1    5    5  503    0  0.76040137763E+02  0.55680797115E+02  0.60994316077E+02  0.11226201634E+03  0.00000000000E+00 0. -1.
         -2    1    5    5    0  503  0.77515614897E+03  0.90472834764E+03  0.70249391552E+03  0.13830756088E+04  0.00000000000E+00 0.  1.
         -1    1    6    6    0  502  0.54256392296E+02 -0.93145684944E+02  0.83758577388E+02  0.13651144280E+03  0.00000000000E+00 0.  1.
<mgrwt>
<rscale>  0 0.27648472E+04</rscale>
<asrwt>0</asrwt>
<pdfrwt beam="1">  1        2 0.40897015E+00 0.27648472E+04</pdfrwt>
<pdfrwt beam="2">  1       -2 0.11060225E+00 0.27648472E+04</pdfrwt>
<totfact> 0.15902494E+00</totfact>
</mgrwt>
</event>
<event>
12    1  0.2019083E-007  0.1734010E+04  0.7818608E-02  0.8742201E-01
         -2   -1    0    0    0  501 -0.00000000000E+00  0.00000000000E+00  0.10085656749E+04  0.10085656749E+04  0.00000000000E+00 0.  1.
          2   -1    0    0  501    0  0.00000000000E+00 -0.00000000000E+00 -0.74531376607E+03  0.74531376607E+03  0.00000000000E+00 0. -1.
         23    2    1    2    0    0  0.46377670014E+03 -0.37109092620E+03 -0.11614324203E+03  0.61219853799E+03  0.92198124428E+02 0.  0.
        254    2    1    2    0    0 -0.46377670014E+03  0.37109092620E+03  0.37939515087E+03  0.11416809030E+04  0.89816329286E+03 0.  0.
        -24    2    4    4    0    0 -0.23265156954E+03 -0.17933486102E+03  0.44043291363E+03  0.53538331085E+03  0.79789679427E+02 0.  0.
         24    2    4    4    0    0 -0.23112513060E+03  0.55042578721E+03 -0.61037762763E+02  0.60629759214E+03  0.86508892746E+02 0.  0.
         11    1    3    3    0    0  0.35944001937E+03 -0.25687124723E+03 -0.11876081199E+03  0.45747578695E+03  0.00000000000E+00 0. -1.
        -11    1    3    3    0    0  0.10433668077E+03 -0.11421967896E+03  0.26175699619E+01  0.15472275104E+03  0.00000000000E+00 0.  1.
          2    1    6    6  502    0 -0.74864670550E+02  0.11855237972E+03 -0.43050489811E+02  0.14667218655E+03  0.00000000000E+00 0. -1.
          1    1    5    5  503    0 -0.53115904533E+02 -0.27089411591E+02  0.15077293245E+03  0.16213455120E+03  0.00000000000E+00 0. -1.
         -2    1    5    5    0  503 -0.17953566501E+03 -0.15224544943E+03  0.28965998119E+03  0.37324875965E+03  0.00000000000E+00 0.  1.
         -1    1    6    6    0  502 -0.15626046005E+03  0.43187340749E+03 -0.17987272953E+02  0.45962540559E+03  0.00000000000E+00 0.  1.
<mgrwt>
<rscale>  0 0.17340102E+04</rscale>
<asrwt>0</asrwt>
<pdfrwt beam="1">  1        2 0.11466366E+00 0.17340102E+04</pdfrwt>
<pdfrwt beam="2">  1       -2 0.15516395E+00 0.17340102E+04</pdfrwt>
<totfact> 0.98164842E+00</totfact>
</mgrwt>
</event>
<event>
12    1  0.2019083E-007  0.1234405E+04  0.7818608E-02  0.9083264E-01
         -1   -1    0    0    0  501 -0.00000000000E+00  0.00000000000E+00  0.18078848522E+03  0.18078848522E+03  0.00000000000E+00 0.  1.
          1   -1    0    0  501    0  0.00000000000E+00 -0.00000000000E+00 -0.21070967652E+04  0.21070967652E+04  0.00000000000E+00 0. -1.
         23    2    1    2    0    0 -0.15372587120E+03  0.13028949934E+03 -0.79852130552E+03  0.82841880211E+03  0.89635033342E+02 0.  0.
        254    2    1    2    0    0  0.15372587120E+03 -0.13028949934E+03 -0.11277869744E+04  0.14594664483E+04  0.90417468272E+03 0.  0.
        -24    2    4    4    0    0  0.12496360388E+03 -0.23157902994E+03 -0.12496117471E+04  0.12795221418E+04  0.80016520246E+02 0.  0.
         24    2    4    4    0    0  0.28762267321E+02  0.10128953061E+03  0.12182477267E+03  0.17994430647E+03  0.80323353790E+02 0.  0.
         11    1    3    3    0    0 -0.59226021957E+02  0.43325947312E+02 -0.14627679407E+03  0.16365133629E+03  0.00000000000E+00 0.  1.
        -11    1    3    3    0    0 -0.94499849240E+02  0.86963552028E+02 -0.65224451145E+03  0.66476746581E+03  0.00000000000E+00 0. -1.
          2    1    6    6  502    0 -0.93062159487E+01  0.21650094839E+01 -0.78332537902E+01  0.12355273623E+02  0.00000000000E+00 0. -1.
          3    1    5    5  503    0  0.59974898040E+02 -0.39018159483E+02 -0.35030538694E+03  0.35753778722E+03  0.00000000000E+00 0. -1.
         -4    1    5    5    0  503  0.64988705837E+02 -0.19256087046E+03 -0.89930636015E+03  0.92198435460E+03  0.00000000000E+00 0.  1.
         -1    1    6    6    0  502  0.38068483270E+02  0.99124521121E+02  0.12965802646E+03  0.16758903285E+03  0.00000000000E+00 0.  1.
<mgrwt>
<rscale>  0 0.12344048E+04</rscale>
<asrwt>0</asrwt>
<pdfrwt beam="1">  1        1 0.32416873E+00 0.12344048E+04</pdfrwt>
<pdfrwt beam="2">  1       -1 0.27813614E-01 0.12344048E+04</pdfrwt>
<totfact> 0.29050929E+01</totfact>
</mgrwt>
</event>
<event>
12    1  0.2019083E-007  0.2736672E+04  0.7818608E-02  0.8323203E-01
          1   -1    0    0  501    0  0.00000000000E+00  0.00000000000E+00  0.13042038233E+04  0.13042038233E+04  0.00000000000E+00 0. -1.
         -1   -1    0    0    0  501 -0.00000000000E+00 -0.00000000000E+00 -0.14356215696E+04  0.14356215696E+04  0.00000000000E+00 0.  1.
         23    2    1    2    0    0 -0.10894717130E+04  0.41357591863E+03 -0.41658339977E+03  0.12408985948E+04  0.91071069887E+02 0.  0.
        254    2    1    2    0    0  0.10894717130E+04 -0.41357591863E+03  0.28516565344E+03  0.14989267981E+04  0.89859247845E+03 0.  0.
        -24    2    4    4    0    0  0.49735416267E+03 -0.49380298327E+03  0.49489853410E+03  0.86163394268E+03  0.79283937323E+02 0.  0.
         24    2    4    4    0    0  0.59211755032E+03  0.80227064635E+02 -0.20973288066E+03  0.63729285544E+03  0.71517320009E+02 0.  0.
         13    1    3    3    0    0 -0.57384890832E+03  0.26163486171E+03 -0.20408051066E+03  0.66287572386E+03  0.00000000000E+00 0. -1.
        -13    1    3    3    0    0 -0.51562280466E+03  0.15194105692E+03 -0.21250288911E+03  0.57802287096E+03  0.00000000000E+00 0.  1.
          2    1    6    6  502    0  0.58248433717E+03  0.87412840896E+02 -0.20071057957E+03  0.62226501151E+03  0.00000000000E+00 0. -1.
          1    1    5    5  503    0  0.62393030398E+02 -0.96619747921E+02  0.10077117064E+03  0.15291531893E+03  0.00000000000E+00 0. -1.
         -2    1    5    5    0  503  0.43496113227E+03 -0.39718323535E+03  0.39412736346E+03  0.70871862375E+03  0.00000000000E+00 0.  1.
         -1    1    6    6    0  502  0.96332131559E+01 -0.71857762610E+01 -0.90223010856E+01  0.15027843926E+02  0.00000000000E+00 0.  1.
<mgrwt>
<rscale>  0 0.27366718E+04</rscale>
<asrwt>0</asrwt>
<pdfrwt beam="1">  1        1 0.20064674E+00 0.27366718E+04</pdfrwt>
<pdfrwt beam="2">  1       -1 0.22086486E+00 0.27366718E+04</pdfrwt>
<totfact> 0.84911017E-01</totfact>
</mgrwt>
</event>
<event>
12    1  0.2019083E-007  0.2778959E+04  0.7818608E-02  0.8309831E-01
          2   -1    0    0  501    0  0.00000000000E+00  0.00000000000E+00  0.28515607112E+04  0.28515607112E+04  0.00000000000E+00 0. -1.
         -2   -1    0    0    0  501 -0.00000000000E+00 -0.00000000000E+00 -0.67705146313E+03  0.67705146313E+03  0.00000000000E+00 0.  1.
         23    2    1    2    0    0  0.59396505349E+03  0.78973923958E+03  0.19276313802E+04  0.21680634506E+04  0.90850628105E+02 0.  0.
        254    2    1    2    0    0 -0.59396505349E+03 -0.78973923958E+03  0.24687786781E+03  0.13605487237E+04  0.90203192657E+03 0.  0.
        -24    2    4    4    0    0  0.10091154603E+03 -0.25927617024E+03 -0.22229756651E+03  0.36515372469E+03  0.80707880680E+02 0.  0.
         24    2    4    4    0    0 -0.69487659952E+03 -0.53046306934E+03  0.46917543431E+03  0.99539499897E+03  0.80256210406E+02 0.  0.
         13    1    3    3    0    0  0.17642584197E+03  0.28588093564E+03  0.72066804395E+03  0.79512037871E+03  0.00000000000E+00 0. -1.
        -13    1    3    3    0    0  0.41753921152E+03  0.50385830394E+03  0.12069633363E+04  0.13729430719E+04  0.00000000000E+00 0.  1.
          2    1    6    6  502    0 -0.22677800777E+03 -0.21380873300E+03  0.19043096917E+03  0.36524839922E+03  0.00000000000E+00 0. -1.
          3    1    5    5  503    0 -0.11079416960E+02 -0.10645260851E+02 -0.40726238950E+01  0.15895323971E+02  0.00000000000E+00 0. -1.
         -2    1    5    5    0  503  0.11199096299E+03 -0.24863090939E+03 -0.21822494261E+03  0.34925840072E+03  0.00000000000E+00 0.  1.
         -1    1    6    6    0  502 -0.46809859175E+03 -0.31665433634E+03  0.27874446515E+03  0.63014659975E+03  0.00000000000E+00 0.  1.
<mgrwt>
<rscale>  0 0.27789591E+04</rscale>
<asrwt>0</asrwt>
<pdfrwt beam="1">  1        2 0.43870164E+00 0.27789591E+04</pdfrwt>
<pdfrwt beam="2">  1       -2 0.10416176E+00 0.27789591E+04</pdfrwt>
<totfact> 0.14046884E+00</totfact>
</mgrwt>
</event>
<event>
12    1  0.2019083E-007  0.1636197E+04  0.7818608E-02  0.8798614E-01
         -2   -1    0    0    0  501 -0.00000000000E+00  0.00000000000E+00  0.15589755141E+03  0.15589755141E+03  0.00000000000E+00 0.  1.
          2   -1    0    0  501    0  0.00000000000E+00 -0.00000000000E+00 -0.42931081887E+04  0.42931081887E+04  0.00000000000E+00 0. -1.
         23    2    1    2    0    0  0.42592873410E+03 -0.22298640956E+03 -0.22903829702E+04  0.23420392594E+04  0.90307899981E+02 0.  0.
        254    2    1    2    0    0 -0.42592873410E+03  0.22298640956E+03 -0.18468276671E+04  0.21069664807E+04  0.89297093665E+03 0.  0.
        -24    2    4    4    0    0 -0.60003681919E+02  0.81904944215E+02  0.72475837713E+02  0.14632969414E+03  0.76490330137E+02 0.  0.
         24    2    4    4    0    0 -0.36592505218E+03  0.14108146535E+03 -0.19193035048E+04  0.19606367866E+04  0.81028030953E+02 0.  0.
         13    1    3    3    0    0  0.18800817138E+03 -0.49198155564E+02 -0.87731823934E+03  0.89858490088E+03  0.00000000000E+00 0. -1.
        -13    1    3    3    0    0  0.23792056272E+03 -0.17378825400E+03 -0.14130647309E+04  0.14434543585E+04  0.00000000000E+00 0.  1.
          4    1    6    6  502    0 -0.37015791903E+03  0.14022425080E+03 -0.19052979007E+04  0.19459804254E+04  0.00000000000E+00 0. -1.
          3    1    5    5  503    0  0.15250765902E+02  0.34863712092E+02  0.26578233994E+02  0.46416234269E+02  0.00000000000E+00 0. -1.
         -4    1    5    5    0  503 -0.75254447821E+02  0.47041232123E+02  0.45897603719E+02  0.99913459872E+02  0.00000000000E+00 0.  1.
         -3    1    6    6    0  502  0.42328668427E+01  0.85721454934E+00 -0.14005604052E+02  0.14656361190E+02  0.00000000000E+00 0.  1.
<mgrwt>
<rscale>  0 0.16361969E+04</rscale>
<asrwt>0</asrwt>
<pdfrwt beam="1">  1        2 0.66047807E+00 0.16361969E+04</pdfrwt>
<pdfrwt beam="2">  1       -2 0.23984243E-01 0.16361969E+04</pdfrwt>
<totfact> 0.29164961E+00</totfact>
</mgrwt>
</event>
<event>
12    1  0.2019083E-007  0.1204281E+04  0.7818608E-02  0.9109117E-01
          2   -1    0    0  501    0  0.00000000000E+00  0.00000000000E+00  0.70319738974E+03  0.70319738974E+03  0.00000000000E+00 0. -1.
         -2   -1    0    0    0  501 -0.00000000000E+00 -0.00000000000E+00 -0.51560677707E+03  0.51560677707E+03  0.00000000000E+00 0.  1.
         23    2    1    2    0    0  0.52647287162E+02  0.19928882844E+03  0.19187709638E+03  0.29569305411E+03  0.90165337862E+02 0.  0.
        254    2    1    2    0    0 -0.52647287162E+02 -0.19928882844E+03 -0.42864837016E+01  0.92311111270E+03  0.89979329763E+03 0.  0.
        -24    2    4    4    0    0 -0.43275503060E+03 -0.30193505498E+02  0.15866126843E+03  0.46928191176E+03  0.82846546832E+02 0.  0.
         24    2    4    4    0    0  0.38010774344E+03 -0.16909532294E+03 -0.16294775214E+03  0.45382920094E+03  0.79585481321E+02 0.  0.
         13    1    3    3    0    0  0.37831227515E+02  0.32087520902E+02  0.79447715139E+02  0.93662960735E+02  0.00000000000E+00 0. -1.
        -13    1    3    3    0    0  0.14816059647E+02  0.16720130753E+03  0.11242938124E+03  0.20203009338E+03  0.00000000000E+00 0.  1.
          4    1    6    6  502    0  0.33503503584E+03 -0.11855668284E+03 -0.12902144031E+03  0.37808820974E+03  0.00000000000E+00 0. -1.
          3    1    5    5  503    0 -0.29663200929E+03 -0.45411788854E+02  0.76977524446E+02  0.30980367779E+03  0.00000000000E+00 0. -1.
         -4    1    5    5    0  503 -0.13612302131E+03  0.15218283357E+02  0.81683743989E+02  0.15947823397E+03  0.00000000000E+00 0.  1.
         -3    1    6    6    0  502  0.45072707599E+02 -0.50538640102E+02 -0.33926311822E+02  0.75740991197E+02  0.00000000000E+00 0.  1.
<mgrwt>
<rscale>  0 0.12042813E+04</rscale>
<asrwt>0</asrwt>
<pdfrwt beam="1">  1        2 0.10818421E+00 0.12042813E+04</pdfrwt>
<pdfrwt beam="2">  1       -2 0.79324119E-01 0.12042813E+04</pdfrwt>
<totfact> 0.56647404E+01</totfact>
</mgrwt>
</event>
<event>
12    1  0.2019083E-007  0.1801033E+04  0.7818608E-02  0.8705750E-01
         -2   -1    0    0    0  501 -0.00000000000E+00  0.00000000000E+00  0.39101446890E+03  0.39101446890E+03  0.00000000000E+00 0.  1.
          2   -1    0    0  501    0  0.00000000000E+00 -0.00000000000E+00 -0.20739134798E+04  0.20739134798E+04  0.00000000000E+00 0. -1.
         23    2    1    2    0    0  0.26305644632E+03  0.61441840183E+03 -0.55762077689E+03  0.87514078886E+03  0.90674158685E+02 0.  0.
        254    2    1    2    0    0 -0.26305644632E+03 -0.61441840183E+03 -0.11252782341E+04  0.15897871599E+04  0.90247628402E+03 0.  0.
        -24    2    4    4    0    0 -0.67912106121E+02 -0.62497999893E+01  0.13591432696E+03  0.17395398597E+03  0.84475859303E+02 0.  0.
         24    2    4    4    0    0 -0.19514434020E+03 -0.60816860184E+03 -0.12611925610E+04  0.14158331739E+04  0.77630783941E+02 0.  0.
         13    1    3    3    0    0  0.13643789685E+03  0.27763241538E+03 -0.20333206316E+03  0.37018777084E+03  0.00000000000E+00 0.  1.
        -13    1    3    3    0    0  0.12661854948E+03  0.33678598644E+03 -0.35428871373E+03  0.50495301803E+03  0.00000000000E+00 0. -1.
          4    1    6    6  502    0 -0.89595221049E+02 -0.38422961544E+03 -0.73045194914E+03  0.83019259875E+03  0.00000000000E+00 0. -1.
          1    1    5    5  503    0 -0.37538072655E+02  0.10439377040E+02  0.59086297679E+01  0.39408113344E+02  0.00000000000E+00 0. -1.
         -2    1    5    5    0  503 -0.30374033466E+02 -0.16689177029E+02  0.13000569719E+03  0.13454587263E+03  0.00000000000E+00 0.  1.
         -3    1    6    6    0  502 -0.10554911915E+03 -0.22393898640E+03 -0.53074061187E+03  0.58564057516E+03  0.00000000000E+00 0.  1.
<mgrwt>
<rscale>  0 0.18010332E+04</rscale>
<asrwt>0</asrwt>
<pdfrwt beam="1">  1        2 0.31906363E+00 0.18010332E+04</pdfrwt>
<pdfrwt beam="2">  1       -2 0.60156069E-01 0.18010332E+04</pdfrwt>
<totfact> 0.14775879E+01</totfact>
</mgrwt>
</event>
<event>
12    1  0.2019083E-007  0.1438096E+04  0.7818608E-02  0.8926695E-01
         -1   -1    0    0    0  501 -0.00000000000E+00  0.00000000000E+00  0.24595909660E+03  0.24595909660E+03  0.00000000000E+00 0.  1.
          1   -1    0    0  501    0  0.00000000000E+00 -0.00000000000E+00 -0.21020989518E+04  0.21020989518E+04  0.00000000000E+00 0. -1.
         23    2    1    2    0    0  0.40599177338E+03 -0.13678414115E+03 -0.64076890844E+03  0.77616445602E+03  0.91144102558E+02 0.  0.
        254    2    1    2    0    0 -0.40599177338E+03  0.13678414115E+03 -0.12153709467E+04  0.15718935923E+04  0.90010205323E+03 0.  0.
        -24    2    4    4    0    0 -0.23682076262E+03  0.10920861699E+03 -0.13248457082E+04  0.13525475839E+04  0.78474330498E+02 0.  0.
         24    2    4    4    0    0 -0.16917101076E+03  0.27575524155E+02  0.10947476150E+03  0.21934600843E+03  0.82150517920E+02 0.  0.
         13    1    3    3    0    0  0.11547430276E+03 -0.79081241250E+02 -0.17327703968E+03  0.22273996004E+03  0.00000000000E+00 0.  1.
        -13    1    3    3    0    0  0.29051747062E+03 -0.57702899899E+02 -0.46749186876E+03  0.55342449598E+03  0.00000000000E+00 0. -1.
          2    1    6    6  502    0 -0.12158508634E+03  0.56791499939E+02  0.75250924597E+02  0.15385353210E+03  0.00000000000E+00 0. -1.
          3    1    5    5  503    0 -0.13628362930E+03  0.29112105601E+02 -0.80980634311E+03  0.82170983665E+03  0.00000000000E+00 0. -1.
         -4    1    5    5    0  503 -0.10053713332E+03  0.80096511393E+02 -0.51503936510E+03  0.53083774726E+03  0.00000000000E+00 0.  1.
         -1    1    6    6    0  502 -0.47585924422E+02 -0.29215975784E+02  0.34223836906E+02  0.65492476336E+02  0.00000000000E+00 0.  1.
<mgrwt>
<rscale>  0 0.14380965E+04</rscale>
<asrwt>0</asrwt>
<pdfrwt beam="1">  1        1 0.32339984E+00 0.14380965E+04</pdfrwt>
<pdfrwt beam="2">  1       -1 0.37839861E-01 0.14380965E+04</pdfrwt>
<totfact> 0.16663161E+01</totfact>
</mgrwt>
</event>
<event>
12    1  0.2019083E-007  0.2593691E+04  0.7818608E-02  0.8370347E-01
          2   -1    0    0  501    0  0.00000000000E+00  0.00000000000E+00  0.25256358824E+04  0.25256358824E+04  0.00000000000E+00 0. -1.
         -2   -1    0    0    0  501 -0.00000000000E+00 -0.00000000000E+00 -0.66589503160E+03  0.66589503160E+03  0.00000000000E+00 0.  1.
         23    2    1    2    0    0  0.37204332838E+03 -0.97434725315E+03  0.13828776363E+04  0.17344792126E+04  0.91097607701E+02 0.  0.
        254    2    1    2    0    0 -0.37204332838E+03  0.97434725315E+03  0.47686321452E+03  0.14570517014E+04  0.89879493062E+03 0.  0.
        -24    2    4    4    0    0  0.19293482778E+03  0.50902670104E+03  0.46617837206E+03  0.72091571329E+03  0.77879143230E+02 0.  0.
         24    2    4    4    0    0 -0.56497815615E+03  0.46532055211E+03  0.10684842461E+02  0.73613598812E+03  0.77836328256E+02 0.  0.
         11    1    3    3    0    0  0.16350556526E+03 -0.31231933978E+03  0.44608096378E+03  0.56856456636E+03  0.00000000000E+00 0.  1.
        -11    1    3    3    0    0  0.20853776312E+03 -0.66202791337E+03  0.93679667252E+03  0.11659146463E+04  0.00000000000E+00 0. -1.
          2    1    6    6  502    0 -0.42115002498E+02  0.47072679243E+02 -0.18864098646E+02  0.65919380945E+02  0.00000000000E+00 0. -1.
          1    1    5    5  503    0  0.10258223570E+02  0.14846569955E+01  0.67915649544E+01  0.12391961577E+02  0.00000000000E+00 0. -1.
         -2    1    5    5    0  503  0.18267660421E+03  0.50754204404E+03  0.45938680711E+03  0.70852375171E+03  0.00000000000E+00 0.  1.
         -1    1    6    6    0  502 -0.52286315366E+03  0.41824787287E+03  0.29548941107E+02  0.67021660717E+03  0.00000000000E+00 0.  1.
<mgrwt>
<rscale>  0 0.25936911E+04</rscale>
<asrwt>0</asrwt>
<pdfrwt beam="1">  1        2 0.38855936E+00 0.25936911E+04</pdfrwt>
<pdfrwt beam="2">  1       -2 0.10244539E+00 0.25936911E+04</pdfrwt>
<totfact> 0.23208964E+00</totfact>
</mgrwt>
</event>
<event>
12    1  0.2019083E-007  0.3440663E+04  0.7818608E-02  0.8127998E-01
          2   -1    0    0  501    0  0.00000000000E+00  0.00000000000E+00  0.15654104386E+04  0.15654104386E+04  0.00000000000E+00 0. -1.
         -2   -1    0    0    0  501 -0.00000000000E+00 -0.00000000000E+00 -0.18905842367E+04  0.18905842367E+04  0.00000000000E+00 0.  1.
         23    2    1    2    0    0 -0.15305370086E+04 -0.33944489987E+03 -0.48241762002E+03  0.16429208299E+04  0.93250837170E+02 0.  0.
        254    2    1    2    0    0  0.15305370086E+04  0.33944489987E+03  0.15724382187E+03  0.18130738454E+04  0.89707567939E+03 0.  0.
        -24    2    4    4    0    0  0.95709926203E+03 -0.80453786892E+02  0.41982804478E+03  0.10511766171E+04  0.78771086146E+02 0.  0.
         24    2    4    4    0    0  0.57343774654E+03  0.41989868676E+03 -0.26258422291E+03  0.76189722822E+03  0.79944705636E+02 0.  0.
         13    1    3    3    0    0 -0.10561797955E+04 -0.23634310799E+03 -0.37778346003E+03  0.11463394644E+04  0.00000000000E+00 0.  1.
        -13    1    3    3    0    0 -0.47435721310E+03 -0.10310179188E+03 -0.10463415999E+03  0.49658136549E+03  0.00000000000E+00 0. -1.
          2    1    6    6  502    0  0.23494252594E+03  0.21846206219E+03 -0.13209301878E+03  0.34694701141E+03  0.00000000000E+00 0. -1.
          1    1    5    5  503    0  0.64637599832E+03 -0.52110087469E+02  0.24277315992E+03  0.69242775767E+03  0.00000000000E+00 0. -1.
         -2    1    5    5    0  503  0.31072326371E+03 -0.28343699423E+02  0.17705488486E+03  0.35874885946E+03  0.00000000000E+00 0.  1.
         -1    1    6    6    0  502  0.33849522059E+03  0.20143662457E+03 -0.13049120413E+03  0.41495021682E+03  0.00000000000E+00 0.  1.
<mgrwt>
<rscale>  0 0.34406629E+04</rscale>
<asrwt>0</asrwt>
<pdfrwt beam="1">  1        2 0.24083238E+00 0.34406629E+04</pdfrwt>
<pdfrwt beam="2">  1       -2 0.29085911E+00 0.34406629E+04</pdfrwt>
<totfact> 0.34805506E-01</totfact>
</mgrwt>
</event>
<event>
12    1  0.2019083E-007  0.1222804E+04  0.7818608E-02  0.9093128E-01
          1   -1    0    0  501    0  0.00000000000E+00  0.00000000000E+00  0.65651754140E+03  0.65651754140E+03  0.00000000000E+00 0. -1.
         -1   -1    0    0    0  501 -0.00000000000E+00 -0.00000000000E+00 -0.56938635546E+03  0.56938635546E+03  0.00000000000E+00 0.  1.
         23    2    1    2    0    0 -0.21868109091E+03  0.12964441359E+03 -0.66675598934E+02  0.27839101983E+03  0.91797771921E+02 0.  0.
        254    2    1    2    0    0  0.21868109091E+03 -0.12964441359E+03  0.15380678488E+03  0.94751287704E+03  0.89971941826E+03 0.  0.
        -24    2    4    4    0    0  0.11897674532E+03  0.37025538735E+03 -0.32829484246E+02  0.39831718334E+03  0.79588225991E+02 0.  0.
         24    2    4    4    0    0  0.99704345593E+02 -0.49989980094E+03  0.18663626912E+03  0.54919569370E+03  0.83318938517E+02 0.  0.
         13    1    3    3    0    0 -0.13642450672E+02  0.14934361119E+02  0.19542263606E+02  0.28125640778E+02  0.00000000000E+00 0. -1.
        -13    1    3    3    0    0 -0.20503864024E+03  0.11471005247E+03 -0.86217862540E+02  0.25026537905E+03  0.00000000000E+00 0.  1.
          4    1    6    6  502    0  0.37722925670E+02 -0.15581744308E+03  0.10017641301E+03  0.18904340351E+03  0.00000000000E+00 0. -1.
          3    1    5    5  503    0  0.84799585605E+01  0.93508335949E+02 -0.35321240705E+02  0.10031604375E+03  0.00000000000E+00 0. -1.
         -4    1    5    5    0  503  0.11049678676E+03  0.27674705141E+03  0.24917564586E+01  0.29800113959E+03  0.00000000000E+00 0.  1.
         -3    1    6    6    0  502  0.61981419922E+02 -0.34408235787E+03  0.86459856116E+02  0.36015229019E+03  0.00000000000E+00 0.  1.
<mgrwt>
<rscale>  0 0.12228035E+04</rscale>
<asrwt>0</asrwt>
<pdfrwt beam="1">  1        1 0.10100270E+00 0.12228035E+04</pdfrwt>
<pdfrwt beam="2">  1       -1 0.87597901E-01 0.12228035E+04</pdfrwt>
<totfact> 0.38034638E+01</totfact>
</mgrwt>
</event>
<event>
12    1  0.2019083E-007  0.1714827E+04  0.7818608E-02  0.8752953E-01
          2   -1    0    0  501    0  0.00000000000E+00  0.00000000000E+00  0.28855073993E+04  0.28855073993E+04  0.00000000000E+00 0.  1.
         -2   -1    0    0    0  501 -0.00000000000E+00 -0.00000000000E+00 -0.25477603086E+03  0.25477603086E+03  0.00000000000E+00 0. -1.
         23    2    1    2    0    0 -0.48189904786E+02  0.54741876043E+03  0.14680728268E+04  0.15701421344E+04  0.90105111915E+02 0.  0.
        254    2    1    2    0    0  0.48189904786E+02 -0.54741876043E+03  0.11626585417E+04  0.15701412958E+04  0.90087692727E+03 0.  0.
        -24    2    4    4    0    0  0.29331116453E+03  0.61582934958E+02  0.69226718822E+03  0.75853425594E+03  0.79476162670E+02 0.  0.
         24    2    4    4    0    0 -0.24512125974E+03 -0.60900169539E+03  0.47039135344E+03  0.81160703986E+03  0.80439199364E+02 0.  0.
         11    1    3    3    0    0 -0.54510688210E+02  0.48046927059E+03  0.13536066131E+04  0.14373840816E+04  0.00000000000E+00 0. -1.
        -11    1    3    3    0    0  0.63207834241E+01  0.66949489842E+02  0.11446621378E+03  0.13275805282E+03  0.00000000000E+00 0.  1.
          4    1    6    6  502    0  0.52363357244E+01 -0.39249415261E+01  0.53114792264E+01  0.84282969439E+01  0.00000000000E+00 0. -1.
          1    1    5    5  503    0  0.12624730496E+02  0.16946554043E+02  0.22031484502E+02  0.30527951510E+02  0.00000000000E+00 0. -1.
         -2    1    5    5    0  503  0.28068643404E+03  0.44636380915E+02  0.67023570372E+03  0.72800630443E+03  0.00000000000E+00 0.  1.
         -3    1    6    6    0  502 -0.25035759547E+03 -0.60507675386E+03  0.46507987421E+03  0.80317874291E+03  0.00000000000E+00 0.  1.
<mgrwt>
<rscale>  0 0.17148272E+04</rscale>
<asrwt>0</asrwt>
<pdfrwt beam="1">  1        2 0.44392419E+00 0.17148272E+04</pdfrwt>
<pdfrwt beam="2">  1       -2 0.39196314E-01 0.17148272E+04</pdfrwt>
<totfact> 0.12040619E+01</totfact>
</mgrwt>
</event>
<event>
12    1  0.2019083E-007  0.1627074E+04  0.7818608E-02  0.8804086E-01
          2   -1    0    0  501    0  0.00000000000E+00  0.00000000000E+00  0.20969111560E+04  0.20969111560E+04  0.00000000000E+00 0. -1.
         -2   -1    0    0    0  501 -0.00000000000E+00 -0.00000000000E+00 -0.31562748451E+03  0.31562748451E+03  0.00000000000E+00 0.  1.
         23    2    1    2    0    0  0.43490401441E+03 -0.18131082171E+02  0.11363904285E+04  0.12203287355E+04  0.91371652113E+02 0.  0.
        254    2    1    2    0    0 -0.43490401441E+03  0.18131082171E+02  0.64489324301E+03  0.11922099050E+04  0.90333101623E+03 0.  0.
        -24    2    4    4    0    0 -0.30563210219E+03  0.19009887097E+01  0.86632073570E+03  0.92217610020E+03  0.80514265976E+02 0.  0.
         24    2    4    4    0    0 -0.12927191222E+03  0.16230093461E+02 -0.22142749268E+03  0.27003380484E+03  0.83147327177E+02 0.  0.
         13    1    3    3    0    0  0.27297380064E+03  0.22348139990E+02  0.62469719942E+03  0.68210023175E+03  0.00000000000E+00 0.  1.
        -13    1    3    3    0    0  0.16193021377E+03 -0.40479222161E+02  0.51169322904E+03  0.53822850371E+03  0.00000000000E+00 0. -1.
          4    1    6    6  502    0 -0.37571282504E+02 -0.20135958035E+02 -0.22996957016E+02  0.48434678764E+02  0.00000000000E+00 0. -1.
          1    1    5    5  503    0 -0.13970378352E+03  0.17466492844E+02  0.50525142933E+03  0.52450093646E+03  0.00000000000E+00 0. -1.
         -2    1    5    5    0  503 -0.16592831867E+03 -0.15565504134E+02  0.36106930636E+03  0.39767516374E+03  0.00000000000E+00 0.  1.
         -3    1    6    6    0  502 -0.91700629717E+02  0.36366051497E+02 -0.19843053567E+03  0.22159912607E+03  0.00000000000E+00 0.  1.
<mgrwt>
<rscale>  0 0.16270744E+04</rscale>
<asrwt>0</asrwt>
<pdfrwt beam="1">  1        2 0.32260171E+00 0.16270744E+04</pdfrwt>
<pdfrwt beam="2">  1       -2 0.48558076E-01 0.16270744E+04</pdfrwt>
<totfact> 0.22684779E+01</totfact>
</mgrwt>
</event>
<event>
12    1  0.2019083E-007  0.2228927E+04  0.7818608E-02  0.8506484E-01
          2   -1    0    0  501    0  0.00000000000E+00  0.00000000000E+00  0.23742468358E+04  0.23742468358E+04  0.00000000000E+00 0. -1.
         -2   -1    0    0    0  501 -0.00000000000E+00 -0.00000000000E+00 -0.52312525545E+03  0.52312525545E+03  0.00000000000E+00 0.  1.
         23    2    1    2    0    0 -0.44579588223E+03  0.58457682231E+03  0.32117738957E+02  0.74131259475E+03  0.89715016451E+02 0.  0.
        254    2    1    2    0    0  0.44579588223E+03 -0.58457682231E+03  0.18190038414E+04  0.21560594965E+04  0.89406574015E+03 0.  0.
        -24    2    4    4    0    0 -0.97592177553E+02 -0.59547683995E+03  0.95002487870E+03  0.11281196092E+04  0.77393038698E+02 0.  0.
         24    2    4    4    0    0  0.54338805979E+03  0.10900017637E+02  0.86897896274E+03  0.10279398874E+04  0.78400130477E+02 0.  0.
         11    1    3    3    0    0 -0.11804002351E+03  0.20883499927E+03  0.36762987087E+02  0.24268708513E+03  0.00000000000E+00 0. -1.
        -11    1    3    3    0    0 -0.32775585872E+03  0.37574182305E+03 -0.46452481298E+01  0.49862550962E+03  0.00000000000E+00 0.  1.
          4    1    6    6  502    0  0.40953656246E+03 -0.18152912081E+02  0.68962858399E+03  0.80227009670E+03  0.00000000000E+00 0. -1.
          1    1    5    5  503    0 -0.95852352346E+02 -0.46322944360E+03  0.78658337135E+03  0.91786850417E+03  0.00000000000E+00 0. -1.
         -2    1    5    5    0  503 -0.17398252070E+01 -0.13224739636E+03  0.16344150735E+03  0.21025110501E+03  0.00000000000E+00 0.  1.
         -3    1    6    6    0  502  0.13385149733E+03  0.29052929719E+02  0.17935037875E+03  0.22566979067E+03  0.00000000000E+00 0.  1.
<mgrwt>
<rscale>  0 0.22289266E+04</rscale>
<asrwt>0</asrwt>
<pdfrwt beam="1">  1        2 0.36526874E+00 0.22289266E+04</pdfrwt>
<pdfrwt beam="2">  1       -2 0.80480809E-01 0.22289266E+04</pdfrwt>
<totfact> 0.51143260E+00</totfact>
</mgrwt>
</event>
<event>
12    1  0.2019083E-007  0.1777428E+04  0.7818608E-02  0.8718396E-01
          2   -1    0    0  501    0  0.00000000000E+00  0.00000000000E+00  0.83294308376E+03  0.83294308376E+03  0.00000000000E+00 0. -1.
         -2   -1    0    0    0  501 -0.00000000000E+00 -0.00000000000E+00 -0.94821944487E+03  0.94821944487E+03  0.00000000000E+00 0.  1.
         23    2    1    2    0    0  0.62244837432E+03 -0.20834042913E+03 -0.84388593844E+02  0.66764485090E+03  0.88207137225E+02 0.  0.
        254    2    1    2    0    0 -0.62244837432E+03  0.20834042913E+03 -0.30887767257E+02  0.11135176777E+04  0.89895486613E+03 0.  0.
        -24    2    4    4    0    0 -0.69186765964E+03  0.91759870760E+02  0.28645001911E+03  0.75913224263E+03  0.84424025068E+02 0.  0.
         24    2    4    4    0    0  0.69419285321E+02  0.11658055837E+03 -0.31733778636E+03  0.35438543510E+03  0.80471747815E+02 0.  0.
         11    1    3    3    0    0  0.90294872791E+01 -0.60552181923E+01  0.10123044942E+02  0.14855078148E+02  0.00000000000E+00 0. -1.
        -11    1    3    3    0    0  0.61341888704E+03 -0.20228521093E+03 -0.94511638786E+02  0.65278977275E+03  0.00000000000E+00 0.  1.
          4    1    6    6  502    0 -0.98369717864E+01  0.21689858016E+02 -0.11359158276E+03  0.11606146487E+03  0.00000000000E+00 0. -1.
          3    1    5    5  503    0 -0.35707144898E+03  0.51212573320E+02  0.19334365093E+03  0.40927315414E+03  0.00000000000E+00 0. -1.
         -4    1    5    5    0  503 -0.33479621066E+03  0.40547297440E+02  0.93106368176E+02  0.34985908849E+03  0.00000000000E+00 0.  1.
         -3    1    6    6    0  502  0.79256257107E+02  0.94890700350E+02 -0.20374620360E+03  0.23832397023E+03  0.00000000000E+00 0.  1.
<mgrwt>
<rscale>  0 0.17774283E+04</rscale>
<asrwt>0</asrwt>
<pdfrwt beam="1">  1        2 0.12814509E+00 0.17774283E+04</pdfrwt>
<pdfrwt beam="2">  1       -2 0.14587992E+00 0.17774283E+04</pdfrwt>
<totfact> 0.99486921E+00</totfact>
</mgrwt>
</event>
<event>
12    1  0.2019083E-007  0.2424612E+04  0.7818608E-02  0.8430346E-01
         -1   -1    0    0    0  501 -0.00000000000E+00  0.00000000000E+00  0.92241307391E+03  0.92241307391E+03  0.00000000000E+00 0.  1.
          1   -1    0    0  501    0  0.00000000000E+00 -0.00000000000E+00 -0.15933060159E+04  0.15933060159E+04  0.00000000000E+00 0. -1.
         23    2    1    2    0    0 -0.95440772615E+03  0.13974763963E+03 -0.70106486296E+03  0.11959116943E+04  0.91045747069E+02 0.  0.
        254    2    1    2    0    0  0.95440772615E+03 -0.13974763963E+03  0.30171920975E+02  0.13198073955E+04  0.90030978323E+03 0.  0.
        -24    2    4    4    0    0  0.24464314948E+03 -0.45982039468E+03  0.91064441392E+02  0.53476519133E+03  0.79975067487E+02 0.  0.
         24    2    4    4    0    0  0.70976457667E+03  0.32007275505E+03 -0.60892520417E+02  0.78504220414E+03  0.79818797357E+02 0.  0.
         11    1    3    3    0    0 -0.11301837073E+03 -0.10878211914E+02 -0.69361320244E+02  0.13305066841E+03  0.00000000000E+00 0. -1.
        -11    1    3    3    0    0 -0.84138935542E+03  0.15062585154E+03 -0.63170354272E+03  0.10628610259E+04  0.00000000000E+00 0.  1.
          4    1    6    6  502    0  0.79998963866E+02  0.26934224053E+02  0.16789017807E+02  0.86064846273E+02  0.00000000000E+00 0. -1.
          1    1    5    5  503    0  0.12584282344E+03 -0.15815819590E+03  0.47683220640E+02  0.20766347939E+03  0.00000000000E+00 0. -1.
         -2    1    5    5    0  503  0.11880032604E+03 -0.30166219877E+03  0.43381220752E+02  0.32710171193E+03  0.00000000000E+00 0.  1.
         -3    1    6    6    0  502  0.62976561281E+03  0.29313853099E+03 -0.77681538224E+02  0.69897735786E+03  0.00000000000E+00 0.  1.
<mgrwt>
<rscale>  0 0.24246124E+04</rscale>
<asrwt>0</asrwt>
<pdfrwt beam="1">  1        1 0.24512400E+00 0.24246124E+04</pdfrwt>
<pdfrwt beam="2">  1       -1 0.14190970E+00 0.24246124E+04</pdfrwt>
<totfact> 0.20399209E+00</totfact>
</mgrwt>
</event>
<event>
12    1  0.2648930E-007  0.2260119E+04  0.7818608E-02  0.8493814E-01
          2   -1    0    0  501    0  0.00000000000E+00  0.00000000000E+00  0.12674303691E+04  0.12674303691E+04  0.00000000000E+00 0. -1.
         -2   -1    0    0    0  501 -0.00000000000E+00 -0.00000000000E+00 -0.10075776776E+04  0.10075776776E+04  0.00000000000E+00 0.  1.
         23    2    1    2    0    0 -0.20151763649E+03 -0.88597371467E+03  0.38202488445E+03  0.99002962494E+03  0.93042275430E+02 0.  0.
        254    2    1    2    0    0  0.20151763649E+03  0.88597371467E+03 -0.12217219300E+03  0.12849784218E+04  0.90038031896E+03 0.  0.
        -24    2    4    4    0    0  0.45591374931E+03  0.61441571616E+03 -0.34577508952E+03  0.84343744177E+03  0.80388348447E+02 0.  0.
         24    2    4    4    0    0 -0.25439611281E+03  0.27155799851E+03  0.22360289652E+03  0.44154098001E+03  0.80616703735E+02 0.  0.
         11    1    3    3    0    0 -0.16834777499E+03 -0.64480980574E+03  0.31748441555E+03  0.73818494502E+03  0.00000000000E+00 0. -1.
        -11    1    3    3    0    0 -0.33169861498E+02 -0.24116390893E+03  0.64540468891E+02  0.25184467993E+03  0.00000000000E+00 0.  1.
          4    1    6    6  502    0 -0.61217370397E+02  0.46611678616E+02  0.13452650025E+02  0.78110106993E+02  0.00000000000E+00 0. -1.
          3    1    5    5  503    0  0.66502946836E+01  0.54079120783E+00 -0.97555006733E+01  0.11818996061E+02  0.00000000000E+00 0. -1.
         -4    1    5    5    0  503  0.44926345462E+03  0.61387492495E+03 -0.33601958885E+03  0.83161844570E+03  0.00000000000E+00 0.  1.
         -3    1    6    6    0  502 -0.19317874242E+03  0.22494631990E+03  0.21015024650E+03  0.36343087302E+03  0.00000000000E+00 0.  1.
<mgrwt>
<rscale>  0 0.22601191E+04</rscale>
<asrwt>0</asrwt>
<pdfrwt beam="1">  1        2 0.19498929E+00 0.22601191E+04</pdfrwt>
<pdfrwt beam="2">  1       -2 0.15501195E+00 0.22601191E+04</pdfrwt>
<totfact> 0.43128913E+00</totfact>
</mgrwt>
</event>
<event>
12    1  0.2019083E-007  0.1897560E+04  0.7818608E-02  0.8656072E-01
         -1   -1    0    0    0  501 -0.00000000000E+00  0.00000000000E+00  0.54708373885E+03  0.54708373885E+03  0.00000000000E+00 0.  1.
          1   -1    0    0  501    0  0.00000000000E+00 -0.00000000000E+00 -0.16454212610E+04  0.16454212610E+04  0.00000000000E+00 0. -1.
         23    2    1    2    0    0  0.34654352996E+03  0.59001180616E+03 -0.12256882291E+03  0.70106279616E+03  0.90882221784E+02 0.  0.
        254    2    1    2    0    0 -0.34654352996E+03 -0.59001180616E+03 -0.97576869922E+03  0.14914422037E+04  0.89669891432E+03 0.  0.
        -24    2    4    4    0    0  0.24992287012E+03 -0.20078962555E+03 -0.71912867357E+02  0.33753287849E+03  0.77324438793E+02 0.  0.
         24    2    4    4    0    0 -0.59646640008E+03 -0.38922218061E+03 -0.90385583186E+03  0.11539093252E+04  0.85353931590E+02 0.  0.
         11    1    3    3    0    0  0.24646050791E+03  0.35092271150E+03 -0.48882218892E+02  0.43160051290E+03  0.00000000000E+00 0.  1.
        -11    1    3    3    0    0  0.10008302205E+03  0.23908909466E+03 -0.73686604022E+02  0.26946228326E+03  0.00000000000E+00 0. -1.
          2    1    6    6  502    0 -0.39720714104E+03 -0.22711622964E+03 -0.62759205567E+03  0.77667694893E+03  0.00000000000E+00 0. -1.
          3    1    5    5  503    0  0.16383440395E+02 -0.46758581809E+02 -0.43988708997E+01  0.49740648942E+02  0.00000000000E+00 0. -1.
         -4    1    5    5    0  503  0.23353942972E+03 -0.15403104374E+03 -0.67513996458E+02  0.28779222955E+03  0.00000000000E+00 0.  1.
         -1    1    6    6    0  502 -0.19925925904E+03 -0.16210595098E+03 -0.27626377620E+03  0.37723237625E+03  0.00000000000E+00 0.  1.
<mgrwt>
<rscale>  0 0.18975597E+04</rscale>
<asrwt>0</asrwt>
<pdfrwt beam="1">  1        1 0.25314173E+00 0.18975597E+04</pdfrwt>
<pdfrwt beam="2">  1       -1 0.84166730E-01 0.18975597E+04</pdfrwt>
<totfact> 0.67973540E+00</totfact>
</mgrwt>
</event>
<event>
12    1  0.2019083E-007  0.3275180E+04  0.7818608E-02  0.8169240E-01
         -2   -1    0    0    0  501 -0.00000000000E+00  0.00000000000E+00  0.11646248854E+04  0.11646248854E+04  0.00000000000E+00 0.  1.
          2   -1    0    0  501    0  0.00000000000E+00 -0.00000000000E+00 -0.23026309752E+04  0.23026309752E+04  0.00000000000E+00 0. -1.
         23    2    1    2    0    0 -0.47095761108E+03 -0.11908255335E+04 -0.13772899913E+04  0.18827891051E+04  0.90003174788E+02 0.  0.
        254    2    1    2    0    0  0.47095761108E+03  0.11908255335E+04  0.23928390144E+03  0.15844667555E+04  0.90189333699E+03 0.  0.
        -24    2    4    4    0    0 -0.64424597652E+01  0.70384261336E+03  0.48144437149E+03  0.85654641330E+03  0.80294119458E+02 0.  0.
         24    2    4    4    0    0  0.47740007084E+03  0.48698292011E+03 -0.24216047005E+03  0.72792034224E+03  0.78505663959E+02 0.  0.
         13    1    3    3    0    0 -0.16420728298E+03 -0.33829247962E+03 -0.36121169821E+03  0.52142087077E+03  0.00000000000E+00 0.  1.
        -13    1    3    3    0    0 -0.30675032809E+03 -0.85253305385E+03 -0.10160782931E+04  0.13613682343E+04  0.00000000000E+00 0. -1.
          4    1    6    6  502    0  0.15170305645E+03  0.17321731532E+03 -0.45230377423E+02  0.23465686161E+03  0.00000000000E+00 0. -1.
          1    1    5    5  503    0 -0.30582274229E+02  0.15065600592E+03  0.86270150224E+02  0.17628115735E+03  0.00000000000E+00 0. -1.
         -2    1    5    5    0  503  0.24139814464E+02  0.55318660745E+03  0.39517422127E+03  0.68026525595E+03  0.00000000000E+00 0.  1.
         -3    1    6    6    0  502  0.32569701439E+03  0.31376560479E+03 -0.19693009262E+03  0.49326348062E+03  0.00000000000E+00 0.  1.
<mgrwt>
<rscale>  0 0.32751802E+04</rscale>
<asrwt>0</asrwt>
<pdfrwt beam="1">  1        2 0.35425091E+00 0.32751802E+04</pdfrwt>
<pdfrwt beam="2">  1       -2 0.17917306E+00 0.32751802E+04</pdfrwt>
<totfact> 0.69469405E-01</totfact>
</mgrwt>
</event>
<event>
12    1  0.2019083E-007  0.2073074E+04  0.7818608E-02  0.8573198E-01
          2   -1    0    0  501    0  0.00000000000E+00  0.00000000000E+00  0.86780926073E+03  0.86780926073E+03  0.00000000000E+00 0. -1.
         -2   -1    0    0    0  501 -0.00000000000E+00 -0.00000000000E+00 -0.12380704410E+04  0.12380704410E+04  0.00000000000E+00 0.  1.
         23    2    1    2    0    0 -0.80549450499E+03  0.23279289465E+03 -0.14854877837E+03  0.85629187291E+03  0.90305607204E+02 0.  0.
        254    2    1    2    0    0  0.80549450499E+03 -0.23279289465E+03 -0.22171240186E+03  0.12495878288E+04  0.89961070654E+03 0.  0.
        -24    2    4    4    0    0  0.19584088302E+03 -0.22745495801E+03 -0.48844657142E+03  0.57942270935E+03  0.84031027555E+02 0.  0.
         24    2    4    4    0    0  0.60965362197E+03 -0.53379366369E+01  0.26673416955E+03  0.67016511943E+03  0.79171571612E+02 0.  0.
         11    1    3    3    0    0 -0.62933743999E+03  0.19204605638E+03 -0.79605426167E+02  0.66278527821E+03  0.00000000000E+00 0. -1.
        -11    1    3    3    0    0 -0.17615706500E+03  0.40746838275E+02 -0.68943352203E+02  0.19350659470E+03  0.00000000000E+00 0.  1.
          4    1    6    6  502    0  0.42369989766E+03 -0.38142970167E+02  0.19781166321E+03  0.46915449860E+03  0.00000000000E+00 0. -1.
          3    1    5    5  503    0  0.18381804875E+03 -0.21396586181E+03 -0.48494249423E+03  0.56101665553E+03  0.00000000000E+00 0. -1.
         -4    1    5    5    0  503  0.12022834272E+02 -0.13489096201E+02 -0.35040771814E+01  0.18406053818E+02  0.00000000000E+00 0.  1.
         -3    1    6    6    0  502  0.18595372431E+03  0.32805033530E+02  0.68922506339E+02  0.20101062083E+03  0.00000000000E+00 0.  1.
<mgrwt>
<rscale>  0 0.20730740E+04</rscale>
<asrwt>0</asrwt>
<pdfrwt beam="1">  1        2 0.13350912E+00 0.20730740E+04</pdfrwt>
<pdfrwt beam="2">  1       -2 0.19047238E+00 0.20730740E+04</pdfrwt>
<totfact> 0.43819565E+00</totfact>
</mgrwt>
</event>
<event>
12    1  0.2019083E-007  0.3189570E+04  0.7818608E-02  0.8191577E-01
         -1   -1    0    0    0  501 -0.00000000000E+00  0.00000000000E+00  0.10153214237E+04  0.10153214237E+04  0.00000000000E+00 0.  1.
          1   -1    0    0  501    0  0.00000000000E+00 -0.00000000000E+00 -0.25049602302E+04  0.25049602302E+04  0.00000000000E+00 0. -1.
         23    2    1    2    0    0  0.11485240024E+04  0.49236732639E+03  0.16056351529E+03  0.12634143479E+04  0.94351490565E+02 0.  0.
        254    2    1    2    0    0 -0.11485240024E+04 -0.49236732639E+03 -0.16502023218E+04  0.22568673061E+04  0.89930493505E+03 0.  0.
        -24    2    4    4    0    0 -0.56087557428E+03 -0.35821432706E+03 -0.14810728325E+04  0.16257869552E+04  0.81899784189E+02 0.  0.
         24    2    4    4    0    0 -0.58764842811E+03 -0.13415299933E+03 -0.16912948930E+03  0.63108035086E+03  0.79560811975E+02 0.  0.
         11    1    3    3    0    0  0.39598096440E+03  0.13436669407E+03  0.84340040583E+02  0.42657774800E+03  0.00000000000E+00 0.  1.
        -11    1    3    3    0    0  0.75254303798E+03  0.35800063232E+03  0.76223474706E+02  0.83683659985E+03  0.00000000000E+00 0. -1.
          4    1    6    6  502    0 -0.28182820075E+00 -0.53120810945E+01 -0.59921348599E+01  0.80126969784E+01  0.00000000000E+00 0. -1.
          3    1    5    5  503    0 -0.73646768682E+02 -0.69697530514E+02 -0.17509020558E+03  0.20233183730E+03  0.00000000000E+00 0. -1.
         -4    1    5    5    0  503 -0.48722880560E+03 -0.28851679654E+03 -0.13059826269E+04  0.14234551179E+04  0.00000000000E+00 0.  1.
         -3    1    6    6    0  502 -0.58736659991E+03 -0.12884091824E+03 -0.16313735444E+03  0.62306765388E+03  0.00000000000E+00 0.  1.
<mgrwt>
<rscale>  0 0.31895704E+04</rscale>
<asrwt>0</asrwt>
<pdfrwt beam="1">  1        1 0.38537849E+00 0.31895704E+04</pdfrwt>
<pdfrwt beam="2">  1       -1 0.15620330E+00 0.31895704E+04</pdfrwt>
<totfact> 0.35148649E-01</totfact>
</mgrwt>
</event>
<event>
12    1  0.2019083E-007  0.2463202E+04  0.7818608E-02  0.8416213E-01
         -2   -1    0    0    0  501 -0.00000000000E+00  0.00000000000E+00  0.12075512498E+04  0.12075512498E+04  0.00000000000E+00 0.  1.
          2   -1    0    0  501    0  0.00000000000E+00 -0.00000000000E+00 -0.12561298323E+04  0.12561298323E+04  0.00000000000E+00 0. -1.
         23    2    1    2    0    0  0.23175448333E+03  0.64461635094E+01  0.10179837410E+04  0.10478713246E+04  0.89396433846E+02 0.  0.
        254    2    1    2    0    0 -0.23175448333E+03 -0.64461635094E+01 -0.10665623234E+04  0.14158097576E+04  0.90178178422E+03 0.  0.
        -24    2    4    4    0    0  0.75726033449E+02  0.15997257815E+03  0.83816866949E+02  0.21092329181E+03  0.78343537972E+02 0.  0.
         24    2    4    4    0    0 -0.30748051677E+03 -0.16641874166E+03 -0.11503791904E+04  0.12048864658E+04  0.78355905876E+02 0.  0.
         11    1    3    3    0    0  0.10260724223E+03  0.30113417468E+02  0.60935314064E+03  0.61866494492E+03  0.00000000000E+00 0.  1.
        -11    1    3    3    0    0  0.12914724109E+03 -0.23667253959E+02  0.40863060033E+03  0.42920637963E+03  0.00000000000E+00 0. -1.
          2    1    6    6  502    0  0.25837007867E+01 -0.23107735102E+01 -0.45911389049E+02  0.46042054998E+02  0.00000000000E+00 0. -1.
          1    1    5    5  503    0 -0.72770649841E+01  0.62563881058E+01 -0.89527927890E+01  0.13124426297E+02  0.00000000000E+00 0. -1.
         -2    1    5    5    0  503  0.83003098433E+02  0.15371619004E+03  0.92769659738E+02  0.19779886551E+03  0.00000000000E+00 0.  1.
         -1    1    6    6    0  502 -0.31006421756E+03 -0.16410796815E+03 -0.11044678013E+04  0.11588444108E+04  0.00000000000E+00 0.  1.
<mgrwt>
<rscale>  0 0.24632021E+04</rscale>
<asrwt>0</asrwt>
<pdfrwt beam="1">  1        2 0.19325074E+00 0.24632021E+04</pdfrwt>
<pdfrwt beam="2">  1       -2 0.18577712E+00 0.24632021E+04</pdfrwt>
<totfact> 0.25974537E+00</totfact>
</mgrwt>
</event>
<event>
12    1  0.2019083E-007  0.2482285E+04  0.7818608E-02  0.8409324E-01
          2   -1    0    0  501    0  0.00000000000E+00  0.00000000000E+00  0.11491144566E+04  0.11491144566E+04  0.00000000000E+00 0. -1.
         -2   -1    0    0    0  501 -0.00000000000E+00 -0.00000000000E+00 -0.13405403696E+04  0.13405403696E+04  0.00000000000E+00 0.  1.
         23    2    1    2    0    0  0.47369063414E+03 -0.75430182872E+03 -0.68689059174E+03  0.11284912036E+04  0.91212092658E+02 0.  0.
        254    2    1    2    0    0 -0.47369063414E+03  0.75430182872E+03  0.49546467873E+03  0.13611636227E+04  0.90217908100E+03 0.  0.
        -24    2    4    4    0    0 -0.36022407820E+03  0.25675371336E+03 -0.20302388169E+03  0.49244706962E+03  0.74843596958E+02 0.  0.
         24    2    4    4    0    0 -0.11346655594E+03  0.49754811535E+03  0.69848856042E+03  0.86871655307E+03  0.79708181018E+02 0.  0.
         11    1    3    3    0    0  0.56910316536E+02 -0.49038815437E+02 -0.43303194259E+02  0.86710761620E+02  0.00000000000E+00 0. -1.
        -11    1    3    3    0    0  0.41678031760E+03 -0.70526301328E+03 -0.64358739748E+03  0.10417804420E+04  0.00000000000E+00 0.  1.
          4    1    6    6  502    0 -0.12381075740E+03  0.46603471005E+03  0.66645386182E+03  0.82260452500E+03  0.00000000000E+00 0. -1.
          3    1    5    5  503    0 -0.32369487936E+03  0.25034808711E+03 -0.19933356426E+03  0.45517733850E+03  0.00000000000E+00 0. -1.
         -4    1    5    5    0  503 -0.36529198832E+02  0.64056262543E+01 -0.36903174288E+01  0.37269731120E+02  0.00000000000E+00 0.  1.
         -3    1    6    6    0  502  0.10344201457E+02  0.31513405305E+02  0.32034698600E+02  0.46112028063E+02  0.00000000000E+00 0.  1.
<mgrwt>
<rscale>  0 0.24822847E+04</rscale>
<asrwt>0</asrwt>
<pdfrwt beam="1">  1        2 0.17678684E+00 0.24822847E+04</pdfrwt>
<pdfrwt beam="2">  1       -2 0.20623698E+00 0.24822847E+04</pdfrwt>
<totfact> 0.21985507E+00</totfact>
</mgrwt>
</event>
<event>
12    1  0.2019083E-007  0.1903029E+04  0.7818608E-02  0.8653350E-01
          2   -1    0    0  501    0  0.00000000000E+00  0.00000000000E+00  0.11127154650E+04  0.11127154650E+04  0.00000000000E+00 0. -1.
         -2   -1    0    0    0  501 -0.00000000000E+00 -0.00000000000E+00 -0.81366667893E+03  0.81366667893E+03  0.00000000000E+00 0.  1.
         23    2    1    2    0    0  0.18051328864E+03  0.13976886494E+03  0.82140768310E+03  0.85707639060E+03  0.88028259537E+02 0.  0.
        254    2    1    2    0    0 -0.18051328864E+03 -0.13976886494E+03 -0.52235889702E+03  0.10693057534E+04  0.90467430265E+03 0.  0.
        -24    2    4    4    0    0 -0.12692632042E+03 -0.33979970993E+03  0.11996182109E+03  0.38976338459E+03  0.77139638084E+02 0.  0.
         24    2    4    4    0    0 -0.53586968225E+02  0.20003084499E+03 -0.64232071810E+03  0.67954236877E+03  0.79485998365E+02 0.  0.
         13    1    3    3    0    0  0.80955487243E+02  0.11597160170E+03  0.44005681170E+03  0.46222635238E+03  0.00000000000E+00 0.  1.
        -13    1    3    3    0    0  0.99557801401E+02  0.23797263240E+02  0.38135087140E+03  0.39485003821E+03  0.00000000000E+00 0. -1.
          2    1    6    6  502    0 -0.28801802804E+02  0.55295750285E+02 -0.10130781209E+03  0.11895560783E+03  0.00000000000E+00 0. -1.
          1    1    5    5  503    0 -0.11963474397E+02 -0.39107536920E+02 -0.10802151762E+02  0.42299062003E+02  0.00000000000E+00 0. -1.
         -2    1    5    5    0  503 -0.11496284602E+03 -0.30069217301E+03  0.13076397285E+03  0.34746432258E+03  0.00000000000E+00 0.  1.
         -1    1    6    6    0  502 -0.24785165421E+02  0.14473509470E+03 -0.54101290601E+03  0.56058676093E+03  0.00000000000E+00 0.  1.
<mgrwt>
<rscale>  0 0.19030286E+04</rscale>
<asrwt>0</asrwt>
<pdfrwt beam="1">  1        2 0.17118699E+00 0.19030286E+04</pdfrwt>
<pdfrwt beam="2">  1       -2 0.12517949E+00 0.19030286E+04</pdfrwt>
<totfact> 0.95725207E+00</totfact>
</mgrwt>
</event>
<event>
12    1  0.2019083E-007  0.3057614E+04  0.7818608E-02  0.8227468E-01
          1   -1    0    0  501    0  0.00000000000E+00  0.00000000000E+00  0.18478192117E+04  0.18478192117E+04  0.00000000000E+00 0. -1.
         -1   -1    0    0    0  501 -0.00000000000E+00 -0.00000000000E+00 -0.12648700203E+04  0.12648700203E+04  0.00000000000E+00 0.  1.
         23    2    1    2    0    0  0.83716562972E+02 -0.13808657219E+04  0.84868262374E+02  0.13889587475E+04  0.90582424386E+02 0.  0.
        254    2    1    2    0    0 -0.83716562972E+02  0.13808657219E+04  0.49808092904E+03  0.17237304845E+04  0.89964635639E+03 0.  0.
        -24    2    4    4    0    0 -0.33209850359E+03  0.40608366136E+03  0.47833302905E+03  0.71446506437E+03  0.80402023673E+02 0.  0.
         24    2    4    4    0    0  0.24838194061E+03  0.97478206051E+03  0.19747899990E+02  0.10092654201E+04  0.79580492652E+02 0.  0.
         11    1    3    3    0    0  0.11359930996E+02 -0.58498040327E+03 -0.19069008054E+01  0.58509380147E+03  0.00000000000E+00 0. -1.
        -11    1    3    3    0    0  0.72356631977E+02 -0.79588531860E+03  0.86775163180E+02  0.80386494605E+03  0.00000000000E+00 0.  1.
          2    1    6    6  502    0  0.17905995784E+03  0.74261941315E+03  0.47572618440E+02  0.76538174483E+03  0.00000000000E+00 0. -1.
          1    1    5    5  503    0 -0.25898625288E+03  0.28641870215E+03  0.30870324804E+03  0.49437561375E+03  0.00000000000E+00 0. -1.
         -2    1    5    5    0  503 -0.73112250709E+02  0.11966495921E+03  0.16962978101E+03  0.22008945062E+03  0.00000000000E+00 0.  1.
         -1    1    6    6    0  502  0.69321982773E+02  0.23216264736E+03 -0.27824718450E+02  0.24388367530E+03  0.00000000000E+00 0.  1.
<mgrwt>
<rscale>  0 0.30576142E+04</rscale>
<asrwt>0</asrwt>
<pdfrwt beam="1">  1        1 0.28427988E+00 0.30576142E+04</pdfrwt>
<pdfrwt beam="2">  1       -1 0.19459539E+00 0.30576142E+04</pdfrwt>
<totfact> 0.52531994E-01</totfact>
</mgrwt>
</event>
<event>
12    1  0.2019083E-007  0.1913101E+04  0.7818608E-02  0.8648362E-01
         -2   -1    0    0    0  501 -0.00000000000E+00  0.00000000000E+00  0.73925360849E+03  0.73925360849E+03  0.00000000000E+00 0.  1.
          2   -1    0    0  501    0  0.00000000000E+00 -0.00000000000E+00 -0.12377204342E+04  0.12377204342E+04  0.00000000000E+00 0. -1.
         23    2    1    2    0    0 -0.45973135176E+02 -0.70026050380E+03  0.54094233786E+02  0.70975849816E+03  0.91392763586E+02 0.  0.
        254    2    1    2    0    0  0.45973135176E+02  0.70026050380E+03 -0.55256105947E+03  0.12672155445E+04  0.89890667452E+03 0.  0.
        -24    2    4    4    0    0  0.35415128447E+03  0.12526434640E+03 -0.46664556064E+03  0.60418189122E+03  0.78507258508E+02 0.  0.
         24    2    4    4    0    0 -0.30817814929E+03  0.57499615740E+03 -0.85915498832E+02  0.66303365330E+03  0.81472693275E+02 0.  0.
         13    1    3    3    0    0  0.37726873706E+01 -0.12224125837E+01 -0.50961600351E+01  0.64574228315E+01  0.00000000000E+00 0. -1.
        -13    1    3    3    0    0 -0.49745822547E+02 -0.69903809122E+03  0.59190393821E+02  0.70330107532E+03  0.00000000000E+00 0.  1.
          4    1    6    6  502    0 -0.24125996405E+03  0.38096800022E+03 -0.78041324751E+02  0.45763897978E+03  0.00000000000E+00 0. -1.
          3    1    5    5  503    0  0.31993138523E+03  0.95547380847E+02 -0.37610855605E+03  0.50293442831E+03  0.00000000000E+00 0. -1.
         -4    1    5    5    0  503  0.34219899239E+02  0.29716965554E+02 -0.90537004587E+02  0.10124746291E+03  0.00000000000E+00 0.  1.
         -3    1    6    6    0  502 -0.66918185240E+02  0.19402815718E+03 -0.78741740804E+01  0.20539467352E+03  0.00000000000E+00 0.  1.
<mgrwt>
<rscale>  0 0.19131015E+04</rscale>
<asrwt>0</asrwt>
<pdfrwt beam="1">  1        2 0.19041853E+00 0.19131015E+04</pdfrwt>
<pdfrwt beam="2">  1       -2 0.11373132E+00 0.19131015E+04</pdfrwt>
<totfact> 0.10196462E+01</totfact>
</mgrwt>
</event>
<event>
12    1  0.2019083E-007  0.1862871E+04  0.7818608E-02  0.8673562E-01
         -1   -1    0    0    0  501 -0.00000000000E+00  0.00000000000E+00  0.44116758015E+03  0.44116758015E+03  0.00000000000E+00 0.  1.
          1   -1    0    0  501    0  0.00000000000E+00 -0.00000000000E+00 -0.19665365266E+04  0.19665365266E+04  0.00000000000E+00 0. -1.
         23    2    1    2    0    0  0.44073732272E+03 -0.26414365987E+03 -0.12106532214E+04  0.13184143575E+04  0.92270985874E+02 0.  0.
        254    2    1    2    0    0 -0.44073732272E+03  0.26414365987E+03 -0.31471572498E+03  0.10892897492E+04  0.90746069309E+03 0.  0.
        -24    2    4    4    0    0 -0.40239773138E+03  0.55951381756E+03 -0.35330919426E+03  0.77867548214E+03  0.80798969555E+02 0.  0.
         24    2    4    4    0    0 -0.38339591337E+02 -0.29537015770E+03  0.38593469272E+02  0.31061426707E+03  0.79235804507E+02 0.  0.
         13    1    3    3    0    0  0.23925499443E+03 -0.16525316987E+03 -0.78665148307E+03  0.83867283152E+03  0.00000000000E+00 0. -1.
        -13    1    3    3    0    0  0.20148232829E+03 -0.98890489991E+02 -0.42400173837E+03  0.47974152599E+03  0.00000000000E+00 0.  1.
          4    1    6    6  502    0 -0.25693607275E+02 -0.34003800590E+02  0.23116214012E+02  0.48484835357E+02  0.00000000000E+00 0. -1.
          3    1    5    5  503    0 -0.15486999078E+03  0.28436208992E+03 -0.16573698540E+03  0.36375164681E+03  0.00000000000E+00 0. -1.
         -4    1    5    5    0  503 -0.24752774060E+03  0.27515172764E+03 -0.18757220886E+03  0.41492383533E+03  0.00000000000E+00 0.  1.
         -3    1    6    6    0  502 -0.12645984063E+02 -0.26136635711E+03  0.15477255259E+02  0.26212943171E+03  0.00000000000E+00 0.  1.
<mgrwt>
<rscale>  0 0.18628711E+04</rscale>
<asrwt>0</asrwt>
<pdfrwt beam="1">  1        1 0.30254409E+00 0.18628711E+04</pdfrwt>
<pdfrwt beam="2">  1       -1 0.67871934E-01 0.18628711E+04</pdfrwt>
<totfact> 0.64777978E+00</totfact>
</mgrwt>
</event>
<event>
12    1  0.2019083E-007  0.3232959E+04  0.7818608E-02  0.8180167E-01
         -2   -1    0    0    0  501 -0.00000000000E+00  0.00000000000E+00  0.84571886134E+03  0.84571886134E+03  0.00000000000E+00 0. -1.
          2   -1    0    0  501    0  0.00000000000E+00 -0.00000000000E+00 -0.30896861614E+04  0.30896861614E+04  0.00000000000E+00 0.  1.
         23    2    1    2    0    0  0.11068836427E+04 -0.85731777090E+03 -0.16555152333E+04  0.21700573532E+04  0.90736265399E+02 0.  0.
        254    2    1    2    0    0 -0.11068836427E+04  0.85731777090E+03 -0.58845206682E+03  0.17653476696E+04  0.89999522264E+03 0.  0.
        -24    2    4    4    0    0  0.49348269153E+01 -0.10048283459E+03 -0.21360753011E+03  0.24844597509E+03  0.77305064862E+02 0.  0.
         24    2    4    4    0    0 -0.11118184696E+04  0.95780060548E+03 -0.37484453671E+03  0.15169016945E+04  0.83426703307E+02 0.  0.
         13    1    3    3    0    0  0.86717948271E+03 -0.62506539224E+03 -0.12793444525E+04  0.16671620281E+04  0.00000000000E+00 0. -1.
        -13    1    3    3    0    0  0.23970415997E+03 -0.23225237866E+03 -0.37617078082E+03  0.50289532513E+03  0.00000000000E+00 0.  1.
          2    1    6    6  502    0 -0.10215666545E+04  0.84932488308E+03 -0.33086127376E+03  0.13690947261E+04  0.00000000000E+00 0. -1.
          3    1    5    5  503    0 -0.43738612776E+00 -0.68536100300E+02 -0.20315737950E+03  0.21440687768E+03  0.00000000000E+00 0. -1.
         -4    1    5    5    0  503  0.53722130431E+01 -0.31946734286E+02 -0.10450150612E+02  0.34039097408E+02  0.00000000000E+00 0.  1.
         -1    1    6    6    0  502 -0.90251815119E+02  0.10847572240E+03 -0.43983262946E+02  0.14780696838E+03  0.00000000000E+00 0.  1.
<mgrwt>
<rscale>  0 0.32329589E+04</rscale>
<asrwt>0</asrwt>
<pdfrwt beam="1">  1        2 0.47533634E+00 0.32329589E+04</pdfrwt>
<pdfrwt beam="2">  1       -2 0.13011059E+00 0.32329589E+04</pdfrwt>
<totfact> 0.55557152E-01</totfact>
</mgrwt>
</event>
<event>
12    1  0.2019083E-007  0.1426962E+04  0.7818608E-02  0.8934530E-01
         -2   -1    0    0    0  501 -0.00000000000E+00  0.00000000000E+00  0.35967422004E+03  0.35967422004E+03  0.00000000000E+00 0. -1.
          2   -1    0    0  501    0  0.00000000000E+00 -0.00000000000E+00 -0.14153229165E+04  0.14153229165E+04  0.00000000000E+00 0.  1.
         23    2    1    2    0    0 -0.30507120464E+03 -0.20503192466E+03 -0.59551214350E+02  0.38308849330E+03  0.90021755915E+02 0.  0.
        254    2    1    2    0    0  0.30507120464E+03  0.20503192466E+03 -0.99609748210E+03  0.13919086432E+04  0.90005163586E+03 0.  0.
        -24    2    4    4    0    0  0.11129585040E+02  0.48254047499E+03 -0.27476085063E+03  0.56112948196E+03  0.80022451990E+02 0.  0.
         24    2    4    4    0    0  0.29394161960E+03 -0.27750855033E+03 -0.72133663147E+03  0.83077916127E+03  0.80341817634E+02 0.  0.
         11    1    3    3    0    0 -0.24154046578E+03 -0.18650412242E+03 -0.19614832454E+02  0.30579458128E+03  0.00000000000E+00 0. -1.
        -11    1    3    3    0    0 -0.63530738860E+02 -0.18527802235E+02 -0.39936381896E+02  0.77293912016E+02  0.00000000000E+00 0.  1.
          2    1    6    6  502    0  0.27776742878E+03 -0.22804420920E+03 -0.64552024873E+03  0.73882020639E+03  0.00000000000E+00 0. -1.
          3    1    5    5  503    0 -0.34335900216E+01  0.22978847654E+03 -0.17563524847E+03  0.28924431541E+03  0.00000000000E+00 0. -1.
         -4    1    5    5    0  503  0.14563175062E+02  0.25275199845E+03 -0.99125602154E+02  0.27188516655E+03  0.00000000000E+00 0.  1.
         -1    1    6    6    0  502  0.16174190817E+02 -0.49464341123E+02 -0.75816382735E+02  0.91958954879E+02  0.00000000000E+00 0.  1.
<mgrwt>
<rscale>  0 0.14269620E+04</rscale>
<asrwt>0</asrwt>
<pdfrwt beam="1">  1        2 0.21774199E+00 0.14269620E+04</pdfrwt>
<pdfrwt beam="2">  1       -2 0.55334496E-01 0.14269620E+04</pdfrwt>
<totfact> 0.42284618E+01</totfact>
</mgrwt>
</event>
<event>
12    1  0.2019083E-007  0.2141621E+04  0.7818608E-02  0.8543128E-01
         -1   -1    0    0    0  501 -0.00000000000E+00  0.00000000000E+00  0.89125998442E+03  0.89125998442E+03  0.00000000000E+00 0.  1.
          1   -1    0    0  501    0  0.00000000000E+00 -0.00000000000E+00 -0.12865321225E+04  0.12865321225E+04  0.00000000000E+00 0. -1.
         23    2    1    2    0    0 -0.37429813821E+03  0.38222908778E+03  0.54519353520E+03  0.77048238505E+03  0.10103931427E+03 0.  0.
        254    2    1    2    0    0  0.37429813821E+03 -0.38222908778E+03 -0.94046567323E+03  0.14073097218E+04  0.89991488420E+03 0.  0.
        -24    2    4    4    0    0  0.55600699318E+03 -0.53273805831E+03 -0.82778039973E+03  0.11333520781E+04  0.79453933734E+02 0.  0.
         24    2    4    4    0    0 -0.18170885496E+03  0.15050897053E+03 -0.11268527350E+03  0.27395764369E+03  0.81754275077E+02 0.  0.
         11    1    3    3    0    0 -0.83048410823E+02  0.96432227226E+02  0.74213297327E+02  0.14732218600E+03  0.00000000000E+00 0. -1.
        -11    1    3    3    0    0 -0.29124972739E+03  0.28579686056E+03  0.47098023787E+03  0.62316019905E+03  0.00000000000E+00 0.  1.
          2    1    6    6  502    0 -0.18879472569E+03  0.13353686764E+03 -0.10604953329E+03  0.25440528096E+03  0.00000000000E+00 0. -1.
          1    1    5    5  503    0  0.54578022555E+03 -0.52816290594E+03 -0.79855880202E+03  0.11020563825E+04  0.00000000000E+00 0. -1.
         -2    1    5    5    0  503  0.10226767624E+02 -0.45751523729E+01 -0.29221597712E+02  0.31295695681E+02  0.00000000000E+00 0.  1.
         -1    1    6    6    0  502  0.70858707291E+01  0.16972102887E+02 -0.66357402062E+01  0.19552362734E+02  0.00000000000E+00 0.  1.
<mgrwt>
<rscale>  0 0.21416205E+04</rscale>
<asrwt>0</asrwt>
<pdfrwt beam="1">  1        1 0.19792802E+00 0.21416205E+04</pdfrwt>
<pdfrwt beam="2">  1       -1 0.13711692E+00 0.21416205E+04</pdfrwt>
<totfact> 0.37509032E+00</totfact>
</mgrwt>
</event>
<event>
12    1  0.2019083E-007  0.1972312E+04  0.7818608E-02  0.8619676E-01
         -2   -1    0    0    0  501 -0.00000000000E+00  0.00000000000E+00  0.24316648796E+03  0.24316648796E+03  0.00000000000E+00 0.  1.
          2   -1    0    0  501    0  0.00000000000E+00 -0.00000000000E+00 -0.39993332799E+04  0.39993332799E+04  0.00000000000E+00 0. -1.
         23    2    1    2    0    0 -0.16388483845E+02  0.41899652709E+03 -0.81814975942E+02  0.43644666305E+03  0.89248682237E+02 0.  0.
        254    2    1    2    0    0  0.16388483845E+02 -0.41899652709E+03 -0.36743518160E+04  0.38060531048E+04  0.89964009290E+03 0.  0.
        -24    2    4    4    0    0 -0.38281367288E+03 -0.43518899516E+03 -0.21610314677E+04  0.22388111269E+04  0.79262148782E+02 0.  0.
         24    2    4    4    0    0  0.39920215672E+03  0.16192468065E+02 -0.15133203484E+04  0.15672419779E+04  0.80525663874E+02 0.  0.
         11    1    3    3    0    0  0.25616204853E+02  0.26715806671E+03 -0.27426558008E+02  0.26978109393E+03  0.00000000000E+00 0.  1.
        -11    1    3    3    0    0 -0.42004688699E+02  0.15183846038E+03 -0.54388417934E+02  0.16666556912E+03  0.00000000000E+00 0. -1.
          2    1    6    6  502    0  0.24146531623E+02  0.26813876474E+01 -0.19613028031E+03  0.19762927840E+03  0.00000000000E+00 0. -1.
          1    1    5    5  503    0 -0.11581120874E+03 -0.11330760109E+03 -0.73936490459E+03  0.75690905046E+03  0.00000000000E+00 0. -1.
         -2    1    5    5    0  503 -0.26700246414E+03 -0.32188139407E+03 -0.14216665631E+04  0.14819020765E+04  0.00000000000E+00 0.  1.
         -1    1    6    6    0  502  0.37505562510E+03  0.13511080417E+02 -0.13171900681E+04  0.13696126995E+04  0.00000000000E+00 0.  1.
<mgrwt>
<rscale>  0 0.19723122E+04</rscale>
<asrwt>0</asrwt>
<pdfrwt beam="1">  1        2 0.61528199E+00 0.19723122E+04</pdfrwt>
<pdfrwt beam="2">  1       -2 0.37410232E-01 0.19723122E+04</pdfrwt>
<totfact> 0.21731672E+00</totfact>
</mgrwt>
</event>
<event>
12    1  0.2019083E-007  0.1352316E+04  0.7818608E-02  0.8989077E-01
         -2   -1    0    0    0  501 -0.00000000000E+00  0.00000000000E+00  0.50893478750E+03  0.50893478750E+03  0.00000000000E+00 0.  1.
          2   -1    0    0  501    0  0.00000000000E+00 -0.00000000000E+00 -0.89832597890E+03  0.89832597890E+03  0.00000000000E+00 0. -1.
         23    2    1    2    0    0  0.63340386554E+02 -0.10255885675E+03  0.25222055540E+03  0.29450735406E+03  0.92677124250E+02 0.  0.
        254    2    1    2    0    0 -0.63340386554E+02  0.10255885675E+03 -0.64161174680E+03  0.11127534123E+04  0.90112385353E+03 0.  0.
        -24    2    4    4    0    0 -0.45282672074E+03  0.17159229003E+03 -0.45198663177E+03  0.66681553791E+03  0.76518581276E+02 0.  0.
         24    2    4    4    0    0  0.38948633419E+03 -0.69033433282E+02 -0.18962511502E+03  0.44593787444E+03  0.80235180461E+02 0.  0.
         11    1    3    3    0    0 -0.17013763473E+01 -0.64819933755E+02  0.60971425665E+02  0.89005804536E+02  0.00000000000E+00 0. -1.
        -11    1    3    3    0    0  0.65041762901E+02 -0.37738922996E+02  0.19124912974E+03  0.20550154952E+03  0.00000000000E+00 0.  1.
          2    1    6    6  502    0  0.33407221445E+03 -0.45775048059E+02 -0.13030565197E+03  0.36149572947E+03  0.00000000000E+00 0. -1.
          1    1    5    5  503    0 -0.33356187917E+03  0.11320394364E+03 -0.36946103319E+03  0.51047048411E+03  0.00000000000E+00 0. -1.
         -2    1    5    5    0  503 -0.11926484157E+03  0.58388346390E+02 -0.82525598579E+02  0.15634505380E+03  0.00000000000E+00 0.  1.
         -1    1    6    6    0  502  0.55414119737E+02 -0.23258385224E+02 -0.59319463057E+02  0.84442144968E+02  0.00000000000E+00 0.  1.
<mgrwt>
<rscale>  0 0.13523156E+04</rscale>
<asrwt>0</asrwt>
<pdfrwt beam="1">  1        2 0.13820400E+00 0.13523156E+04</pdfrwt>
<pdfrwt beam="2">  1       -2 0.78297661E-01 0.13523156E+04</pdfrwt>
<totfact> 0.41665263E+01</totfact>
</mgrwt>
</event>
<event>
12    1  0.2019083E-007  0.6030830E+04  0.7818608E-02  0.7686591E-01
          2   -1    0    0  501    0  0.00000000000E+00  0.00000000000E+00  0.20244216316E+04  0.20244216316E+04  0.00000000000E+00 0.  1.
         -2   -1    0    0    0  501 -0.00000000000E+00 -0.00000000000E+00 -0.44915186654E+04  0.44915186654E+04  0.00000000000E+00 0. -1.
         23    2    1    2    0    0  0.10819656752E+04  0.19491987672E+04  0.87636696350E+03  0.23971676401E+04  0.91477230558E+02 0.  0.
        254    2    1    2    0    0 -0.10819656752E+04 -0.19491987672E+04 -0.33434639973E+04  0.41187726568E+04  0.90305655470E+03 0.  0.
        -24    2    4    4    0    0 -0.60324727531E+03 -0.37649974701E+03 -0.67731108830E+03  0.98552448140E+03  0.82757830042E+02 0.  0.
         24    2    4    4    0    0 -0.47871839985E+03 -0.15726990202E+04 -0.26661529090E+04  0.31332481754E+04  0.79493899706E+02 0.  0.
         13    1    3    3    0    0  0.99726864499E+03  0.17538137626E+04  0.77413863355E+03  0.21609484233E+04  0.00000000000E+00 0. -1.
        -13    1    3    3    0    0  0.84697030168E+02  0.19538500459E+03  0.10222832995E+03  0.23621921679E+03  0.00000000000E+00 0.  1.
          2    1    6    6  502    0 -0.25301534784E+03 -0.80454136227E+03 -0.14418518073E+04  0.16704012105E+04  0.00000000000E+00 0. -1.
          1    1    5    5  503    0 -0.29834854002E+03 -0.23488926263E+03 -0.35876433105E+03  0.52239512083E+03  0.00000000000E+00 0. -1.
         -2    1    5    5    0  503 -0.30489873530E+03 -0.14161048439E+03 -0.31854675724E+03  0.46312936057E+03  0.00000000000E+00 0.  1.
         -1    1    6    6    0  502 -0.22570305201E+03 -0.76815765794E+03 -0.12243011017E+04  0.14628469649E+04  0.00000000000E+00 0.  1.
<mgrwt>
<rscale>  0 0.60308300E+04</rscale>
<asrwt>0</asrwt>
<pdfrwt beam="1">  1        2 0.31144949E+00 0.60308300E+04</pdfrwt>
<pdfrwt beam="2">  1       -2 0.69100286E+00 0.60308300E+04</pdfrwt>
<totfact> 0.10842616E-03</totfact>
</mgrwt>
</event>
<event>
12    1  0.2019083E-007  0.3456776E+04  0.7818608E-02  0.8124111E-01
         -1   -1    0    0    0  501 -0.00000000000E+00  0.00000000000E+00  0.13298103106E+04  0.13298103106E+04  0.00000000000E+00 0.  1.
          1   -1    0    0  501    0  0.00000000000E+00 -0.00000000000E+00 -0.22464292649E+04  0.22464292649E+04  0.00000000000E+00 0. -1.
         23    2    1    2    0    0 -0.12377868027E+04 -0.17741268459E+03  0.62253402114E+03  0.13998571353E+04  0.91978051944E+02 0.  0.
        254    2    1    2    0    0  0.12377868027E+04  0.17741268459E+03 -0.15391529754E+04  0.21763824402E+04  0.89669237460E+03 0.  0.
        -24    2    4    4    0    0  0.11094310174E+04 -0.10882500239E+03 -0.14677790287E+04  0.18448638751E+04  0.80420003934E+02 0.  0.
         24    2    4    4    0    0  0.12835578535E+03  0.28623768698E+03 -0.71373946755E+02  0.33151856516E+03  0.80019358212E+02 0.  0.
         11    1    3    3    0    0 -0.76687308506E+03 -0.12129357472E+03  0.33787143873E+03  0.84673701288E+03  0.00000000000E+00 0. -1.
        -11    1    3    3    0    0 -0.47091371764E+03 -0.56119109872E+02  0.28466258241E+03  0.55312012238E+03  0.00000000000E+00 0.  1.
          2    1    6    6  502    0  0.89733189443E+02  0.19315837496E+03 -0.85993919892E+02  0.22968926262E+03  0.00000000000E+00 0. -1.
          1    1    5    5  503    0  0.19730333392E+03 -0.49070126803E+02 -0.25204554719E+03  0.32382625091E+03  0.00000000000E+00 0. -1.
         -2    1    5    5    0  503  0.91212768344E+03 -0.59754875585E+02 -0.12157334815E+04  0.15210376242E+04  0.00000000000E+00 0.  1.
         -1    1    6    6    0  502  0.38622595906E+02  0.93079312021E+02  0.14619973137E+02  0.10182930254E+03  0.00000000000E+00 0.  1.
<mgrwt>
<rscale>  0 0.34567758E+04</rscale>
<asrwt>0</asrwt>
<pdfrwt beam="1">  1        1 0.34560450E+00 0.34567758E+04</pdfrwt>
<pdfrwt beam="2">  1       -1 0.20458620E+00 0.34567758E+04</pdfrwt>
<totfact> 0.23208423E-01</totfact>
</mgrwt>
</event>
<event>
12    1  0.2019083E-007  0.1335538E+04  0.7818608E-02  0.9001848E-01
         -2   -1    0    0    0  501 -0.00000000000E+00  0.00000000000E+00  0.97595006487E+02  0.97595006487E+02  0.00000000000E+00 0.  1.
          2   -1    0    0  501    0  0.00000000000E+00 -0.00000000000E+00 -0.45690414769E+04  0.45690414769E+04  0.00000000000E+00 0. -1.
         23    2    1    2    0    0  0.16754652491E+03  0.14926230778E+03 -0.22026370732E+04  0.22161297312E+04  0.96279980956E+02 0.  0.
        254    2    1    2    0    0 -0.16754652491E+03 -0.14926230778E+03 -0.22688093972E+04  0.24505067522E+04  0.89840758407E+03 0.  0.
        -24    2    4    4    0    0  0.20549062851E+03 -0.19635005244E+03 -0.18809452233E+04  0.19041413103E+04  0.83782188767E+02 0.  0.
         24    2    4    4    0    0 -0.37303715341E+03  0.47087744665E+02 -0.38786417394E+03  0.54636544188E+03  0.81869439561E+02 0.  0.
         11    1    3    3    0    0  0.14968275235E+03  0.13426626614E+03 -0.21376060904E+04  0.21470426531E+04  0.00000000000E+00 0. -1.
        -11    1    3    3    0    0  0.17863772558E+02  0.14996041638E+02 -0.65030982869E+02  0.69087078153E+02  0.00000000000E+00 0.  1.
          2    1    6    6  502    0 -0.10969087323E+03  0.11285872495E+02 -0.17039124238E+03  0.20295968582E+03  0.00000000000E+00 0. -1.
          3    1    5    5  503    0  0.12330962929E+03 -0.88762868747E+02 -0.75901906492E+03  0.77407625751E+03  0.00000000000E+00 0. -1.
         -4    1    5    5    0  503  0.82180999221E+02 -0.10758718369E+03 -0.11219261584E+04  0.11300650528E+04  0.00000000000E+00 0.  1.
         -1    1    6    6    0  502 -0.26334628018E+03  0.35801872170E+02 -0.21747293156E+03  0.34340575606E+03  0.00000000000E+00 0.  1.
<mgrwt>
<rscale>  0 0.13355383E+04</rscale>
<asrwt>0</asrwt>
<pdfrwt beam="1">  1        2 0.70292917E+00 0.13355383E+04</pdfrwt>
<pdfrwt beam="2">  1       -2 0.15014623E-01 0.13355383E+04</pdfrwt>
<totfact> 0.37816300E+00</totfact>
</mgrwt>
</event>
<event>
12    1  0.2019083E-007  0.1286661E+04  0.7818608E-02  0.9040211E-01
          2   -1    0    0  501    0  0.00000000000E+00  0.00000000000E+00  0.25428063137E+03  0.25428063137E+03  0.00000000000E+00 0.  1.
         -2   -1    0    0    0  501 -0.00000000000E+00 -0.00000000000E+00 -0.16276262154E+04  0.16276262154E+04  0.00000000000E+00 0. -1.
         23    2    1    2    0    0  0.41256980682E+02  0.31259399350E+03 -0.31417600087E+03  0.45403456174E+03  0.89574999337E+02 0.  0.
        254    2    1    2    0    0 -0.41256980682E+02 -0.31259399350E+03 -0.10591695832E+04  0.14278722850E+04  0.90419130344E+03 0.  0.
        -24    2    4    4    0    0  0.13403258877E+03 -0.37466124196E+03 -0.11375649993E+04  0.12079057565E+04  0.81525503830E+02 0.  0.
         24    2    4    4    0    0 -0.17528956945E+03  0.62067248463E+02  0.78395416147E+02  0.21996652856E+03  0.87525173068E+02 0.  0.
         13    1    3    3    0    0 -0.28077869150E+02  0.92232843602E+02 -0.10232554055E+03  0.14059082624E+03  0.00000000000E+00 0. -1.
        -13    1    3    3    0    0  0.69334849831E+02  0.22036114990E+03 -0.21185046032E+03  0.31344373550E+03  0.00000000000E+00 0.  1.
          2    1    6    6  502    0 -0.14404142255E+03  0.94918638053E+01  0.55947096304E+02  0.15481635725E+03  0.00000000000E+00 0. -1.
          3    1    5    5  503    0  0.12128108267E+03 -0.24887325509E+03 -0.71105014264E+03  0.76304606903E+03  0.00000000000E+00 0. -1.
         -4    1    5    5    0  503  0.12751506105E+02 -0.12578798687E+03 -0.42651485666E+03  0.44485968743E+03  0.00000000000E+00 0.  1.
         -3    1    6    6    0  502 -0.31248146906E+02  0.52575384658E+02  0.22448319843E+02  0.65150171303E+02  0.00000000000E+00 0.  1.
<mgrwt>
<rscale>  0 0.12866605E+04</rscale>
<asrwt>0</asrwt>
<pdfrwt beam="1">  1        2 0.39120098E-01 0.12866605E+04</pdfrwt>
<pdfrwt beam="2">  1       -2 0.25040403E+00 0.12866605E+04</pdfrwt>
<totfact> 0.82941287E+00</totfact>
</mgrwt>
</event>
<event>
12    1  0.2019083E-007  0.2096900E+04  0.7818608E-02  0.8562610E-01
         -2   -1    0    0    0  501 -0.00000000000E+00  0.00000000000E+00  0.72375710930E+03  0.72375710930E+03  0.00000000000E+00 0.  1.
          2   -1    0    0  501    0  0.00000000000E+00 -0.00000000000E+00 -0.15188071146E+04  0.15188071146E+04  0.00000000000E+00 0. -1.
         23    2    1    2    0    0 -0.62473097894E+03 -0.57919083217E+03 -0.29246243474E+03  0.90583059194E+03  0.96145563789E+02 0.  0.
        254    2    1    2    0    0  0.62473097894E+03  0.57919083217E+03 -0.50258757060E+03  0.13367336320E+04  0.89917279802E+03 0.  0.
        -24    2    4    4    0    0  0.30873516336E+03  0.25209098386E+03  0.23245014313E+03  0.46854339813E+03  0.81440663366E+02 0.  0.
         24    2    4    4    0    0  0.31599581558E+03  0.32709984831E+03 -0.73503771374E+03  0.86819023387E+03  0.81401322767E+02 0.  0.
         11    1    3    3    0    0 -0.27761734836E+03 -0.22528081144E+03 -0.79249764009E+02  0.36620125780E+03  0.00000000000E+00 0.  1.
        -11    1    3    3    0    0 -0.34711363058E+03 -0.35391002073E+03 -0.21321267073E+03  0.53962933414E+03  0.00000000000E+00 0. -1.
          4    1    6    6  502    0  0.95292538279E+01  0.38996610000E+02 -0.83897319546E+02  0.93007002408E+02  0.00000000000E+00 0. -1.
          1    1    5    5  503    0  0.13060572079E+03  0.87452234786E+02  0.49724854107E+02  0.16485845076E+03  0.00000000000E+00 0. -1.
         -2    1    5    5    0  503  0.17812944257E+03  0.16463874907E+03  0.18272528903E+03  0.30368494737E+03  0.00000000000E+00 0.  1.
         -3    1    6    6    0  502  0.30646656175E+03  0.28810323831E+03 -0.65114039419E+03  0.77518323147E+03  0.00000000000E+00 0.  1.
<mgrwt>
<rscale>  0 0.20969000E+04</rscale>
<asrwt>0</asrwt>
<pdfrwt beam="1">  1        2 0.23366263E+00 0.20969000E+04</pdfrwt>
<pdfrwt beam="2">  1       -2 0.11134725E+00 0.20969000E+04</pdfrwt>
<totfact> 0.72846955E+00</totfact>
</mgrwt>
</event>
<event>
12    1  0.2019083E-007  0.2052494E+04  0.7818608E-02  0.8582464E-01
          1   -1    0    0  501    0  0.00000000000E+00  0.00000000000E+00  0.32914804593E+04  0.32914804593E+04  0.00000000000E+00 0. -1.
         -1   -1    0    0    0  501 -0.00000000000E+00 -0.00000000000E+00 -0.31997236177E+03  0.31997236177E+03  0.00000000000E+00 0.  1.
         23    2    1    2    0    0 -0.37340456319E+03  0.36000972937E+03  0.71747324943E+02  0.53137116814E+03  0.90386208290E+02 0.  0.
        254    2    1    2    0    0  0.37340456319E+03 -0.36000972937E+03  0.28997607726E+04  0.30800816530E+04  0.89958461384E+03 0.  0.
        -24    2    4    4    0    0  0.45167960832E+03 -0.35291551194E+03  0.85634460307E+03  0.10336021330E+04  0.80271183690E+02 0.  0.
         24    2    4    4    0    0 -0.78275045129E+02 -0.70942174219E+01  0.20434161696E+04  0.20464795200E+04  0.79696130227E+02 0.  0.
         13    1    3    3    0    0 -0.14157082690E+02  0.14816409088E+02  0.22958426341E+02  0.30773987532E+02  0.00000000000E+00 0. -1.
        -13    1    3    3    0    0 -0.35924748050E+03  0.34519332028E+03  0.48788898602E+02  0.50059718061E+03  0.00000000000E+00 0.  1.
          2    1    6    6  502    0 -0.17695441978E+02  0.26314044324E+02  0.11309781237E+04  0.11314225885E+04  0.00000000000E+00 0. -1.
          1    1    5    5  503    0  0.37348508344E+03 -0.31818490167E+03  0.76139408419E+03  0.90578898793E+03  0.00000000000E+00 0. -1.
         -2    1    5    5    0  503  0.78194524878E+02 -0.34730610269E+02  0.94950518876E+02  0.12781314504E+03  0.00000000000E+00 0.  1.
         -1    1    6    6    0  502 -0.60579603151E+02 -0.33408261746E+02  0.91243804589E+03  0.91505693149E+03  0.00000000000E+00 0.  1.
<mgrwt>
<rscale>  0 0.20524939E+04</rscale>
<asrwt>0</asrwt>
<pdfrwt beam="1">  1        1 0.50638158E+00 0.20524939E+04</pdfrwt>
<pdfrwt beam="2">  1       -1 0.49226520E-01 0.20524939E+04</pdfrwt>
<totfact> 0.13881028E+00</totfact>
</mgrwt>
</event>
<event>
12    1  0.2019083E-007  0.1834183E+04  0.7818608E-02  0.8688330E-01
          2   -1    0    0  501    0  0.00000000000E+00  0.00000000000E+00  0.26475077380E+04  0.26475077380E+04  0.00000000000E+00 0. -1.
         -2   -1    0    0    0  501 -0.00000000000E+00 -0.00000000000E+00 -0.31767864233E+03  0.31767864233E+03  0.00000000000E+00 0.  1.
         23    2    1    2    0    0 -0.48554525343E+03 -0.20739570097E+03  0.16141749887E+03  0.55873148916E+03  0.85779357248E+02 0.  0.
        254    2    1    2    0    0  0.48554525343E+03  0.20739570097E+03  0.21684115968E+04  0.24064548912E+04  0.90013838948E+03 0.  0.
        -24    2    4    4    0    0  0.66220088653E+03  0.38615262160E+03  0.14679531174E+04  0.16580276125E+04  0.80903323445E+02 0.  0.
         24    2    4    4    0    0 -0.17665563311E+03 -0.17875692063E+03  0.70045847940E+03  0.74842727864E+03  0.79624497914E+02 0.  0.
         11    1    3    3    0    0 -0.39912222587E+03 -0.13262153178E+03  0.12389934084E+03  0.43844961915E+03  0.00000000000E+00 0.  1.
        -11    1    3    3    0    0 -0.86423027560E+02 -0.74774169191E+02  0.37518158030E+02  0.12028187001E+03  0.00000000000E+00 0. -1.
          2    1    6    6  502    0 -0.25354284637E+02  0.41721574709E+01  0.83884293015E+02  0.87731529463E+02  0.00000000000E+00 0. -1.
          3    1    5    5  503    0  0.44867906490E+01  0.14840388243E+02  0.27479592195E+02  0.31551488091E+02  0.00000000000E+00 0. -1.
         -4    1    5    5    0  503  0.65771409588E+03  0.37131223336E+03  0.14404735252E+04  0.16264761244E+04  0.00000000000E+00 0.  1.
         -1    1    6    6    0  502 -0.15130134847E+03 -0.18292907810E+03  0.61657418638E+03  0.66069574917E+03  0.00000000000E+00 0.  1.
<mgrwt>
<rscale>  0 0.18341828E+04</rscale>
<asrwt>0</asrwt>
<pdfrwt beam="1">  1        2 0.40730887E+00 0.18341828E+04</pdfrwt>
<pdfrwt beam="2">  1       -2 0.48873639E-01 0.18341828E+04</pdfrwt>
<totfact> 0.10665952E+01</totfact>
</mgrwt>
</event>
<event>
12    1  0.2019083E-007  0.1766175E+04  0.7818608E-02  0.8724497E-01
         -1   -1    0    0    0  501 -0.00000000000E+00  0.00000000000E+00  0.74060559099E+03  0.74060559099E+03  0.00000000000E+00 0.  1.
          1   -1    0    0  501    0  0.00000000000E+00 -0.00000000000E+00 -0.10529808756E+04  0.10529808756E+04  0.00000000000E+00 0. -1.
         23    2    1    2    0    0 -0.20059372399E+03  0.59139320368E+03  0.68360161873E+02  0.63445436801E+03  0.88743844212E+02 0.  0.
        254    2    1    2    0    0  0.20059372399E+03 -0.59139320368E+03 -0.38073544646E+03  0.11591320986E+04  0.89924633902E+03 0.  0.
        -24    2    4    4    0    0  0.37065480278E+03 -0.75400977496E+03 -0.26380277037E+03  0.88422724493E+03  0.79688113677E+02 0.  0.
         24    2    4    4    0    0 -0.17006107879E+03  0.16261657128E+03 -0.11693267610E+03  0.27490485363E+03  0.80836303947E+02 0.  0.
         13    1    3    3    0    0 -0.14905535123E+03  0.35467047218E+03  0.75606928248E+02  0.39207786110E+03  0.00000000000E+00 0.  1.
        -13    1    3    3    0    0 -0.51538372763E+02  0.23672273151E+03 -0.72467663746E+01  0.24237650691E+03  0.00000000000E+00 0. -1.
          4    1    6    6  502    0 -0.11666465683E+03  0.10041656253E+03 -0.11630387435E+03  0.19292672021E+03  0.00000000000E+00 0. -1.
          1    1    5    5  503    0  0.35723551604E+03 -0.72745854033E+03 -0.23751546031E+03  0.84452752217E+03  0.00000000000E+00 0. -1.
         -2    1    5    5    0  503  0.13419286741E+02 -0.26551234629E+02 -0.26287310055E+02  0.39699722756E+02  0.00000000000E+00 0.  1.
         -3    1    6    6    0  502 -0.53396421963E+02  0.62200008746E+02 -0.62880174485E+00  0.81978133414E+02  0.00000000000E+00 0.  1.
<mgrwt>
<rscale>  0 0.17661750E+04</rscale>
<asrwt>0</asrwt>
<pdfrwt beam="1">  1        1 0.16199706E+00 0.17661750E+04</pdfrwt>
<pdfrwt beam="2">  1       -1 0.11393932E+00 0.17661750E+04</pdfrwt>
<totfact> 0.91447728E+00</totfact>
</mgrwt>
</event>
<event>
12    1  0.2019083E-007  0.1095174E+04  0.7818608E-02  0.9209908E-01
         -1   -1    0    0    0  501 -0.00000000000E+00  0.00000000000E+00  0.18867652986E+03  0.18867652986E+03  0.00000000000E+00 0.  1.
          1   -1    0    0  501    0  0.00000000000E+00 -0.00000000000E+00 -0.15892364670E+04  0.15892364670E+04  0.00000000000E+00 0. -1.
         23    2    1    2    0    0 -0.14146332035E+03  0.55183763115E+02 -0.15604640623E+03  0.23533873215E+03  0.89312480861E+02 0.  0.
        254    2    1    2    0    0  0.14146332035E+03 -0.55183763115E+02 -0.12445135309E+04  0.15425742647E+04  0.89870146034E+03 0.  0.
        -24    2    4    4    0    0  0.51051408980E+03 -0.38809603459E+02 -0.85519630068E+03  0.10000553876E+04  0.81358738440E+02 0.  0.
         24    2    4    4    0    0 -0.36905076945E+03 -0.16374159656E+02 -0.38931723019E+03  0.54251887710E+03  0.79323658185E+02 0.  0.
         11    1    3    3    0    0 -0.98424138472E+01  0.44842801319E+01 -0.68459702110E+02  0.69308821167E+02  0.00000000000E+00 0. -1.
        -11    1    3    3    0    0 -0.13162090650E+03  0.50699482983E+02 -0.87586704124E+02  0.16602991098E+03  0.00000000000E+00 0.  1.
          2    1    6    6  502    0 -0.67385218327E+02  0.96379071235E+01 -0.35302198195E+02  0.76680519692E+02  0.00000000000E+00 0. -1.
          3    1    5    5  503    0  0.77119021941E+02 -0.23393078028E+02 -0.18495219421E+03  0.20174710354E+03  0.00000000000E+00 0. -1.
         -4    1    5    5    0  503  0.43339506786E+03 -0.15416525431E+02 -0.67024410648E+03  0.79830828404E+03  0.00000000000E+00 0.  1.
         -1    1    6    6    0  502 -0.30166555113E+03 -0.26012066779E+02 -0.35401503199E+03  0.46583835741E+03  0.00000000000E+00 0.  1.
<mgrwt>
<rscale>  0 0.10951742E+04</rscale>
<asrwt>0</asrwt>
<pdfrwt beam="1">  1        1 0.24449792E+00 0.10951742E+04</pdfrwt>
<pdfrwt beam="2">  1       -1 0.29027159E-01 0.10951742E+04</pdfrwt>
<totfact> 0.61175588E+01</totfact>
</mgrwt>
</event>
<event>
12    1  0.2019083E-007  0.2740534E+04  0.7818608E-02  0.8321972E-01
          1   -1    0    0  501    0  0.00000000000E+00  0.00000000000E+00  0.16360044559E+04  0.16360044559E+04  0.00000000000E+00 0. -1.
         -1   -1    0    0    0  501 -0.00000000000E+00 -0.00000000000E+00 -0.11476931836E+04  0.11476931836E+04  0.00000000000E+00 0.  1.
         23    2    1    2    0    0 -0.92716698551E+03 -0.77587223823E+03  0.38675571603E+03  0.12725596329E+04  0.90618355410E+02 0.  0.
        254    2    1    2    0    0  0.92716698551E+03  0.77587223823E+03  0.10155555623E+03  0.15111380066E+04  0.90089299867E+03 0.  0.
        -24    2    4    4    0    0  0.10170526726E+04  0.37332941883E+03  0.50301374263E+02  0.10874477594E+04  0.79002578036E+02 0.  0.
         24    2    4    4    0    0 -0.89885687126E+02  0.40254281941E+03  0.51254181965E+02  0.42369024723E+03  0.82257377921E+02 0.  0.
         13    1    3    3    0    0 -0.44588407989E+03 -0.33663375354E+03  0.21581062132E+03  0.59892330143E+03  0.00000000000E+00 0. -1.
        -13    1    3    3    0    0 -0.48128290562E+03 -0.43923848470E+03  0.17094509472E+03  0.67363633148E+03  0.00000000000E+00 0.  1.
          2    1    6    6  502    0  0.80738409694E+01  0.41385140727E+02 -0.12745922983E+02  0.44049691641E+02  0.00000000000E+00 0. -1.
          1    1    5    5  503    0  0.69915400191E+03  0.21803703788E+03  0.26373047823E+02  0.73283832181E+03  0.00000000000E+00 0. -1.
         -2    1    5    5    0  503  0.31789867073E+03  0.15529238095E+03  0.23928326440E+02  0.35460943760E+03  0.00000000000E+00 0.  1.
         -1    1    6    6    0  502 -0.97959528095E+02  0.36115767868E+03  0.64000104948E+02  0.37964055559E+03  0.00000000000E+00 0.  1.
<mgrwt>
<rscale>  0 0.27405336E+04</rscale>
<asrwt>0</asrwt>
<pdfrwt beam="1">  1        1 0.25169299E+00 0.27405336E+04</pdfrwt>
<pdfrwt beam="2">  1       -1 0.17656818E+00 0.27405336E+04</pdfrwt>
<totfact> 0.10106762E+00</totfact>
</mgrwt>
</event>
<event>
12    1  0.2019083E-007  0.1255651E+04  0.7818608E-02  0.9065493E-01
         -2   -1    0    0    0  501 -0.00000000000E+00  0.00000000000E+00  0.41662579568E+03  0.41662579568E+03  0.00000000000E+00 0. -1.
          2   -1    0    0  501    0  0.00000000000E+00 -0.00000000000E+00 -0.94608890534E+03  0.94608890534E+03  0.00000000000E+00 0.  1.
         23    2    1    2    0    0 -0.11670032617E+03  0.25620043978E+03 -0.31881685795E+02  0.29769797170E+03  0.91378383599E+02 0.  0.
        254    2    1    2    0    0  0.11670032617E+03 -0.25620043978E+03 -0.49758142386E+03  0.10650167293E+04  0.89856314685E+03 0.  0.
        -24    2    4    4    0    0 -0.19663931401E+02  0.17172700690E+03  0.16918609124E+03  0.25713035846E+03  0.87265415110E+02 0.  0.
         24    2    4    4    0    0  0.13636425758E+03 -0.42792744668E+03 -0.66676751510E+03  0.80788637086E+03  0.79902181863E+02 0.  0.
         13    1    3    3    0    0 -0.97146455530E+02  0.24673177992E+03 -0.78255054164E+01  0.26528332699E+03  0.00000000000E+00 0. -1.
        -13    1    3    3    0    0 -0.19553870644E+02  0.94686598576E+01 -0.24056180379E+02  0.32414644701E+02  0.00000000000E+00 0.  1.
          4    1    6    6  502    0 -0.80763801354E+01 -0.61135634399E+02 -0.80372923163E+02  0.10130449391E+03  0.00000000000E+00 0. -1.
          3    1    5    5  503    0 -0.22003610036E+02  0.48292189576E+02  0.73421698258E+01  0.53574265151E+02  0.00000000000E+00 0. -1.
         -2    1    5    5    0  503  0.23396786349E+01  0.12343481733E+03  0.16184392141E+03  0.20355609330E+03  0.00000000000E+00 0.  1.
         -3    1    6    6    0  502  0.14444063771E+03 -0.36679181228E+03 -0.58639459194E+03  0.70658187695E+03  0.00000000000E+00 0.  1.
<mgrwt>
<rscale>  0 0.12556513E+04</rscale>
<asrwt>0</asrwt>
<pdfrwt beam="1">  1        2 0.14555214E+00 0.12556513E+04</pdfrwt>
<pdfrwt beam="2">  1       -2 0.64096277E-01 0.12556513E+04</pdfrwt>
<totfact> 0.60424879E+01</totfact>
</mgrwt>
</event>
<event>
12    1  0.2019083E-007  0.2172100E+04  0.7818608E-02  0.8530131E-01
          1   -1    0    0  501    0  0.00000000000E+00  0.00000000000E+00  0.17759015107E+04  0.17759015107E+04  0.00000000000E+00 0. -1.
         -1   -1    0    0    0  501 -0.00000000000E+00 -0.00000000000E+00 -0.66417200094E+03  0.66417200094E+03  0.00000000000E+00 0.  1.
         23    2    1    2    0    0 -0.42577932460E+03  0.74080458154E+03  0.76105627779E+03  0.11478154782E+04  0.90522112074E+02 0.  0.
        254    2    1    2    0    0  0.42577932460E+03 -0.74080458154E+03  0.35067323197E+03  0.12922580334E+04  0.90381394548E+03 0.  0.
        -24    2    4    4    0    0 -0.24501111920E+03 -0.22712375009E+03 -0.60400798454E+02  0.34931580493E+03  0.82204797531E+02 0.  0.
         24    2    4    4    0    0  0.67079044380E+03 -0.51368083145E+03  0.41107403043E+03  0.94294222849E+03  0.79563632973E+02 0.  0.
         11    1    3    3    0    0 -0.16658450785E+03  0.23701433776E+03  0.30348630660E+03  0.41955945092E+03  0.00000000000E+00 0. -1.
        -11    1    3    3    0    0 -0.25919481676E+03  0.50379024378E+03  0.45756997118E+03  0.72825602729E+03  0.00000000000E+00 0.  1.
          4    1    6    6  502    0  0.10103077064E+03 -0.11573857549E+03  0.76873527656E+02  0.17179107581E+03  0.00000000000E+00 0. -1.
          3    1    5    5  503    0 -0.31463361151E+02 -0.28793934183E+02  0.19828860863E+02  0.47034215884E+02  0.00000000000E+00 0. -1.
         -4    1    5    5    0  503 -0.21354775805E+03 -0.19832981590E+03 -0.80229659317E+02  0.30228158905E+03  0.00000000000E+00 0.  1.
         -3    1    6    6    0  502  0.56975967316E+03 -0.39794225596E+03  0.33420050277E+03  0.77115115268E+03  0.00000000000E+00 0.  1.
<mgrwt>
<rscale>  0 0.21720995E+04</rscale>
<asrwt>0</asrwt>
<pdfrwt beam="1">  1        1 0.27321562E+00 0.21720995E+04</pdfrwt>
<pdfrwt beam="2">  1       -1 0.10218031E+00 0.21720995E+04</pdfrwt>
<totfact> 0.35063299E+00</totfact>
</mgrwt>
</event>
<event>
12    1  0.2019083E-007  0.1832160E+04  0.7818608E-02  0.8689382E-01
         -2   -1    0    0    0  501 -0.00000000000E+00  0.00000000000E+00  0.47089655810E+03  0.47089655810E+03  0.00000000000E+00 0.  1.
          2   -1    0    0  501    0  0.00000000000E+00 -0.00000000000E+00 -0.17821379174E+04  0.17821379174E+04  0.00000000000E+00 0. -1.
         23    2    1    2    0    0 -0.44196707410E+02 -0.68272016371E+03 -0.60307654971E+03  0.91822154115E+03  0.10662693345E+03 0.  0.
        254    2    1    2    0    0  0.44196707410E+02  0.68272016371E+03 -0.70816480961E+03  0.13348129344E+04  0.90120364030E+03 0.  0.
        -24    2    4    4    0    0 -0.26402605316E+03  0.17899376938E+03  0.87333385727E+02  0.34061447554E+03  0.81501990545E+02 0.  0.
         24    2    4    4    0    0  0.30822276057E+03  0.50372639434E+03 -0.79549819534E+03  0.99419845882E+03  0.82895393414E+02 0.  0.
         13    1    3    3    0    0  0.19228327583E+02 -0.34530838711E+03 -0.25824253223E+03  0.43162114898E+03  0.00000000000E+00 0. -1.
        -13    1    3    3    0    0 -0.63425034993E+02 -0.33741177660E+03 -0.34483401748E+03  0.48660039218E+03  0.00000000000E+00 0.  1.
          4    1    6    6  502    0  0.30111541423E+03  0.45553954882E+03 -0.74843985747E+03  0.92647125885E+03  0.00000000000E+00 0. -1.
          1    1    5    5  503    0 -0.20254224456E+03  0.96692333600E+02  0.42044000661E+02  0.22834286982E+03  0.00000000000E+00 0. -1.
         -2    1    5    5    0  503 -0.61483808607E+02  0.82301435776E+02  0.45289385066E+02  0.11227160572E+03  0.00000000000E+00 0.  1.
         -1    1    6    6    0  502  0.71073463450E+01  0.48186845519E+02 -0.47058337865E+02  0.67727199970E+02  0.00000000000E+00 0.  1.
<mgrwt>
<rscale>  0 0.18321600E+04</rscale>
<asrwt>0</asrwt>
<pdfrwt beam="1">  1        2 0.27417506E+00 0.18321600E+04</pdfrwt>
<pdfrwt beam="2">  1       -2 0.72445624E-01 0.18321600E+04</pdfrwt>
<totfact> 0.14329757E+01</totfact>
</mgrwt>
</event>
<event>
12    1  0.2019083E-007  0.2262586E+04  0.7818608E-02  0.8492821E-01
         -1   -1    0    0    0  501 -0.00000000000E+00  0.00000000000E+00  0.13041630623E+04  0.13041630623E+04  0.00000000000E+00 0.  1.
          1   -1    0    0  501    0  0.00000000000E+00 -0.00000000000E+00 -0.98133761957E+03  0.98133761957E+03  0.00000000000E+00 0. -1.
         23    2    1    2    0    0 -0.72319692138E+01 -0.94515700429E+03  0.42759225097E+02  0.95059192006E+03  0.91774631616E+02 0.  0.
        254    2    1    2    0    0  0.72319692138E+01  0.94515700429E+03  0.28006621763E+03  0.13349087618E+04  0.90009457946E+03 0.  0.
        -24    2    4    4    0    0 -0.36337579108E+03  0.82890969323E+03  0.21421969082E+03  0.93349347468E+03  0.79917121157E+02 0.  0.
         24    2    4    4    0    0  0.37060776030E+03  0.11624731106E+03  0.65846526806E+02  0.40141528713E+03  0.77038421134E+02 0.  0.
         11    1    3    3    0    0 -0.34490948279E+02 -0.15086238026E+03  0.12379564849E+02  0.15524927349E+03  0.00000000000E+00 0. -1.
        -11    1    3    3    0    0  0.27258979066E+02 -0.79429462403E+03  0.30379660248E+02  0.79534264657E+03  0.00000000000E+00 0.  1.
          2    1    6    6  502    0  0.12034817674E+03  0.24693503815E+02  0.55295458839E+02  0.13472579762E+03  0.00000000000E+00 0. -1.
          3    1    5    5  503    0 -0.13477235846E+03  0.40608407448E+03  0.10576010843E+03  0.44074149418E+03  0.00000000000E+00 0. -1.
         -4    1    5    5    0  503 -0.22860343262E+03  0.42282561875E+03  0.10845958240E+03  0.49275198050E+03  0.00000000000E+00 0.  1.
         -1    1    6    6    0  502  0.25025958356E+03  0.91553807245E+02  0.10551067967E+02  0.26668948952E+03  0.00000000000E+00 0.  1.
<mgrwt>
<rscale>  0 0.22625864E+04</rscale>
<asrwt>0</asrwt>
<pdfrwt beam="1">  1        1 0.15097502E+00 0.22625864E+04</pdfrwt>
<pdfrwt beam="2">  1       -1 0.20064047E+00 0.22625864E+04</pdfrwt>
<totfact> 0.21142910E+00</totfact>
</mgrwt>
</event>
<event>
12    1  0.2019083E-007  0.3092644E+04  0.7818608E-02  0.8217760E-01
         -2   -1    0    0    0  501 -0.00000000000E+00  0.00000000000E+00  0.90198540078E+03  0.90198540078E+03  0.00000000000E+00 0. -1.
          2   -1    0    0  501    0  0.00000000000E+00 -0.00000000000E+00 -0.26509432706E+04  0.26509432706E+04  0.00000000000E+00 0.  1.
         23    2    1    2    0    0  0.99519896580E+03  0.81129990763E+03 -0.12195378149E+03  0.12930381601E+04  0.91904499322E+02 0.  0.
        254    2    1    2    0    0 -0.99519896580E+03 -0.81129990763E+03 -0.16270040884E+04  0.22598905113E+04  0.90074097159E+03 0.  0.
        -24    2    4    4    0    0 -0.33044528383E+03  0.11699071294E+03 -0.70063568497E+03  0.78740735897E+03  0.78987805280E+02 0.  0.
         24    2    4    4    0    0 -0.66475368197E+03 -0.92829062057E+03 -0.92636840340E+03  0.14724831523E+04  0.80170326171E+02 0.  0.
         13    1    3    3    0    0  0.25107689722E+03  0.22118992072E+03  0.65462143261E+01  0.33467512944E+03  0.00000000000E+00 0. -1.
        -13    1    3    3    0    0  0.74412206858E+03  0.59010998691E+03 -0.12849999581E+03  0.95836303066E+03  0.00000000000E+00 0.  1.
          4    1    6    6  502    0 -0.40713000322E+03 -0.63068736006E+03 -0.62288041831E+03  0.97544933296E+03  0.00000000000E+00 0. -1.
          1    1    5    5  503    0 -0.27539208602E+03  0.81763372377E+02 -0.62214873285E+03  0.68527008974E+03  0.00000000000E+00 0. -1.
         -2    1    5    5    0  503 -0.55053197812E+02  0.35227340561E+02 -0.78486952120E+02  0.10213726923E+03  0.00000000000E+00 0.  1.
         -3    1    6    6    0  502 -0.25762367875E+03 -0.29760326050E+03 -0.30348798509E+03  0.49703381938E+03  0.00000000000E+00 0.  1.
<mgrwt>
<rscale>  0 0.30926443E+04</rscale>
<asrwt>0</asrwt>
<pdfrwt beam="1">  1        2 0.40783743E+00 0.30926443E+04</pdfrwt>
<pdfrwt beam="2">  1       -2 0.13876698E+00 0.30926443E+04</pdfrwt>
<totfact> 0.88632739E-01</totfact>
</mgrwt>
</event>
<event>
12    1  0.2019083E-007  0.1908500E+04  0.7818608E-02  0.8650637E-01
         -2   -1    0    0    0  501 -0.00000000000E+00  0.00000000000E+00  0.42727484993E+03  0.42727484993E+03  0.00000000000E+00 0.  1.
          2   -1    0    0  501    0  0.00000000000E+00 -0.00000000000E+00 -0.21311652966E+04  0.21311652966E+04  0.00000000000E+00 0. -1.
         23    2    1    2    0    0 -0.47311351487E+03 -0.28936611880E+03 -0.13208109721E+04  0.14354077479E+04  0.91019942734E+02 0.  0.
        254    2    1    2    0    0  0.47311351487E+03  0.28936611880E+03 -0.38307947456E+03  0.11230323987E+04  0.89826651721E+03 0.  0.
        -24    2    4    4    0    0  0.55277363506E+03  0.26721255714E+03 -0.60902156861E+03  0.86807912650E+03  0.75451020655E+02 0.  0.
         24    2    4    4    0    0 -0.79660120188E+02  0.22153561667E+02  0.22594209405E+03  0.25495327216E+03  0.84349428424E+02 0.  0.
         11    1    3    3    0    0 -0.33340382918E+02 -0.27923254056E+02 -0.17911991226E+03  0.18432371583E+03  0.00000000000E+00 0. -1.
        -11    1    3    3    0    0 -0.43977313195E+03 -0.26144286475E+03 -0.11416910599E+04  0.12510840321E+04  0.00000000000E+00 0.  1.
          2    1    6    6  502    0  0.83369798468E+01  0.22614486919E+02  0.21192191522E+02  0.32094068503E+02  0.00000000000E+00 0. -1.
          1    1    5    5  503    0  0.24070822755E+03  0.10436501661E+03 -0.31082703451E+03  0.40675047988E+03  0.00000000000E+00 0. -1.
         -2    1    5    5    0  503  0.31206540751E+03  0.16284754053E+03 -0.29819453410E+03  0.46132864662E+03  0.00000000000E+00 0.  1.
         -1    1    6    6    0  502 -0.87997100035E+02 -0.46092525188E+00  0.20474990253E+03  0.22285920365E+03  0.00000000000E+00 0.  1.
<mgrwt>
<rscale>  0 0.19085003E+04</rscale>
<asrwt>0</asrwt>
<pdfrwt beam="1">  1        2 0.32787158E+00 0.19085003E+04</pdfrwt>
<pdfrwt beam="2">  1       -2 0.65734592E-01 0.19085003E+04</pdfrwt>
<totfact> 0.11257757E+01</totfact>
</mgrwt>
</event>
<event>
12    1  0.2019083E-007  0.1760311E+04  0.7818608E-02  0.8727695E-01
         -1   -1    0    0    0  501 -0.00000000000E+00  0.00000000000E+00  0.26970611647E+03  0.26970611647E+03  0.00000000000E+00 0.  1.
          1   -1    0    0  501    0  0.00000000000E+00 -0.00000000000E+00 -0.28722892536E+04  0.28722892536E+04  0.00000000000E+00 0. -1.
         23    2    1    2    0    0 -0.52239674397E+03 -0.31894580664E+03 -0.13279110883E+04  0.14651386372E+04  0.93051501648E+02 0.  0.
        254    2    1    2    0    0  0.52239674397E+03  0.31894580664E+03 -0.12746720488E+04  0.16768567329E+04  0.90135169883E+03 0.  0.
        -24    2    4    4    0    0  0.70776120388E+03  0.45400283101E+03 -0.95002826910E+03  0.12712715496E+04  0.80827894706E+02 0.  0.
         24    2    4    4    0    0 -0.18536445991E+03 -0.13505702437E+03 -0.32464377970E+03  0.40558518326E+03  0.80655900908E+02 0.  0.
         11    1    3    3    0    0 -0.25243196972E+03 -0.11465320557E+03 -0.67371654781E+03  0.72853362563E+03  0.00000000000E+00 0. -1.
        -11    1    3    3    0    0 -0.26996477425E+03 -0.20429260107E+03 -0.65419454053E+03  0.73660501155E+03  0.00000000000E+00 0.  1.
          4    1    6    6  502    0 -0.64183661919E+02 -0.92166962369E+02 -0.12408059479E+03  0.16736273604E+03  0.00000000000E+00 0. -1.
          3    1    5    5  503    0  0.51510250724E+03  0.33298261971E+03 -0.74499779294E+03  0.96500245050E+03  0.00000000000E+00 0. -1.
         -4    1    5    5    0  503  0.19265869664E+03  0.12102021129E+03 -0.20503047616E+03  0.30626909914E+03  0.00000000000E+00 0.  1.
         -3    1    6    6    0  502 -0.12118079799E+03 -0.42890062003E+02 -0.20056318491E+03  0.23822244722E+03  0.00000000000E+00 0.  1.
<mgrwt>
<rscale>  0 0.17603113E+04</rscale>
<asrwt>0</asrwt>
<pdfrwt beam="1">  1        1 0.44189065E+00 0.17603113E+04</pdfrwt>
<pdfrwt beam="2">  1       -1 0.41493249E-01 0.17603113E+04</pdfrwt>
<totfact> 0.39989201E+00</totfact>
</mgrwt>
</event>
<event>
12    1  0.2019083E-007  0.2277573E+04  0.7818608E-02  0.8486816E-01
         -1   -1    0    0    0  501 -0.00000000000E+00  0.00000000000E+00  0.26086782724E+04  0.26086782724E+04  0.00000000000E+00 0.  1.
          1   -1    0    0  501    0  0.00000000000E+00 -0.00000000000E+00 -0.49712347082E+03  0.49712347082E+03  0.00000000000E+00 0. -1.
         23    2    1    2    0    0 -0.63767314715E+03 -0.71480044678E+02 -0.77709758096E+02  0.65284637684E+03  0.91832161439E+02 0.  0.
        254    2    1    2    0    0  0.63767314715E+03  0.71480044678E+02  0.21892645597E+04  0.24529553664E+04  0.90131807802E+03 0.  0.
        -24    2    4    4    0    0  0.25642471887E+03 -0.32766817196E+02  0.48932998563E+02  0.27496142553E+03  0.79887711374E+02 0.  0.
         24    2    4    4    0    0  0.38124842828E+03  0.10424686187E+03  0.21403315611E+04  0.21779939408E+04  0.80128912023E+02 0.  0.
         13    1    3    3    0    0 -0.48944187663E+03 -0.16411045331E+02 -0.68039792494E+02  0.49442096069E+03  0.00000000000E+00 0. -1.
        -13    1    3    3    0    0 -0.14823127051E+03 -0.55068999348E+02 -0.96699656019E+01  0.15842541615E+03  0.00000000000E+00 0.  1.
          4    1    6    6  502    0  0.49883266332E+02  0.39765118315E+02  0.26934464338E+03  0.27679620989E+03  0.00000000000E+00 0. -1.
          1    1    5    5  503    0  0.25811966329E+03 -0.36617353603E+02  0.38269353273E+02  0.26349788341E+03  0.00000000000E+00 0. -1.
         -2    1    5    5    0  503 -0.16949444214E+01  0.38505364061E+01  0.10663645290E+02  0.11463542126E+02  0.00000000000E+00 0.  1.
         -3    1    6    6    0  502  0.33136516195E+03  0.64481743559E+02  0.18709869177E+04  0.19011977309E+04  0.00000000000E+00 0.  1.
<mgrwt>
<rscale>  0 0.22775734E+04</rscale>
<asrwt>0</asrwt>
<pdfrwt beam="1">  1        1 0.76480535E-01 0.22775734E+04</pdfrwt>
<pdfrwt beam="2">  1       -1 0.40133511E+00 0.22775734E+04</pdfrwt>
<totfact> 0.28360450E-01</totfact>
</mgrwt>
</event>
<event>
12    1  0.2019083E-007  0.2863724E+04  0.7818608E-02  0.8283753E-01
          1   -1    0    0  501    0  0.00000000000E+00  0.00000000000E+00  0.10890190409E+04  0.10890190409E+04  0.00000000000E+00 0. -1.
         -1   -1    0    0    0  501 -0.00000000000E+00 -0.00000000000E+00 -0.18826384141E+04  0.18826384141E+04  0.00000000000E+00 0.  1.
         23    2    1    2    0    0 -0.32172720796E+03 -0.95681938554E+03 -0.11884823905E+04  0.15619850129E+04  0.91077193148E+02 0.  0.
        254    2    1    2    0    0  0.32172720796E+03  0.95681938554E+03  0.39486301729E+03  0.14096724421E+04  0.90124794512E+03 0.  0.
        -24    2    4    4    0    0  0.61794283176E+03  0.72746696212E+03  0.18805593816E+03  0.97607422998E+03  0.79336890767E+02 0.  0.
         24    2    4    4    0    0 -0.29621562380E+03  0.22935242341E+03  0.20680707913E+03  0.43359821208E+03  0.69942916927E+02 0.  0.
         13    1    3    3    0    0 -0.16738389459E+03 -0.42728031551E+03 -0.60076776726E+03  0.75598131351E+03  0.00000000000E+00 0. -1.
        -13    1    3    3    0    0 -0.15434331337E+03 -0.52953907003E+03 -0.58771462325E+03  0.80600369940E+03  0.00000000000E+00 0.  1.
          2    1    6    6  502    0 -0.24934112390E+03  0.15800381890E+03  0.15058489931E+03  0.33137895944E+03  0.00000000000E+00 0. -1.
          1    1    5    5  503    0  0.49443858029E+03  0.60349854093E+03  0.18122523650E+03  0.80095105028E+03  0.00000000000E+00 0. -1.
         -4    1    5    5    0  503  0.12350425147E+03  0.12396842119E+03  0.68307016616E+01  0.17512317970E+03  0.00000000000E+00 0.  1.
         -1    1    6    6    0  502 -0.46874499897E+02  0.71348604515E+02  0.56222179818E+02  0.10221925264E+03  0.00000000000E+00 0.  1.
<mgrwt>
<rscale>  0 0.28637242E+04</rscale>
<asrwt>0</asrwt>
<pdfrwt beam="1">  1        1 0.16754139E+00 0.28637242E+04</pdfrwt>
<pdfrwt beam="2">  1       -1 0.28963668E+00 0.28637242E+04</pdfrwt>
<totfact> 0.42890755E-01</totfact>
</mgrwt>
</event>
<event>
12    1  0.2019083E-007  0.2577282E+04  0.7818608E-02  0.8375959E-01
          2   -1    0    0  501    0  0.00000000000E+00  0.00000000000E+00  0.29001927298E+04  0.29001927298E+04  0.00000000000E+00 0. -1.
         -2   -1    0    0    0  501 -0.00000000000E+00 -0.00000000000E+00 -0.57258115918E+03  0.57258115918E+03  0.00000000000E+00 0.  1.
         23    2    1    2    0    0  0.90039433258E+03 -0.42130109692E+03  0.17493105552E+04  0.20140920291E+04  0.90965458584E+02 0.  0.
        254    2    1    2    0    0 -0.90039433258E+03  0.42130109692E+03  0.57830101534E+03  0.14586818598E+04  0.89728263966E+03 0.  0.
        -24    2    4    4    0    0 -0.74199021690E+02 -0.24212852869E+03  0.45251554263E+02  0.26986629160E+03  0.81537678119E+02 0.  0.
         24    2    4    4    0    0 -0.82619531089E+03  0.66342962560E+03  0.53304946107E+03  0.11888155682E+04  0.80019794074E+02 0.  0.
         11    1    3    3    0    0  0.63038354062E+03 -0.28852886561E+03  0.11335049661E+04  0.13287083287E+04  0.00000000000E+00 0. -1.
        -11    1    3    3    0    0  0.27001079196E+03 -0.13277223131E+03  0.61580558911E+03  0.68538370039E+03  0.00000000000E+00 0.  1.
          2    1    6    6  502    0 -0.14535085553E+03  0.10888609319E+03  0.59200200719E+02  0.19101758102E+03  0.00000000000E+00 0. -1.
          3    1    5    5  503    0  0.27671513922E+01 -0.12996736474E+03  0.20484096735E+02  0.13160080259E+03  0.00000000000E+00 0. -1.
         -4    1    5    5    0  503 -0.76966173082E+02 -0.11216116395E+03  0.24767457528E+02  0.13826548900E+03  0.00000000000E+00 0.  1.
         -1    1    6    6    0  502 -0.68084445535E+03  0.55454353241E+03  0.47384926035E+03  0.99779798720E+03  0.00000000000E+00 0.  1.
<mgrwt>
<rscale>  0 0.25772821E+04</rscale>
<asrwt>0</asrwt>
<pdfrwt beam="1">  1        2 0.44618349E+00 0.25772821E+04</pdfrwt>
<pdfrwt beam="2">  1       -2 0.88089411E-01 0.25772821E+04</pdfrwt>
<totfact> 0.19762162E+00</totfact>
</mgrwt>
</event>
<event>
12    1  0.2019083E-007  0.1434498E+04  0.7818608E-02  0.8929219E-01
         -3   -1    0    0    0  501 -0.00000000000E+00  0.00000000000E+00  0.93281673832E+03  0.93281673832E+03  0.00000000000E+00 0.  1.
          3   -1    0    0  501    0  0.00000000000E+00 -0.00000000000E+00 -0.55149736467E+03  0.55149736467E+03  0.00000000000E+00 0. -1.
         23    2    1    2    0    0  0.30739367287E+02 -0.26066294137E+03 -0.23542171193E+03  0.36463477776E+03  0.92978820173E+02 0.  0.
        254    2    1    2    0    0 -0.30739367287E+02  0.26066294137E+03  0.61674108558E+03  0.11196793252E+04  0.89689583955E+03 0.  0.
        -24    2    4    4    0    0 -0.37593114770E+03  0.10932779874E+03  0.61575147295E+03  0.73411838501E+03  0.80641995098E+02 0.  0.
         24    2    4    4    0    0  0.34519178042E+03  0.15133514263E+03  0.98961263297E+00  0.38556094023E+03  0.81219262700E+02 0.  0.
         13    1    3    3    0    0 -0.24252031629E+02 -0.32817895434E+02 -0.16847995897E+02  0.44147822876E+02  0.00000000000E+00 0.  1.
        -13    1    3    3    0    0  0.54991398917E+02 -0.22784504594E+03 -0.21857371603E+03  0.32048695489E+03  0.00000000000E+00 0. -1.
          2    1    6    6  502    0  0.34023513814E+03  0.15259606190E+03  0.12360393389E+02  0.37309286599E+03  0.00000000000E+00 0. -1.
          1    1    5    5  503    0 -0.30020838569E+03  0.54897920129E+02  0.49550017152E+03  0.58194439292E+03  0.00000000000E+00 0. -1.
         -2    1    5    5    0  503 -0.75722762009E+02  0.54429878608E+02  0.12025130143E+03  0.15217399209E+03  0.00000000000E+00 0.  1.
         -1    1    6    6    0  502  0.49566422806E+01 -0.12609192703E+01 -0.11370780756E+02  0.12468074234E+02  0.00000000000E+00 0.  1.
<mgrwt>
<rscale>  0 0.14344978E+04</rscale>
<asrwt>0</asrwt>
<pdfrwt beam="1">  1        3 0.84845749E-01 0.14344978E+04</pdfrwt>
<pdfrwt beam="2">  1       -3 0.14351027E+00 0.14344978E+04</pdfrwt>
<totfact> 0.11726289E+00</totfact>
</mgrwt>
</event>
<event>
12    1  0.2019083E-007  0.1048016E+04  0.7818608E-02  0.9257394E-01
          1   -1    0    0  501    0  0.00000000000E+00  0.00000000000E+00  0.76731273002E+03  0.76731273002E+03  0.00000000000E+00 0. -1.
         -1   -1    0    0    0  501 -0.00000000000E+00 -0.00000000000E+00 -0.35785226097E+03  0.35785226097E+03  0.00000000000E+00 0.  1.
         23    2    1    2    0    0 -0.28106656214E+01 -0.98414540334E+02  0.84763757857E+01  0.13422897095E+03  0.90841874192E+02 0.  0.
        254    2    1    2    0    0  0.28106656214E+01  0.98414540334E+02  0.40098409326E+03  0.99093602004E+03  0.90081775692E+03 0.  0.
        -24    2    4    4    0    0 -0.45744366050E+01  0.17869246069E+03 -0.25712145644E+03  0.32300951858E+03  0.79194600553E+02 0.  0.
         24    2    4    4    0    0  0.73851022264E+01 -0.80277920356E+02  0.65810554969E+03  0.66792650146E+03  0.80770121825E+02 0.  0.
         13    1    3    3    0    0  0.11695301282E+02 -0.11281801530E+03  0.90092432873E+01  0.11377983614E+03  0.00000000000E+00 0.  1.
        -13    1    3    3    0    0 -0.14505966903E+02  0.14403474964E+02 -0.53286750161E+00  0.20449134813E+02  0.00000000000E+00 0. -1.
          2    1    6    6  502    0 -0.62003275590E+01 -0.11565094668E+02  0.40764937469E+03  0.40786052538E+03  0.00000000000E+00 0. -1.
          3    1    5    5  503    0  0.35260267421E+02  0.11511325826E+03 -0.16311501794E+03  0.20273346483E+03  0.00000000000E+00 0. -1.
         -4    1    5    5    0  503 -0.39834704026E+02  0.63579202432E+02 -0.94006438497E+02  0.12027605375E+03  0.00000000000E+00 0.  1.
         -1    1    6    6    0  502  0.13585429785E+02 -0.68712825689E+02  0.25045617501E+03  0.26006597608E+03  0.00000000000E+00 0.  1.
<mgrwt>
<rscale>  0 0.10480164E+04</rscale>
<asrwt>0</asrwt>
<pdfrwt beam="1">  1        1 0.11804811E+00 0.10480164E+04</pdfrwt>
<pdfrwt beam="2">  1       -1 0.55054194E-01 0.10480164E+04</pdfrwt>
<totfact> 0.78771928E+01</totfact>
</mgrwt>
</event>
<event>
12    1  0.2019083E-007  0.1454848E+04  0.7818608E-02  0.8915046E-01
          1   -1    0    0  501    0  0.00000000000E+00  0.00000000000E+00  0.22127170582E+04  0.22127170582E+04  0.00000000000E+00 0. -1.
         -1   -1    0    0    0  501 -0.00000000000E+00 -0.00000000000E+00 -0.23913858064E+03  0.23913858064E+03  0.00000000000E+00 0.  1.
         23    2    1    2    0    0  0.26476171375E+03  0.34514081122E+03  0.69231451197E+03  0.82701480657E+03  0.12423027877E+03 0.  0.
        254    2    1    2    0    0 -0.26476171375E+03 -0.34514081122E+03  0.12812639656E+04  0.16248408322E+04  0.89958292338E+03 0.  0.
        -24    2    4    4    0    0 -0.54860548706E+03 -0.32384862053E+03  0.58660897031E+03  0.86959413738E+03  0.78980822074E+02 0.  0.
         24    2    4    4    0    0  0.28384377331E+03 -0.21292190693E+02  0.69465499525E+03  0.75524669486E+03  0.82652057753E+02 0.  0.
         13    1    3    3    0    0  0.20677543627E+03  0.28183304298E+03  0.44915564411E+03  0.56914562091E+03  0.00000000000E+00 0. -1.
        -13    1    3    3    0    0  0.57986277475E+02  0.63307768241E+02  0.24315886786E+03  0.25786918566E+03  0.00000000000E+00 0.  1.
          4    1    6    6  502    0  0.23557295975E+02 -0.23183718992E+02  0.11849204895E+03  0.12301543270E+03  0.00000000000E+00 0. -1.
          1    1    5    5  503    0 -0.12586601582E+03 -0.61585665129E+02  0.89253105381E+02  0.16613598318E+03  0.00000000000E+00 0. -1.
         -2    1    5    5    0  503 -0.42273947124E+03 -0.26226295540E+03  0.49735586493E+03  0.70345815419E+03  0.00000000000E+00 0.  1.
         -3    1    6    6    0  502  0.26028647734E+03  0.18915282983E+01  0.57616294630E+03  0.63223126216E+03  0.00000000000E+00 0.  1.
<mgrwt>
<rscale>  0 0.14548485E+04</rscale>
<asrwt>0</asrwt>
<pdfrwt beam="1">  1        1 0.34041799E+00 0.14548485E+04</pdfrwt>
<pdfrwt beam="2">  1       -1 0.36790552E-01 0.14548485E+04</pdfrwt>
<totfact> 0.14726951E+01</totfact>
</mgrwt>
</event>
<event>
12    1  0.2019083E-007  0.1906088E+04  0.7818608E-02  0.8651832E-01
          1   -1    0    0  501    0  0.00000000000E+00  0.00000000000E+00  0.67390179099E+03  0.67390179099E+03  0.00000000000E+00 0. -1.
         -1   -1    0    0    0  501 -0.00000000000E+00 -0.00000000000E+00 -0.13478123707E+04  0.13478123707E+04  0.00000000000E+00 0.  1.
         23    2    1    2    0    0  0.24423170936E+03 -0.68866955950E+03 -0.15959687785E+03  0.75370083566E+03  0.93160593653E+02 0.  0.
        254    2    1    2    0    0 -0.24423170936E+03  0.68866955950E+03 -0.51431370185E+03  0.12680133260E+04  0.89968012152E+03 0.  0.
        -24    2    4    4    0    0  0.32726469774E+03  0.35834510479E+03 -0.18126033732E+03  0.52418045965E+03  0.79977796190E+02 0.  0.
         24    2    4    4    0    0 -0.57149640709E+03  0.33032445471E+03 -0.33305336453E+03  0.74383286639E+03  0.81488654348E+02 0.  0.
         13    1    3    3    0    0  0.19259323772E+03 -0.61322427538E+03 -0.11905376394E+03  0.65368950263E+03  0.00000000000E+00 0. -1.
        -13    1    3    3    0    0  0.51638471642E+02 -0.75445284116E+02 -0.40543113911E+02  0.10001133303E+03  0.00000000000E+00 0.  1.
          2    1    6    6  502    0 -0.29777826490E+02  0.37609177816E+02 -0.12155437056E+02  0.49486602798E+02  0.00000000000E+00 0. -1.
          1    1    5    5  503    0  0.12200541693E+03  0.13117265223E+03 -0.10866978485E+03  0.20952495935E+03  0.00000000000E+00 0. -1.
         -2    1    5    5    0  503  0.20525928080E+03  0.22717245256E+03 -0.72590552473E+02  0.31465550030E+03  0.00000000000E+00 0.  1.
         -1    1    6    6    0  502 -0.54171858061E+03  0.29271527690E+03 -0.32089792747E+03  0.69434626359E+03  0.00000000000E+00 0.  1.
<mgrwt>
<rscale>  0 0.19060883E+04</rscale>
<asrwt>0</asrwt>
<pdfrwt beam="1">  1        1 0.10367720E+00 0.19060883E+04</pdfrwt>
<pdfrwt beam="2">  1       -1 0.20735575E+00 0.19060883E+04</pdfrwt>
<totfact> 0.36152517E+00</totfact>
</mgrwt>
</event>
<event>
12    1  0.2019083E-007  0.2416542E+04  0.7818608E-02  0.8433336E-01
         -2   -1    0    0    0  501 -0.00000000000E+00  0.00000000000E+00  0.94439193424E+03  0.94439193424E+03  0.00000000000E+00 0.  1.
          2   -1    0    0  501    0  0.00000000000E+00 -0.00000000000E+00 -0.15458821154E+04  0.15458821154E+04  0.00000000000E+00 0. -1.
         23    2    1    2    0    0 -0.22826484444E+03  0.88249812898E+03 -0.76745457803E+03  0.11951300140E+04  0.91877277807E+02 0.  0.
        254    2    1    2    0    0  0.22826484444E+03 -0.88249812898E+03  0.16596439686E+03  0.12951440356E+04  0.90495641066E+03 0.  0.
        -24    2    4    4    0    0 -0.22426187409E+02 -0.27648769229E+03  0.48327956347E+03  0.56224148877E+03  0.74886429709E+02 0.  0.
         24    2    4    4    0    0  0.25069103185E+03 -0.60601043669E+03 -0.31731516662E+03  0.73290254688E+03  0.79765816183E+02 0.  0.
         11    1    3    3    0    0 -0.64922462009E+01  0.10061199990E+03 -0.11476665522E+03  0.15276226279E+03  0.00000000000E+00 0. -1.
        -11    1    3    3    0    0 -0.22177259824E+03  0.78188612908E+03 -0.65268792282E+03  0.10423677512E+04  0.00000000000E+00 0.  1.
          4    1    6    6  502    0  0.17958694945E+03 -0.33486832344E+03 -0.19444411540E+03  0.42684514812E+03  0.00000000000E+00 0. -1.
          1    1    5    5  503    0 -0.47050848518E+02 -0.22500064224E+03  0.39840290330E+03  0.45996080780E+03  0.00000000000E+00 0. -1.
         -2    1    5    5    0  503  0.24624661109E+02 -0.51487050051E+02  0.84876660177E+02  0.10228068097E+03  0.00000000000E+00 0.  1.
         -3    1    6    6    0  502  0.71104082401E+02 -0.27114211325E+03 -0.12287105121E+03  0.30605739876E+03  0.00000000000E+00 0.  1.
<mgrwt>
<rscale>  0 0.24165418E+04</rscale>
<asrwt>0</asrwt>
<pdfrwt beam="1">  1        2 0.23782802E+00 0.24165418E+04</pdfrwt>
<pdfrwt beam="2">  1       -2 0.14529107E+00 0.24165418E+04</pdfrwt>
<totfact> 0.35013468E+00</totfact>
</mgrwt>
</event>
<event>
12    1  0.2019083E-007  0.2290404E+04  0.7818608E-02  0.8481714E-01
         -2   -1    0    0    0  501 -0.00000000000E+00  0.00000000000E+00  0.84169263839E+03  0.84169263839E+03  0.00000000000E+00 0.  1.
          2   -1    0    0  501    0  0.00000000000E+00 -0.00000000000E+00 -0.15581544355E+04  0.15581544355E+04  0.00000000000E+00 0. -1.
         23    2    1    2    0    0 -0.36076657748E+03  0.74661744209E+03  0.21549705241E+03  0.86165956969E+03  0.91804717635E+02 0.  0.
        254    2    1    2    0    0  0.36076657748E+03 -0.74661744209E+03 -0.93195884948E+03  0.15381875042E+04  0.89993520463E+03 0.  0.
        -24    2    4    4    0    0 -0.28785565215E+03 -0.24511094992E+03 -0.19805817607E+03  0.43493181392E+03  0.83656364975E+02 0.  0.
         24    2    4    4    0    0  0.64862222963E+03 -0.50150649217E+03 -0.73390067341E+03  0.11032556902E+04  0.79645220445E+02 0.  0.
         11    1    3    3    0    0 -0.11867336288E+03  0.26817565016E+03  0.12075644834E+03  0.31714928064E+03  0.00000000000E+00 0. -1.
        -11    1    3    3    0    0 -0.24209321459E+03  0.47844179194E+03  0.94740604079E+02  0.54451028905E+03  0.00000000000E+00 0.  1.
          2    1    6    6  502    0  0.12837624275E+03 -0.84186535122E+02 -0.10064237696E+03  0.18356666483E+03  0.00000000000E+00 0. -1.
          1    1    5    5  503    0 -0.25473454782E+03 -0.21116195433E+03 -0.20145687306E+03  0.38738086234E+03  0.00000000000E+00 0. -1.
         -2    1    5    5    0  503 -0.33121104331E+02 -0.33948995598E+02  0.33986969892E+01  0.47550951572E+02  0.00000000000E+00 0.  1.
         -1    1    6    6    0  502  0.52024598688E+03 -0.41731995705E+03 -0.63325829645E+03  0.91968902540E+03  0.00000000000E+00 0.  1.
<mgrwt>
<rscale>  0 0.22904036E+04</rscale>
<asrwt>0</asrwt>
<pdfrwt beam="1">  1        2 0.23971606E+00 0.22904036E+04</pdfrwt>
<pdfrwt beam="2">  1       -2 0.12949118E+00 0.22904036E+04</pdfrwt>
<totfact> 0.46855633E+00</totfact>
</mgrwt>
</event>
<event>
12    1  0.2019083E-007  0.1369259E+04  0.7818608E-02  0.8976376E-01
          2   -1    0    0  501    0  0.00000000000E+00  0.00000000000E+00  0.10727849411E+04  0.10727849411E+04  0.00000000000E+00 0. -1.
         -2   -1    0    0    0  501 -0.00000000000E+00 -0.00000000000E+00 -0.43691676710E+03  0.43691676710E+03  0.00000000000E+00 0.  1.
         23    2    1    2    0    0  0.21554144378E+03  0.31192676493E+03  0.23663335756E+03  0.45421010217E+03  0.80963265351E+02 0.  0.
        254    2    1    2    0    0 -0.21554144378E+03 -0.31192676493E+03  0.39923481649E+03  0.10554916061E+04  0.90050967298E+03 0.  0.
        -24    2    4    4    0    0  0.74131586193E+02 -0.33013372557E+03 -0.18830072235E+03  0.39538669333E+03  0.79935639053E+02 0.  0.
         24    2    4    4    0    0 -0.28967302997E+03  0.18206960641E+02  0.58753553884E+03  0.66010491275E+03  0.79363270619E+02 0.  0.
         13    1    3    3    0    0  0.11632546090E+03  0.10456402666E+03  0.11498132948E+03  0.19412870642E+03  0.00000000000E+00 0.  1.
        -13    1    3    3    0    0  0.99215982880E+02  0.20736273827E+03  0.12165202808E+03  0.26008139576E+03  0.00000000000E+00 0. -1.
          4    1    6    6  502    0 -0.11814251785E+03 -0.30797490019E+02  0.22184273889E+03  0.25321994533E+03  0.00000000000E+00 0. -1.
          1    1    5    5  503    0  0.27717521434E+02 -0.17604734938E+03 -0.14218103314E+03  0.22798328097E+03  0.00000000000E+00 0. -1.
         -2    1    5    5    0  503  0.46414064758E+02 -0.15408637619E+03 -0.46119689213E+02  0.16740341235E+03  0.00000000000E+00 0.  1.
         -3    1    6    6    0  502 -0.17153051212E+03  0.49004450660E+02  0.36569279995E+03  0.40688496742E+03  0.00000000000E+00 0.  1.
<mgrwt>
<rscale>  0 0.13692593E+04</rscale>
<asrwt>0</asrwt>
<pdfrwt beam="1">  1        2 0.16504384E+00 0.13692593E+04</pdfrwt>
<pdfrwt beam="2">  1       -2 0.67217965E-01 0.13692593E+04</pdfrwt>
<totfact> 0.44870693E+01</totfact>
</mgrwt>
</event>
<event>
12    1  0.2019083E-007  0.1855884E+04  0.7818608E-02  0.8677133E-01
          2   -1    0    0  501    0  0.00000000000E+00  0.00000000000E+00  0.12092291184E+04  0.12092291184E+04  0.00000000000E+00 0. -1.
         -2   -1    0    0    0  501 -0.00000000000E+00 -0.00000000000E+00 -0.71208732727E+03  0.71208732727E+03  0.00000000000E+00 0.  1.
         23    2    1    2    0    0 -0.15033447495E+03 -0.60777431823E+02 -0.52051367725E+03  0.55265303221E+03  0.90534718356E+02 0.  0.
        254    2    1    2    0    0  0.15033447495E+03  0.60777431823E+02  0.10176554684E+04  0.13686634134E+04  0.90073444280E+03 0.  0.
        -24    2    4    4    0    0  0.49819796519E+03 -0.11346959030E+03  0.60669838672E+03  0.79721512490E+03  0.79952876622E+02 0.  0.
         24    2    4    4    0    0 -0.34786349024E+03  0.17424702212E+03  0.41095708164E+03  0.57144828855E+03  0.79349801342E+02 0.  0.
         11    1    3    3    0    0  0.96220517803E+00  0.65057110546E+01 -0.14835884704E+00  0.65781551729E+01  0.00000000000E+00 0. -1.
        -11    1    3    3    0    0 -0.15129668013E+03 -0.67283142878E+02 -0.52036531840E+03  0.54607487703E+03  0.00000000000E+00 0.  1.
          2    1    6    6  502    0 -0.31511100751E+03  0.13508040443E+03  0.33081381774E+03  0.47642359799E+03  0.00000000000E+00 0. -1.
          3    1    5    5  503    0  0.47026872532E+03 -0.92623557552E+02  0.58451379786E+03  0.75590222735E+03  0.00000000000E+00 0. -1.
         -4    1    5    5    0  503  0.27929239867E+02 -0.20846032748E+02  0.22184588863E+02  0.41312897549E+02  0.00000000000E+00 0.  1.
         -1    1    6    6    0  502 -0.32752482723E+02  0.39166617688E+02  0.80143263903E+02  0.95024690553E+02  0.00000000000E+00 0.  1.
<mgrwt>
<rscale>  0 0.18558844E+04</rscale>
<asrwt>0</asrwt>
<pdfrwt beam="1">  1        2 0.18603525E+00 0.18558844E+04</pdfrwt>
<pdfrwt beam="2">  1       -2 0.10955190E+00 0.18558844E+04</pdfrwt>
<totfact> 0.11665362E+01</totfact>
</mgrwt>
</event>
<event>
12    1  0.2019083E-007  0.1178975E+04  0.7818608E-02  0.9131462E-01
         -2   -1    0    0    0  501 -0.00000000000E+00  0.00000000000E+00  0.26307977264E+03  0.26307977264E+03  0.00000000000E+00 0.  1.
          2   -1    0    0  501    0  0.00000000000E+00 -0.00000000000E+00 -0.13208740906E+04  0.13208740906E+04  0.00000000000E+00 0. -1.
         23    2    1    2    0    0  0.12243558754E+03 -0.80602496873E+02  0.54052515178E+01  0.17119274415E+03  0.88263827855E+02 0.  0.
        254    2    1    2    0    0 -0.12243558754E+03  0.80602496873E+02 -0.10631995694E+04  0.14127611191E+04  0.91870202975E+03 0.  0.
        -24    2    4    4    0    0  0.20097833887E+03 -0.32885631268E+03 -0.35868646872E+03  0.53239625828E+03  0.79063429626E+02 0.  0.
         24    2    4    4    0    0 -0.32341392641E+03  0.40945880956E+03 -0.70451310072E+03  0.88036486078E+03  0.80314970447E+02 0.  0.
         13    1    3    3    0    0  0.11523480132E+03 -0.61277624541E+02 -0.26524171355E+02  0.13318235008E+03  0.00000000000E+00 0. -1.
        -13    1    3    3    0    0  0.72007862161E+01 -0.19324872332E+02  0.31929422873E+02  0.38010394076E+02  0.00000000000E+00 0.  1.
          2    1    6    6  502    0 -0.32481997089E+03  0.39872987753E+03 -0.67275096390E+03  0.84681012521E+03  0.00000000000E+00 0. -1.
          1    1    5    5  503    0  0.15578313723E+03 -0.18294525972E+03 -0.23086269566E+03  0.33321905430E+03  0.00000000000E+00 0. -1.
         -2    1    5    5    0  503  0.45195201636E+02 -0.14591105296E+03 -0.12782377306E+03  0.19917720398E+03  0.00000000000E+00 0.  1.
         -1    1    6    6    0  502  0.14060444820E+01  0.10728932030E+02 -0.31762136821E+02  0.33554735568E+02  0.00000000000E+00 0.  1.
<mgrwt>
<rscale>  0 0.11789746E+04</rscale>
<asrwt>0</asrwt>
<pdfrwt beam="1">  1        2 0.20321140E+00 0.11789746E+04</pdfrwt>
<pdfrwt beam="2">  1       -2 0.40473812E-01 0.11789746E+04</pdfrwt>
<totfact> 0.91731755E+01</totfact>
</mgrwt>
</event>
<event>
12    1  0.2019083E-007  0.2816267E+04  0.7818608E-02  0.8298236E-01
         -2   -1    0    0    0  501 -0.00000000000E+00  0.00000000000E+00  0.14864508360E+04  0.14864508360E+04  0.00000000000E+00 0.  1.
          2   -1    0    0  501    0  0.00000000000E+00 -0.00000000000E+00 -0.13339425218E+04  0.13339425218E+04  0.00000000000E+00 0. -1.
         23    2    1    2    0    0 -0.87333655063E+03  0.19660888472E+03 -0.82298503389E+03  0.12193167641E+04  0.89762024710E+02 0.  0.
        254    2    1    2    0    0  0.87333655063E+03 -0.19660888472E+03  0.97549334807E+03  0.16010765936E+04  0.90027062728E+03 0.  0.
        -24    2    4    4    0    0  0.69588072893E+03 -0.91595770909E+02  0.11855644200E+03  0.71639799009E+03  0.80812598770E+02 0.  0.
         24    2    4    4    0    0  0.17745582170E+03 -0.10501311381E+03  0.85693690607E+03  0.88467860354E+03  0.76138346879E+02 0.  0.
         11    1    3    3    0    0 -0.31205068156E+03  0.28138114655E+02 -0.27079503493E+03  0.41412236392E+03  0.00000000000E+00 0. -1.
        -11    1    3    3    0    0 -0.56128586907E+03  0.16847077006E+03 -0.55218999897E+03  0.80519440022E+03  0.00000000000E+00 0.  1.
          4    1    6    6  502    0  0.13733778167E+03 -0.11310350284E+03  0.66193275626E+03  0.68542617578E+03  0.00000000000E+00 0. -1.
          1    1    5    5  503    0  0.52289538446E+03 -0.41871806174E+02  0.11138992381E+03  0.53626536935E+03  0.00000000000E+00 0. -1.
         -2    1    5    5    0  503  0.17298534447E+03 -0.49723964734E+02  0.71665181944E+01  0.18013262073E+03  0.00000000000E+00 0.  1.
         -3    1    6    6    0  502  0.40118040032E+02  0.80903890302E+01  0.19500414981E+03  0.19925242777E+03  0.00000000000E+00 0.  1.
<mgrwt>
<rscale>  0 0.28162670E+04</rscale>
<asrwt>0</asrwt>
<pdfrwt beam="1">  1        2 0.20522193E+00 0.28162670E+04</pdfrwt>
<pdfrwt beam="2">  1       -2 0.22868474E+00 0.28162670E+04</pdfrwt>
<totfact> 0.11961791E+00</totfact>
</mgrwt>
</event>
<event>
12    1  0.2019083E-007  0.1726684E+04  0.7818608E-02  0.8746290E-01
          2   -1    0    0  501    0  0.00000000000E+00  0.00000000000E+00  0.99671563216E+03  0.99671563216E+03  0.00000000000E+00 0. -1.
         -2   -1    0    0    0  501 -0.00000000000E+00 -0.00000000000E+00 -0.74781591057E+03  0.74781591057E+03  0.00000000000E+00 0.  1.
         23    2    1    2    0    0 -0.38271388680E+03  0.48106790727E+03  0.21362367334E+03  0.65693000415E+03  0.89586304666E+02 0.  0.
        254    2    1    2    0    0  0.38271388680E+03 -0.48106790727E+03  0.35276048253E+02  0.10876015386E+04  0.89651350051E+03 0.  0.
        -24    2    4    4    0    0  0.66246167326E+03 -0.37355389876E+03 -0.49490941993E+02  0.76599900463E+03  0.76857907422E+02 0.  0.
         24    2    4    4    0    0 -0.27974778646E+03 -0.10751400851E+03  0.84766990246E+02  0.32160253396E+03  0.80153984018E+02 0.  0.
         11    1    3    3    0    0 -0.29470894531E+03  0.32966979230E+03  0.18568171987E+03  0.47959695109E+03  0.00000000000E+00 0. -1.
        -11    1    3    3    0    0 -0.88004941492E+02  0.15139811497E+03  0.27941953468E+02  0.17733305306E+03  0.00000000000E+00 0.  1.
          4    1    6    6  502    0 -0.30743736248E+02  0.12923498301E+02  0.13415135140E+02  0.35946626791E+02  0.00000000000E+00 0. -1.
          1    1    5    5  503    0  0.22537484549E+03 -0.16459190963E+03 -0.68931942592E+00  0.27907847079E+03  0.00000000000E+00 0. -1.
         -2    1    5    5    0  503  0.43708682777E+03 -0.20896198913E+03 -0.48801622568E+02  0.48692053384E+03  0.00000000000E+00 0.  1.
         -3    1    6    6    0  502 -0.24900405022E+03 -0.12043750682E+03  0.71351855106E+02  0.28565590717E+03  0.00000000000E+00 0.  1.
<mgrwt>
<rscale>  0 0.17266845E+04</rscale>
<asrwt>0</asrwt>
<pdfrwt beam="1">  1        2 0.15334087E+00 0.17266845E+04</pdfrwt>
<pdfrwt beam="2">  1       -2 0.11504860E+00 0.17266845E+04</pdfrwt>
<totfact> 0.14158833E+01</totfact>
</mgrwt>
</event>
<event>
12    1  0.2019083E-007  0.3443717E+04  0.7818608E-02  0.8127259E-01
          2   -1    0    0  501    0  0.00000000000E+00  0.00000000000E+00  0.30463782694E+04  0.30463782694E+04  0.00000000000E+00 0. -1.
         -2   -1    0    0    0  501 -0.00000000000E+00 -0.00000000000E+00 -0.97322024351E+03  0.97322024351E+03  0.00000000000E+00 0.  1.
         23    2    1    2    0    0 -0.11815781926E+04  0.32070959828E+03  0.21792000892E+04  0.25012272954E+04  0.90792525911E+02 0.  0.
        254    2    1    2    0    0  0.11815781926E+04 -0.32070959828E+03 -0.10604206335E+03  0.15183712175E+04  0.89175364502E+03 0.  0.
        -24    2    4    4    0    0 -0.57793248199E+02 -0.48697706673E+01 -0.20946918118E+03  0.23275543078E+03  0.83270513928E+02 0.  0.
         24    2    4    4    0    0  0.12393714408E+04 -0.31583982762E+03  0.10342711783E+03  0.12856157867E+04  0.79463309270E+02 0.  0.
         13    1    3    3    0    0 -0.88981633916E+03  0.28164250719E+03  0.16570794488E+04  0.19018432950E+04  0.00000000000E+00 0. -1.
        -13    1    3    3    0    0 -0.29176185340E+03  0.39067091097E+02  0.52212064044E+03  0.59938400035E+03  0.00000000000E+00 0.  1.
          2    1    6    6  502    0  0.42699602471E+03 -0.75069034874E+02  0.16411032931E+02  0.43385514531E+03  0.00000000000E+00 0. -1.
          1    1    5    5  503    0  0.21631311305E+02 -0.30639392224E+01 -0.39605679474E+02  0.45231749899E+02  0.00000000000E+00 0. -1.
         -2    1    5    5    0  503 -0.79424559504E+02 -0.18058314449E+01 -0.16986350171E+03  0.18752368088E+03  0.00000000000E+00 0.  1.
         -1    1    6    6    0  502  0.81237541605E+03 -0.24077079274E+03  0.87016084900E+02  0.85176064142E+03  0.00000000000E+00 0.  1.
<mgrwt>
<rscale>  0 0.34437172E+04</rscale>
<asrwt>0</asrwt>
<pdfrwt beam="1">  1        2 0.46867358E+00 0.34437172E+04</pdfrwt>
<pdfrwt beam="2">  1       -2 0.14972619E+00 0.34437172E+04</pdfrwt>
<totfact> 0.40425441E-01</totfact>
</mgrwt>
</event>
<event>
12    1  0.2019083E-007  0.2245374E+04  0.7818608E-02  0.8499776E-01
          2   -1    0    0  501    0  0.00000000000E+00  0.00000000000E+00  0.98704123770E+03  0.98704123770E+03  0.00000000000E+00 0. -1.
         -2   -1    0    0    0  501 -0.00000000000E+00 -0.00000000000E+00 -0.12769746058E+04  0.12769746058E+04  0.00000000000E+00 0.  1.
         23    2    1    2    0    0  0.57036190280E+03 -0.68730403009E+03 -0.42810996395E+03  0.99467030596E+03  0.91604292380E+02 0.  0.
        254    2    1    2    0    0 -0.57036190280E+03  0.68730403009E+03  0.13817659585E+03  0.12693455375E+04  0.89131688647E+03 0.  0.
        -24    2    4    4    0    0 -0.26291221532E+03  0.41859491737E+03 -0.36185850098E+03  0.61767395753E+03  0.78962049591E+02 0.  0.
         24    2    4    4    0    0 -0.30744968748E+03  0.26870911272E+03  0.50003509683E+03  0.65167158001E+03  0.88942973528E+02 0.  0.
         11    1    3    3    0    0  0.55692575535E+03 -0.66291669581E+03 -0.39571392529E+03  0.95195291544E+03  0.00000000000E+00 0. -1.
        -11    1    3    3    0    0  0.13436147450E+02 -0.24387334280E+02 -0.32396038660E+02  0.42717390515E+02  0.00000000000E+00 0.  1.
          2    1    6    6  502    0 -0.18424743591E+03  0.10499915726E+03  0.27619733337E+03  0.34821962556E+03  0.00000000000E+00 0. -1.
          1    1    5    5  503    0 -0.11910580168E+03  0.25877893083E+03 -0.18981963036E+03  0.34232180635E+03  0.00000000000E+00 0. -1.
         -2    1    5    5    0  503 -0.14380641363E+03  0.15981598654E+03 -0.17203887062E+03  0.27535215118E+03  0.00000000000E+00 0.  1.
         -1    1    6    6    0  502 -0.12320225157E+03  0.16370995546E+03  0.22383776346E+03  0.30345195444E+03  0.00000000000E+00 0.  1.
<mgrwt>
<rscale>  0 0.22453744E+04</rscale>
<asrwt>0</asrwt>
<pdfrwt beam="1">  1        2 0.15185250E+00 0.22453744E+04</pdfrwt>
<pdfrwt beam="2">  1       -2 0.19645763E+00 0.22453744E+04</pdfrwt>
<totfact> 0.32813033E+00</totfact>
</mgrwt>
</event>
<event>
12    1  0.2019083E-007  0.1862584E+04  0.7818608E-02  0.8673708E-01
         -2   -1    0    0    0  501 -0.00000000000E+00  0.00000000000E+00  0.10270834843E+04  0.10270834843E+04  0.00000000000E+00 0.  1.
          2   -1    0    0  501    0  0.00000000000E+00 -0.00000000000E+00 -0.84443471726E+03  0.84443471726E+03  0.00000000000E+00 0. -1.
         23    2    1    2    0    0 -0.13810248741E+03  0.69371576629E+03  0.55372877448E+01  0.71330521466E+03  0.91977205187E+02 0.  0.
        254    2    1    2    0    0  0.13810248741E+03 -0.69371576629E+03  0.17711147931E+03  0.11582129869E+04  0.89987498328E+03 0.  0.
        -24    2    4    4    0    0 -0.13588317178E+03 -0.80040145933E+02  0.40683676630E+03  0.44340745672E+03  0.78888255957E+02 0.  0.
         24    2    4    4    0    0  0.27398565919E+03 -0.61367562036E+03 -0.22972528699E+03  0.71480553020E+03  0.80668023780E+02 0.  0.
         11    1    3    3    0    0 -0.11077643821E+03  0.47624553894E+03 -0.35771719172E+02  0.49026609970E+03  0.00000000000E+00 0. -1.
        -11    1    3    3    0    0 -0.27326049200E+02  0.21747022734E+03  0.41309006917E+02  0.22303911495E+03  0.00000000000E+00 0.  1.
          2    1    6    6  502    0  0.23303285398E+03 -0.52976913056E+03 -0.22614285270E+03  0.62136964245E+03  0.00000000000E+00 0. -1.
          1    1    5    5  503    0 -0.11908728842E+03 -0.85174625513E+02  0.39730636329E+03  0.42342513554E+03  0.00000000000E+00 0. -1.
         -2    1    5    5    0  503 -0.16795883355E+02  0.51344795803E+01  0.95304030081E+01  0.19982321179E+02  0.00000000000E+00 0.  1.
         -1    1    6    6    0  502  0.40952805205E+02 -0.83906489793E+02 -0.35824342861E+01  0.93435887747E+02  0.00000000000E+00 0.  1.
<mgrwt>
<rscale>  0 0.18625842E+04</rscale>
<asrwt>0</asrwt>
<pdfrwt beam="1">  1        2 0.12991303E+00 0.18625842E+04</pdfrwt>
<pdfrwt beam="2">  1       -2 0.15801284E+00 0.18625842E+04</pdfrwt>
<totfact> 0.78367682E+00</totfact>
</mgrwt>
</event>
<event>
12    1  0.2019083E-007  0.3337963E+04  0.7818608E-02  0.8153302E-01
         -1   -1    0    0    0  501 -0.00000000000E+00  0.00000000000E+00  0.13918997963E+04  0.13918997963E+04  0.00000000000E+00 0.  1.
          1   -1    0    0  501    0  0.00000000000E+00 -0.00000000000E+00 -0.20012214962E+04  0.20012214962E+04  0.00000000000E+00 0. -1.
         23    2    1    2    0    0 -0.12154741006E+04  0.95209440494E+03 -0.17037401412E+03  0.15562088339E+04  0.94327009744E+02 0.  0.
        254    2    1    2    0    0  0.12154741006E+04 -0.95209440494E+03 -0.43894768582E+03  0.18369124586E+04  0.89314683257E+03 0.  0.
        -24    2    4    4    0    0  0.19195804570E+03  0.75871634311E+02  0.15215686379E+03  0.26841038045E+03  0.79297067623E+02 0.  0.
         24    2    4    4    0    0  0.10235160549E+04 -0.10279660392E+04 -0.59110454961E+03  0.15685020782E+04  0.80590868532E+02 0.  0.
         13    1    3    3    0    0 -0.55949906603E+03  0.38607562068E+03 -0.52324491211E+02  0.68178548103E+03  0.00000000000E+00 0.  1.
        -13    1    3    3    0    0 -0.65597503458E+03  0.56601878426E+03 -0.11804952291E+03  0.87442335284E+03  0.00000000000E+00 0. -1.
          4    1    6    6  502    0  0.69956442642E+03 -0.70392935846E+03 -0.36361956219E+03  0.10569418690E+04  0.00000000000E+00 0. -1.
          3    1    5    5  503    0  0.14058824652E+03  0.26558243960E+02  0.13134879199E+03  0.19422384133E+03  0.00000000000E+00 0. -1.
         -4    1    5    5    0  503  0.51369799179E+02  0.49313390351E+02  0.20808071804E+02  0.74186539128E+02  0.00000000000E+00 0.  1.
         -3    1    6    6    0  502  0.32395162848E+03 -0.32403668079E+03 -0.22748498742E+03  0.51156020916E+03  0.00000000000E+00 0.  1.
<mgrwt>
<rscale>  0 0.33379633E+04</rscale>
<asrwt>0</asrwt>
<pdfrwt beam="1">  1        1 0.30788023E+00 0.33379633E+04</pdfrwt>
<pdfrwt beam="2">  1       -1 0.21413843E+00 0.33379633E+04</pdfrwt>
<totfact> 0.29645772E-01</totfact>
</mgrwt>
</event>
<event>
12    1  0.2019083E-007  0.2121432E+04  0.7818608E-02  0.8551861E-01
         -1   -1    0    0    0  501 -0.00000000000E+00  0.00000000000E+00  0.10431874107E+04  0.10431874107E+04  0.00000000000E+00 0.  1.
          1   -1    0    0  501    0  0.00000000000E+00 -0.00000000000E+00 -0.10785390453E+04  0.10785390453E+04  0.00000000000E+00 0. -1.
         23    2    1    2    0    0  0.56567621606E+03 -0.14985358180E+03  0.62481262478E+03  0.86080326784E+03  0.90253933151E+02 0.  0.
        254    2    1    2    0    0 -0.56567621606E+03  0.14985358180E+03 -0.66016425941E+03  0.12609231882E+04  0.90092439176E+03 0.  0.
        -24    2    4    4    0    0 -0.73898315705E+03  0.26036413623E+03 -0.67922271438E+03  0.10399346799E+04  0.78962350960E+02 0.  0.
         24    2    4    4    0    0  0.17330694099E+03 -0.11051055443E+03  0.19058454966E+02  0.22098850828E+03  0.78897513592E+02 0.  0.
         11    1    3    3    0    0  0.42414294190E+03 -0.13650463678E+03  0.51616923639E+03  0.68188080455E+03  0.00000000000E+00 0.  1.
        -11    1    3    3    0    0  0.14153327416E+03 -0.13348945022E+02  0.10864338839E+03  0.17892246329E+03  0.00000000000E+00 0. -1.
          2    1    6    6  502    0  0.22333589545E+02  0.81752477194E+01 -0.11693516587E+02  0.26502117413E+02  0.00000000000E+00 0. -1.
          1    1    5    5  503    0 -0.16683466104E+03  0.90202926100E+02 -0.18548075290E+03  0.26528000621E+03  0.00000000000E+00 0. -1.
         -2    1    5    5    0  503 -0.57214849601E+03  0.17016121013E+03 -0.49374196148E+03  0.77465467368E+03  0.00000000000E+00 0.  1.
         -1    1    6    6    0  502  0.15097335145E+03 -0.11868580215E+03  0.30751971553E+02  0.19448639087E+03  0.00000000000E+00 0.  1.
<mgrwt>
<rscale>  0 0.21214319E+04</rscale>
<asrwt>0</asrwt>
<pdfrwt beam="1">  1        1 0.16592908E+00 0.21214319E+04</pdfrwt>
<pdfrwt beam="2">  1       -1 0.16049037E+00 0.21214319E+04</pdfrwt>
<totfact> 0.35010670E+00</totfact>
</mgrwt>
</event>
<event>
12    1  0.2019083E-007  0.1340960E+04  0.7818608E-02  0.8997700E-01
         -1   -1    0    0    0  501 -0.00000000000E+00  0.00000000000E+00  0.18580904145E+04  0.18580904145E+04  0.00000000000E+00 0.  1.
          1   -1    0    0  501    0  0.00000000000E+00 -0.00000000000E+00 -0.24193826840E+03  0.24193826840E+03  0.00000000000E+00 0. -1.
         23    2    1    2    0    0 -0.68235950342E+02 -0.19070114324E+03 -0.17974742132E+02  0.22320693706E+03  0.92060710654E+02 0.  0.
        254    2    1    2    0    0  0.68235950342E+02  0.19070114324E+03  0.16341268882E+04  0.18768217458E+04  0.90059208739E+03 0.  0.
        -24    2    4    4    0    0 -0.23083895001E+03 -0.79815428596E+02  0.13569405848E+04  0.13810902691E+04  0.80408067040E+02 0.  0.
         24    2    4    4    0    0  0.29907490035E+03  0.27051657183E+03  0.27718630340E+03  0.49573147671E+03  0.79324892416E+02 0.  0.
         13    1    3    3    0    0 -0.49647482835E+01 -0.10696768479E+03  0.24729439058E+02  0.10990122597E+03  0.00000000000E+00 0.  1.
        -13    1    3    3    0    0 -0.63271202058E+02 -0.83733458452E+02 -0.42704181190E+02  0.11330571109E+03  0.00000000000E+00 0. -1.
          4    1    6    6  502    0  0.14736682476E+03  0.13800448461E+03  0.18640077507E+03  0.27478622192E+03  0.00000000000E+00 0. -1.
          1    1    5    5  503    0 -0.34800654102E+02 -0.99286131728E+01  0.87284249097E+02  0.94489168829E+02  0.00000000000E+00 0. -1.
         -2    1    5    5    0  503 -0.19603829590E+03 -0.69886815423E+02  0.12696563357E+04  0.12866011003E+04  0.00000000000E+00 0.  1.
         -3    1    6    6    0  502  0.15170807559E+03  0.13251208723E+03  0.90785528323E+02  0.22094525479E+03  0.00000000000E+00 0.  1.
<mgrwt>
<rscale>  0 0.13409596E+04</rscale>
<asrwt>0</asrwt>
<pdfrwt beam="1">  1        1 0.37221273E-01 0.13409596E+04</pdfrwt>
<pdfrwt beam="2">  1       -1 0.28586005E+00 0.13409596E+04</pdfrwt>
<totfact> 0.46514620E+00</totfact>
</mgrwt>
</event>
<event>
12    1  0.2019083E-007  0.2013411E+04  0.7818608E-02  0.8600376E-01
          2   -1    0    0  501    0  0.00000000000E+00  0.00000000000E+00  0.19026977096E+04  0.19026977096E+04  0.00000000000E+00 0. -1.
         -2   -1    0    0    0  501 -0.00000000000E+00 -0.00000000000E+00 -0.53264185467E+03  0.53264185467E+03  0.00000000000E+00 0.  1.
         23    2    1    2    0    0  0.66914125516E+02 -0.66397782935E+03  0.10915373605E+04  0.12826484185E+04  0.91592018733E+02 0.  0.
        254    2    1    2    0    0 -0.66914125516E+02  0.66397782935E+03  0.27851849436E+03  0.11526911458E+04  0.89765264317E+03 0.  0.
        -24    2    4    4    0    0  0.23676098435E+03  0.22553116693E+02 -0.17571555402E+03  0.30635830515E+03  0.80093997453E+02 0.  0.
         24    2    4    4    0    0 -0.30367510987E+03  0.64142471265E+03  0.45423404838E+03  0.84633284063E+03  0.79413299031E+02 0.  0.
         11    1    3    3    0    0  0.88520379899E+01 -0.75149988358E+01  0.69383507721E+01  0.13526806553E+02  0.00000000000E+00 0.  1.
        -11    1    3    3    0    0  0.58062087526E+02 -0.65646283051E+03  0.10845990098E+04  0.12691216119E+04  0.00000000000E+00 0. -1.
          2    1    6    6  502    0 -0.15227231706E+03  0.23123765321E+03  0.17610779435E+03  0.32813361004E+03  0.00000000000E+00 0. -1.
          1    1    5    5  503    0  0.18083305514E+03  0.22850218804E+00 -0.91051022051E+02  0.20246218082E+03  0.00000000000E+00 0. -1.
         -2    1    5    5    0  503  0.55927929210E+02  0.22324614505E+02 -0.84664531965E+02  0.10389612433E+03  0.00000000000E+00 0.  1.
         -1    1    6    6    0  502 -0.15140279281E+03  0.41018705945E+03  0.27812625403E+03  0.51819923059E+03  0.00000000000E+00 0.  1.
<mgrwt>
<rscale>  0 0.20134115E+04</rscale>
<asrwt>0</asrwt>
<pdfrwt beam="1">  1        2 0.29272272E+00 0.20134115E+04</pdfrwt>
<pdfrwt beam="2">  1       -2 0.81944902E-01 0.20134115E+04</pdfrwt>
<totfact> 0.91946358E+00</totfact>
</mgrwt>
</event>
<event>
12    1  0.2019083E-007  0.1682923E+04  0.7818608E-02  0.8771164E-01
          2   -1    0    0  501    0  0.00000000000E+00  0.00000000000E+00  0.12213265364E+04  0.12213265364E+04  0.00000000000E+00 0.  1.
         -2   -1    0    0    0  501 -0.00000000000E+00 -0.00000000000E+00 -0.57974480995E+03  0.57974480995E+03  0.00000000000E+00 0. -1.
         23    2    1    2    0    0  0.37046457674E+03 -0.46659341801E+03  0.20812900094E+03  0.63741932793E+03  0.89623089895E+02 0.  0.
        254    2    1    2    0    0 -0.37046457674E+03  0.46659341801E+03  0.43345272555E+03  0.11636520185E+04  0.90069491752E+03 0.  0.
        -24    2    4    4    0    0 -0.60114229161E+02  0.46183043839E+03  0.63009526151E+03  0.78760806893E+03  0.80033476064E+02 0.  0.
         24    2    4    4    0    0 -0.31035034758E+03  0.47629796162E+01 -0.19664253596E+03  0.37604394953E+03  0.80004629969E+02 0.  0.
         11    1    3    3    0    0  0.32917470457E+03 -0.45013478983E+03  0.18672147756E+03  0.58808351901E+03  0.00000000000E+00 0. -1.
        -11    1    3    3    0    0  0.41289872163E+02 -0.16458628178E+02  0.21407523387E+02  0.49335808925E+02  0.00000000000E+00 0.  1.
          4    1    6    6  502    0 -0.13921295318E+02 -0.45664382138E+01 -0.35752305126E+02  0.38637833054E+02  0.00000000000E+00 0. -1.
          1    1    5    5  503    0 -0.42254441053E+02  0.11395441988E+03  0.12794035716E+03  0.17646467802E+03  0.00000000000E+00 0. -1.
         -2    1    5    5    0  503 -0.17859788108E+02  0.34787601851E+03  0.50215490435E+03  0.61114339091E+03  0.00000000000E+00 0.  1.
         -3    1    6    6    0  502 -0.29642905226E+03  0.93294178300E+01 -0.16089023084E+03  0.33740611648E+03  0.00000000000E+00 0.  1.
<mgrwt>
<rscale>  0 0.16829233E+04</rscale>
<asrwt>0</asrwt>
<pdfrwt beam="1">  1        2 0.18789639E+00 0.16829233E+04</pdfrwt>
<pdfrwt beam="2">  1       -2 0.89191510E-01 0.16829233E+04</pdfrwt>
<totfact> 0.18914080E+01</totfact>
</mgrwt>
</event>
<event>
12    1  0.2019083E-007  0.2291092E+04  0.7818608E-02  0.8481442E-01
          1   -1    0    0  501    0  0.00000000000E+00  0.00000000000E+00  0.13688646547E+04  0.13688646547E+04  0.00000000000E+00 0. -1.
         -1   -1    0    0    0  501 -0.00000000000E+00 -0.00000000000E+00 -0.95865966077E+03  0.95865966077E+03  0.00000000000E+00 0.  1.
         23    2    1    2    0    0 -0.34460646685E+03  0.82761599796E+03 -0.19336883050E+03  0.92174957935E+03  0.92352181040E+02 0.  0.
        254    2    1    2    0    0  0.34460646685E+03 -0.82761599796E+03  0.60357382442E+03  0.14057747361E+04  0.89899910460E+03 0.  0.
        -24    2    4    4    0    0 -0.27062108154E+03 -0.23136249603E+03  0.35855408810E+03  0.51112355037E+03  0.76953721841E+02 0.  0.
         24    2    4    4    0    0  0.61522754839E+03 -0.59625350193E+03  0.24501973633E+03  0.89465118574E+03  0.79642313438E+02 0.  0.
         11    1    3    3    0    0 -0.11410410741E+03  0.37478294499E+03 -0.10920319025E+03  0.40670301197E+03  0.00000000000E+00 0.  1.
        -11    1    3    3    0    0 -0.23050235944E+03  0.45283305297E+03 -0.84165640254E+02  0.51504656738E+03  0.00000000000E+00 0. -1.
          4    1    6    6  502    0  0.38931662038E+03 -0.32678544051E+03  0.12950310357E+03  0.52452569896E+03  0.00000000000E+00 0. -1.
          3    1    5    5  503    0 -0.93399883790E+02 -0.11425745951E+03  0.18612892328E+03  0.23753374797E+03  0.00000000000E+00 0. -1.
         -4    1    5    5    0  503 -0.17722119775E+03 -0.11710503653E+03  0.17242516481E+03  0.27358980239E+03  0.00000000000E+00 0.  1.
         -3    1    6    6    0  502  0.22591092801E+03 -0.26946806142E+03  0.11551663276E+03  0.37012548677E+03  0.00000000000E+00 0.  1.
<mgrwt>
<rscale>  0 0.22910917E+04</rscale>
<asrwt>0</asrwt>
<pdfrwt beam="1">  1        1 0.21059456E+00 0.22910917E+04</pdfrwt>
<pdfrwt beam="2">  1       -1 0.14748610E+00 0.22910917E+04</pdfrwt>
<totfact> 0.26692572E+00</totfact>
</mgrwt>
</event>
<event>
12    1  0.2019083E-007  0.1650516E+04  0.7818608E-02  0.8790101E-01
          1   -1    0    0  501    0  0.00000000000E+00  0.00000000000E+00  0.10034868578E+04  0.10034868578E+04  0.00000000000E+00 0. -1.
         -1   -1    0    0    0  501 -0.00000000000E+00 -0.00000000000E+00 -0.67868414781E+03  0.67868414781E+03  0.00000000000E+00 0.  1.
         23    2    1    2    0    0 -0.30038643816E+03 -0.44339089779E+03  0.32089752169E+03  0.63338112778E+03  0.10662519927E+03 0.  0.
        254    2    1    2    0    0  0.30038643816E+03  0.44339089779E+03  0.39051883175E+01  0.10487898778E+04  0.90173025728E+03 0.  0.
        -24    2    4    4    0    0  0.17367351598E+03 -0.92273076121E+02 -0.33642135632E+03  0.39672112955E+03  0.74374154926E+02 0.  0.
         24    2    4    4    0    0  0.12671292219E+03  0.53566397391E+03  0.34032654463E+03  0.65206874829E+03  0.79871383591E+02 0.  0.
         11    1    3    3    0    0 -0.71272983426E+02 -0.11527603260E+03  0.30474836580E+02  0.13891406525E+03  0.00000000000E+00 0.  1.
        -11    1    3    3    0    0 -0.22911345474E+03 -0.32811486519E+03  0.29042268511E+03  0.49446706254E+03  0.00000000000E+00 0. -1.
          4    1    6    6  502    0  0.11327312597E+03  0.38222364672E+03  0.27745980914E+03  0.48570532513E+03  0.00000000000E+00 0. -1.
          3    1    5    5  503    0  0.95873012521E+02 -0.41073269237E+02 -0.24470885485E+03  0.26600953295E+03  0.00000000000E+00 0. -1.
         -4    1    5    5    0  503  0.77800503456E+02 -0.51199806884E+02 -0.91712501464E+02  0.13071159661E+03  0.00000000000E+00 0.  1.
         -3    1    6    6    0  502  0.13439796222E+02  0.15344032720E+03  0.62866735495E+02  0.16636342316E+03  0.00000000000E+00 0.  1.
<mgrwt>
<rscale>  0 0.16505158E+04</rscale>
<asrwt>0</asrwt>
<pdfrwt beam="1">  1        1 0.15438259E+00 0.16505158E+04</pdfrwt>
<pdfrwt beam="2">  1       -1 0.10441295E+00 0.16505158E+04</pdfrwt>
<totfact> 0.12395841E+01</totfact>
</mgrwt>
</event>
<event>
12    1  0.2019083E-007  0.2240033E+04  0.7818608E-02  0.8501948E-01
         -1   -1    0    0    0  501 -0.00000000000E+00  0.00000000000E+00  0.41086016407E+03  0.41086016407E+03  0.00000000000E+00 0.  1.
          1   -1    0    0  501    0  0.00000000000E+00 -0.00000000000E+00 -0.30531973429E+04  0.30531973429E+04  0.00000000000E+00 0. -1.
         23    2    1    2    0    0  0.24700017889E+03  0.88783792487E+03 -0.85110133419E+03  0.12579053310E+04  0.93204460283E+02 0.  0.
        254    2    1    2    0    0 -0.24700017889E+03 -0.88783792487E+03 -0.17912358447E+04  0.22061521760E+04  0.89962008832E+03 0.  0.
        -24    2    4    4    0    0  0.26691767383E+03 -0.12185241230E+03 -0.19472570211E+03  0.36073083582E+03  0.78202185793E+02 0.  0.
         24    2    4    4    0    0 -0.51391785272E+03 -0.76598551257E+03 -0.15965101426E+04  0.18454213402E+04  0.76745832203E+02 0.  0.
         13    1    3    3    0    0  0.15868797014E+03  0.66901956707E+03 -0.59047069893E+03  0.90632483100E+03  0.00000000000E+00 0.  1.
        -13    1    3    3    0    0  0.88312208753E+02  0.21881835780E+03 -0.26063063526E+03  0.35158049997E+03  0.00000000000E+00 0. -1.
          2    1    6    6  502    0 -0.13109831566E+03 -0.15222707709E+03 -0.30732669718E+03  0.36716420055E+03  0.00000000000E+00 0. -1.
          3    1    5    5  503    0  0.50210033612E+02 -0.55497576300E+02 -0.67724686509E+02  0.10093394678E+03  0.00000000000E+00 0. -1.
         -4    1    5    5    0  503  0.21670764022E+03 -0.66354835999E+02 -0.12700101560E+03  0.25979688904E+03  0.00000000000E+00 0.  1.
         -1    1    6    6    0  502 -0.38281953706E+03 -0.61375843548E+03 -0.12891834454E+04  0.14782571396E+04  0.00000000000E+00 0.  1.
<mgrwt>
<rscale>  0 0.22400332E+04</rscale>
<asrwt>0</asrwt>
<pdfrwt beam="1">  1        1 0.46972269E+00 0.22400332E+04</pdfrwt>
<pdfrwt beam="2">  1       -1 0.63209254E-01 0.22400332E+04</pdfrwt>
<totfact> 0.12613904E+00</totfact>
</mgrwt>
</event>
<event>
12    1  0.2019083E-007  0.2711550E+04  0.7818608E-02  0.8331267E-01
          2   -1    0    0  501    0  0.00000000000E+00  0.00000000000E+00  0.29237556584E+04  0.29237556584E+04  0.00000000000E+00 0. -1.
         -2   -1    0    0    0  501 -0.00000000000E+00 -0.00000000000E+00 -0.62868660538E+03  0.62868660538E+03  0.00000000000E+00 0.  1.
         23    2    1    2    0    0 -0.75362144219E+03 -0.83349302475E+03  0.47762944927E+03  0.12241006275E+04  0.87387384358E+02 0.  0.
        254    2    1    2    0    0  0.75362144219E+03  0.83349302475E+03  0.18174396037E+04  0.23283416363E+04  0.92489575718E+03 0.  0.
        -24    2    4    4    0    0 -0.49001920771E+02  0.57034454349E+03  0.97010644519E+03  0.11292795557E+04  0.80446959816E+02 0.  0.
         24    2    4    4    0    0  0.80262336296E+03  0.26314848125E+03  0.84733315852E+03  0.11990620806E+04  0.79529904088E+02 0.  0.
         11    1    3    3    0    0 -0.46912301675E+03 -0.52062708201E+03  0.25155654460E+03  0.74458690460E+03  0.00000000000E+00 0.  1.
        -11    1    3    3    0    0 -0.28449842544E+03 -0.31286594274E+03  0.22607290467E+03  0.47951372287E+03  0.00000000000E+00 0. -1.
          4    1    6    6  502    0  0.30978308555E+03  0.14011578374E+03  0.32103227149E+03  0.46761064176E+03  0.00000000000E+00 0. -1.
          3    1    5    5  503    0 -0.67519486952E+02  0.43489282031E+03  0.77073994961E+03  0.88754195180E+03  0.00000000000E+00 0. -1.
         -4    1    5    5    0  503  0.18517566182E+02  0.13545172318E+03  0.19936649559E+03  0.24173760389E+03  0.00000000000E+00 0.  1.
         -3    1    6    6    0  502  0.49284027740E+03  0.12303269752E+03  0.52630088703E+03  0.73145143884E+03  0.00000000000E+00 0.  1.
<mgrwt>
<rscale>  0 0.27115501E+04</rscale>
<asrwt>0</asrwt>
<pdfrwt beam="1">  1        2 0.44980856E+00 0.27115501E+04</pdfrwt>
<pdfrwt beam="2">  1       -2 0.96721018E-01 0.27115501E+04</pdfrwt>
<totfact> 0.15207942E+00</totfact>
</mgrwt>
</event>
<event>
12    1  0.2019083E-007  0.1758805E+04  0.7818608E-02  0.8728518E-01
          1   -1    0    0  501    0  0.00000000000E+00  0.00000000000E+00  0.15193145453E+04  0.15193145453E+04  0.00000000000E+00 0. -1.
         -1   -1    0    0    0  501 -0.00000000000E+00 -0.00000000000E+00 -0.50901185313E+03  0.50901185313E+03  0.00000000000E+00 0.  1.
         23    2    1    2    0    0 -0.25034427710E+03  0.56643840284E+03  0.16864583540E+03  0.64844604705E+03  0.92282917440E+02 0.  0.
        254    2    1    2    0    0  0.25034427710E+03 -0.56643840284E+03  0.84165685681E+03  0.13798803514E+04  0.90119853437E+03 0.  0.
        -24    2    4    4    0    0 -0.24536227018E+03  0.57241489820E+02  0.35587738319E+03  0.44335604276E+03  0.80228654537E+02 0.  0.
         24    2    4    4    0    0  0.49570654727E+03 -0.62367989266E+03  0.48577947362E+03  0.93652430866E+03  0.79965581354E+02 0.  0.
         13    1    3    3    0    0 -0.49713072714E+02  0.12994039303E+03 -0.53750800124E+00  0.13912650450E+03  0.00000000000E+00 0.  1.
        -13    1    3    3    0    0 -0.20063120438E+03  0.43649800980E+03  0.16918334340E+03  0.50931954254E+03  0.00000000000E+00 0. -1.
          4    1    6    6  502    0  0.34194387582E+03 -0.40686687624E+03  0.36384603404E+03  0.64408866290E+03  0.00000000000E+00 0. -1.
          1    1    5    5  503    0 -0.69557421626E+02  0.15865917547E+02  0.46628512097E+02  0.85230161230E+02  0.00000000000E+00 0. -1.
         -2    1    5    5    0  503 -0.17580484855E+03  0.41375572273E+02  0.30924887109E+03  0.35812588154E+03  0.00000000000E+00 0.  1.
         -3    1    6    6    0  502  0.15376267146E+03 -0.21681301642E+03  0.12193343958E+03  0.29243564576E+03  0.00000000000E+00 0.  1.
<mgrwt>
<rscale>  0 0.17588054E+04</rscale>
<asrwt>0</asrwt>
<pdfrwt beam="1">  1        1 0.23374070E+00 0.17588054E+04</pdfrwt>
<pdfrwt beam="2">  1       -1 0.78309516E-01 0.17588054E+04</pdfrwt>
<totfact> 0.98041568E+00</totfact>
</mgrwt>
</event>
<event>
12    1  0.2019083E-007  0.1465610E+04  0.7818608E-02  0.8907649E-01
         -2   -1    0    0    0  501 -0.00000000000E+00  0.00000000000E+00  0.37364140105E+03  0.37364140105E+03  0.00000000000E+00 0.  1.
          2   -1    0    0  501    0  0.00000000000E+00 -0.00000000000E+00 -0.14372155321E+04  0.14372155321E+04  0.00000000000E+00 0. -1.
         23    2    1    2    0    0  0.33049541663E+03  0.25912116717E+03 -0.52910294396E+03  0.68129320418E+03  0.88540979627E+02 0.  0.
        254    2    1    2    0    0 -0.33049541663E+03 -0.25912116717E+03 -0.53447118711E+03  0.11295637290E+04  0.90215506888E+03 0.  0.
        -24    2    4    4    0    0  0.16015034757E+03  0.18370243479E+03  0.27742986876E+02  0.25807731555E+03  0.80246551978E+02 0.  0.
         24    2    4    4    0    0 -0.49064576420E+03 -0.44282360195E+03 -0.56221417399E+03  0.87148641344E+03  0.81103532676E+02 0.  0.
         13    1    3    3    0    0  0.54695762724E+02  0.87890429035E+02 -0.10821782795E+03  0.14975797896E+03  0.00000000000E+00 0.  1.
        -13    1    3    3    0    0  0.27579965390E+03  0.17123073813E+03 -0.42088511601E+03  0.53153522522E+03  0.00000000000E+00 0. -1.
          4    1    6    6  502    0 -0.68032127626E+02 -0.77418584715E+02 -0.12535474613E+03  0.16228314770E+03  0.00000000000E+00 0. -1.
          3    1    5    5  503    0  0.94294544020E+02  0.66112604822E+02  0.41928840504E+02  0.12255759958E+03  0.00000000000E+00 0. -1.
         -4    1    5    5    0  503  0.65855803551E+02  0.11758982997E+03 -0.14185853628E+02  0.13551971597E+03  0.00000000000E+00 0.  1.
         -3    1    6    6    0  502 -0.42261363657E+03 -0.36540501724E+03 -0.43685942785E+03  0.70920326574E+03  0.00000000000E+00 0.  1.
<mgrwt>
<rscale>  0 0.14656101E+04</rscale>
<asrwt>0</asrwt>
<pdfrwt beam="1">  1        2 0.22111008E+00 0.14656101E+04</pdfrwt>
<pdfrwt beam="2">  1       -2 0.57483293E-01 0.14656101E+04</pdfrwt>
<totfact> 0.37831454E+01</totfact>
</mgrwt>
</event>
<event>
12    1  0.2019083E-007  0.1918644E+04  0.7818608E-02  0.8645631E-01
          2   -1    0    0  501    0  0.00000000000E+00  0.00000000000E+00  0.10343145406E+04  0.10343145406E+04  0.00000000000E+00 0. -1.
         -2   -1    0    0    0  501 -0.00000000000E+00 -0.00000000000E+00 -0.88976695014E+03  0.88976695014E+03  0.00000000000E+00 0.  1.
         23    2    1    2    0    0  0.61538482001E+03  0.33381626475E+03  0.34324560204E+03  0.78492815176E+03  0.90348684520E+02 0.  0.
        254    2    1    2    0    0 -0.61538482001E+03 -0.33381626475E+03 -0.19869801155E+03  0.11391533390E+04  0.87638898593E+03 0.  0.
        -24    2    4    4    0    0 -0.40287943965E+03 -0.13218955867E+02 -0.49686259692E+03  0.64587963236E+03  0.88325962176E+02 0.  0.
         24    2    4    4    0    0 -0.21250538037E+03 -0.32059730888E+03  0.29816458537E+03  0.49327370664E+03  0.80471476652E+02 0.  0.
         11    1    3    3    0    0  0.27803741790E+03  0.19626113064E+03  0.18920611377E+03  0.38938694205E+03  0.00000000000E+00 0. -1.
        -11    1    3    3    0    0  0.33734740211E+03  0.13755513410E+03  0.15403948827E+03  0.39554120970E+03  0.00000000000E+00 0.  1.
          4    1    6    6  502    0  0.47191698496E+01 -0.22740440626E+02  0.27107907641E+02  0.35696454454E+02  0.00000000000E+00 0. -1.
          1    1    5    5  503    0 -0.10322619274E+02  0.15920929802E+02 -0.20830004340E+02  0.28176613623E+02  0.00000000000E+00 0. -1.
         -4    1    5    5    0  503 -0.39255682037E+03 -0.29139885669E+02 -0.47603259258E+03  0.61770301874E+03  0.00000000000E+00 0.  1.
         -3    1    6    6    0  502 -0.21722455022E+03 -0.29785686825E+03  0.27105667773E+03  0.45757725219E+03  0.00000000000E+00 0.  1.
<mgrwt>
<rscale>  0 0.19186442E+04</rscale>
<asrwt>0</asrwt>
<pdfrwt beam="1">  1        2 0.15912531E+00 0.19186442E+04</pdfrwt>
<pdfrwt beam="2">  1       -2 0.13688722E+00 0.19186442E+04</pdfrwt>
<totfact> 0.85265921E+00</totfact>
</mgrwt>
</event>
<event>
12    1  0.2019083E-007  0.1574489E+04  0.7818608E-02  0.8836375E-01
          2   -1    0    0  501    0  0.00000000000E+00  0.00000000000E+00  0.23486339904E+04  0.23486339904E+04  0.00000000000E+00 0. -1.
         -2   -1    0    0    0  501 -0.00000000000E+00 -0.00000000000E+00 -0.26387857212E+03  0.26387857212E+03  0.00000000000E+00 0.  1.
         23    2    1    2    0    0  0.51644453445E+03  0.81007848095E+02  0.75930086484E+03  0.92722320681E+03  0.99638563256E+02 0.  0.
        254    2    1    2    0    0 -0.51644453445E+03 -0.81007848095E+02  0.13254545534E+04  0.16852893557E+04  0.90005178217E+03 0.  0.
        -24    2    4    4    0    0  0.18525079737E+03 -0.51959165730E+02  0.73371019757E+03  0.76262471156E+03  0.79045454267E+02 0.  0.
         24    2    4    4    0    0 -0.70169533182E+03 -0.29048682365E+02  0.59174435583E+03  0.92266464410E+03  0.89042114630E+02 0.  0.
         11    1    3    3    0    0  0.33716975817E+03  0.10040419599E+03  0.50783362058E+03  0.61778591323E+03  0.00000000000E+00 0. -1.
        -11    1    3    3    0    0  0.17927477628E+03 -0.19396347898E+02  0.25146724427E+03  0.30943729358E+03  0.00000000000E+00 0.  1.
          2    1    6    6  502    0 -0.37532821734E+03  0.26594243723E+02  0.29622744252E+03  0.47888330753E+03  0.00000000000E+00 0. -1.
          3    1    5    5  503    0  0.14963247495E+03 -0.69473036263E+02  0.52994595956E+03  0.55503072021E+03  0.00000000000E+00 0. -1.
         -4    1    5    5    0  503  0.35618322427E+02  0.17513870532E+02  0.20376423801E+03  0.20759399136E+03  0.00000000000E+00 0.  1.
         -1    1    6    6    0  502 -0.32636711449E+03 -0.55642926088E+02  0.29551691331E+03  0.44378133658E+03  0.00000000000E+00 0.  1.
<mgrwt>
<rscale>  0 0.15744894E+04</rscale>
<asrwt>0</asrwt>
<pdfrwt beam="1">  1        2 0.36132829E+00 0.15744894E+04</pdfrwt>
<pdfrwt beam="2">  1       -2 0.40596705E-01 0.15744894E+04</pdfrwt>
<totfact> 0.23513399E+01</totfact>
</mgrwt>
</event>
<event>
12    1  0.2019083E-007  0.1292578E+04  0.7818608E-02  0.9035471E-01
         -1   -1    0    0    0  501 -0.00000000000E+00  0.00000000000E+00  0.59777176731E+03  0.59777176731E+03  0.00000000000E+00 0.  1.
          1   -1    0    0  501    0  0.00000000000E+00 -0.00000000000E+00 -0.69874458883E+03  0.69874458883E+03  0.00000000000E+00 0. -1.
         23    2    1    2    0    0 -0.89116381552E+02  0.12779402048E+03  0.25758712591E+03  0.31601096608E+03  0.96118479595E+02 0.  0.
        254    2    1    2    0    0  0.89116381552E+02 -0.12779402048E+03 -0.35855994743E+03  0.98050539006E+03  0.89919549760E+03 0.  0.
        -24    2    4    4    0    0  0.59432463601E+02 -0.20427686934E+02 -0.65027884962E+03  0.65814028533E+03  0.79602416928E+02 0.  0.
         24    2    4    4    0    0  0.29683917951E+02 -0.10736633354E+03  0.29171890219E+03  0.32236510473E+03  0.80066711486E+02 0.  0.
         11    1    3    3    0    0 -0.43726484037E+01 -0.10993985846E+02  0.54866890129E+02  0.56128098233E+02  0.00000000000E+00 0. -1.
        -11    1    3    3    0    0 -0.84743733149E+02  0.13878800632E+03  0.20272023578E+03  0.25988286785E+03  0.00000000000E+00 0.  1.
          2    1    6    6  502    0 -0.70745864775E+01 -0.15793742209E+02  0.34111046452E+01  0.17638812366E+02  0.00000000000E+00 0. -1.
          3    1    5    5  503    0  0.67566036430E+01  0.21651213359E+02 -0.62140685245E+02  0.66150521505E+02  0.00000000000E+00 0. -1.
         -4    1    5    5    0  503  0.52675859958E+02 -0.42078900293E+02 -0.58813816438E+03  0.59198976382E+03  0.00000000000E+00 0.  1.
         -1    1    6    6    0  502  0.36758504429E+02 -0.91572591332E+02  0.28830779755E+03  0.30472629236E+03  0.00000000000E+00 0.  1.
<mgrwt>
<rscale>  0 0.12925785E+04</rscale>
<asrwt>0</asrwt>
<pdfrwt beam="1">  1        1 0.10749917E+00 0.12925785E+04</pdfrwt>
<pdfrwt beam="2">  1       -1 0.91964888E-01 0.12925785E+04</pdfrwt>
<totfact> 0.30939040E+01</totfact>
</mgrwt>
</event>
<event>
12    1  0.2019083E-007  0.2122727E+04  0.7818608E-02  0.8551298E-01
          2   -1    0    0  501    0  0.00000000000E+00  0.00000000000E+00  0.29386956561E+04  0.29386956561E+04  0.00000000000E+00 0. -1.
         -2   -1    0    0    0  501 -0.00000000000E+00 -0.00000000000E+00 -0.38333062350E+03  0.38333062350E+03  0.00000000000E+00 0.  1.
         23    2    1    2    0    0  0.67926646076E+03 -0.18746767390E+03  0.25782897078E+03  0.75624430114E+03  0.94247606668E+02 0.  0.
        254    2    1    2    0    0 -0.67926646076E+03  0.18746767390E+03  0.22975360618E+04  0.25657819784E+04  0.89889829912E+03 0.  0.
        -24    2    4    4    0    0 -0.43521044027E+02  0.39934390888E+03  0.50345320804E+03  0.64898301845E+03  0.79650403127E+02 0.  0.
         24    2    4    4    0    0 -0.63574541673E+03 -0.21187623498E+03  0.17940828537E+04  0.19167989600E+04  0.79505930817E+02 0.  0.
         11    1    3    3    0    0  0.17171924726E+03 -0.57665067435E+01  0.65211170862E+02  0.18377499636E+03  0.00000000000E+00 0. -1.
        -11    1    3    3    0    0  0.50754721349E+03 -0.18170116715E+03  0.19261779992E+03  0.57246930478E+03  0.00000000000E+00 0.  1.
          4    1    6    6  502    0 -0.35118759863E+03 -0.77401326943E+02  0.99247871731E+03  0.10556219490E+04  0.00000000000E+00 0. -1.
          3    1    5    5  503    0  0.21275614276E+01  0.89139047584E+02  0.66772922244E+02  0.11139532965E+03  0.00000000000E+00 0. -1.
         -4    1    5    5    0  503 -0.45648605454E+02  0.31020486129E+03  0.43668028580E+03  0.53758768880E+03  0.00000000000E+00 0.  1.
         -3    1    6    6    0  502 -0.28455781810E+03 -0.13447490804E+03  0.80160413642E+03  0.86117701099E+03  0.00000000000E+00 0.  1.
<mgrwt>
<rscale>  0 0.21227266E+04</rscale>
<asrwt>0</asrwt>
<pdfrwt beam="1">  1        2 0.45210701E+00 0.21227266E+04</pdfrwt>
<pdfrwt beam="2">  1       -2 0.58973944E-01 0.21227266E+04</pdfrwt>
<totfact> 0.47046705E+00</totfact>
</mgrwt>
</event>
<event>
12    1  0.2019083E-007  0.3099514E+04  0.7818608E-02  0.8215871E-01
         -1   -1    0    0    0  501 -0.00000000000E+00  0.00000000000E+00  0.11056345823E+04  0.11056345823E+04  0.00000000000E+00 0.  1.
          1   -1    0    0  501    0  0.00000000000E+00 -0.00000000000E+00 -0.21722791670E+04  0.21722791670E+04  0.00000000000E+00 0. -1.
         23    2    1    2    0    0  0.14016671974E+04  0.13438643335E+02 -0.71465310126E+03  0.15759535639E+04  0.89716502680E+02 0.  0.
        254    2    1    2    0    0 -0.14016671974E+04 -0.13438643335E+02 -0.35199148348E+03  0.17019601854E+04  0.89884311143E+03 0.  0.
        -24    2    4    4    0    0 -0.23509654259E+03  0.34604301877E+03 -0.19577991938E+03  0.46876603210E+03  0.79972875657E+02 0.  0.
         24    2    4    4    0    0 -0.11665706548E+04 -0.35948166211E+03 -0.15621156411E+03  0.12331941534E+04  0.79067117089E+02 0.  0.
         13    1    3    3    0    0  0.10538272635E+04  0.11890582809E+02 -0.49311456336E+03  0.11635528608E+04  0.00000000000E+00 0. -1.
        -13    1    3    3    0    0  0.34783993393E+03  0.15480605260E+01 -0.22153853790E+03  0.41240070309E+03  0.00000000000E+00 0.  1.
          4    1    6    6  502    0 -0.87848736958E+03 -0.25684832852E+03 -0.14881820416E+03  0.92728527448E+03  0.00000000000E+00 0. -1.
          3    1    5    5  503    0 -0.13846980631E+03  0.26289731368E+03 -0.15364258624E+03  0.33450699411E+03  0.00000000000E+00 0. -1.
         -4    1    5    5    0  503 -0.96626736274E+02  0.83145705088E+02 -0.42137333141E+02  0.13425903799E+03  0.00000000000E+00 0.  1.
         -3    1    6    6    0  502 -0.28808328524E+03 -0.10263333359E+03 -0.73933599451E+01  0.30590887887E+03  0.00000000000E+00 0.  1.
<mgrwt>
<rscale>  0 0.30995141E+04</rscale>
<asrwt>0</asrwt>
<pdfrwt beam="1">  1        1 0.33419679E+00 0.30995141E+04</pdfrwt>
<pdfrwt beam="2">  1       -1 0.17009763E+00 0.30995141E+04</pdfrwt>
<totfact> 0.47165976E-01</totfact>
</mgrwt>
</event>
<event>
12    1  0.2019083E-007  0.3587845E+04  0.7818608E-02  0.8093282E-01
         -2   -1    0    0    0  501 -0.00000000000E+00  0.00000000000E+00  0.73653759776E+03  0.73653759776E+03  0.00000000000E+00 0.  1.
          2   -1    0    0  501    0  0.00000000000E+00 -0.00000000000E+00 -0.43693047883E+04  0.43693047883E+04  0.00000000000E+00 0. -1.
         23    2    1    2    0    0  0.30383625725E+03  0.54495212297E+03  0.51579591915E+03  0.81433797147E+03  0.88383335632E+02 0.  0.
        254    2    1    2    0    0 -0.30383625725E+03 -0.54495212297E+03 -0.41485631097E+04  0.42915044146E+04  0.90396071703E+03 0.  0.
        -24    2    4    4    0    0 -0.56635829822E+03 -0.19261396714E+03 -0.17381449910E+04  0.18400440886E+04  0.82172841295E+02 0.  0.
         24    2    4    4    0    0  0.26252204097E+03 -0.35233815583E+03 -0.24104181187E+04  0.24514603260E+04  0.80512267133E+02 0.  0.
         13    1    3    3    0    0  0.69299214952E+02  0.84767126985E+02  0.56744554318E+02  0.12331987453E+03  0.00000000000E+00 0. -1.
        -13    1    3    3    0    0  0.23453704229E+03  0.46018499598E+03  0.45905136483E+03  0.69101809693E+03  0.00000000000E+00 0.  1.
          2    1    6    6  502    0  0.23109422436E+03 -0.25368525209E+03 -0.18498855383E+04  0.18814455221E+04  0.00000000000E+00 0. -1.
          3    1    5    5  503    0 -0.38746958598E+03 -0.15926474680E+03 -0.11250832858E+04  0.12005458507E+04  0.00000000000E+00 0. -1.
         -2    1    5    5    0  503 -0.17888871224E+03 -0.33349220346E+02 -0.61306170524E+03  0.63949823792E+03  0.00000000000E+00 0.  1.
         -1    1    6    6    0  502  0.31427816617E+02 -0.98652903738E+02 -0.56053258037E+03  0.57001480395E+03  0.00000000000E+00 0.  1.
<mgrwt>
<rscale>  0 0.35878446E+04</rscale>
<asrwt>0</asrwt>
<pdfrwt beam="1">  1        2 0.67220075E+00 0.35878446E+04</pdfrwt>
<pdfrwt beam="2">  1       -2 0.11331347E+00 0.35878446E+04</pdfrwt>
<totfact> 0.81386807E-02</totfact>
</mgrwt>
</event>
<event>
12    1  0.2019083E-007  0.2162434E+04  0.7818608E-02  0.8534229E-01
          2   -1    0    0  501    0  0.00000000000E+00  0.00000000000E+00  0.13931728391E+04  0.13931728391E+04  0.00000000000E+00 0. -1.
         -2   -1    0    0    0  501 -0.00000000000E+00 -0.00000000000E+00 -0.83911315866E+03  0.83911315866E+03  0.00000000000E+00 0.  1.
         23    2    1    2    0    0 -0.78566462270E+03  0.59365224379E+02  0.66150289221E+03  0.10326199649E+04  0.89021268790E+02 0.  0.
        254    2    1    2    0    0  0.78566462270E+03 -0.59365224379E+02 -0.10744321178E+03  0.11996660328E+04  0.89825465062E+03 0.  0.
        -24    2    4    4    0    0 -0.14914114467E+03 -0.17423207671E+03  0.29406162183E+02  0.24451275547E+03  0.79510173104E+02 0.  0.
         24    2    4    4    0    0  0.93480576737E+03  0.11486685233E+03 -0.13684937396E+03  0.95515327737E+03  0.80832021169E+02 0.  0.
         11    1    3    3    0    0 -0.25617504006E+03  0.33004996284E+02  0.16651074965E+03  0.30731223646E+03  0.00000000000E+00 0. -1.
        -11    1    3    3    0    0 -0.52948958264E+03  0.26360228095E+02  0.49499214256E+03  0.72530772845E+03  0.00000000000E+00 0.  1.
          4    1    6    6  502    0  0.93646391864E+03  0.11418887722E+03 -0.13593905097E+03  0.95314384863E+03  0.00000000000E+00 0. -1.
          3    1    5    5  503    0 -0.60078440766E+02 -0.56055286735E+02 -0.26483447355E+02  0.86330685157E+02  0.00000000000E+00 0. -1.
         -4    1    5    5    0  503 -0.89062703902E+02 -0.11817678997E+03  0.55889609538E+02  0.15818207031E+03  0.00000000000E+00 0.  1.
         -3    1    6    6    0  502 -0.16581512764E+01  0.67797510801E+00 -0.91032299316E+00  0.20094287383E+01  0.00000000000E+00 0.  1.
<mgrwt>
<rscale>  0 0.21624335E+04</rscale>
<asrwt>0</asrwt>
<pdfrwt beam="1">  1        2 0.21433428E+00 0.21624335E+04</pdfrwt>
<pdfrwt beam="2">  1       -2 0.12909433E+00 0.21624335E+04</pdfrwt>
<totfact> 0.59192262E+00</totfact>
</mgrwt>
</event>
<event>
12    1  0.2019083E-007  0.2093649E+04  0.7818608E-02  0.8564046E-01
         -1   -1    0    0    0  501 -0.00000000000E+00  0.00000000000E+00  0.30823967261E+03  0.30823967261E+03  0.00000000000E+00 0.  1.
          1   -1    0    0  501    0  0.00000000000E+00 -0.00000000000E+00 -0.35551589095E+04  0.35551589095E+04  0.00000000000E+00 0. -1.
         23    2    1    2    0    0  0.58396958341E+03 -0.38115828483E+03 -0.22855033899E+04  0.23912869238E+04  0.91789402557E+02 0.  0.
        254    2    1    2    0    0 -0.58396958341E+03  0.38115828483E+03 -0.96141584699E+03  0.14721116583E+04  0.86976444577E+03 0.  0.
        -24    2    4    4    0    0 -0.77654938481E+03  0.20772110824E+03 -0.54177138857E+03  0.97258623205E+03  0.78935007659E+02 0.  0.
         24    2    4    4    0    0  0.19257980140E+03  0.17343717659E+03 -0.41964445842E+03  0.49952542622E+03  0.79099594379E+02 0.  0.
         11    1    3    3    0    0  0.26450444129E+03 -0.13474032653E+03 -0.86012159113E+03  0.90990477886E+03  0.00000000000E+00 0.  1.
        -11    1    3    3    0    0  0.31946514211E+03 -0.24641795829E+03 -0.14253817987E+04  0.14813821450E+04  0.00000000000E+00 0. -1.
          2    1    6    6  502    0  0.42735561691E+02  0.23407069015E+01 -0.80674172161E+02  0.91324307803E+02  0.00000000000E+00 0. -1.
          1    1    5    5  503    0 -0.47793420942E+03  0.16731868307E+03 -0.33789438087E+03  0.60876043142E+03  0.00000000000E+00 0. -1.
         -2    1    5    5    0  503 -0.29861517539E+03  0.40402425171E+02 -0.20387700770E+03  0.36382580062E+03  0.00000000000E+00 0.  1.
         -1    1    6    6    0  502  0.14984423971E+03  0.17109646968E+03 -0.33897028626E+03  0.40820111842E+03  0.00000000000E+00 0.  1.
<mgrwt>
<rscale>  0 0.20936485E+04</rscale>
<asrwt>0</asrwt>
<pdfrwt beam="1">  1        1 0.54694752E+00 0.20936485E+04</pdfrwt>
<pdfrwt beam="2">  1       -1 0.47421488E-01 0.20936485E+04</pdfrwt>
<totfact> 0.92634430E-01</totfact>
</mgrwt>
</event>
<event>
12    1  0.2019083E-007  0.1094884E+04  0.7818608E-02  0.9210193E-01
         -2   -1    0    0    0  501 -0.00000000000E+00  0.00000000000E+00  0.11654930222E+03  0.11654930222E+03  0.00000000000E+00 0.  1.
          2   -1    0    0  501    0  0.00000000000E+00 -0.00000000000E+00 -0.25713809347E+04  0.25713809347E+04  0.00000000000E+00 0. -1.
         23    2    1    2    0    0 -0.10584402711E+01  0.41301226445E+02 -0.36413649767E+02  0.10689939131E+03  0.91622128175E+02 0.  0.
        254    2    1    2    0    0  0.10584402711E+01 -0.41301226445E+02 -0.24184179827E+04  0.25810308456E+04  0.90070404421E+03 0.  0.
        -24    2    4    4    0    0 -0.11906178631E+03 -0.66801354999E+02 -0.24277015750E+04  0.24328408049E+04  0.79632371876E+02 0.  0.
         24    2    4    4    0    0  0.12012022658E+03  0.25500128555E+02  0.92835922713E+01  0.14819004074E+03  0.82431654720E+02 0.  0.
         11    1    3    3    0    0  0.21738315833E+02  0.11155148609E+02  0.24891798975E+02  0.34879698564E+02  0.00000000000E+00 0.  1.
        -11    1    3    3    0    0 -0.22796756104E+02  0.30146077835E+02 -0.61305448742E+02  0.72019692745E+02  0.00000000000E+00 0. -1.
          2    1    6    6  502    0  0.10880666829E+03  0.41840069286E+02  0.29071806253E+02  0.12014429816E+03  0.00000000000E+00 0. -1.
          3    1    5    5  503    0 -0.39894108085E+02 -0.17776139743E+02 -0.14638930710E+04  0.14645444529E+04  0.00000000000E+00 0. -1.
         -4    1    5    5    0  503 -0.79167678222E+02 -0.49025215257E+02 -0.96380850395E+03  0.96829635199E+03  0.00000000000E+00 0.  1.
         -1    1    6    6    0  502  0.11313558290E+02 -0.16339940731E+02 -0.19788213981E+02  0.28045742580E+02  0.00000000000E+00 0.  1.
<mgrwt>
<rscale>  0 0.10948838E+04</rscale>
<asrwt>0</asrwt>
<pdfrwt beam="1">  1        2 0.39559705E+00 0.10948838E+04</pdfrwt>
<pdfrwt beam="2">  1       -2 0.17930662E-01 0.10948838E+04</pdfrwt>
<totfact> 0.82088360E+01</totfact>
</mgrwt>
</event>
<event>
12    1  0.2019083E-007  0.2493105E+04  0.7818608E-02  0.8405446E-01
          2   -1    0    0  501    0  0.00000000000E+00  0.00000000000E+00  0.14186606206E+04  0.14186606206E+04  0.00000000000E+00 0. -1.
         -2   -1    0    0    0  501 -0.00000000000E+00 -0.00000000000E+00 -0.10953244586E+04  0.10953244586E+04  0.00000000000E+00 0.  1.
         23    2    1    2    0    0  0.83491504358E+03 -0.66125305706E+02 -0.55126776460E+03  0.10067638375E+04  0.90672984833E+02 0.  0.
        254    2    1    2    0    0 -0.83491504358E+03  0.66125305706E+02  0.87460392661E+03  0.15072212417E+04  0.89740077835E+03 0.  0.
        -24    2    4    4    0    0 -0.28559421525E+02 -0.43616715301E+02 -0.15985340730E+03  0.18860147393E+03  0.85436208547E+02 0.  0.
         24    2    4    4    0    0 -0.80635562206E+03  0.10974202101E+03  0.10344573339E+04  0.13186197678E+04  0.80021346752E+02 0.  0.
         11    1    3    3    0    0  0.82172149888E+03 -0.64443844985E+02 -0.52478181333E+03  0.97712598087E+03  0.00000000000E+00 0.  1.
        -11    1    3    3    0    0  0.13193544699E+02 -0.16814607208E+01 -0.26485951265E+02  0.29637856642E+02  0.00000000000E+00 0. -1.
          4    1    6    6  502    0 -0.51191453617E+03  0.80744543437E+02  0.71678027579E+03  0.88450558924E+03  0.00000000000E+00 0. -1.
          3    1    5    5  503    0 -0.29536003560E+02 -0.54901938408E+02 -0.54994095592E+02  0.83132117123E+02  0.00000000000E+00 0. -1.
         -4    1    5    5    0  503  0.97658203496E+00  0.11285223108E+02 -0.10485931171E+03  0.10546935680E+03  0.00000000000E+00 0.  1.
         -3    1    6    6    0  502 -0.29444108589E+03  0.28997477570E+02  0.31767705812E+03  0.43411417855E+03  0.00000000000E+00 0.  1.
<mgrwt>
<rscale>  0 0.24931054E+04</rscale>
<asrwt>0</asrwt>
<pdfrwt beam="1">  1        2 0.21825548E+00 0.24931054E+04</pdfrwt>
<pdfrwt beam="2">  1       -2 0.16851146E+00 0.24931054E+04</pdfrwt>
<totfact> 0.27523235E+00</totfact>
</mgrwt>
</event>
<event>
12    1  0.2019083E-007  0.2162189E+04  0.7818608E-02  0.8534333E-01
          2   -1    0    0  501    0  0.00000000000E+00  0.00000000000E+00  0.32496531710E+04  0.32496531710E+04  0.00000000000E+00 0. -1.
         -2   -1    0    0    0  501 -0.00000000000E+00 -0.00000000000E+00 -0.35965858644E+03  0.35965858644E+03  0.00000000000E+00 0.  1.
         23    2    1    2    0    0 -0.32705696744E+03 -0.15833636613E+03 -0.16027112726E+03  0.40772316279E+03  0.92275015322E+02 0.  0.
        254    2    1    2    0    0  0.32705696744E+03  0.15833636613E+03  0.30502657118E+04  0.32015885946E+04  0.90222610903E+03 0.  0.
        -24    2    4    4    0    0  0.37987986313E+03  0.38524949090E+03  0.27874388735E+04  0.28407026302E+04  0.83964749395E+02 0.  0.
         24    2    4    4    0    0 -0.52822895689E+02 -0.22691312477E+03  0.26282683832E+03  0.36088596442E+03  0.82951237927E+02 0.  0.
         13    1    3    3    0    0 -0.81382392045E+02 -0.33634004179E+02 -0.84356403428E+02  0.12194401491E+03  0.00000000000E+00 0.  1.
        -13    1    3    3    0    0 -0.24567457539E+03 -0.12470236195E+03 -0.75914723836E+02  0.28577914788E+03  0.00000000000E+00 0. -1.
          4    1    6    6  502    0 -0.50539994702E+02 -0.87740795297E+02  0.15352066784E+03  0.18390577391E+03  0.00000000000E+00 0. -1.
          3    1    5    5  503    0  0.18148569015E+03  0.18768634769E+03  0.11288811170E+04  0.11586784701E+04  0.00000000000E+00 0. -1.
         -4    1    5    5    0  503  0.19839417298E+03  0.19756314321E+03  0.16585577566E+04  0.16820241601E+04  0.00000000000E+00 0.  1.
         -3    1    6    6    0  502 -0.22829009876E+01 -0.13917232947E+03  0.10930617047E+03  0.17698019051E+03  0.00000000000E+00 0.  1.
<mgrwt>
<rscale>  0 0.21621893E+04</rscale>
<asrwt>0</asrwt>
<pdfrwt beam="1">  1        2 0.49994662E+00 0.21621893E+04</pdfrwt>
<pdfrwt beam="2">  1       -2 0.55332093E-01 0.21621893E+04</pdfrwt>
<totfact> 0.33948968E+00</totfact>
</mgrwt>
</event>
<event>
12    1  0.2360124E-007  0.1544208E+04  0.7818608E-02  0.8855576E-01
         -1   -1    0    0    0  501 -0.00000000000E+00  0.00000000000E+00  0.66520601787E+03  0.66520601787E+03  0.00000000000E+00 0.  1.
          1   -1    0    0  501    0  0.00000000000E+00 -0.00000000000E+00 -0.89617981102E+03  0.89617981102E+03  0.00000000000E+00 0. -1.
         23    2    1    2    0    0 -0.44339547948E+03  0.18265761835E+03  0.79871714159E+02  0.49461174664E+03  0.91092987774E+02 0.  0.
        254    2    1    2    0    0  0.44339547948E+03 -0.18265761835E+03 -0.31084550731E+03  0.10667740823E+04  0.90078779765E+03 0.  0.
        -24    2    4    4    0    0 -0.17714480375E+03 -0.13665818997E+03 -0.36775031824E+03  0.43775762744E+03  0.79597119526E+02 0.  0.
         24    2    4    4    0    0  0.62054028323E+03 -0.45999428387E+02  0.56904810927E+02  0.62901645482E+03  0.72369554395E+02 0.  0.
         13    1    3    3    0    0 -0.18881079601E+03  0.10391612148E+03 -0.30015629232E+01  0.21553905997E+03  0.00000000000E+00 0. -1.
        -13    1    3    3    0    0 -0.25458468347E+03  0.78741496871E+02  0.82873277082E+02  0.27907268667E+03  0.00000000000E+00 0.  1.
          4    1    6    6  502    0  0.55176210056E+03 -0.43804170265E+02  0.73151985698E+02  0.55831123395E+03  0.00000000000E+00 0. -1.
          1    1    5    5  503    0 -0.11221913263E+03 -0.11262252281E+03 -0.30667262672E+03  0.34543460503E+03  0.00000000000E+00 0. -1.
         -2    1    5    5    0  503 -0.64925671118E+02 -0.24035667151E+02 -0.61077691522E+02  0.92323022412E+02  0.00000000000E+00 0.  1.
         -3    1    6    6    0  502  0.68778182672E+02 -0.21952581217E+01 -0.16247174771E+02  0.70705220868E+02  0.00000000000E+00 0.  1.
<mgrwt>
<rscale>  0 0.15442075E+04</rscale>
<asrwt>0</asrwt>
<pdfrwt beam="1">  1        1 0.13787382E+00 0.15442075E+04</pdfrwt>
<pdfrwt beam="2">  1       -1 0.10233939E+00 0.15442075E+04</pdfrwt>
<totfact> 0.15969970E+01</totfact>
</mgrwt>
</event>
<event>
12    1  0.2019083E-007  0.1848770E+04  0.7818608E-02  0.8680785E-01
         -1   -1    0    0    0  501 -0.00000000000E+00  0.00000000000E+00  0.94700882674E+03  0.94700882674E+03  0.00000000000E+00 0.  1.
          1   -1    0    0  501    0  0.00000000000E+00 -0.00000000000E+00 -0.90230199395E+03  0.90230199395E+03  0.00000000000E+00 0. -1.
         23    2    1    2    0    0 -0.11575637240E+03 -0.22609069341E+03 -0.63769432012E+03  0.69256741749E+03  0.92081716269E+02 0.  0.
        254    2    1    2    0    0  0.11575637240E+03  0.22609069341E+03  0.68240115290E+03  0.11567434032E+04  0.89881445692E+03 0.  0.
        -24    2    4    4    0    0  0.55378325561E+02  0.17719559668E+03 -0.18963539551E+03  0.27749037558E+03  0.81081976317E+02 0.  0.
         24    2    4    4    0    0  0.60378046836E+02  0.48895096727E+02  0.87203654841E+03  0.87925302762E+03  0.81252112580E+02 0.  0.
         13    1    3    3    0    0 -0.95153443076E+02 -0.97299815807E+02 -0.38219689779E+03  0.40570420329E+03  0.00000000000E+00 0.  1.
        -13    1    3    3    0    0 -0.20602929321E+02 -0.12879087760E+03 -0.25549742233E+03  0.28686321421E+03  0.00000000000E+00 0. -1.
          2    1    6    6  502    0 -0.30851884174E+00  0.51496302031E+02  0.37543573877E+03  0.37895112911E+03  0.00000000000E+00 0. -1.
          3    1    5    5  503    0  0.18498367789E+02 -0.26769488982E+01 -0.13525551010E+02  0.23071545167E+02  0.00000000000E+00 0. -1.
         -4    1    5    5    0  503  0.36879957772E+02  0.17987254558E+03 -0.17610984450E+03  0.25441883041E+03  0.00000000000E+00 0.  1.
         -1    1    6    6    0  502  0.60686565678E+02 -0.26012053039E+01  0.49660080964E+03  0.50030189851E+03  0.00000000000E+00 0.  1.
<mgrwt>
<rscale>  0 0.18487704E+04</rscale>
<asrwt>0</asrwt>
<pdfrwt beam="1">  1        1 0.13881569E+00 0.18487704E+04</pdfrwt>
<pdfrwt beam="2">  1       -1 0.14569367E+00 0.18487704E+04</pdfrwt>
<totfact> 0.64234361E+00</totfact>
</mgrwt>
</event>
<event>
12    1  0.2019083E-007  0.1343101E+04  0.7818608E-02  0.8996067E-01
         -2   -1    0    0    0  501 -0.00000000000E+00  0.00000000000E+00  0.56599549766E+03  0.56599549766E+03  0.00000000000E+00 0.  1.
          2   -1    0    0  501    0  0.00000000000E+00 -0.00000000000E+00 -0.79679050516E+03  0.79679050516E+03  0.00000000000E+00 0. -1.
         23    2    1    2    0    0  0.16488533569E+03  0.31496238559E+03 -0.73468555429E+01  0.36708925781E+03  0.91170547068E+02 0.  0.
        254    2    1    2    0    0 -0.16488533569E+03 -0.31496238559E+03 -0.22344815196E+03  0.99569674500E+03  0.90282581550E+03 0.  0.
        -24    2    4    4    0    0 -0.24210940469E+03  0.11303999710E+03  0.23041834020E+03  0.36208104547E+03  0.81333063418E+02 0.  0.
         24    2    4    4    0    0  0.77224069001E+02 -0.42800238269E+03 -0.45386649216E+03  0.63361569954E+03  0.79526508578E+02 0.  0.
         13    1    3    3    0    0  0.12908485466E+03  0.22019963795E+03 -0.44682821937E+02  0.25912802788E+03  0.00000000000E+00 0. -1.
        -13    1    3    3    0    0  0.35800481028E+02  0.94762747640E+02  0.37335966394E+02  0.10796122993E+03  0.00000000000E+00 0.  1.
          4    1    6    6  502    0  0.71824292911E+02 -0.33561183579E+03 -0.30961841409E+03  0.46223110639E+03  0.00000000000E+00 0. -1.
          3    1    5    5  503    0 -0.23805179805E+03  0.93314994671E+02  0.19585895186E+03  0.32208240530E+03  0.00000000000E+00 0. -1.
         -4    1    5    5    0  503 -0.40576066407E+01  0.19725002430E+02  0.34559388340E+02  0.39998640164E+02  0.00000000000E+00 0.  1.
         -3    1    6    6    0  502  0.53997760899E+01 -0.92390546903E+02 -0.14424807807E+03  0.17138459314E+03  0.00000000000E+00 0.  1.
<mgrwt>
<rscale>  0 0.13431006E+04</rscale>
<asrwt>0</asrwt>
<pdfrwt beam="1">  1        2 0.12258315E+00 0.13431006E+04</pdfrwt>
<pdfrwt beam="2">  1       -2 0.87076231E-01 0.13431006E+04</pdfrwt>
<totfact> 0.38603730E+01</totfact>
</mgrwt>
</event>
<event>
12    1  0.2019083E-007  0.1273804E+04  0.7818608E-02  0.9050600E-01
          2   -1    0    0  501    0  0.00000000000E+00  0.00000000000E+00  0.57909356033E+03  0.57909356033E+03  0.00000000000E+00 0. -1.
         -2   -1    0    0    0  501 -0.00000000000E+00 -0.00000000000E+00 -0.70048167126E+03  0.70048167126E+03  0.00000000000E+00 0.  1.
         23    2    1    2    0    0 -0.66683464176E+02 -0.54327181593E+02 -0.32537357671E+03  0.34909227930E+03  0.92732561688E+02 0.  0.
        254    2    1    2    0    0  0.66683464176E+02  0.54327181593E+02  0.20398546578E+03  0.93048295228E+03  0.90376453083E+03 0.  0.
        -24    2    4    4    0    0  0.23342643705E+03 -0.12863356803E+02 -0.30027682140E+03  0.38902398591E+03  0.80747289003E+02 0.  0.
         24    2    4    4    0    0 -0.16674297288E+03  0.67190538396E+02  0.50426228717E+03  0.54145896638E+03  0.81114552017E+02 0.  0.
         11    1    3    3    0    0 -0.54791084074E+02 -0.26028873858E+02 -0.30780367219E+03  0.31372386868E+03  0.00000000000E+00 0.  1.
        -11    1    3    3    0    0 -0.11892380102E+02 -0.28298307735E+02 -0.17569904516E+02  0.35368410621E+02  0.00000000000E+00 0. -1.
          4    1    6    6  502    0 -0.10724422266E+03  0.34456708024E+01  0.32210048737E+03  0.33950245935E+03  0.00000000000E+00 0. -1.
          3    1    5    5  503    0  0.14015730795E+03  0.28141457210E+02 -0.20198454399E+03  0.24745457886E+03  0.00000000000E+00 0. -1.
         -4    1    5    5    0  503  0.93269129098E+02 -0.41004814013E+02 -0.98292277405E+02  0.14156940705E+03  0.00000000000E+00 0.  1.
         -3    1    6    6    0  502 -0.59498750218E+02  0.63744867593E+02  0.18216179980E+03  0.20195650702E+03  0.00000000000E+00 0.  1.
<mgrwt>
<rscale>  0 0.12738044E+04</rscale>
<asrwt>0</asrwt>
<pdfrwt beam="1">  1        2 0.89091317E-01 0.12738044E+04</pdfrwt>
<pdfrwt beam="2">  1       -2 0.10776641E+00 0.12738044E+04</pdfrwt>
<totfact> 0.35097768E+01</totfact>
</mgrwt>
</event>
<event>
12    1  0.2019083E-007  0.1297293E+04  0.7818608E-02  0.9031715E-01
          1   -1    0    0  501    0  0.00000000000E+00  0.00000000000E+00  0.10999770631E+04  0.10999770631E+04  0.00000000000E+00 0. -1.
         -1   -1    0    0    0  501 -0.00000000000E+00 -0.00000000000E+00 -0.38250076066E+03  0.38250076066E+03  0.00000000000E+00 0.  1.
         23    2    1    2    0    0 -0.23078916728E+03  0.64829985921E+02 -0.65339922238E+02  0.26252879737E+03  0.84767312084E+02 0.  0.
        254    2    1    2    0    0  0.23078916728E+03 -0.64829985921E+02  0.78281622467E+03  0.12199490264E+04  0.90443784671E+03 0.  0.
        -24    2    4    4    0    0  0.72272806364E+02  0.30469023839E+03 -0.14484039373E+02  0.32339763786E+03  0.79477952081E+02 0.  0.
         24    2    4    4    0    0  0.15851636092E+03 -0.36952022431E+03  0.79730026405E+03  0.89655138853E+03  0.80274830260E+02 0.  0.
         13    1    3    3    0    0 -0.10649728305E+03  0.39588179024E+02 -0.73695154800E+02  0.13542478007E+03  0.00000000000E+00 0.  1.
        -13    1    3    3    0    0 -0.12429188424E+03  0.25241806897E+02  0.83552325622E+01  0.12710401730E+03  0.00000000000E+00 0. -1.
          4    1    6    6  502    0  0.57193288824E+02 -0.59021382974E+02  0.18946762994E+03  0.20652500751E+03  0.00000000000E+00 0. -1.
          1    1    5    5  503    0  0.15644858560E+01  0.15662501504E+03 -0.26572027638E+02  0.15887075126E+03  0.00000000000E+00 0. -1.
         -2    1    5    5    0  503  0.70708320508E+02  0.14806522334E+03  0.12087988265E+02  0.16452688660E+03  0.00000000000E+00 0.  1.
         -3    1    6    6    0  502  0.10132307210E+03 -0.31049884133E+03  0.60783263411E+03  0.69002638102E+03  0.00000000000E+00 0.  1.
<mgrwt>
<rscale>  0 0.12972927E+04</rscale>
<asrwt>0</asrwt>
<pdfrwt beam="1">  1        1 0.16922724E+00 0.12972927E+04</pdfrwt>
<pdfrwt beam="2">  1       -1 0.58846271E-01 0.12972927E+04</pdfrwt>
<totfact> 0.36467048E+01</totfact>
</mgrwt>
</event>
<event>
12    1  0.2019083E-007  0.2686239E+04  0.7818608E-02  0.8339484E-01
         -1   -1    0    0    0  501 -0.00000000000E+00  0.00000000000E+00  0.14374093882E+04  0.14374093882E+04  0.00000000000E+00 0.  1.
          1   -1    0    0  501    0  0.00000000000E+00 -0.00000000000E+00 -0.12550143375E+04  0.12550143375E+04  0.00000000000E+00 0. -1.
         23    2    1    2    0    0 -0.11120405806E+04  0.28361711688E+03 -0.23401082872E+03  0.11746255730E+04  0.88945190381E+02 0.  0.
        254    2    1    2    0    0  0.11120405806E+04 -0.28361711688E+03  0.41640587939E+03  0.15177981528E+04  0.90180067319E+03 0.  0.
        -24    2    4    4    0    0  0.29956334775E+03 -0.38023722276E+03  0.48919262061E+03  0.69272136891E+03  0.78961572940E+02 0.  0.
         24    2    4    4    0    0  0.81247723287E+03  0.96620105878E+02 -0.72786741212E+02  0.82507678385E+03  0.77453797534E+02 0.  0.
         11    1    3    3    0    0 -0.78969499525E+03  0.20204748532E+03 -0.12472129740E+03  0.82461916899E+03  0.00000000000E+00 0.  1.
        -11    1    3    3    0    0 -0.32234558538E+03  0.81569631559E+02 -0.10928953132E+03  0.35000640403E+03  0.00000000000E+00 0. -1.
          4    1    6    6  502    0  0.28628343610E+03  0.45524436475E+01 -0.28773214324E+01  0.28633408723E+03  0.00000000000E+00 0. -1.
          1    1    5    5  503    0 -0.41379104954E+00 -0.38714697057E+01 -0.25431466815E+01  0.46504941413E+01  0.00000000000E+00 0. -1.
         -2    1    5    5    0  503  0.29997713880E+03 -0.37636575305E+03  0.49173576729E+03  0.68807087477E+03  0.00000000000E+00 0.  1.
         -1    1    6    6    0  502  0.52619379677E+03  0.92067662230E+02 -0.69909419779E+02  0.53874269662E+03  0.00000000000E+00 0.  1.
<mgrwt>
<rscale>  0 0.26862386E+04</rscale>
<asrwt>0</asrwt>
<pdfrwt beam="1">  1        1 0.19307913E+00 0.26862386E+04</pdfrwt>
<pdfrwt beam="2">  1       -1 0.22113991E+00 0.26862386E+04</pdfrwt>
<totfact> 0.92118621E-01</totfact>
</mgrwt>
</event>
<event>
12    1  0.2019083E-007  0.1738285E+04  0.7818608E-02  0.8739825E-01
         -1   -1    0    0    0  501 -0.00000000000E+00  0.00000000000E+00  0.29951029322E+03  0.29951029322E+03  0.00000000000E+00 0.  1.
          1   -1    0    0  501    0  0.00000000000E+00 -0.00000000000E+00 -0.25221454984E+04  0.25221454984E+04  0.00000000000E+00 0. -1.
         23    2    1    2    0    0  0.31886011253E+03  0.40552193474E+03 -0.22362707400E+03  0.56927873065E+03  0.89159374344E+02 0.  0.
        254    2    1    2    0    0 -0.31886011253E+03 -0.40552193474E+03 -0.19990081312E+04  0.22523770610E+04  0.90058264769E+03 0.  0.
        -24    2    4    4    0    0  0.18018568304E+03 -0.41522185216E+03 -0.13714819961E+04  0.14464988311E+04  0.80746119788E+02 0.  0.
         24    2    4    4    0    0 -0.49904579557E+03  0.96999174248E+01 -0.62752613512E+03  0.80587822990E+03  0.80683806872E+02 0.  0.
         11    1    3    3    0    0  0.15907709208E+03  0.16915761815E+03 -0.57835312744E+02  0.23930053155E+03  0.00000000000E+00 0.  1.
        -11    1    3    3    0    0  0.15978302045E+03  0.23636431659E+03 -0.16579176126E+03  0.32997819910E+03  0.00000000000E+00 0. -1.
          2    1    6    6  502    0 -0.84908396157E+02 -0.14838898376E+02 -0.15267698374E+03  0.17532794987E+03  0.00000000000E+00 0. -1.
          1    1    5    5  503    0  0.80365584559E+01 -0.25091334413E+02 -0.36148607815E+02  0.44731232728E+02  0.00000000000E+00 0. -1.
         -2    1    5    5    0  503  0.17214912459E+03 -0.39013051775E+03 -0.13353333883E+04  0.14017675984E+04  0.00000000000E+00 0.  1.
         -1    1    6    6    0  502 -0.41413739941E+03  0.24538815801E+02 -0.47484915138E+03  0.63055028003E+03  0.00000000000E+00 0.  1.
<mgrwt>
<rscale>  0 0.17382848E+04</rscale>
<asrwt>0</asrwt>
<pdfrwt beam="1">  1        1 0.38802239E+00 0.17382848E+04</pdfrwt>
<pdfrwt beam="2">  1       -1 0.46078506E-01 0.17382848E+04</pdfrwt>
<totfact> 0.58189310E+00</totfact>
</mgrwt>
</event>
<event>
12    1  0.2019083E-007  0.6153092E+04  0.7818608E-02  0.7671705E-01
         -1   -1    0    0    0  501 -0.00000000000E+00  0.00000000000E+00  0.40932365405E+04  0.40932365405E+04  0.00000000000E+00 0.  1.
          1   -1    0    0  501    0  0.00000000000E+00 -0.00000000000E+00 -0.23123843703E+04  0.23123843703E+04  0.00000000000E+00 0. -1.
         23    2    1    2    0    0  0.23342035647E+04 -0.48309668592E+03  0.27855396943E+04  0.36673132136E+04  0.89811631716E+02 0.  0.
        254    2    1    2    0    0 -0.23342035647E+04  0.48309668592E+03 -0.10046875240E+04  0.27383076972E+04  0.89835590619E+03 0.  0.
        -24    2    4    4    0    0 -0.95288448454E+03  0.26697816706E+03 -0.88990292976E+03  0.13333455503E+04  0.81344634811E+02 0.  0.
         24    2    4    4    0    0 -0.13813190802E+04  0.21611851886E+03 -0.11478459426E+03  0.14049621469E+04  0.77417799284E+02 0.  0.
         13    1    3    3    0    0  0.20491559401E+04 -0.42563366866E+03  0.23990729363E+04  0.31836700583E+04  0.00000000000E+00 0. -1.
        -13    1    3    3    0    0  0.28504762459E+03 -0.57463017262E+02  0.38646675800E+03  0.48364315531E+03  0.00000000000E+00 0.  1.
          2    1    6    6  502    0 -0.63911851149E+03  0.13889002763E+03 -0.49701398157E+02  0.65592159629E+03  0.00000000000E+00 0. -1.
          1    1    5    5  503    0 -0.78234841298E+03  0.18924958676E+03 -0.73948429349E+03  0.10930331494E+04  0.00000000000E+00 0. -1.
         -2    1    5    5    0  503 -0.17053607156E+03  0.77728580296E+02 -0.15041863627E+03  0.24031240092E+03  0.00000000000E+00 0.  1.
         -1    1    6    6    0  502 -0.74220056868E+03  0.77228491230E+02 -0.65083196104E+02  0.74904055059E+03  0.00000000000E+00 0.  1.
<mgrwt>
<rscale>  0 0.61530923E+04</rscale>
<asrwt>0</asrwt>
<pdfrwt beam="1">  1        1 0.35575144E+00 0.61530923E+04</pdfrwt>
<pdfrwt beam="2">  1       -1 0.62972870E+00 0.61530923E+04</pdfrwt>
<totfact> 0.42223631E-04</totfact>
</mgrwt>
</event>
<event>
12    1  0.2019083E-007  0.1397597E+04  0.7818608E-02  0.8955560E-01
         -1   -1    0    0    0  501 -0.00000000000E+00  0.00000000000E+00  0.24504830750E+03  0.24504830750E+03  0.00000000000E+00 0.  1.
          1   -1    0    0  501    0  0.00000000000E+00 -0.00000000000E+00 -0.19927483336E+04  0.19927483336E+04  0.00000000000E+00 0. -1.
         23    2    1    2    0    0  0.87890628039E+02  0.30420348013E+03 -0.12226486544E+03  0.35305531462E+03  0.97133094457E+02 0.  0.
        254    2    1    2    0    0 -0.87890628039E+02 -0.30420348013E+03 -0.16254351607E+04  0.18847413265E+04  0.89996993640E+03 0.  0.
        -24    2    4    4    0    0  0.12749642205E+03 -0.35752787220E+02 -0.15037888704E+04  0.15115041422E+04  0.75698122920E+02 0.  0.
         24    2    4    4    0    0 -0.21538705009E+03 -0.26845069291E+03 -0.12164629028E+03  0.37323718426E+03  0.77787016335E+02 0.  0.
         11    1    3    3    0    0  0.49892046165E+02  0.26030181840E+03 -0.12870379292E+03  0.29463692784E+03  0.00000000000E+00 0. -1.
        -11    1    3    3    0    0  0.37998581874E+02  0.43901661726E+02  0.64389274787E+01  0.58418386779E+02  0.00000000000E+00 0.  1.
          2    1    6    6  502    0 -0.55958494755E+02 -0.25417177742E+02 -0.30567228798E+02  0.68642126540E+02  0.00000000000E+00 0. -1.
          3    1    5    5  503    0 -0.74328348119E+01 -0.13730491859E+02 -0.13233824821E+03  0.13325608946E+03  0.00000000000E+00 0. -1.
         -4    1    5    5    0  503  0.13492925686E+03 -0.22022295361E+02 -0.13714506222E+04  0.13782480528E+04  0.00000000000E+00 0.  1.
         -1    1    6    6    0  502 -0.15942855533E+03 -0.24303351516E+03 -0.91079061477E+02  0.30459505772E+03  0.00000000000E+00 0.  1.
<mgrwt>
<rscale>  0 0.13975974E+04</rscale>
<asrwt>0</asrwt>
<pdfrwt beam="1">  1        1 0.30657665E+00 0.13975974E+04</pdfrwt>
<pdfrwt beam="2">  1       -1 0.37699741E-01 0.13975974E+04</pdfrwt>
<totfact> 0.19963706E+01</totfact>
</mgrwt>
</event>
<event>
12    1  0.2019083E-007  0.1443807E+04  0.7818608E-02  0.8922706E-01
          2   -1    0    0  501    0  0.00000000000E+00  0.00000000000E+00  0.20500708216E+04  0.20500708216E+04  0.00000000000E+00 0. -1.
         -2   -1    0    0    0  501 -0.00000000000E+00 -0.00000000000E+00 -0.25420797235E+03  0.25420797235E+03  0.00000000000E+00 0.  1.
         23    2    1    2    0    0 -0.17625869100E+03  0.38593041019E+03  0.39172712783E+03  0.58442194197E+03  0.89941402658E+02 0.  0.
        254    2    1    2    0    0  0.17625869100E+03 -0.38593041019E+03  0.14041357214E+04  0.17198568520E+04  0.89794268161E+03 0.  0.
        -24    2    4    4    0    0 -0.64333295649E+02 -0.26022233412E+03  0.14090426314E+04  0.14362297197E+04  0.74163567778E+02 0.  0.
         24    2    4    4    0    0  0.24059198665E+03 -0.12570807607E+03 -0.49069099257E+01  0.28362713224E+03  0.82056370563E+02 0.  0.
         13    1    3    3    0    0 -0.16750711421E+03  0.30303519938E+03  0.28159361395E+03  0.44630026752E+03  0.00000000000E+00 0.  1.
        -13    1    3    3    0    0 -0.87515767946E+01  0.82895210806E+02  0.11013351388E+03  0.13812167444E+03  0.00000000000E+00 0. -1.
          2    1    6    6  502    0  0.23478210248E+03 -0.10422566624E+03  0.96105176322E+01  0.25705638914E+03  0.00000000000E+00 0. -1.
          1    1    5    5  503    0 -0.77022186298E+02 -0.23956590800E+03  0.13282934261E+04  0.13519199929E+04  0.00000000000E+00 0. -1.
         -2    1    5    5    0  503  0.12688890649E+02 -0.20656426121E+02  0.80749205284E+02  0.84309726841E+02  0.00000000000E+00 0.  1.
         -1    1    6    6    0  502  0.58098841713E+01 -0.21482409832E+02 -0.14517427558E+02  0.26570743106E+02  0.00000000000E+00 0.  1.
<mgrwt>
<rscale>  0 0.14438066E+04</rscale>
<asrwt>0</asrwt>
<pdfrwt beam="1">  1        2 0.31539550E+00 0.14438066E+04</pdfrwt>
<pdfrwt beam="2">  1       -2 0.39108920E-01 0.14438066E+04</pdfrwt>
<totfact> 0.37598060E+01</totfact>
</mgrwt>
</event>
<event>
12    1  0.2019083E-007  0.1321209E+04  0.7818608E-02  0.9012913E-01
         -2   -1    0    0    0  501 -0.00000000000E+00  0.00000000000E+00  0.88638648470E+03  0.88638648470E+03  0.00000000000E+00 0.  1.
          2   -1    0    0  501    0  0.00000000000E+00 -0.00000000000E+00 -0.49233412982E+03  0.49233412982E+03  0.00000000000E+00 0. -1.
         23    2    1    2    0    0  0.60945038280E+00  0.23226102062E+03 -0.16127051665E+03  0.29623863290E+03  0.88337958719E+02 0.  0.
        254    2    1    2    0    0 -0.60945038280E+00 -0.23226102062E+03  0.55532287153E+03  0.10824819816E+04  0.89968783240E+03 0.  0.
        -24    2    4    4    0    0 -0.43676391200E+03 -0.12290916430E+03  0.36624577691E+03  0.58832361906E+03  0.78226173008E+02 0.  0.
         24    2    4    4    0    0  0.43615446162E+03 -0.10935185632E+03  0.18907709462E+03  0.49415836256E+03  0.79080950392E+02 0.  0.
         13    1    3    3    0    0 -0.18566200501E+00  0.12350180019E+03 -0.32546630473E+02  0.12771848839E+03  0.00000000000E+00 0.  1.
        -13    1    3    3    0    0  0.79511238781E+00  0.10875922042E+03 -0.12872388618E+03  0.16852014451E+03  0.00000000000E+00 0. -1.
          2    1    6    6  502    0  0.35575798455E+03 -0.57379513999E+02  0.15837973924E+03  0.39362455970E+03  0.00000000000E+00 0. -1.
          1    1    5    5  503    0 -0.40901654528E+03 -0.10773232114E+03  0.31221689898E+03  0.52571872645E+03  0.00000000000E+00 0. -1.
         -2    1    5    5    0  503 -0.27747366718E+02 -0.15176843160E+02  0.54028877929E+02  0.62604892607E+02  0.00000000000E+00 0.  1.
         -1    1    6    6    0  502  0.80396477066E+02 -0.51972342321E+02  0.30697355374E+02  0.10053380286E+03  0.00000000000E+00 0.  1.
<mgrwt>
<rscale>  0 0.13212090E+04</rscale>
<asrwt>0</asrwt>
<pdfrwt beam="1">  1        2 0.75743713E-01 0.13212090E+04</pdfrwt>
<pdfrwt beam="2">  1       -2 0.13636715E+00 0.13212090E+04</pdfrwt>
<totfact> 0.23576086E+01</totfact>
</mgrwt>
</event>
<event>
12    1  0.2019083E-007  0.1591075E+04  0.7818608E-02  0.8826050E-01
         -2   -1    0    0    0  501 -0.00000000000E+00  0.00000000000E+00  0.10706540897E+04  0.10706540897E+04  0.00000000000E+00 0.  1.
          2   -1    0    0  501    0  0.00000000000E+00 -0.00000000000E+00 -0.59111489237E+03  0.59111489237E+03  0.00000000000E+00 0. -1.
         23    2    1    2    0    0  0.44344612278E+03  0.21369791044E+03  0.35192766011E+03  0.61192418996E+03  0.91032277687E+02 0.  0.
        254    2    1    2    0    0 -0.44344612278E+03 -0.21369791044E+03  0.12761153718E+03  0.10498447921E+04  0.91846509039E+03 0.  0.
        -24    2    4    4    0    0  0.35822138600E+02  0.12142784806E+03 -0.29091182624E+03  0.32630670513E+03  0.76278616055E+02 0.  0.
         24    2    4    4    0    0 -0.47926826138E+03 -0.33512575850E+03  0.41852336342E+03  0.72353808694E+03  0.79612920738E+02 0.  0.
         13    1    3    3    0    0  0.17518831069E+03  0.67215983481E+02  0.84455856230E+02  0.20577104823E+03  0.00000000000E+00 0. -1.
        -13    1    3    3    0    0  0.26825781209E+03  0.14648192696E+03  0.26747180388E+03  0.40615314174E+03  0.00000000000E+00 0.  1.
          2    1    6    6  502    0 -0.89690554186E+02 -0.66447806461E+02  0.43826097904E+02  0.11991844458E+03  0.00000000000E+00 0. -1.
          3    1    5    5  503    0  0.36711578946E+02  0.12363974797E+02 -0.76303349767E+02  0.85573413436E+02  0.00000000000E+00 0. -1.
         -4    1    5    5    0  503 -0.88944034600E+00  0.10906387326E+03 -0.21460847647E+03  0.24073329169E+03  0.00000000000E+00 0.  1.
         -1    1    6    6    0  502 -0.38957770719E+03 -0.26867795204E+03  0.37469726552E+03  0.60361964235E+03  0.00000000000E+00 0.  1.
<mgrwt>
<rscale>  0 0.15910746E+04</rscale>
<asrwt>0</asrwt>
<pdfrwt beam="1">  1        2 0.90940753E-01 0.15910746E+04</pdfrwt>
<pdfrwt beam="2">  1       -2 0.16471601E+00 0.15910746E+04</pdfrwt>
<totfact> 0.11262523E+01</totfact>
</mgrwt>
</event>
<event>
12    1  0.2019083E-007  0.2785299E+04  0.7818608E-02  0.8307847E-01
         -1   -1    0    0    0  501 -0.00000000000E+00  0.00000000000E+00  0.63659677190E+03  0.63659677190E+03  0.00000000000E+00 0.  1.
          1   -1    0    0  501    0  0.00000000000E+00 -0.00000000000E+00 -0.30466275057E+04  0.30466275057E+04  0.00000000000E+00 0. -1.
         23    2    1    2    0    0  0.69822699359E+03  0.47989001746E+03 -0.22850833396E+04  0.24389553002E+04  0.95298079017E+02 0.  0.
        254    2    1    2    0    0 -0.69822699359E+03 -0.47989001746E+03 -0.12494739414E+03  0.12442689774E+04  0.90265058209E+03 0.  0.
        -24    2    4    4    0    0 -0.88314853709E+01 -0.48805614516E+03  0.11775997550E+03  0.50850084050E+03  0.80180402838E+02 0.  0.
         24    2    4    4    0    0 -0.68939550821E+03  0.81661276990E+01 -0.24270736964E+03  0.73576813688E+03  0.84350646567E+02 0.  0.
         11    1    3    3    0    0  0.45865378170E+03  0.31131502902E+03 -0.16200601307E+04  0.17122719311E+04  0.00000000000E+00 0.  1.
        -11    1    3    3    0    0  0.23957321188E+03  0.16857498845E+03 -0.66502320888E+03  0.72668336911E+03  0.00000000000E+00 0. -1.
          2    1    6    6  502    0 -0.53519469938E+03  0.29340763142E+02 -0.15924010113E+03  0.55915262356E+03  0.00000000000E+00 0. -1.
          1    1    5    5  503    0 -0.43599199483E+02 -0.28264675139E+03  0.77650704359E+02  0.29634390183E+03  0.00000000000E+00 0. -1.
         -2    1    5    5    0  503  0.34767714112E+02 -0.20540939377E+03  0.40109271145E+02  0.21215693867E+03  0.00000000000E+00 0.  1.
         -3    1    6    6    0  502 -0.15420080884E+03 -0.21174635443E+02 -0.83467268511E+02  0.17661551332E+03  0.00000000000E+00 0.  1.
<mgrwt>
<rscale>  0 0.27852994E+04</rscale>
<asrwt>0</asrwt>
<pdfrwt beam="1">  1        1 0.46871192E+00 0.27852994E+04</pdfrwt>
<pdfrwt beam="2">  1       -1 0.97937966E-01 0.27852994E+04</pdfrwt>
<totfact> 0.47844037E-01</totfact>
</mgrwt>
</event>
<event>
12    1  0.2019083E-007  0.2846578E+04  0.7818608E-02  0.8288952E-01
         -2   -1    0    0    0  501 -0.00000000000E+00  0.00000000000E+00  0.92667692414E+03  0.92667692414E+03  0.00000000000E+00 0.  1.
          2   -1    0    0  501    0  0.00000000000E+00 -0.00000000000E+00 -0.21860385756E+04  0.21860385756E+04  0.00000000000E+00 0. -1.
         23    2    1    2    0    0  0.12676670480E+04 -0.13197480914E+03 -0.70577358375E+03  0.14596345931E+04  0.89552772293E+02 0.  0.
        254    2    1    2    0    0 -0.12676670480E+04  0.13197480914E+03 -0.55358806771E+03  0.16530809066E+04  0.89544382299E+03 0.  0.
        -24    2    4    4    0    0 -0.91190433684E+03  0.48324442567E+03 -0.25816666313E+03  0.10668308817E+04  0.79896243712E+02 0.  0.
         24    2    4    4    0    0 -0.35576271121E+03 -0.35126961652E+03 -0.29542140458E+03  0.58625002489E+03  0.80360657135E+02 0.  0.
         11    1    3    3    0    0  0.58129816808E+03 -0.98440308055E+02 -0.29865816116E+03  0.66090449514E+03  0.00000000000E+00 0. -1.
        -11    1    3    3    0    0  0.68636887997E+03 -0.33534501087E+02 -0.40711542260E+03  0.79873009801E+03  0.00000000000E+00 0.  1.
          2    1    6    6  502    0 -0.29322263943E+02 -0.13357404315E+02 -0.40356359873E+02  0.51641564607E+02  0.00000000000E+00 0. -1.
          1    1    5    5  503    0 -0.36189664000E+03  0.15763538839E+03 -0.73470501314E+02  0.40151713324E+03  0.00000000000E+00 0. -1.
         -2    1    5    5    0  503 -0.55000769684E+03  0.32560903727E+03 -0.18469616182E+03  0.66531374848E+03  0.00000000000E+00 0.  1.
         -1    1    6    6    0  502 -0.32644044727E+03 -0.33791221221E+03 -0.25506504471E+03  0.53460846028E+03  0.00000000000E+00 0.  1.
<mgrwt>
<rscale>  0 0.28465779E+04</rscale>
<asrwt>0</asrwt>
<pdfrwt beam="1">  1        2 0.33631363E+00 0.28465779E+04</pdfrwt>
<pdfrwt beam="2">  1       -2 0.14256568E+00 0.28465779E+04</pdfrwt>
<totfact> 0.15612596E+00</totfact>
</mgrwt>
</event>
<event>
12    1  0.2019083E-007  0.3213086E+04  0.7818608E-02  0.8185370E-01
          2   -1    0    0  501    0  0.00000000000E+00  0.00000000000E+00  0.31721025649E+04  0.31721025649E+04  0.00000000000E+00 0. -1.
         -2   -1    0    0    0  501 -0.00000000000E+00 -0.00000000000E+00 -0.81364996113E+03  0.81364996113E+03  0.00000000000E+00 0.  1.
         23    2    1    2    0    0 -0.89058565816E+03  0.11671931536E+04  0.88255770480E+03  0.17153851072E+04  0.90306651524E+02 0.  0.
        254    2    1    2    0    0  0.89058565816E+03 -0.11671931536E+04  0.14758948990E+04  0.22703674188E+04  0.90599105481E+03 0.  0.
        -24    2    4    4    0    0  0.33504886579E+02 -0.75322943101E+03  0.52238694196E+03  0.92073383122E+03  0.79909434114E+02 0.  0.
         24    2    4    4    0    0  0.85708077158E+03 -0.41396372260E+03  0.95350795701E+03  0.13496335876E+04  0.79874802750E+02 0.  0.
         11    1    3    3    0    0 -0.57450878691E+03  0.82143903372E+03  0.60909803641E+03  0.11729547520E+04  0.00000000000E+00 0. -1.
        -11    1    3    3    0    0 -0.31607687125E+03  0.34575411989E+03  0.27345966839E+03  0.54243035516E+03  0.00000000000E+00 0.  1.
          2    1    6    6  502    0  0.48532402390E+03 -0.22226956167E+03  0.58807822172E+03  0.79421606700E+03  0.00000000000E+00 0. -1.
          3    1    5    5  503    0  0.43332284991E+01 -0.61806971375E+03  0.40126512598E+03  0.73691427538E+03  0.00000000000E+00 0. -1.
         -4    1    5    5    0  503  0.29171658080E+02 -0.13515971725E+03  0.12112181598E+03  0.18381955584E+03  0.00000000000E+00 0.  1.
         -1    1    6    6    0  502  0.37175674768E+03 -0.19169416092E+03  0.36542973529E+03  0.55541752062E+03  0.00000000000E+00 0.  1.
<mgrwt>
<rscale>  0 0.32130864E+04</rscale>
<asrwt>0</asrwt>
<pdfrwt beam="1">  1        2 0.48801577E+00 0.32130864E+04</pdfrwt>
<pdfrwt beam="2">  1       -2 0.12517692E+00 0.32130864E+04</pdfrwt>
<totfact> 0.54291252E-01</totfact>
</mgrwt>
</event>
<event>
12    1  0.2019083E-007  0.3527822E+04  0.7818608E-02  0.8107228E-01
          2   -1    0    0  501    0  0.00000000000E+00  0.00000000000E+00  0.33397347199E+04  0.33397347199E+04  0.00000000000E+00 0. -1.
         -2   -1    0    0    0  501 -0.00000000000E+00 -0.00000000000E+00 -0.93162539990E+03  0.93162539990E+03  0.00000000000E+00 0.  1.
         23    2    1    2    0    0 -0.11748683954E+04 -0.94191158321E+03  0.19362440361E+04  0.24544261608E+04  0.87485052858E+02 0.  0.
        254    2    1    2    0    0  0.11748683954E+04  0.94191158321E+03  0.47186528385E+03  0.18169339590E+04  0.90059923836E+03 0.  0.
        -24    2    4    4    0    0  0.72248099773E+03  0.10076142881E+04  0.14681712226E+03  0.12510567823E+04  0.79513895341E+02 0.  0.
         24    2    4    4    0    0  0.45238739763E+03 -0.65702704919E+02  0.32504816159E+03  0.56587717662E+03  0.74762749361E+02 0.  0.
         13    1    3    3    0    0 -0.29792218474E+03 -0.19831268505E+03  0.49200863920E+03  0.60840615567E+03  0.00000000000E+00 0. -1.
        -13    1    3    3    0    0 -0.87694621062E+03 -0.74359889816E+03  0.14442353969E+04  0.18460200051E+04  0.00000000000E+00 0.  1.
          2    1    6    6  502    0  0.25048333323E+03 -0.71959982356E+02  0.19723698099E+03  0.32683721629E+03  0.00000000000E+00 0. -1.
          3    1    5    5  503    0  0.26934863101E+03  0.32904714820E+03  0.76729224586E+02  0.43209730926E+03  0.00000000000E+00 0. -1.
         -4    1    5    5    0  503  0.45313236672E+03  0.67856713993E+03  0.70087897674E+02  0.81895947309E+03  0.00000000000E+00 0.  1.
         -1    1    6    6    0  502  0.20190406440E+03  0.62572774374E+01  0.12781118060E+03  0.23903996032E+03  0.00000000000E+00 0.  1.
<mgrwt>
<rscale>  0 0.35278218E+04</rscale>
<asrwt>0</asrwt>
<pdfrwt beam="1">  1        2 0.51380533E+00 0.35278218E+04</pdfrwt>
<pdfrwt beam="2">  1       -2 0.14332699E+00 0.35278218E+04</pdfrwt>
<totfact> 0.28973993E-01</totfact>
</mgrwt>
</event>
<event>
12    1  0.2019083E-007  0.1919173E+04  0.7818608E-02  0.8645371E-01
          1   -1    0    0  501    0  0.00000000000E+00  0.00000000000E+00  0.10259318691E+04  0.10259318691E+04  0.00000000000E+00 0. -1.
         -1   -1    0    0    0  501 -0.00000000000E+00 -0.00000000000E+00 -0.89753183800E+03  0.89753183800E+03  0.00000000000E+00 0.  1.
         23    2    1    2    0    0 -0.35758142484E+03 -0.64729239075E+03 -0.16684987309E+02  0.74570233069E+03  0.94560365267E+02 0.  0.
        254    2    1    2    0    0  0.35758142484E+03  0.64729239075E+03  0.14508501840E+03  0.11777613764E+04  0.90510788454E+03 0.  0.
        -24    2    4    4    0    0  0.75984629966E+02 -0.11979070775E+03 -0.22448321448E+03  0.27734700075E+03  0.80032290901E+02 0.  0.
         24    2    4    4    0    0  0.28159679487E+03  0.76708309850E+03  0.36956823288E+03  0.90041437565E+03  0.80325178050E+02 0.  0.
         11    1    3    3    0    0 -0.32794852734E+03 -0.60173887685E+03 -0.40218470249E+02  0.68648192828E+03  0.00000000000E+00 0.  1.
        -11    1    3    3    0    0 -0.29632897495E+02 -0.45553513896E+02  0.23533482939E+02  0.59220402409E+02  0.00000000000E+00 0. -1.
          2    1    6    6  502    0  0.19723932187E+03  0.61067083209E+03  0.31240896682E+03  0.71373775142E+03  0.00000000000E+00 0. -1.
          3    1    5    5  503    0  0.64461333926E+01 -0.84767184617E+02 -0.11811426884E+03  0.14552665985E+03  0.00000000000E+00 0. -1.
         -4    1    5    5    0  503  0.69538496573E+02 -0.35023523138E+02 -0.10636894564E+03  0.13182034090E+03  0.00000000000E+00 0.  1.
         -1    1    6    6    0  502  0.84357472998E+02  0.15641226642E+03  0.57159266059E+02  0.18667662423E+03  0.00000000000E+00 0.  1.
<mgrwt>
<rscale>  0 0.19191733E+04</rscale>
<asrwt>0</asrwt>
<pdfrwt beam="1">  1        1 0.15783567E+00 0.19191733E+04</pdfrwt>
<pdfrwt beam="2">  1       -1 0.13808182E+00 0.19191733E+04</pdfrwt>
<totfact> 0.58632331E+00</totfact>
</mgrwt>
</event>
<event>
12    1  0.2019083E-007  0.2467278E+04  0.7818608E-02  0.8414737E-01
         -2   -1    0    0    0  501 -0.00000000000E+00  0.00000000000E+00  0.13842862167E+04  0.13842862167E+04  0.00000000000E+00 0.  1.
          2   -1    0    0  501    0  0.00000000000E+00 -0.00000000000E+00 -0.10993861251E+04  0.10993861251E+04  0.00000000000E+00 0. -1.
         23    2    1    2    0    0  0.94516231745E+02  0.96462583107E+03 -0.32710714320E+03  0.10269142094E+04  0.90096605640E+02 0.  0.
        254    2    1    2    0    0 -0.94516231745E+02 -0.96462583107E+03  0.61200723484E+03  0.14567581324E+04  0.89897446498E+03 0.  0.
        -24    2    4    4    0    0  0.60017840511E+02 -0.90586847660E+03  0.78553919406E+03  0.12031644497E+04  0.79580334344E+02 0.  0.
         24    2    4    4    0    0 -0.15453407226E+03 -0.58757354470E+02 -0.17353195922E+03  0.25359368263E+03  0.82844485674E+02 0.  0.
         11    1    3    3    0    0 -0.25883388346E+01  0.14530952235E+03 -0.20677159803E+02  0.14679612297E+03  0.00000000000E+00 0.  1.
        -11    1    3    3    0    0  0.97104570580E+02  0.81931630873E+03 -0.30642998340E+03  0.88011808645E+03  0.00000000000E+00 0. -1.
          4    1    6    6  502    0 -0.13634691502E+00 -0.23719607421E+02 -0.39876177133E+02  0.46397714053E+02  0.00000000000E+00 0. -1.
          1    1    5    5  503    0 -0.13764494159E+01 -0.19458874372E+03  0.20848275291E+03  0.28518718775E+03  0.00000000000E+00 0. -1.
         -2    1    5    5    0  503  0.61394289927E+02 -0.71127973289E+03  0.57705644116E+03  0.91797726199E+03  0.00000000000E+00 0.  1.
         -3    1    6    6    0  502 -0.15439772534E+03 -0.35037747049E+02 -0.13365578209E+03  0.20719596858E+03  0.00000000000E+00 0.  1.
<mgrwt>
<rscale>  0 0.24672779E+04</rscale>
<asrwt>0</asrwt>
<pdfrwt beam="1">  1        2 0.16913633E+00 0.24672779E+04</pdfrwt>
<pdfrwt beam="2">  1       -2 0.21296711E+00 0.24672779E+04</pdfrwt>
<totfact> 0.21366958E+00</totfact>
</mgrwt>
</event>
<event>
12    1  0.2019083E-007  0.1656911E+04  0.7818608E-02  0.8786328E-01
         -2   -1    0    0    0  501 -0.00000000000E+00  0.00000000000E+00  0.48132744105E+03  0.48132744105E+03  0.00000000000E+00 0.  1.
          2   -1    0    0  501    0  0.00000000000E+00 -0.00000000000E+00 -0.14259293154E+04  0.14259293154E+04  0.00000000000E+00 0. -1.
         23    2    1    2    0    0 -0.44702476352E+03 -0.10159091249E+03 -0.73382372798E+03  0.87002549730E+03  0.91078260313E+02 0.  0.
        254    2    1    2    0    0  0.44702476352E+03  0.10159091249E+03 -0.21077814641E+03  0.10372312592E+04  0.90623915461E+03 0.  0.
        -24    2    4    4    0    0  0.53270653690E+03  0.36051039678E+03 -0.33166069518E+03  0.72822531620E+03  0.81051180027E+02 0.  0.
         24    2    4    4    0    0 -0.85681773384E+02 -0.25891948428E+03  0.12088254877E+03  0.30900594299E+03  0.80569327743E+02 0.  0.
         11    1    3    3    0    0 -0.24775075803E+03 -0.80381038088E+02 -0.34160195266E+03  0.42957356000E+03  0.00000000000E+00 0.  1.
        -11    1    3    3    0    0 -0.19927400549E+03 -0.21209874404E+02 -0.39222177532E+03  0.44045193730E+03  0.00000000000E+00 0. -1.
          4    1    6    6  502    0 -0.18155540117E+02 -0.53770764331E+02  0.64253653188E+02  0.85728937248E+02  0.00000000000E+00 0. -1.
          1    1    5    5  503    0  0.11422821721E+03  0.10963389607E+03 -0.10683642923E+03  0.19100183084E+03  0.00000000000E+00 0. -1.
         -2    1    5    5    0  503  0.41847831970E+03  0.25087650071E+03 -0.22482426596E+03  0.53722348536E+03  0.00000000000E+00 0.  1.
         -3    1    6    6    0  502 -0.67526233267E+02 -0.20514871995E+03  0.56628895584E+02  0.22327700574E+03  0.00000000000E+00 0.  1.
<mgrwt>
<rscale>  0 0.16569115E+04</rscale>
<asrwt>0</asrwt>
<pdfrwt beam="1">  1        2 0.21937374E+00 0.16569115E+04</pdfrwt>
<pdfrwt beam="2">  1       -2 0.74050376E-01 0.16569115E+04</pdfrwt>
<totfact> 0.21930964E+01</totfact>
</mgrwt>
</event>
<event>
12    1  0.2019083E-007  0.2240869E+04  0.7818608E-02  0.8501607E-01
         -3   -1    0    0    0  501 -0.00000000000E+00  0.00000000000E+00  0.15684805094E+04  0.15684805094E+04  0.00000000000E+00 0.  1.
          3   -1    0    0  501    0  0.00000000000E+00 -0.00000000000E+00 -0.80037578949E+03  0.80037578949E+03  0.00000000000E+00 0. -1.
         23    2    1    2    0    0 -0.87923311681E+03  0.30778323076E+03  0.21930513549E+03  0.96113556211E+03  0.88912515812E+02 0.  0.
        254    2    1    2    0    0  0.87923311681E+03 -0.30778323076E+03  0.54879958446E+03  0.14077207368E+04  0.90150723688E+03 0.  0.
        -24    2    4    4    0    0  0.53015689414E+03 -0.13406757664E+03 -0.17676509550E+03  0.58026990621E+03  0.80167434500E+02 0.  0.
         24    2    4    4    0    0  0.34907622267E+03 -0.17371565412E+03  0.72556467996E+03  0.82745083062E+03  0.78736488128E+02 0.  0.
         13    1    3    3    0    0 -0.53462393823E+03  0.14087329499E+03  0.12784216911E+03  0.56746071298E+03  0.00000000000E+00 0. -1.
        -13    1    3    3    0    0 -0.34460917857E+03  0.16690993577E+03  0.91462966387E+02  0.39367484913E+03  0.00000000000E+00 0.  1.
          2    1    6    6  502    0  0.17488076365E+03 -0.13068162771E+03  0.39270047351E+03  0.44930460849E+03  0.00000000000E+00 0. -1.
          1    1    5    5  503    0  0.43507903912E+03 -0.78307977161E+02 -0.13259973632E+03  0.46152854694E+03  0.00000000000E+00 0. -1.
         -2    1    5    5    0  503  0.95077855019E+02 -0.55759599482E+02 -0.44165359184E+02  0.11874135927E+03  0.00000000000E+00 0.  1.
         -1    1    6    6    0  502  0.17419545902E+03 -0.43034026404E+02  0.33286420646E+03  0.37814622213E+03  0.00000000000E+00 0.  1.
<mgrwt>
<rscale>  0 0.22408693E+04</rscale>
<asrwt>0</asrwt>
<pdfrwt beam="1">  1        3 0.12313474E+00 0.22408693E+04</pdfrwt>
<pdfrwt beam="2">  1       -3 0.24130469E+00 0.22408693E+04</pdfrwt>
<totfact> 0.10388114E-01</totfact>
</mgrwt>
</event>
<event>
12    1  0.2019083E-007  0.1666277E+04  0.7818608E-02  0.8780835E-01
          1   -1    0    0  501    0  0.00000000000E+00  0.00000000000E+00  0.31553450258E+04  0.31553450258E+04  0.00000000000E+00 0. -1.
         -1   -1    0    0    0  501 -0.00000000000E+00 -0.00000000000E+00 -0.21998217447E+03  0.21998217447E+03  0.00000000000E+00 0.  1.
         23    2    1    2    0    0 -0.23727603067E+03 -0.29931943935E+03  0.19422443497E+04  0.19814499475E+04  0.89099601237E+02 0.  0.
        254    2    1    2    0    0  0.23727603067E+03  0.29931943935E+03  0.99311850165E+03  0.13938772528E+04  0.90039846516E+03 0.  0.
        -24    2    4    4    0    0  0.41825100265E+03 -0.56597633839E+02  0.86785003223E+03  0.96835636273E+03  0.80082291537E+02 0.  0.
         24    2    4    4    0    0 -0.18097497198E+03  0.35591707319E+03  0.12526846942E+03  0.42552089008E+03  0.77116373062E+02 0.  0.
         13    1    3    3    0    0 -0.22975094716E+03 -0.26102312105E+03  0.18263847312E+04  0.18591933073E+04  0.00000000000E+00 0. -1.
        -13    1    3    3    0    0 -0.75250835072E+01 -0.38296318298E+02  0.11585961850E+03  0.12225664021E+03  0.00000000000E+00 0.  1.
          4    1    6    6  502    0 -0.14413840961E+03  0.33256063105E+03  0.10453557643E+03  0.37722690942E+03  0.00000000000E+00 0. -1.
          1    1    5    5  503    0  0.34763246178E+03 -0.43570658867E+02  0.77867287558E+03  0.85386074858E+03  0.00000000000E+00 0. -1.
         -2    1    5    5    0  503  0.70618540864E+02 -0.13026974972E+02  0.89177156651E+02  0.11449561415E+03  0.00000000000E+00 0.  1.
         -3    1    6    6    0  502 -0.36836562367E+02  0.23356442138E+02  0.20732892995E+02  0.48293980663E+02  0.00000000000E+00 0.  1.
<mgrwt>
<rscale>  0 0.16662769E+04</rscale>
<asrwt>0</asrwt>
<pdfrwt beam="1">  1        1 0.48543766E+00 0.16662769E+04</pdfrwt>
<pdfrwt beam="2">  1       -1 0.33843414E-01 0.16662769E+04</pdfrwt>
<totfact> 0.36301189E+00</totfact>
</mgrwt>
</event>
<event>
12    1  0.2019083E-007  0.1967619E+04  0.7818608E-02  0.8621911E-01
         -2   -1    0    0    0  501 -0.00000000000E+00  0.00000000000E+00  0.44588512257E+03  0.44588512257E+03  0.00000000000E+00 0.  1.
          2   -1    0    0  501    0  0.00000000000E+00 -0.00000000000E+00 -0.21706966825E+04  0.21706966825E+04  0.00000000000E+00 0. -1.
         23    2    1    2    0    0  0.60757035343E+03  0.23899552074E+03 -0.13021655413E+03  0.67190561615E+03  0.90775617501E+02 0.  0.
        254    2    1    2    0    0 -0.60757035343E+03 -0.23899552074E+03 -0.15945950059E+04  0.19446761890E+04  0.90153849276E+03 0.  0.
        -24    2    4    4    0    0 -0.77439840109E+03  0.36550244306E+02 -0.10639563430E+04  0.13189125388E+04  0.80612537925E+02 0.  0.
         24    2    4    4    0    0  0.16682804766E+03 -0.27554576505E+03 -0.53063866283E+03  0.62576365013E+03  0.79029672966E+02 0.  0.
         11    1    3    3    0    0  0.57562900374E+03  0.24475348844E+03 -0.11470242934E+03  0.63593212480E+03  0.00000000000E+00 0.  1.
        -11    1    3    3    0    0  0.31941349692E+02 -0.57579676939E+01 -0.15514124781E+02  0.35973491349E+02  0.00000000000E+00 0. -1.
          4    1    6    6  502    0  0.25982815950E+01 -0.63028084356E+02 -0.10229134158E+03  0.12017823866E+03  0.00000000000E+00 0. -1.
          3    1    5    5  503    0 -0.16524570895E+03  0.27679825011E+02 -0.18658863393E+03  0.25077407232E+03  0.00000000000E+00 0. -1.
         -4    1    5    5    0  503 -0.60915269214E+03  0.88704192952E+01 -0.87736770910E+03  0.10681384665E+04  0.00000000000E+00 0.  1.
         -3    1    6    6    0  502  0.16422976606E+03 -0.21251768069E+03 -0.42834732125E+03  0.50558541147E+03  0.00000000000E+00 0.  1.
<mgrwt>
<rscale>  0 0.19676192E+04</rscale>
<asrwt>0</asrwt>
<pdfrwt beam="1">  1        2 0.33395333E+00 0.19676192E+04</pdfrwt>
<pdfrwt beam="2">  1       -2 0.68597712E-01 0.19676192E+04</pdfrwt>
<totfact> 0.97068297E+00</totfact>
</mgrwt>
</event>
<event>
12    1  0.2019083E-007  0.2233278E+04  0.7818608E-02  0.8504703E-01
         -2   -1    0    0    0  501 -0.00000000000E+00  0.00000000000E+00  0.86973755234E+03  0.86973755234E+03  0.00000000000E+00 0. -1.
          2   -1    0    0  501    0  0.00000000000E+00 -0.00000000000E+00 -0.14336311332E+04  0.14336311332E+04  0.00000000000E+00 0.  1.
         23    2    1    2    0    0  0.24944382219E+03 -0.68814664887E+03  0.36009886849E+03  0.82087425349E+03  0.91625947021E+02 0.  0.
        254    2    1    2    0    0 -0.24944382219E+03  0.68814664887E+03 -0.92399244930E+03  0.14824944320E+04  0.89903262666E+03 0.  0.
        -24    2    4    4    0    0 -0.56726226294E+03  0.33730051107E+03 -0.64896568473E+03  0.92932117022E+03  0.83206176079E+02 0.  0.
         24    2    4    4    0    0  0.31781844075E+03  0.35084613780E+03 -0.27502676458E+03  0.55317326180E+03  0.79116133910E+02 0.  0.
         11    1    3    3    0    0  0.10427185356E+03 -0.25319776381E+03  0.18288368275E+03  0.32928432769E+03  0.00000000000E+00 0. -1.
        -11    1    3    3    0    0  0.14517196862E+03 -0.43494888506E+03  0.17721518574E+03  0.49158992580E+03  0.00000000000E+00 0.  1.
          4    1    6    6  502    0  0.14274684575E+03  0.17610477382E+03 -0.17490234066E+03  0.28632216488E+03  0.00000000000E+00 0. -1.
          1    1    5    5  503    0 -0.19069395603E+03  0.68935546087E+02 -0.19540208156E+03  0.28159948128E+03  0.00000000000E+00 0. -1.
         -2    1    5    5    0  503 -0.37656830691E+03  0.26836496498E+03 -0.45356360317E+03  0.64772168894E+03  0.00000000000E+00 0.  1.
         -3    1    6    6    0  502  0.17507159499E+03  0.17474136398E+03 -0.10012442392E+03  0.26685109691E+03  0.00000000000E+00 0.  1.
<mgrwt>
<rscale>  0 0.22332782E+04</rscale>
<asrwt>0</asrwt>
<pdfrwt beam="1">  1        2 0.22055863E+00 0.22332782E+04</pdfrwt>
<pdfrwt beam="2">  1       -2 0.13380578E+00 0.22332782E+04</pdfrwt>
<totfact> 0.50938638E+00</totfact>
</mgrwt>
</event>
<event>
12    1  0.2019083E-007  0.2812723E+04  0.7818608E-02  0.8299329E-01
          2   -1    0    0  501    0  0.00000000000E+00  0.00000000000E+00  0.18840137842E+04  0.18840137842E+04  0.00000000000E+00 0. -1.
         -2   -1    0    0    0  501 -0.00000000000E+00 -0.00000000000E+00 -0.10498080727E+04  0.10498080727E+04  0.00000000000E+00 0.  1.
         23    2    1    2    0    0 -0.32894323616E+03 -0.80052725741E+03  0.13290957285E+04  0.15887158390E+04  0.92059867993E+02 0.  0.
        254    2    1    2    0    0  0.32894323616E+03  0.80052725741E+03 -0.49489001691E+03  0.13451060179E+04  0.90296540797E+03 0.  0.
        -24    2    4    4    0    0  0.36510132190E+03  0.52252602429E+03  0.13046919794E+03  0.65527683995E+03  0.77673058712E+02 0.  0.
         24    2    4    4    0    0 -0.36158085740E+02  0.27800123312E+03 -0.62535921484E+03  0.68982917791E+03  0.78727722769E+02 0.  0.
         11    1    3    3    0    0 -0.24696047152E+03 -0.54224253873E+03  0.97798514967E+03  0.11451949172E+04  0.00000000000E+00 0. -1.
        -11    1    3    3    0    0 -0.81982764640E+02 -0.25828471867E+03  0.35111057880E+03  0.44352092188E+03  0.00000000000E+00 0.  1.
          4    1    6    6  502    0 -0.83041352905E+01 -0.14968662373E+01 -0.82377794348E+01  0.11792382349E+02  0.00000000000E+00 0. -1.
          1    1    5    5  503    0  0.82850533017E+02  0.87024615734E+02 -0.19086672846E-01  0.12015612731E+03  0.00000000000E+00 0. -1.
         -2    1    5    5    0  503  0.28225078889E+03  0.43550140855E+03  0.13048828461E+03  0.53512071264E+03  0.00000000000E+00 0.  1.
         -3    1    6    6    0  502 -0.27853950450E+02  0.27949809936E+03 -0.61712143541E+03  0.67803679556E+03  0.00000000000E+00 0.  1.
<mgrwt>
<rscale>  0 0.28127232E+04</rscale>
<asrwt>0</asrwt>
<pdfrwt beam="1">  1        2 0.28984827E+00 0.28127232E+04</pdfrwt>
<pdfrwt beam="2">  1       -2 0.16150893E+00 0.28127232E+04</pdfrwt>
<totfact> 0.16542310E+00</totfact>
</mgrwt>
</event>
<event>
12    1  0.2019083E-007  0.1954503E+04  0.7818608E-02  0.8628192E-01
          1   -1    0    0  501    0  0.00000000000E+00  0.00000000000E+00  0.50182090754E+04  0.50182090754E+04  0.00000000000E+00 0. -1.
         -1   -1    0    0    0  501 -0.00000000000E+00 -0.00000000000E+00 -0.19031101529E+03  0.19031101529E+03  0.00000000000E+00 0.  1.
         23    2    1    2    0    0 -0.36408662876E+03  0.10762625432E+03  0.36879156356E+04  0.37085114059E+04  0.90513138141E+02 0.  0.
        254    2    1    2    0    0  0.36408662876E+03 -0.10762625432E+03  0.11399824244E+04  0.15000086848E+04  0.89795525639E+03 0.  0.
        -24    2    4    4    0    0  0.44134914619E+03 -0.39397133756E+03  0.45968965175E+03  0.75350148257E+03  0.80295856955E+02 0.  0.
         24    2    4    4    0    0 -0.77262517431E+02  0.28634508324E+03  0.68029277269E+03  0.74650720220E+03  0.80695371979E+02 0.  0.
         13    1    3    3    0    0 -0.79650823451E+02  0.64472379688E+02  0.10123688746E+04  0.10175419794E+04  0.00000000000E+00 0.  1.
        -13    1    3    3    0    0 -0.28443580531E+03  0.43153874630E+02  0.26755467610E+04  0.26909694265E+04  0.00000000000E+00 0. -1.
          4    1    6    6  502    0 -0.98734908447E+01  0.13902412960E+03  0.38872872642E+03  0.41295909867E+03  0.00000000000E+00 0. -1.
          3    1    5    5  503    0  0.45467775164E+02 -0.61255249176E+02  0.89094521940E+02  0.11729176429E+03  0.00000000000E+00 0. -1.
         -4    1    5    5    0  503  0.39588137103E+03 -0.33271608839E+03  0.37059512981E+03  0.63620971828E+03  0.00000000000E+00 0.  1.
         -3    1    6    6    0  502 -0.67389026586E+02  0.14732095364E+03  0.29156404627E+03  0.33354810352E+03  0.00000000000E+00 0.  1.
<mgrwt>
<rscale>  0 0.19545030E+04</rscale>
<asrwt>0</asrwt>
<pdfrwt beam="1">  1        1 0.77203207E+00 0.19545030E+04</pdfrwt>
<pdfrwt beam="2">  1       -1 0.29278621E-01 0.19545030E+04</pdfrwt>
<totfact> 0.83142980E-02</totfact>
</mgrwt>
</event>
<event>
12    1  0.2019083E-007  0.1775313E+04  0.7818608E-02  0.8719539E-01
          2   -1    0    0  501    0  0.00000000000E+00  0.00000000000E+00  0.10863089041E+04  0.10863089041E+04  0.00000000000E+00 0. -1.
         -2   -1    0    0    0  501 -0.00000000000E+00 -0.00000000000E+00 -0.72533177314E+03  0.72533177314E+03  0.00000000000E+00 0.  1.
         23    2    1    2    0    0 -0.64066245356E+03 -0.12915041729E+03  0.52231017435E+02  0.66157696069E+03  0.88474776320E+02 0.  0.
        254    2    1    2    0    0  0.64066245356E+03  0.12915041729E+03  0.30874611349E+03  0.11500637165E+04  0.89453573419E+03 0.  0.
        -24    2    4    4    0    0  0.16759671767E+03 -0.35503964342E+03 -0.17097244501E+01  0.40138893847E+03  0.83476635025E+02 0.  0.
         24    2    4    4    0    0  0.47306573589E+03  0.48419006072E+03  0.31045583794E+03  0.74867477803E+03  0.76810745229E+02 0.  0.
         11    1    3    3    0    0 -0.22612655419E+03 -0.49794872808E+01  0.45813771012E+01  0.22622776757E+03  0.00000000000E+00 0. -1.
        -11    1    3    3    0    0 -0.41453589938E+03 -0.12417093001E+03  0.47649640334E+02  0.43534919313E+03  0.00000000000E+00 0.  1.
          4    1    6    6  502    0  0.19464947051E+03  0.19617892268E+03  0.85672208631E+02  0.28933425896E+03  0.00000000000E+00 0. -1.
          1    1    5    5  503    0  0.26162822434E+02 -0.42214668104E+02 -0.28102348587E+02  0.57064117245E+02  0.00000000000E+00 0. -1.
         -2    1    5    5    0  503  0.14143389523E+03 -0.31282497532E+03  0.26392624137E+02  0.34432482123E+03  0.00000000000E+00 0.  1.
         -3    1    6    6    0  502  0.27841626538E+03  0.28801113803E+03  0.22478362931E+03  0.45934051907E+03  0.00000000000E+00 0.  1.
<mgrwt>
<rscale>  0 0.17753133E+04</rscale>
<asrwt>0</asrwt>
<pdfrwt beam="1">  1        2 0.16712445E+00 0.17753133E+04</pdfrwt>
<pdfrwt beam="2">  1       -2 0.11158950E+00 0.17753133E+04</pdfrwt>
<totfact> 0.13336420E+01</totfact>
</mgrwt>
</event>
<event>
12    1  0.2019083E-007  0.2083509E+04  0.7818608E-02  0.8568543E-01
         -2   -1    0    0    0  501 -0.00000000000E+00  0.00000000000E+00  0.42255769130E+03  0.42255769130E+03  0.00000000000E+00 0.  1.
          2   -1    0    0  501    0  0.00000000000E+00 -0.00000000000E+00 -0.25682941463E+04  0.25682941463E+04  0.00000000000E+00 0. -1.
         23    2    1    2    0    0 -0.18248289587E+03 -0.54131867298E+03 -0.17543987866E+04  0.18473895728E+04  0.92775094869E+02 0.  0.
        254    2    1    2    0    0  0.18248289587E+03  0.54131867298E+03 -0.39133766846E+03  0.11434622649E+04  0.90996421217E+03 0.  0.
        -24    2    4    4    0    0  0.53581184283E+03  0.41210093725E+03 -0.17719880693E+03  0.70363099471E+03  0.82314313167E+02 0.  0.
         24    2    4    4    0    0 -0.35332894695E+03  0.12921773573E+03 -0.21413886153E+03  0.43983127016E+03  0.77830111199E+02 0.  0.
         13    1    3    3    0    0 -0.97578811334E+02 -0.20651680497E+03 -0.58361718208E+03  0.62672149347E+03  0.00000000000E+00 0.  1.
        -13    1    3    3    0    0 -0.84904084540E+02 -0.33480186801E+03 -0.11707816045E+04  0.12206680793E+04  0.00000000000E+00 0. -1.
          2    1    6    6  502    0 -0.99696517279E+02  0.48904818225E+02 -0.10315673503E+03  0.15156645007E+03  0.00000000000E+00 0. -1.
          1    1    5    5  503    0  0.27508800508E+03  0.22963009938E+03 -0.53988612582E+02  0.36237848083E+03  0.00000000000E+00 0. -1.
         -2    1    5    5    0  503  0.26072383774E+03  0.18247083787E+03 -0.12321019435E+03  0.34125251389E+03  0.00000000000E+00 0.  1.
         -1    1    6    6    0  502 -0.25363242967E+03  0.80312917509E+02 -0.11098212649E+03  0.28826482009E+03  0.00000000000E+00 0.  1.
<mgrwt>
<rscale>  0 0.20835090E+04</rscale>
<asrwt>0</asrwt>
<pdfrwt beam="1">  1        2 0.39512217E+00 0.20835090E+04</pdfrwt>
<pdfrwt beam="2">  1       -2 0.65008876E-01 0.20835090E+04</pdfrwt>
<totfact> 0.64002566E+00</totfact>
</mgrwt>
</event>
<event>
12    1  0.2019083E-007  0.2456648E+04  0.7818608E-02  0.8418595E-01
          2   -1    0    0  501    0  0.00000000000E+00  0.00000000000E+00  0.25453264585E+04  0.25453264585E+04  0.00000000000E+00 0. -1.
         -2   -1    0    0    0  501 -0.00000000000E+00 -0.00000000000E+00 -0.59276476638E+03  0.59276476638E+03  0.00000000000E+00 0.  1.
         23    2    1    2    0    0 -0.15440314481E+03 -0.10125606641E+04  0.11818155687E+04  0.15666183632E+04  0.92117467467E+02 0.  0.
        254    2    1    2    0    0  0.15440314481E+03  0.10125606641E+04  0.77074612345E+03  0.15714728617E+04  0.90904231950E+03 0.  0.
        -24    2    4    4    0    0  0.41088030959E+03  0.93354651109E+03  0.78612033469E+03  0.12901056402E+04  0.77818153828E+02 0.  0.
         24    2    4    4    0    0 -0.25647716477E+03  0.79014153033E+02 -0.15374211245E+02  0.28136722152E+03  0.83110616333E+02 0.  0.
         13    1    3    3    0    0 -0.12126791004E+03 -0.49612933512E+03  0.60131041820E+03  0.78893880765E+03  0.00000000000E+00 0. -1.
        -13    1    3    3    0    0 -0.33135234774E+02 -0.51643132900E+03  0.58050515048E+03  0.77767955554E+03  0.00000000000E+00 0.  1.
          4    1    6    6  502    0 -0.18361982306E+03  0.70796527587E+02  0.23816119980E+02  0.19823116634E+03  0.00000000000E+00 0. -1.
          1    1    5    5  503    0  0.38214103832E+03  0.80425938686E+03  0.67967454190E+03  0.11201885633E+04  0.00000000000E+00 0. -1.
         -2    1    5    5    0  503  0.28739271269E+02  0.12928712423E+03  0.10644579279E+03  0.16991707686E+03  0.00000000000E+00 0.  1.
         -3    1    6    6    0  502 -0.72857341714E+02  0.82176254460E+01 -0.39190331225E+02  0.83136055182E+02  0.00000000000E+00 0.  1.
<mgrwt>
<rscale>  0 0.24566480E+04</rscale>
<asrwt>0</asrwt>
<pdfrwt beam="1">  1        2 0.39158868E+00 0.24566480E+04</pdfrwt>
<pdfrwt beam="2">  1       -2 0.91194581E-01 0.24566480E+04</pdfrwt>
<totfact> 0.30053378E+00</totfact>
</mgrwt>
</event>
<event>
12    1  0.2019083E-007  0.2429854E+04  0.7818608E-02  0.8428411E-01
         -2   -1    0    0    0  501 -0.00000000000E+00  0.00000000000E+00  0.40386355036E+03  0.40386355036E+03  0.00000000000E+00 0. -1.
          2   -1    0    0  501    0  0.00000000000E+00 -0.00000000000E+00 -0.36548164360E+04  0.36548164360E+04  0.00000000000E+00 0.  1.
         23    2    1    2    0    0  0.94574716859E+03 -0.27867064805E+03 -0.19884559905E+04  0.22214101677E+04  0.92794773415E+02 0.  0.
        254    2    1    2    0    0 -0.94574716859E+03  0.27867064805E+03 -0.12624968952E+04  0.18372698187E+04  0.89975937863E+03 0.  0.
        -24    2    4    4    0    0 -0.54346808728E+03  0.78804142665E+02 -0.68534918097E+02  0.55916710829E+03  0.80019780044E+02 0.  0.
         24    2    4    4    0    0 -0.40227908130E+03  0.19986650539E+03 -0.11939619771E+04  0.12781027104E+04  0.78906631061E+02 0.  0.
         11    1    3    3    0    0  0.16325669390E+03 -0.82442306537E+02 -0.40066067350E+03  0.44042985515E+03  0.00000000000E+00 0. -1.
        -11    1    3    3    0    0  0.78249047468E+03 -0.19622834152E+03 -0.15877953170E+04  0.17809803125E+04  0.00000000000E+00 0.  1.
          2    1    6    6  502    0 -0.37486711083E+01  0.35753838665E+01 -0.60025199715E+02  0.60248323676E+02  0.00000000000E+00 0. -1.
          1    1    5    5  503    0 -0.17984050687E+03 -0.98927362001E+01 -0.33946209046E+02  0.18328343965E+03  0.00000000000E+00 0. -1.
         -2    1    5    5    0  503 -0.36362758042E+03  0.88696878865E+02 -0.34588709051E+02  0.37588366865E+03  0.00000000000E+00 0.  1.
         -1    1    6    6    0  502 -0.39853041019E+03  0.19629112152E+03 -0.11339367774E+04  0.12178543867E+04  0.00000000000E+00 0.  1.
<mgrwt>
<rscale>  0 0.24298536E+04</rscale>
<asrwt>0</asrwt>
<pdfrwt beam="1">  1        2 0.56227943E+00 0.24298536E+04</pdfrwt>
<pdfrwt beam="2">  1       -2 0.62132856E-01 0.24298536E+04</pdfrwt>
<totfact> 0.13623607E+00</totfact>
</mgrwt>
</event>
<event>
12    1  0.2019083E-007  0.2136687E+04  0.7818608E-02  0.8545252E-01
         -1   -1    0    0    0  501 -0.00000000000E+00  0.00000000000E+00  0.10242935880E+04  0.10242935880E+04  0.00000000000E+00 0.  1.
          1   -1    0    0  501    0  0.00000000000E+00 -0.00000000000E+00 -0.11142878111E+04  0.11142878111E+04  0.00000000000E+00 0. -1.
         23    2    1    2    0    0  0.77419912928E+02 -0.86486936933E+03 -0.15314175011E+03  0.88624161879E+03  0.89324925554E+02 0.  0.
        254    2    1    2    0    0 -0.77419912928E+02  0.86486936933E+03  0.63147527008E+02  0.12523397804E+04  0.90020800178E+03 0.  0.
        -24    2    4    4    0    0 -0.36260046686E+03  0.43684865928E+02  0.68123924093E+02  0.37945962972E+03  0.77209296599E+02 0.  0.
         24    2    4    4    0    0  0.28518055393E+03  0.82118450340E+03 -0.49763970854E+01  0.87288015067E+03  0.78886348261E+02 0.  0.
         11    1    3    3    0    0  0.85107998749E+02 -0.49621771171E+03 -0.70666103950E+02  0.50839855144E+03  0.00000000000E+00 0.  1.
        -11    1    3    3    0    0 -0.76880858205E+01 -0.36865165762E+03 -0.82475646162E+02  0.37784306734E+03  0.00000000000E+00 0. -1.
          2    1    6    6  502    0  0.17822111879E+01  0.39488730922E+02 -0.12192221607E+02  0.41366489025E+02  0.00000000000E+00 0. -1.
          3    1    5    5  503    0 -0.84479154331E+02 -0.20008948272E+02  0.28643622860E+02  0.91419596685E+02  0.00000000000E+00 0. -1.
         -4    1    5    5    0  503 -0.27812131252E+03  0.63693814200E+02  0.39480301233E+02  0.28804003304E+03  0.00000000000E+00 0.  1.
         -1    1    6    6    0  502  0.28339834274E+03  0.78169577248E+03  0.72158245217E+01  0.83151366164E+03  0.00000000000E+00 0.  1.
<mgrwt>
<rscale>  0 0.21366870E+04</rscale>
<asrwt>0</asrwt>
<pdfrwt beam="1">  1        1 0.17142889E+00 0.21366870E+04</pdfrwt>
<pdfrwt beam="2">  1       -1 0.15758363E+00 0.21366870E+04</pdfrwt>
<totfact> 0.34573932E+00</totfact>
</mgrwt>
</event>
<event>
12    1  0.2019083E-007  0.3178746E+04  0.7818608E-02  0.8194453E-01
         -2   -1    0    0    0  501 -0.00000000000E+00  0.00000000000E+00  0.15210093823E+04  0.15210093823E+04  0.00000000000E+00 0.  1.
          2   -1    0    0  501    0  0.00000000000E+00 -0.00000000000E+00 -0.16608096387E+04  0.16608096387E+04  0.00000000000E+00 0. -1.
         23    2    1    2    0    0  0.13279743865E+04  0.59313179494E+03 -0.20783145065E+03  0.14710464984E+04  0.73909343994E+02 0.  0.
        254    2    1    2    0    0 -0.13279743865E+04 -0.59313179494E+03  0.68031194217E+02  0.17107725226E+04  0.89821661270E+03 0.  0.
        -24    2    4    4    0    0  0.17540014290E+02 -0.64705636791E+02 -0.21232464644E+03  0.23661700713E+03  0.80071099907E+02 0.  0.
         24    2    4    4    0    0 -0.13455144008E+04 -0.52842615814E+03  0.28035584066E+03  0.14741555155E+04  0.69941969322E+02 0.  0.
         11    1    3    3    0    0  0.91996026336E+03  0.41370079594E+03 -0.10970659024E+03  0.10146481019E+04  0.00000000000E+00 0.  1.
        -11    1    3    3    0    0  0.40801412313E+03  0.17943099900E+03 -0.98124860416E+02  0.45639839648E+03  0.00000000000E+00 0. -1.
          4    1    6    6  502    0 -0.79179722861E+02 -0.16709720836E+02  0.24771574907E+02  0.84630220407E+02  0.00000000000E+00 0. -1.
          1    1    5    5  503    0  0.40123354838E+01 -0.82210317954E+02 -0.16712935975E+03  0.18629776731E+03  0.00000000000E+00 0. -1.
         -2    1    5    5    0  503  0.13527678806E+02  0.17504681162E+02 -0.45195286698E+02  0.50319239821E+02  0.00000000000E+00 0.  1.
         -3    1    6    6    0  502 -0.12663346779E+04 -0.51171643731E+03  0.25558426575E+03  0.13895252951E+04  0.00000000000E+00 0.  1.
<mgrwt>
<rscale>  0 0.31787463E+04</rscale>
<asrwt>0</asrwt>
<pdfrwt beam="1">  1        2 0.25550918E+00 0.31787463E+04</pdfrwt>
<pdfrwt beam="2">  1       -2 0.23400144E+00 0.31787463E+04</pdfrwt>
<totfact> 0.70219157E-01</totfact>
</mgrwt>
</event>
<event>
12    1  0.2019083E-007  0.2186830E+04  0.7818608E-02  0.8523930E-01
          1   -1    0    0  501    0  0.00000000000E+00  0.00000000000E+00  0.29908734678E+04  0.29908734678E+04  0.00000000000E+00 0. -1.
         -1   -1    0    0    0  501 -0.00000000000E+00 -0.00000000000E+00 -0.39973480688E+03  0.39973480688E+03  0.00000000000E+00 0.  1.
         23    2    1    2    0    0 -0.50526704614E+03 -0.70939148875E+03  0.69530978565E+03  0.11178932936E+04  0.87741926481E+02 0.  0.
        254    2    1    2    0    0  0.50526704614E+03  0.70939148875E+03  0.18958288752E+04  0.22727149810E+04  0.90140733777E+03 0.  0.
        -24    2    4    4    0    0  0.22959047108E+03 -0.18695117324E+03  0.55633505687E+03  0.63567165260E+03  0.83109739688E+02 0.  0.
         24    2    4    4    0    0  0.27567657505E+03  0.89634266198E+03  0.13394938184E+04  0.16370433284E+04  0.78990049814E+02 0.  0.
         11    1    3    3    0    0 -0.16919770836E+03 -0.17569255007E+03  0.21467450335E+03  0.32493211453E+03  0.00000000000E+00 0. -1.
        -11    1    3    3    0    0 -0.33606933777E+03 -0.53369893867E+03  0.48063528230E+03  0.79296117908E+03  0.00000000000E+00 0.  1.
          2    1    6    6  502    0  0.77874727441E+02  0.21123478304E+03  0.26887158742E+03  0.35068010674E+03  0.00000000000E+00 0. -1.
          1    1    5    5  503    0  0.14093699412E+03 -0.92363108867E+02  0.38951616054E+03  0.42440195513E+03  0.00000000000E+00 0. -1.
         -2    1    5    5    0  503  0.88653476967E+02 -0.94588064371E+02  0.16681889633E+03  0.21126969748E+03  0.00000000000E+00 0.  1.
         -1    1    6    6    0  502  0.19780184761E+03  0.68510787895E+03  0.10706222309E+04  0.12863632217E+04  0.00000000000E+00 0.  1.
<mgrwt>
<rscale>  0 0.21868299E+04</rscale>
<asrwt>0</asrwt>
<pdfrwt beam="1">  1        1 0.46013436E+00 0.21868299E+04</pdfrwt>
<pdfrwt beam="2">  1       -1 0.61497665E-01 0.21868299E+04</pdfrwt>
<totfact> 0.14872222E+00</totfact>
</mgrwt>
</event>
<event>
12    1  0.2019083E-007  0.2028256E+04  0.7818608E-02  0.8593523E-01
         -2   -1    0    0    0  501 -0.00000000000E+00  0.00000000000E+00  0.49219121060E+03  0.49219121060E+03  0.00000000000E+00 0.  1.
          2   -1    0    0  501    0  0.00000000000E+00 -0.00000000000E+00 -0.20895451253E+04  0.20895451253E+04  0.00000000000E+00 0. -1.
         23    2    1    2    0    0 -0.81095950054E+03 -0.39930468244E+02 -0.67803295082E+03  0.10611714477E+04  0.84299496518E+02 0.  0.
        254    2    1    2    0    0  0.81095950054E+03  0.39930468244E+02 -0.91932096390E+03  0.15205648883E+04  0.89873065540E+03 0.  0.
        -24    2    4    4    0    0 -0.28339634405E+02 -0.21630887108E+03 -0.48579298726E+03  0.53856673033E+03  0.80415383888E+02 0.  0.
         24    2    4    4    0    0  0.83929913494E+03  0.25623933932E+03 -0.43352797664E+03  0.98199815793E+03  0.79323632782E+02 0.  0.
         13    1    3    3    0    0 -0.30178531021E+03  0.25723222983E+02 -0.25649638726E+03  0.39689602459E+03  0.00000000000E+00 0. -1.
        -13    1    3    3    0    0 -0.50917419033E+03 -0.65653691227E+02 -0.42153656356E+03  0.66427542307E+03  0.00000000000E+00 0.  1.
          2    1    6    6  502    0  0.11966219656E+02  0.82433649616E+01 -0.19143096333E+02  0.24033343836E+02  0.00000000000E+00 0. -1.
          3    1    5    5  503    0  0.16765727813E+02 -0.77247159634E+02 -0.11098824770E+03  0.13625932786E+03  0.00000000000E+00 0. -1.
         -4    1    5    5    0  503 -0.45105362218E+02 -0.13906171144E+03 -0.37480473956E+03  0.40230740247E+03  0.00000000000E+00 0.  1.
         -1    1    6    6    0  502  0.82733291529E+03  0.24799597436E+03 -0.41438488031E+03  0.95796481410E+03  0.00000000000E+00 0.  1.
<mgrwt>
<rscale>  0 0.20282561E+04</rscale>
<asrwt>0</asrwt>
<pdfrwt beam="1">  1        2 0.32146848E+00 0.20282561E+04</pdfrwt>
<pdfrwt beam="2">  1       -2 0.75721725E-01 0.20282561E+04</pdfrwt>
<totfact> 0.86287954E+00</totfact>
</mgrwt>
</event>
<event>
12    1  0.2019083E-007  0.2251235E+04  0.7818608E-02  0.8497400E-01
         -1   -1    0    0    0  501 -0.00000000000E+00  0.00000000000E+00  0.21403418353E+04  0.21403418353E+04  0.00000000000E+00 0.  1.
          1   -1    0    0  501    0  0.00000000000E+00 -0.00000000000E+00 -0.59196866430E+03  0.59196866430E+03  0.00000000000E+00 0. -1.
         23    2    1    2    0    0  0.77059896719E+03 -0.52679991789E+03  0.48705056520E+03  0.10565224850E+04  0.87638955852E+02 0.  0.
        254    2    1    2    0    0 -0.77059896719E+03  0.52679991789E+03  0.10613226058E+04  0.16757880146E+04  0.90028821747E+03 0.  0.
        -24    2    4    4    0    0 -0.56437572243E+03  0.22514678286E+03  0.70646507447E+02  0.61683597168E+03  0.79275828907E+02 0.  0.
         24    2    4    4    0    0 -0.20622324476E+03  0.30165313503E+03  0.99067609838E+03  0.10589520429E+04  0.80110278610E+02 0.  0.
         13    1    3    3    0    0  0.63744129301E+03 -0.40360407195E+03  0.41715231140E+03  0.86211582739E+03  0.00000000000E+00 0.  1.
        -13    1    3    3    0    0  0.13315767418E+03 -0.12319584593E+03  0.69898253801E+02  0.19440665763E+03  0.00000000000E+00 0. -1.
          4    1    6    6  502    0 -0.11957983079E+03  0.23838833770E+03  0.71769231738E+03  0.76564391065E+03  0.00000000000E+00 0. -1.
          3    1    5    5  503    0 -0.28000727261E+03  0.11314213358E+03 -0.47612866044E+01  0.30203954204E+03  0.00000000000E+00 0. -1.
         -4    1    5    5    0  503 -0.28436844982E+03  0.11200464928E+03  0.75407794051E+02  0.31479642965E+03  0.00000000000E+00 0.  1.
         -3    1    6    6    0  502 -0.86643413974E+02  0.63264797329E+02  0.27298378100E+03  0.29330813227E+03  0.00000000000E+00 0.  1.
<mgrwt>
<rscale>  0 0.22512355E+04</rscale>
<asrwt>0</asrwt>
<pdfrwt beam="1">  1        1 0.91072103E-01 0.22512355E+04</pdfrwt>
<pdfrwt beam="2">  1       -1 0.32928335E+00 0.22512355E+04</pdfrwt>
<totfact> 0.67496380E-01</totfact>
</mgrwt>
</event>
<event>
12    1  0.2019083E-007  0.3228702E+04  0.7818608E-02  0.8181278E-01
          2   -1    0    0  501    0  0.00000000000E+00  0.00000000000E+00  0.39611538841E+04  0.39611538841E+04  0.00000000000E+00 0. -1.
         -2   -1    0    0    0  501 -0.00000000000E+00 -0.00000000000E+00 -0.65792160672E+03  0.65792160672E+03  0.00000000000E+00 0.  1.
         23    2    1    2    0    0  0.12685680334E+04  0.54084111801E+03  0.23183387206E+04  0.27003873535E+04  0.12499385996E+03 0.  0.
        254    2    1    2    0    0 -0.12685680334E+04 -0.54084111801E+03  0.98489355674E+03  0.19186881373E+04  0.89976379122E+03 0.  0.
        -24    2    4    4    0    0 -0.94842613809E+03 -0.22539955236E+03  0.10752382163E+04  0.14537122659E+04  0.82613755048E+02 0.  0.
         24    2    4    4    0    0 -0.32014189528E+03 -0.31544156565E+03 -0.90344659547E+02  0.46497587147E+03  0.77757244594E+02 0.  0.
         11    1    3    3    0    0  0.80994612192E+03  0.35484757452E+03  0.15995185681E+04  0.18276731577E+04  0.00000000000E+00 0. -1.
        -11    1    3    3    0    0  0.45862191145E+03  0.18599354349E+03  0.71882015247E+03  0.87271419576E+03  0.00000000000E+00 0.  1.
          4    1    6    6  502    0 -0.30872872502E+03 -0.31074506285E+03 -0.10000001331E+03  0.44930604536E+03  0.00000000000E+00 0. -1.
          1    1    5    5  503    0 -0.58010430903E+03 -0.97248356802E+02  0.65932585445E+03  0.88356597637E+03  0.00000000000E+00 0. -1.
         -2    1    5    5    0  503 -0.36832182906E+03 -0.12815119556E+03  0.41591236184E+03  0.57014628948E+03  0.00000000000E+00 0.  1.
         -3    1    6    6    0  502 -0.11413170259E+02 -0.46965027976E+01  0.96553537606E+01  0.15669826104E+02  0.00000000000E+00 0.  1.
<mgrwt>
<rscale>  0 0.32287017E+04</rscale>
<asrwt>0</asrwt>
<pdfrwt beam="1">  1        2 0.60940827E+00 0.32287017E+04</pdfrwt>
<pdfrwt beam="2">  1       -2 0.10121871E+00 0.32287017E+04</pdfrwt>
<totfact> 0.24744036E-01</totfact>
</mgrwt>
</event>
<event>
12    1  0.2019083E-007  0.1724946E+04  0.7818608E-02  0.8747263E-01
          1   -1    0    0  501    0  0.00000000000E+00  0.00000000000E+00  0.31896666140E+04  0.31896666140E+04  0.00000000000E+00 0. -1.
         -1   -1    0    0    0  501 -0.00000000000E+00 -0.00000000000E+00 -0.23320930249E+03  0.23320930249E+03  0.00000000000E+00 0.  1.
         23    2    1    2    0    0  0.11952535472E+03  0.52948098999E+03  0.47055323809E+03  0.72420822753E+03  0.91764795832E+02 0.  0.
        254    2    1    2    0    0 -0.11952535472E+03 -0.52948098999E+03  0.24859040734E+04  0.26986676890E+04  0.89913947977E+03 0.  0.
        -24    2    4    4    0    0  0.27592776606E+03  0.95682374689E+02  0.81907502470E+03  0.87325584191E+03  0.80003877692E+02 0.  0.
         24    2    4    4    0    0 -0.39545312078E+03 -0.62516336468E+03  0.16668290487E+04  0.18254118471E+04  0.81221490080E+02 0.  0.
         13    1    3    3    0    0  0.62922582608E+02  0.42541371859E+03  0.34253382323E+03  0.54978677996E+03  0.00000000000E+00 0.  1.
        -13    1    3    3    0    0  0.56602772114E+02  0.10406727140E+03  0.12801941487E+03  0.17442144757E+03  0.00000000000E+00 0. -1.
          4    1    6    6  502    0 -0.23119894675E+03 -0.41541878349E+03  0.99710436682E+03  0.11046460234E+04  0.00000000000E+00 0. -1.
          3    1    5    5  503    0  0.24788893574E+03  0.89147689633E+02  0.78812400911E+03  0.83098477048E+03  0.00000000000E+00 0. -1.
         -4    1    5    5    0  503  0.28038830320E+02  0.65346850563E+01  0.30951015584E+02  0.42271071434E+02  0.00000000000E+00 0.  1.
         -3    1    6    6    0  502 -0.16425417403E+03 -0.20974458119E+03  0.66972468191E+03  0.72076582368E+03  0.00000000000E+00 0.  1.
<mgrwt>
<rscale>  0 0.17249463E+04</rscale>
<asrwt>0</asrwt>
<pdfrwt beam="1">  1        1 0.49071791E+00 0.17249463E+04</pdfrwt>
<pdfrwt beam="2">  1       -1 0.35878357E-01 0.17249463E+04</pdfrwt>
<totfact> 0.30651712E+00</totfact>
</mgrwt>
</event>
<event>
12    1  0.2019083E-007  0.3343756E+04  0.7818608E-02  0.8151850E-01
          2   -1    0    0  501    0  0.00000000000E+00  0.00000000000E+00  0.17298378720E+04  0.17298378720E+04  0.00000000000E+00 0. -1.
         -2   -1    0    0    0  501 -0.00000000000E+00 -0.00000000000E+00 -0.16158604250E+04  0.16158604250E+04  0.00000000000E+00 0.  1.
         23    2    1    2    0    0 -0.15006300185E+04 -0.27222887225E+03 -0.22012341151E+03  0.15436257993E+04  0.91253935861E+02 0.  0.
        254    2    1    2    0    0  0.15006300185E+04  0.27222887225E+03  0.33410085851E+03  0.18020724978E+04  0.89991271376E+03 0.  0.
        -24    2    4    4    0    0  0.12746915400E+04 -0.64652382748E+02  0.13742737825E+02  0.12787190074E+04  0.76908933839E+02 0.  0.
         24    2    4    4    0    0  0.22593847841E+03  0.33688125500E+03  0.32035812068E+03  0.52335349040E+03  0.82051047704E+02 0.  0.
         11    1    3    3    0    0 -0.12029062571E+04 -0.22205190177E+03 -0.13973698907E+03  0.12311851756E+04  0.00000000000E+00 0. -1.
        -11    1    3    3    0    0 -0.29772376137E+03 -0.50176970479E+02 -0.80386422440E+02  0.31244062374E+03  0.00000000000E+00 0.  1.
          2    1    6    6  502    0  0.43239819590E+02  0.74679223338E+02  0.11386182952E+03  0.14286771720E+03  0.00000000000E+00 0. -1.
          1    1    5    5  503    0  0.59663331875E+03  0.60534977456E+01 -0.61084800661E+01  0.59669529527E+03  0.00000000000E+00 0. -1.
         -2    1    5    5    0  503  0.67805822130E+03 -0.70705880494E+02  0.19851217891E+02  0.68202371210E+03  0.00000000000E+00 0.  1.
         -1    1    6    6    0  502  0.18269865882E+03  0.26220203166E+03  0.20649629116E+03  0.38048577320E+03  0.00000000000E+00 0.  1.
<mgrwt>
<rscale>  0 0.33437563E+04</rscale>
<asrwt>0</asrwt>
<pdfrwt beam="1">  1        2 0.26612890E+00 0.33437563E+04</pdfrwt>
<pdfrwt beam="2">  1       -2 0.24859391E+00 0.33437563E+04</pdfrwt>
<totfact> 0.51500467E-01</totfact>
</mgrwt>
</event>
<event>
12    1  0.2019083E-007  0.1590835E+04  0.7818608E-02  0.8826198E-01
          2   -1    0    0  501    0  0.00000000000E+00  0.00000000000E+00  0.41636770097E+04  0.41636770097E+04  0.00000000000E+00 0. -1.
         -2   -1    0    0    0  501 -0.00000000000E+00 -0.00000000000E+00 -0.15195439382E+03  0.15195439382E+03  0.00000000000E+00 0.  1.
         23    2    1    2    0    0  0.13313462486E+03  0.50025707041E+03  0.16301389354E+04  0.17121017865E+04  0.77185580745E+02 0.  0.
        254    2    1    2    0    0 -0.13313462486E+03 -0.50025707041E+03  0.23815836805E+04  0.26035296170E+04  0.91566570024E+03 0.  0.
        -24    2    4    4    0    0 -0.22688561738E+03  0.12002091491E+03  0.14682147308E+04  0.14925984652E+04  0.79458034575E+02 0.  0.
         24    2    4    4    0    0  0.93750992520E+02 -0.62027798533E+03  0.91336894976E+03  0.11109311518E+04  0.79944718876E+02 0.  0.
         13    1    3    3    0    0  0.13001214257E+03  0.38225874114E+03  0.12028186565E+04  0.12687780037E+04  0.00000000000E+00 0.  1.
        -13    1    3    3    0    0  0.31224822916E+01  0.11799832927E+03  0.42732027891E+03  0.44332378277E+03  0.00000000000E+00 0. -1.
          2    1    6    6  502    0  0.15728265185E+01 -0.20928547557E+03  0.26354994887E+03  0.33654339931E+03  0.00000000000E+00 0. -1.
          3    1    5    5  503    0 -0.78693247265E+02  0.87069537429E+01  0.56895774396E+03  0.57444003396E+03  0.00000000000E+00 0. -1.
         -4    1    5    5    0  503 -0.14819237011E+03  0.11131396117E+03  0.89925698681E+03  0.91815843123E+03  0.00000000000E+00 0.  1.
         -1    1    6    6    0  502  0.92178166001E+02 -0.41099250976E+03  0.64981900090E+03  0.77438775254E+03  0.00000000000E+00 0.  1.
<mgrwt>
<rscale>  0 0.15908350E+04</rscale>
<asrwt>0</asrwt>
<pdfrwt beam="1">  1        2 0.64056561E+00 0.15908350E+04</pdfrwt>
<pdfrwt beam="2">  1       -2 0.23377602E-01 0.15908350E+04</pdfrwt>
<totfact> 0.39774704E+00</totfact>
</mgrwt>
</event>
<event>
12    1  0.2019083E-007  0.1214713E+04  0.7818608E-02  0.9100074E-01
          1   -1    0    0  501    0  0.00000000000E+00  0.00000000000E+00  0.98235405980E+03  0.98235405980E+03  0.00000000000E+00 0. -1.
         -1   -1    0    0    0  501 -0.00000000000E+00 -0.00000000000E+00 -0.37550839778E+03  0.37550839778E+03  0.00000000000E+00 0.  1.
         23    2    1    2    0    0 -0.19889361714E+03  0.86522087001E+01 -0.52113563122E+02  0.22531072650E+03  0.91736406945E+02 0.  0.
        254    2    1    2    0    0  0.19889361714E+03 -0.86522087001E+01  0.65895922514E+03  0.11325517311E+04  0.89934010893E+03 0.  0.
        -24    2    4    4    0    0 -0.16828722142E+02 -0.41833805326E+03  0.18397852773E+03  0.46434949522E+03  0.80513491746E+02 0.  0.
         24    2    4    4    0    0  0.21572233928E+03  0.40968584456E+03  0.47498069741E+03  0.66820223586E+03  0.80678040318E+02 0.  0.
         13    1    3    3    0    0 -0.87353906089E+02  0.10847541657E+02  0.22801317587E+02  0.90930050879E+02  0.00000000000E+00 0. -1.
        -13    1    3    3    0    0 -0.11153971105E+03 -0.21953329572E+01 -0.74914880709E+02  0.13438067562E+03  0.00000000000E+00 0.  1.
          2    1    6    6  502    0  0.22012006944E+03  0.41022407920E+03  0.47015955074E+03  0.66165447424E+03  0.00000000000E+00 0. -1.
          3    1    5    5  503    0  0.10816709323E+02 -0.25996620527E+03  0.14895655482E+03  0.29981241520E+03  0.00000000000E+00 0. -1.
         -4    1    5    5    0  503 -0.27645431465E+02 -0.15837184799E+03  0.35021972913E+02  0.16453708003E+03  0.00000000000E+00 0.  1.
         -1    1    6    6    0  502 -0.43977301558E+01 -0.53823463280E+00  0.48211466693E+01  0.65477616213E+01  0.00000000000E+00 0.  1.
<mgrwt>
<rscale>  0 0.12147135E+04</rscale>
<asrwt>0</asrwt>
<pdfrwt beam="1">  1        1 0.15113139E+00 0.12147135E+04</pdfrwt>
<pdfrwt beam="2">  1       -1 0.57770523E-01 0.12147135E+04</pdfrwt>
<totfact> 0.46876076E+01</totfact>
</mgrwt>
</event>
<event>
12    1  0.2032823E-007  0.3040912E+04  0.7818608E-02  0.8232144E-01
          1   -1    0    0  501    0  0.00000000000E+00  0.00000000000E+00  0.13924519164E+04  0.13924519164E+04  0.00000000000E+00 0. -1.
         -1   -1    0    0    0  501 -0.00000000000E+00 -0.00000000000E+00 -0.16602273917E+04  0.16602273917E+04  0.00000000000E+00 0.  1.
         23    2    1    2    0    0  0.10593148813E+04  0.87343559848E+03  0.63839541360E+02  0.13775614529E+04  0.92532734153E+02 0.  0.
        254    2    1    2    0    0 -0.10593148813E+04 -0.87343559848E+03 -0.33161501675E+03  0.16751178552E+04  0.90056290569E+03 0.  0.
        -24    2    4    4    0    0 -0.84839856859E+03 -0.14834657782E+03 -0.55200248179E+02  0.86701982593E+03  0.83002848237E+02 0.  0.
         24    2    4    4    0    0 -0.21091631273E+03 -0.72508902066E+03 -0.27641476857E+03  0.80809802931E+03  0.79859387875E+02 0.  0.
         11    1    3    3    0    0  0.40674574666E+03  0.37820904064E+03  0.56976636613E+02  0.55832832453E+03  0.00000000000E+00 0. -1.
        -11    1    3    3    0    0  0.65256913466E+03  0.49522655784E+03  0.68629047476E+01  0.81923312833E+03  0.00000000000E+00 0.  1.
          4    1    6    6  502    0 -0.15031450572E+03 -0.61006691585E+03 -0.24465967959E+03  0.67426586096E+03  0.00000000000E+00 0. -1.
          3    1    5    5  503    0 -0.71094947684E+03 -0.12511849535E+03 -0.15352973015E+02  0.72203844100E+03  0.00000000000E+00 0. -1.
         -4    1    5    5    0  503 -0.13744909175E+03 -0.23228082477E+02 -0.39847275164E+02  0.14498138493E+03  0.00000000000E+00 0.  1.
         -3    1    6    6    0  502 -0.60601807011E+02 -0.11502210481E+03 -0.31755088986E+02  0.13383216834E+03  0.00000000000E+00 0.  1.
<mgrwt>
<rscale>  0 0.30409122E+04</rscale>
<asrwt>0</asrwt>
<pdfrwt beam="1">  1        1 0.21422337E+00 0.30409122E+04</pdfrwt>
<pdfrwt beam="2">  1       -1 0.25541960E+00 0.30409122E+04</pdfrwt>
<totfact> 0.42388014E-01</totfact>
</mgrwt>
</event>
<event>
12    1  0.2019083E-007  0.1545402E+04  0.7818608E-02  0.8854810E-01
          1   -1    0    0  501    0  0.00000000000E+00  0.00000000000E+00  0.24063704940E+04  0.24063704940E+04  0.00000000000E+00 0. -1.
         -1   -1    0    0    0  501 -0.00000000000E+00 -0.00000000000E+00 -0.24811910522E+03  0.24811910522E+03  0.00000000000E+00 0.  1.
         23    2    1    2    0    0 -0.26452304306E+03  0.37701243885E+03  0.35696585595E+03  0.58932071426E+03  0.88110513516E+02 0.  0.
        254    2    1    2    0    0  0.26452304306E+03 -0.37701243885E+03  0.18012855329E+04  0.20651688850E+04  0.89898950676E+03 0.  0.
        -24    2    4    4    0    0 -0.27153119362E+03 -0.16718603340E+03  0.26525200389E+03  0.42279587420E+03  0.81959543689E+02 0.  0.
         24    2    4    4    0    0  0.53605423668E+03 -0.20982640545E+03  0.15360335290E+04  0.16423730108E+04  0.81294768247E+02 0.  0.
         13    1    3    3    0    0 -0.20981002609E+03  0.23500248302E+03  0.21681858319E+03  0.38243523908E+03  0.00000000000E+00 0.  1.
        -13    1    3    3    0    0 -0.54713016966E+02  0.14200995583E+03  0.14014727276E+03  0.20688547518E+03  0.00000000000E+00 0. -1.
          2    1    6    6  502    0  0.39170448309E+03 -0.13161211187E+03  0.11813133585E+04  0.12515012589E+04  0.00000000000E+00 0. -1.
          1    1    5    5  503    0 -0.23372365723E+03 -0.17319005759E+03  0.23180264405E+03  0.37195968838E+03  0.00000000000E+00 0. -1.
         -2    1    5    5    0  503 -0.37807536393E+02  0.60040241909E+01  0.33449359837E+02  0.50836185814E+02  0.00000000000E+00 0.  1.
         -1    1    6    6    0  502  0.14434975358E+03 -0.78214293582E+02  0.35472017051E+03  0.39087175192E+03  0.00000000000E+00 0.  1.
<mgrwt>
<rscale>  0 0.15454016E+04</rscale>
<asrwt>0</asrwt>
<pdfrwt beam="1">  1        1 0.37021083E+00 0.15454016E+04</pdfrwt>
<pdfrwt beam="2">  1       -1 0.38172172E-01 0.15454016E+04</pdfrwt>
<totfact> 0.10074605E+01</totfact>
</mgrwt>
</event>
<event>
12    1  0.2019083E-007  0.1457906E+04  0.7818608E-02  0.8912938E-01
          1   -1    0    0  501    0  0.00000000000E+00  0.00000000000E+00  0.15167485424E+04  0.15167485424E+04  0.00000000000E+00 0. -1.
         -1   -1    0    0    0  501 -0.00000000000E+00 -0.00000000000E+00 -0.35033666008E+03  0.35033666008E+03  0.00000000000E+00 0.  1.
         23    2    1    2    0    0  0.13208933947E+03 -0.42265618480E+03  0.32680535966E+03  0.55891458317E+03  0.97457293331E+02 0.  0.
        254    2    1    2    0    0 -0.13208933947E+03  0.42265618480E+03  0.83960652266E+03  0.13081706193E+04  0.90015854837E+03 0.  0.
        -24    2    4    4    0    0 -0.98328119263E+02  0.42901135644E+03  0.10168130599E+04  0.11108952939E+04  0.80376565037E+02 0.  0.
         24    2    4    4    0    0 -0.33761220202E+02 -0.63551716462E+01 -0.17720653728E+03  0.19727532540E+03  0.79593900272E+02 0.  0.
         13    1    3    3    0    0  0.17976657552E+02 -0.16374184461E+03  0.78537442881E+02  0.18249022392E+03  0.00000000000E+00 0.  1.
        -13    1    3    3    0    0  0.11411268191E+03 -0.25891434018E+03  0.24826791678E+03  0.37642435924E+03  0.00000000000E+00 0. -1.
          4    1    6    6  502    0 -0.12713592042E+02  0.36392996966E+02 -0.89800843056E+02  0.97725519003E+02  0.00000000000E+00 0. -1.
          3    1    5    5  503    0 -0.10501995101E+03  0.36360430513E+03  0.90863145124E+03  0.98430096769E+03  0.00000000000E+00 0. -1.
         -2    1    5    5    0  503  0.66918317418E+01  0.65407051311E+02  0.10818160870E+03  0.12659432623E+03  0.00000000000E+00 0.  1.
         -3    1    6    6    0  502 -0.21047628160E+02 -0.42748168612E+02 -0.87405694220E+02  0.99549806393E+02  0.00000000000E+00 0.  1.
<mgrwt>
<rscale>  0 0.14579062E+04</rscale>
<asrwt>0</asrwt>
<pdfrwt beam="1">  1        1 0.23334593E+00 0.14579062E+04</pdfrwt>
<pdfrwt beam="2">  1       -1 0.53897948E-01 0.14579062E+04</pdfrwt>
<totfact> 0.21480161E+01</totfact>
</mgrwt>
</event>
<event>
12    1  0.2019083E-007  0.1592578E+04  0.7818608E-02  0.8825121E-01
          1   -1    0    0  501    0  0.00000000000E+00  0.00000000000E+00  0.59530277709E+03  0.59530277709E+03  0.00000000000E+00 0. -1.
         -1   -1    0    0    0  501 -0.00000000000E+00 -0.00000000000E+00 -0.10651318945E+04  0.10651318945E+04  0.00000000000E+00 0.  1.
         23    2    1    2    0    0 -0.20078512780E+03  0.68118421580E+02 -0.67525888729E+03  0.71366323897E+03  0.91574379017E+02 0.  0.
        254    2    1    2    0    0  0.20078512780E+03 -0.68118421580E+02  0.20542976985E+03  0.94677143266E+03  0.89956654476E+03 0.  0.
        -24    2    4    4    0    0 -0.48915099330E+02  0.14720156122E+03  0.47918034394E+03  0.51006233964E+03  0.80553098841E+02 0.  0.
         24    2    4    4    0    0  0.24970022713E+03 -0.21531998281E+03 -0.27375057409E+03  0.43670909302E+03  0.84039018845E+02 0.  0.
         11    1    3    3    0    0 -0.14557636367E+03  0.53736232036E+02 -0.34202784686E+03  0.37558369017E+03  0.00000000000E+00 0. -1.
        -11    1    3    3    0    0 -0.55208764125E+02  0.14382189544E+02 -0.33323104043E+03  0.33807954881E+03  0.00000000000E+00 0.  1.
          4    1    6    6  502    0  0.45300855666E+01 -0.17041264422E+02  0.21059471122E+01  0.17758417203E+02  0.00000000000E+00 0. -1.
          3    1    5    5  503    0 -0.75154885716E+01  0.38357911829E+02  0.40894972484E+02  0.56570405185E+02  0.00000000000E+00 0. -1.
         -4    1    5    5    0  503 -0.41399610758E+02  0.10884364940E+03  0.43828537145E+03  0.45349193445E+03  0.00000000000E+00 0.  1.
         -1    1    6    6    0  502  0.24517014156E+03 -0.19827871838E+03 -0.27585652120E+03  0.41895067582E+03  0.00000000000E+00 0.  1.
<mgrwt>
<rscale>  0 0.15925778E+04</rscale>
<asrwt>0</asrwt>
<pdfrwt beam="1">  1        1 0.91585043E-01 0.15925778E+04</pdfrwt>
<pdfrwt beam="2">  1       -1 0.16386645E+00 0.15925778E+04</pdfrwt>
<totfact> 0.90882100E+00</totfact>
</mgrwt>
</event>
<event>
12    1  0.2019083E-007  0.1742483E+04  0.7818608E-02  0.8737499E-01
         -2   -1    0    0    0  501 -0.00000000000E+00  0.00000000000E+00  0.60246209637E+03  0.60246209637E+03  0.00000000000E+00 0.  1.
          2   -1    0    0  501    0  0.00000000000E+00 -0.00000000000E+00 -0.12599325960E+04  0.12599325960E+04  0.00000000000E+00 0. -1.
         23    2    1    2    0    0  0.58892736231E+03  0.10254077478E+03 -0.43435411147E+03  0.74415085019E+03  0.88016732014E+02 0.  0.
        254    2    1    2    0    0 -0.58892736231E+03 -0.10254077478E+03 -0.22311638811E+03  0.11182438421E+04  0.91833453560E+03 0.  0.
        -24    2    4    4    0    0 -0.20828332354E+03 -0.10718344276E+03 -0.55447846644E+03  0.60745474822E+03  0.81759819711E+02 0.  0.
         24    2    4    4    0    0 -0.38064403877E+03  0.46426679822E+01  0.33136207833E+03  0.51078909392E+03  0.78697095837E+02 0.  0.
         11    1    3    3    0    0  0.52126099784E+03  0.11880465821E+03 -0.38290923626E+03  0.65760706953E+03  0.00000000000E+00 0.  1.
        -11    1    3    3    0    0  0.67666364463E+02 -0.16263883438E+02 -0.51444875215E+02  0.86543780655E+02  0.00000000000E+00 0. -1.
          4    1    6    6  502    0 -0.37161540610E+03 -0.75492173088E+01  0.30696948206E+03  0.48206354731E+03  0.00000000000E+00 0. -1.
          1    1    5    5  503    0 -0.98743514724E+02 -0.45690369505E+02 -0.35871754975E+03  0.37485486800E+03  0.00000000000E+00 0. -1.
         -4    1    5    5    0  503 -0.10953980882E+03 -0.61493073252E+02 -0.19576091670E+03  0.23259988022E+03  0.00000000000E+00 0.  1.
         -3    1    6    6    0  502 -0.90286326698E+01  0.12191885291E+02  0.24392596275E+02  0.28725546607E+02  0.00000000000E+00 0.  1.
<mgrwt>
<rscale>  0 0.17424829E+04</rscale>
<asrwt>0</asrwt>
<pdfrwt beam="1">  1        2 0.19383578E+00 0.17424829E+04</pdfrwt>
<pdfrwt beam="2">  1       -2 0.92686478E-01 0.17424829E+04</pdfrwt>
<totfact> 0.16339949E+01</totfact>
</mgrwt>
</event>
<event>
12    1  0.2019083E-007  0.1611805E+04  0.7818608E-02  0.8813328E-01
         -2   -1    0    0    0  501 -0.00000000000E+00  0.00000000000E+00  0.32068848908E+03  0.32068848908E+03  0.00000000000E+00 0.  1.
          2   -1    0    0  501    0  0.00000000000E+00 -0.00000000000E+00 -0.20252644317E+04  0.20252644317E+04  0.00000000000E+00 0. -1.
         23    2    1    2    0    0 -0.38346733352E+03 -0.12602645214E+03 -0.45605955385E+02  0.41614941898E+03  0.90391223209E+02 0.  0.
        254    2    1    2    0    0  0.38346733352E+03  0.12602645214E+03 -0.16589699872E+04  0.19298035018E+04  0.89946110228E+03 0.  0.
        -24    2    4    4    0    0 -0.11920510023E+03 -0.24196148663E+03 -0.21117913683E+03  0.35165019812E+03  0.79410434245E+02 0.  0.
         24    2    4    4    0    0  0.50267243375E+03  0.36798793877E+03 -0.14477908504E+04  0.15781533037E+04  0.79842374180E+02 0.  0.
         13    1    3    3    0    0 -0.94805306521E+02 -0.38255360701E+02  0.27177768359E+02  0.10578350467E+03  0.00000000000E+00 0.  1.
        -13    1    3    3    0    0 -0.28866202700E+03 -0.87771091440E+02 -0.72783723743E+02  0.31036591431E+03  0.00000000000E+00 0. -1.
          4    1    6    6  502    0  0.48054948307E+03  0.36849194523E+03 -0.13859303205E+04  0.15124539572E+04  0.00000000000E+00 0. -1.
          3    1    5    5  503    0 -0.34914288535E+02 -0.10153164299E+03 -0.39571027702E+02  0.11442704359E+03  0.00000000000E+00 0. -1.
         -4    1    5    5    0  503 -0.84290811695E+02 -0.14042984364E+03 -0.17160810913E+03  0.23722315452E+03  0.00000000000E+00 0.  1.
         -3    1    6    6    0  502  0.22122950683E+02 -0.50400646187E+00 -0.61860529890E+02  0.65699346479E+02  0.00000000000E+00 0.  1.
<mgrwt>
<rscale>  0 0.16118052E+04</rscale>
<asrwt>0</asrwt>
<pdfrwt beam="1">  1        2 0.31157915E+00 0.16118052E+04</pdfrwt>
<pdfrwt beam="2">  1       -2 0.49336690E-01 0.16118052E+04</pdfrwt>
<totfact> 0.24105233E+01</totfact>
</mgrwt>
</event>
<event>
12    1  0.2019083E-007  0.3515177E+04  0.7818608E-02  0.8110202E-01
          1   -1    0    0  501    0  0.00000000000E+00  0.00000000000E+00  0.26710487737E+04  0.26710487737E+04  0.00000000000E+00 0. -1.
         -1   -1    0    0    0  501 -0.00000000000E+00 -0.00000000000E+00 -0.11565188321E+04  0.11565188321E+04  0.00000000000E+00 0.  1.
         23    2    1    2    0    0 -0.15576636149E+04  0.38405646230E+02  0.12705665566E+04  0.20123467384E+04  0.86076068747E+02 0.  0.
        254    2    1    2    0    0  0.15576636149E+04 -0.38405646230E+02  0.24396338500E+03  0.18152208675E+04  0.89873117978E+03 0.  0.
        -24    2    4    4    0    0  0.11189249471E+04  0.38198209589E+03  0.18561284936E+03  0.11994788636E+04  0.79962838489E+02 0.  0.
         24    2    4    4    0    0  0.43873866786E+03 -0.42038774212E+03  0.58350535641E+02  0.61574200390E+03  0.80721483849E+02 0.  0.
         13    1    3    3    0    0 -0.10795947022E+04 -0.13040452191E+02  0.87570732101E+03  0.13901647695E+04  0.00000000000E+00 0. -1.
        -13    1    3    3    0    0 -0.47806891276E+03  0.51446098421E+02  0.39485923564E+03  0.62218196885E+03  0.00000000000E+00 0.  1.
          4    1    6    6  502    0  0.20646059930E+03 -0.15123646016E+03  0.45846830950E+02  0.26000072664E+03  0.00000000000E+00 0. -1.
          1    1    5    5  503    0  0.95559859767E+03  0.35542921829E+03  0.15896792807E+03  0.10318766454E+04  0.00000000000E+00 0. -1.
         -2    1    5    5    0  503  0.16332634940E+03  0.26552877595E+02  0.26644921292E+02  0.16760221821E+03  0.00000000000E+00 0.  1.
         -3    1    6    6    0  502  0.23227806856E+03 -0.26915128196E+03  0.12503704691E+02  0.35574127726E+03  0.00000000000E+00 0.  1.
<mgrwt>
<rscale>  0 0.35151775E+04</rscale>
<asrwt>0</asrwt>
<pdfrwt beam="1">  1        1 0.41093058E+00 0.35151775E+04</pdfrwt>
<pdfrwt beam="2">  1       -1 0.17792597E+00 0.35151775E+04</pdfrwt>
<totfact> 0.18047479E-01</totfact>
</mgrwt>
</event>
<event>
12    1  0.2019083E-007  0.1270650E+04  0.7818608E-02  0.9053169E-01
         -2   -1    0    0    0  501 -0.00000000000E+00  0.00000000000E+00  0.66958354611E+03  0.66958354611E+03  0.00000000000E+00 0.  1.
          2   -1    0    0  501    0  0.00000000000E+00 -0.00000000000E+00 -0.60281972184E+03  0.60281972184E+03  0.00000000000E+00 0. -1.
         23    2    1    2    0    0 -0.99772649964E+02  0.27625069312E+03 -0.70759084638E+02  0.31565759341E+03  0.91454038117E+02 0.  0.
        254    2    1    2    0    0  0.99772649964E+02 -0.27625069312E+03  0.13752290890E+03  0.95674567454E+03  0.90010038782E+03 0.  0.
        -24    2    4    4    0    0  0.41334883248E+03 -0.10056826360E+03  0.32811013644E+03  0.54314100046E+03  0.79841416452E+02 0.  0.
         24    2    4    4    0    0 -0.31357618252E+03 -0.17568242952E+03 -0.19058722754E+03  0.41360467409E+03  0.74505012184E+02 0.  0.
         13    1    3    3    0    0 -0.33129318628E+02  0.12537055913E+03  0.13615778402E+02  0.13038680252E+03  0.00000000000E+00 0.  1.
        -13    1    3    3    0    0 -0.66643331336E+02  0.15088013399E+03 -0.84374863040E+02  0.18527079089E+03  0.00000000000E+00 0. -1.
          2    1    6    6  502    0 -0.15368818458E+03 -0.10269884926E+03 -0.58949657318E+02  0.19401591125E+03  0.00000000000E+00 0. -1.
          1    1    5    5  503    0  0.25457495693E+03 -0.26318321018E+02  0.17140854641E+03  0.30802914228E+03  0.00000000000E+00 0. -1.
         -2    1    5    5    0  503  0.15877387556E+03 -0.74249942584E+02  0.15670159004E+03  0.23511185817E+03  0.00000000000E+00 0.  1.
         -1    1    6    6    0  502 -0.15988799794E+03 -0.72983580260E+02 -0.13163757022E+03  0.21958876284E+03  0.00000000000E+00 0.  1.
<mgrwt>
<rscale>  0 0.12706505E+04</rscale>
<asrwt>0</asrwt>
<pdfrwt beam="1">  1        2 0.92741495E-01 0.12706505E+04</pdfrwt>
<pdfrwt beam="2">  1       -2 0.10301285E+00 0.12706505E+04</pdfrwt>
<totfact> 0.37279134E+01</totfact>
</mgrwt>
</event>
<event>
12    1  0.2019083E-007  0.1820882E+04  0.7818608E-02  0.8695273E-01
         -2   -1    0    0    0  501 -0.00000000000E+00  0.00000000000E+00  0.37949544622E+03  0.37949544622E+03  0.00000000000E+00 0. -1.
          2   -1    0    0  501    0  0.00000000000E+00 -0.00000000000E+00 -0.21842227316E+04  0.21842227316E+04  0.00000000000E+00 0.  1.
         23    2    1    2    0    0 -0.61978716254E+03  0.27369412682E+03 -0.55303646446E+03  0.87871399704E+03  0.85113780726E+02 0.  0.
        254    2    1    2    0    0  0.61978716254E+03 -0.27369412682E+03 -0.12516908209E+04  0.16850041808E+04  0.90192271077E+03 0.  0.
        -24    2    4    4    0    0  0.81718247142E+03 -0.17003303129E+03 -0.11554350106E+04  0.14280002645E+04  0.86349685633E+02 0.  0.
         24    2    4    4    0    0 -0.19739530888E+03 -0.10366109552E+03 -0.96255810329E+02  0.25700391635E+03  0.84114810241E+02 0.  0.
         11    1    3    3    0    0 -0.13437117042E+03  0.35798970037E+02 -0.14915788351E+03  0.20392462311E+03  0.00000000000E+00 0.  1.
        -11    1    3    3    0    0 -0.48541599211E+03  0.23789515678E+03 -0.40387858095E+03  0.67478937393E+03  0.00000000000E+00 0. -1.
          4    1    6    6  502    0 -0.19436319140E+03 -0.82508149381E+02 -0.10253712114E+03  0.23473070975E+03  0.00000000000E+00 0. -1.
          1    1    5    5  503    0  0.62115428861E+03 -0.16596295356E+03 -0.89577177415E+03  0.11026256951E+04  0.00000000000E+00 0. -1.
         -2    1    5    5    0  503  0.19602818281E+03 -0.40700777286E+01 -0.25966323647E+03  0.32537456933E+03  0.00000000000E+00 0.  1.
         -3    1    6    6    0  502 -0.30321174827E+01 -0.21152946143E+02  0.62813108084E+01  0.22273206605E+02  0.00000000000E+00 0.  1.
<mgrwt>
<rscale>  0 0.18208817E+04</rscale>
<asrwt>0</asrwt>
<pdfrwt beam="1">  1        2 0.33603426E+00 0.18208817E+04</pdfrwt>
<pdfrwt beam="2">  1       -2 0.58383916E-01 0.18208817E+04</pdfrwt>
<totfact> 0.13631701E+01</totfact>
</mgrwt>
</event>
<event>
12    1  0.2019083E-007  0.2244898E+04  0.7818608E-02  0.8499970E-01
          2   -1    0    0  501    0  0.00000000000E+00  0.00000000000E+00  0.15245646715E+04  0.15245646715E+04  0.00000000000E+00 0. -1.
         -2   -1    0    0    0  501 -0.00000000000E+00 -0.00000000000E+00 -0.82639415577E+03  0.82639415577E+03  0.00000000000E+00 0.  1.
         23    2    1    2    0    0  0.22779829991E+03  0.89693269510E+03  0.12389482723E+03  0.93808852717E+03  0.90993580076E+02 0.  0.
        254    2    1    2    0    0 -0.22779829991E+03 -0.89693269510E+03  0.57427568854E+03  0.14128703001E+04  0.90001644074E+03 0.  0.
        -24    2    4    4    0    0 -0.30443973625E+03 -0.23164135727E+03  0.62414771189E+03  0.73664202449E+03  0.82096495524E+02 0.  0.
         24    2    4    4    0    0  0.76641436341E+02 -0.66529133783E+03 -0.49872023352E+02  0.67622827565E+03  0.79441727874E+02 0.  0.
         13    1    3    3    0    0  0.48603706076E+02  0.36137262677E+03  0.33589221337E+02  0.36617035846E+03  0.00000000000E+00 0.  1.
        -13    1    3    3    0    0  0.17919459384E+03  0.53556006833E+03  0.90305605893E+02  0.57191816871E+03  0.00000000000E+00 0. -1.
          4    1    6    6  502    0  0.74959600611E+02 -0.32102926956E+03 -0.36825001319E+02  0.33171495951E+03  0.00000000000E+00 0. -1.
          3    1    5    5  503    0 -0.26536956335E+03 -0.19811624810E+03  0.58397655498E+03  0.67134169368E+03  0.00000000000E+00 0. -1.
         -4    1    5    5    0  503 -0.39070172908E+02 -0.33525109174E+02  0.40171156917E+02  0.65300330813E+02  0.00000000000E+00 0.  1.
         -1    1    6    6    0  502  0.16818357302E+01 -0.34426206826E+03 -0.13047022033E+02  0.34451331614E+03  0.00000000000E+00 0.  1.
<mgrwt>
<rscale>  0 0.22448976E+04</rscale>
<asrwt>0</asrwt>
<pdfrwt beam="1">  1        2 0.23454841E+00 0.22448976E+04</pdfrwt>
<pdfrwt beam="2">  1       -2 0.12713756E+00 0.22448976E+04</pdfrwt>
<totfact> 0.51452813E+00</totfact>
</mgrwt>
</event>
<event>
12    1  0.2019083E-007  0.1773868E+04  0.7818608E-02  0.8720321E-01
          1   -1    0    0  501    0  0.00000000000E+00  0.00000000000E+00  0.26595401213E+04  0.26595401213E+04  0.00000000000E+00 0. -1.
         -1   -1    0    0    0  501 -0.00000000000E+00 -0.00000000000E+00 -0.29578479547E+03  0.29578479547E+03  0.00000000000E+00 0.  1.
         23    2    1    2    0    0 -0.64538014454E+03 -0.10676404077E+03  0.87566274463E+03  0.10974414848E+04  0.98379260523E+02 0.  0.
        254    2    1    2    0    0  0.64538014454E+03  0.10676404077E+03  0.14880925812E+04  0.18578834319E+04  0.89966506273E+03 0.  0.
        -24    2    4    4    0    0  0.71725872081E+03  0.30350206855E+03  0.74142779220E+03  0.10783766914E+04  0.81286772523E+02 0.  0.
         24    2    4    4    0    0 -0.71878576269E+02 -0.19673802778E+03  0.74666478898E+03  0.77950674050E+03  0.79057384657E+02 0.  0.
         13    1    3    3    0    0 -0.39934053125E+03 -0.10025888965E+03  0.49111950802E+03  0.64087680252E+03  0.00000000000E+00 0.  1.
        -13    1    3    3    0    0 -0.24603961329E+03 -0.65051511249E+01  0.38454323661E+03  0.45656468230E+03  0.00000000000E+00 0. -1.
          2    1    6    6  502    0 -0.70830500855E+02 -0.12433335325E+03  0.58699134318E+03  0.60418091624E+03  0.00000000000E+00 0. -1.
          3    1    5    5  503    0  0.22471207251E+03  0.57106192705E+02  0.20286344198E+03  0.30807500527E+03  0.00000000000E+00 0. -1.
         -4    1    5    5    0  503  0.49254664830E+03  0.24639587585E+03  0.53856435022E+03  0.77030168616E+03  0.00000000000E+00 0.  1.
         -1    1    6    6    0  502 -0.10480754133E+01 -0.72404674527E+02  0.15967344581E+03  0.17532582426E+03  0.00000000000E+00 0.  1.
<mgrwt>
<rscale>  0 0.17738676E+04</rscale>
<asrwt>0</asrwt>
<pdfrwt beam="1">  1        1 0.40916000E+00 0.17738676E+04</pdfrwt>
<pdfrwt beam="2">  1       -1 0.45505355E-01 0.17738676E+04</pdfrwt>
<totfact> 0.47618224E+00</totfact>
</mgrwt>
</event>
<event>
12    1  0.2019083E-007  0.3451363E+04  0.7818608E-02  0.8125414E-01
          2   -1    0    0  501    0  0.00000000000E+00  0.00000000000E+00  0.24769927239E+04  0.24769927239E+04  0.00000000000E+00 0. -1.
         -2   -1    0    0    0  501 -0.00000000000E+00 -0.00000000000E+00 -0.12022551387E+04  0.12022551387E+04  0.00000000000E+00 0.  1.
         23    2    1    2    0    0 -0.38477846084E+03 -0.13956585718E+04  0.13371762634E+04  0.19727458437E+04  0.88139045889E+02 0.  0.
        254    2    1    2    0    0  0.38477846084E+03  0.13956585718E+04 -0.62438678272E+02  0.17065020188E+04  0.90129531166E+03 0.  0.
        -24    2    4    4    0    0  0.67369256239E+03  0.10162729524E+04 -0.63086572955E+02  0.12235233554E+04  0.79731443933E+02 0.  0.
         24    2    4    4    0    0 -0.28891410155E+03  0.37938561943E+03  0.64789468269E+00  0.48297866346E+03  0.76571295473E+02 0.  0.
         13    1    3    3    0    0 -0.16866716256E+03 -0.55318377034E+03  0.47970424473E+03  0.75138342935E+03  0.00000000000E+00 0.  1.
        -13    1    3    3    0    0 -0.21611129829E+03 -0.84247480146E+03  0.85747201871E+03  0.12213624144E+04  0.00000000000E+00 0. -1.
          2    1    6    6  502    0 -0.16769656231E+03  0.27407655169E+03  0.15758975373E+02  0.32169618975E+03  0.00000000000E+00 0. -1.
          3    1    5    5  503    0  0.64341385741E+03  0.93357668308E+03 -0.57188976717E+02  0.11352609366E+04  0.00000000000E+00 0. -1.
         -4    1    5    5    0  503  0.30278704977E+02  0.82696269288E+02 -0.58975962376E+01  0.88262418789E+02  0.00000000000E+00 0.  1.
         -1    1    6    6    0  502 -0.12121753923E+03  0.10530906774E+03 -0.15111080690E+02  0.16128247371E+03  0.00000000000E+00 0.  1.
<mgrwt>
<rscale>  0 0.34513633E+04</rscale>
<asrwt>0</asrwt>
<pdfrwt beam="1">  1        2 0.38107580E+00 0.34513633E+04</pdfrwt>
<pdfrwt beam="2">  1       -2 0.18496233E+00 0.34513633E+04</pdfrwt>
<totfact> 0.49641691E-01</totfact>
</mgrwt>
</event>
<event>
12    1  0.2019083E-007  0.1266618E+04  0.7818608E-02  0.9056464E-01
          1   -1    0    0  501    0  0.00000000000E+00  0.00000000000E+00  0.46647102167E+03  0.46647102167E+03  0.00000000000E+00 0. -1.
         -1   -1    0    0    0  501 -0.00000000000E+00 -0.00000000000E+00 -0.85981873227E+03  0.85981873227E+03  0.00000000000E+00 0.  1.
         23    2    1    2    0    0 -0.16428991750E+03 -0.13743286807E+03  0.12497774233E+03  0.26655634262E+03  0.97743938407E+02 0.  0.
        254    2    1    2    0    0  0.16428991750E+03  0.13743286807E+03 -0.51832545294E+03  0.10597334113E+04  0.89916330980E+03 0.  0.
        -24    2    4    4    0    0  0.20654980030E+03  0.95879287343E+02 -0.76054068415E+03  0.79782843504E+03  0.79072256604E+02 0.  0.
         24    2    4    4    0    0 -0.42259882801E+02  0.41553580730E+02  0.24221523121E+03  0.26190497628E+03  0.80083709996E+02 0.  0.
         11    1    3    3    0    0 -0.54733181841E+02 -0.96636154210E+02  0.94294938132E+02  0.14569077820E+03  0.00000000000E+00 0.  1.
        -11    1    3    3    0    0 -0.10955673566E+03 -0.40796713863E+02  0.30682804202E+02  0.12086556442E+03  0.00000000000E+00 0. -1.
          2    1    6    6  502    0 -0.19700660731E+02 -0.23100996907E+02  0.59922603148E+02  0.67175073200E+02  0.00000000000E+00 0. -1.
          1    1    5    5  503    0 -0.18574250030E+01  0.14203491214E+02 -0.23256275458E+02  0.27313797584E+02  0.00000000000E+00 0. -1.
         -2    1    5    5    0  503  0.20840722530E+03  0.81675796129E+02 -0.73728440869E+03  0.77051463745E+03  0.00000000000E+00 0.  1.
         -1    1    6    6    0  502 -0.22559222070E+02  0.64654577637E+02  0.18229262806E+03  0.19472990308E+03  0.00000000000E+00 0.  1.
<mgrwt>
<rscale>  0 0.12666184E+04</rscale>
<asrwt>0</asrwt>
<pdfrwt beam="1">  1        1 0.71764774E-01 0.12666184E+04</pdfrwt>
<pdfrwt beam="2">  1       -1 0.13227980E+00 0.12666184E+04</pdfrwt>
<totfact> 0.23310272E+01</totfact>
</mgrwt>
</event>
<event>
12    1  0.2019083E-007  0.1372970E+04  0.7818608E-02  0.8973620E-01
          2   -1    0    0  501    0  0.00000000000E+00  0.00000000000E+00  0.14351290384E+04  0.14351290384E+04  0.00000000000E+00 0.  1.
         -2   -1    0    0    0  501 -0.00000000000E+00 -0.00000000000E+00 -0.32837598549E+03  0.32837598549E+03  0.00000000000E+00 0. -1.
         23    2    1    2    0    0 -0.13594855021E+03  0.35940520749E+03  0.30944539611E+03  0.49988952895E+03  0.80492089737E+02 0.  0.
        254    2    1    2    0    0  0.13594855021E+03 -0.35940520749E+03  0.79730765681E+03  0.12636154949E+04  0.90187056055E+03 0.  0.
        -24    2    4    4    0    0 -0.38067767001E+03 -0.16861968690E+03  0.32288367567E+03  0.53254939060E+03  0.77504181520E+02 0.  0.
         24    2    4    4    0    0  0.51662622022E+03 -0.19078552059E+03  0.47442398114E+03  0.73106610435E+03  0.77960045943E+02 0.  0.
         11    1    3    3    0    0 -0.11242323117E+03  0.34865032091E+03  0.28312257345E+03  0.46298425543E+03  0.00000000000E+00 0. -1.
        -11    1    3    3    0    0 -0.23525319039E+02  0.10754886578E+02  0.26322822659E+02  0.36905273525E+02  0.00000000000E+00 0.  1.
          2    1    6    6  502    0  0.63849940843E+02  0.24550171397E+01  0.51984484975E+02  0.82372499858E+02  0.00000000000E+00 0. -1.
          1    1    5    5  503    0 -0.78821401731E+02 -0.35761805796E+02  0.11015853981E+03  0.14009505351E+03  0.00000000000E+00 0. -1.
         -2    1    5    5    0  503 -0.30185626828E+03 -0.13285788110E+03  0.21272513587E+03  0.39245433709E+03  0.00000000000E+00 0.  1.
         -1    1    6    6    0  502  0.45277627938E+03 -0.19324053773E+03  0.42243949616E+03  0.64869360449E+03  0.00000000000E+00 0.  1.
<mgrwt>
<rscale>  0 0.13729704E+04</rscale>
<asrwt>0</asrwt>
<pdfrwt beam="1">  1        2 0.22078908E+00 0.13729704E+04</pdfrwt>
<pdfrwt beam="2">  1       -2 0.50519383E-01 0.13729704E+04</pdfrwt>
<totfact> 0.49911069E+01</totfact>
</mgrwt>
</event>
<event>
12    1  0.2019083E-007  0.1315597E+04  0.7818608E-02  0.9017287E-01
         -2   -1    0    0    0  501 -0.00000000000E+00  0.00000000000E+00  0.74146290574E+03  0.74146290574E+03  0.00000000000E+00 0.  1.
          2   -1    0    0  501    0  0.00000000000E+00 -0.00000000000E+00 -0.58357461550E+03  0.58357461550E+03  0.00000000000E+00 0. -1.
         23    2    1    2    0    0 -0.29626275659E+03  0.15504823141E+03  0.11412046786E+03  0.36427246300E+03  0.88653094179E+02 0.  0.
        254    2    1    2    0    0  0.29626275659E+03 -0.15504823141E+03  0.43767822373E+02  0.96076505824E+03  0.89963453683E+03 0.  0.
        -24    2    4    4    0    0 -0.46615961960E+02  0.30554110273E+03 -0.14596458416E+03  0.35111445861E+03  0.80295017595E+02 0.  0.
         24    2    4    4    0    0  0.34287871855E+03 -0.46058933414E+03  0.18973240653E+03  0.60965059963E+03  0.77247117670E+02 0.  0.
         11    1    3    3    0    0 -0.18649220172E+03  0.13471202665E+03  0.49646849962E+02  0.23535394863E+03  0.00000000000E+00 0. -1.
        -11    1    3    3    0    0 -0.10977055487E+03  0.20336204760E+02  0.64473617901E+02  0.12891851436E+03  0.00000000000E+00 0.  1.
          4    1    6    6  502    0  0.31995599627E+03 -0.45131631229E+03  0.17244195185E+03  0.57947776493E+03  0.00000000000E+00 0. -1.
          3    1    5    5  503    0 -0.40041050835E+02  0.30686514336E+03 -0.13365264922E+03  0.33709424885E+03  0.00000000000E+00 0. -1.
         -4    1    5    5    0  503 -0.65749111255E+01 -0.13240406318E+01 -0.12311934939E+02  0.14020209764E+02  0.00000000000E+00 0.  1.
         -3    1    6    6    0  502  0.22922722283E+02 -0.92730218430E+01  0.17290454677E+02  0.30172834701E+02  0.00000000000E+00 0.  1.
<mgrwt>
<rscale>  0 0.13155971E+04</rscale>
<asrwt>0</asrwt>
<pdfrwt beam="1">  1        2 0.89780710E-01 0.13155971E+04</pdfrwt>
<pdfrwt beam="2">  1       -2 0.11407122E+00 0.13155971E+04</pdfrwt>
<totfact> 0.30200024E+01</totfact>
</mgrwt>
</event>
<event>
12    1  0.2019083E-007  0.1407130E+04  0.7818608E-02  0.8948674E-01
         -1   -1    0    0    0  501 -0.00000000000E+00  0.00000000000E+00  0.49312810767E+03  0.49312810767E+03  0.00000000000E+00 0.  1.
          1   -1    0    0  501    0  0.00000000000E+00 -0.00000000000E+00 -0.10038036392E+04  0.10038036392E+04  0.00000000000E+00 0. -1.
         23    2    1    2    0    0  0.14801077451E+03  0.15913175742E+03 -0.52023728843E+03  0.57091949216E+03  0.89845003590E+02 0.  0.
        254    2    1    2    0    0 -0.14801077451E+03 -0.15913175742E+03  0.95617568509E+01  0.92601225475E+03  0.90009841860E+03 0.  0.
        -24    2    4    4    0    0 -0.32009132009E+03 -0.42634642095E+03 -0.15264226489E+03  0.56029217863E+03  0.79987127350E+02 0.  0.
         24    2    4    4    0    0  0.17208054559E+03  0.26721466353E+03  0.16220402175E+03  0.36572007613E+03  0.80160082583E+02 0.  0.
         11    1    3    3    0    0  0.68329187701E+02  0.12716786348E+03 -0.37989287368E+03  0.40639775943E+03  0.00000000000E+00 0. -1.
        -11    1    3    3    0    0  0.79681586805E+02  0.31963893947E+02 -0.14034441475E+03  0.16452173274E+03  0.00000000000E+00 0.  1.
          4    1    6    6  502    0  0.13011169832E+03  0.13862549320E+03  0.11633376698E+03  0.22288927014E+03  0.00000000000E+00 0. -1.
          1    1    5    5  503    0 -0.24324454318E+03 -0.37037893306E+03 -0.13799984241E+03  0.46410388745E+03  0.00000000000E+00 0. -1.
         -2    1    5    5    0  503 -0.76846776917E+02 -0.55967487887E+02 -0.14642422481E+02  0.96188291174E+02  0.00000000000E+00 0.  1.
         -3    1    6    6    0  502  0.41968847266E+02  0.12858917033E+03  0.45870254767E+02  0.14283080599E+03  0.00000000000E+00 0.  1.
<mgrwt>
<rscale>  0 0.14071301E+04</rscale>
<asrwt>0</asrwt>
<pdfrwt beam="1">  1        1 0.15443133E+00 0.14071301E+04</pdfrwt>
<pdfrwt beam="2">  1       -1 0.75865862E-01 0.14071301E+04</pdfrwt>
<totfact> 0.25565717E+01</totfact>
</mgrwt>
</event>
<event>
12    1  0.2019083E-007  0.1680810E+04  0.7818608E-02  0.8772385E-01
          1   -1    0    0  501    0  0.00000000000E+00  0.00000000000E+00  0.16085044250E+04  0.16085044250E+04  0.00000000000E+00 0. -1.
         -1   -1    0    0    0  501 -0.00000000000E+00 -0.00000000000E+00 -0.43909142579E+03  0.43909142579E+03  0.00000000000E+00 0.  1.
         23    2    1    2    0    0  0.35143428812E+03  0.41787667439E+03  0.71045026442E+03  0.90073579493E+03  0.91969669975E+02 0.  0.
        254    2    1    2    0    0 -0.35143428812E+03 -0.41787667439E+03  0.45896273480E+03  0.11468600559E+04  0.89806136869E+03 0.  0.
        -24    2    4    4    0    0 -0.23223215833E+03 -0.68380843083E+03  0.21338169210E+03  0.75772040263E+03  0.84158877108E+02 0.  0.
         24    2    4    4    0    0 -0.11920212979E+03  0.26593175644E+03  0.24558104270E+03  0.38913965323E+03  0.78681474016E+02 0.  0.
         13    1    3    3    0    0  0.83518644378E+02  0.15040490648E+03  0.17939322073E+03  0.24855367126E+03  0.00000000000E+00 0.  1.
        -13    1    3    3    0    0  0.26791564374E+03  0.26747176791E+03  0.53105704369E+03  0.65218212368E+03  0.00000000000E+00 0. -1.
          2    1    6    6  502    0  0.80604268149E+01  0.48904937620E+02  0.30910114133E+02  0.58413171116E+02  0.00000000000E+00 0. -1.
          1    1    5    5  503    0 -0.17664104498E+03 -0.39307823122E+03  0.13306870339E+03  0.45102088029E+03  0.00000000000E+00 0. -1.
         -2    1    5    5    0  503 -0.55591113346E+02 -0.29073019961E+03  0.80312988712E+02  0.30669952234E+03  0.00000000000E+00 0.  1.
         -1    1    6    6    0  502 -0.12726255660E+03  0.21702681882E+03  0.21467092856E+03  0.33072648211E+03  0.00000000000E+00 0.  1.
<mgrwt>
<rscale>  0 0.16808099E+04</rscale>
<asrwt>0</asrwt>
<pdfrwt beam="1">  1        1 0.24746222E+00 0.16808099E+04</pdfrwt>
<pdfrwt beam="2">  1       -1 0.67552528E-01 0.16808099E+04</pdfrwt>
<totfact> 0.11645100E+01</totfact>
</mgrwt>
</event>
<event>
12    1  0.2019083E-007  0.2562682E+04  0.7818608E-02  0.8380989E-01
         -2   -1    0    0    0  501 -0.00000000000E+00  0.00000000000E+00  0.16865575328E+04  0.16865575328E+04  0.00000000000E+00 0.  1.
          2   -1    0    0  501    0  0.00000000000E+00 -0.00000000000E+00 -0.97348311920E+03  0.97348311920E+03  0.00000000000E+00 0. -1.
         23    2    1    2    0    0 -0.19970996318E+02 -0.93742708333E+03 -0.32614211323E+03  0.99674946122E+03  0.89288482803E+02 0.  0.
        254    2    1    2    0    0  0.19970996318E+02  0.93742708333E+03  0.10392165269E+04  0.16632911908E+04  0.89855340322E+03 0.  0.
        -24    2    4    4    0    0 -0.22877828935E+03  0.98729707406E+03  0.70970957363E+03  0.12399165573E+04  0.81304194743E+02 0.  0.
         24    2    4    4    0    0  0.24874928567E+03 -0.49869990723E+02  0.32950695323E+03  0.42337463349E+03  0.79423075723E+02 0.  0.
         13    1    3    3    0    0 -0.49984101181E+02 -0.54317919896E+03 -0.21190477827E+03  0.58518859149E+03  0.00000000000E+00 0. -1.
        -13    1    3    3    0    0  0.30013104863E+02 -0.39424788437E+03 -0.11423733495E+03  0.41156086973E+03  0.00000000000E+00 0.  1.
          4    1    6    6  502    0  0.94569688053E+02  0.18908996875E+02  0.13336940781E+03  0.16458546412E+03  0.00000000000E+00 0. -1.
          1    1    5    5  503    0 -0.12160365726E+03  0.39232294081E+03  0.25507996209E+03  0.48349821758E+03  0.00000000000E+00 0. -1.
         -2    1    5    5    0  503 -0.10717463209E+03  0.59497413325E+03  0.45462961153E+03  0.75641833973E+03  0.00000000000E+00 0.  1.
         -3    1    6    6    0  502  0.15417959762E+03 -0.68778987598E+02  0.19613754542E+03  0.25878916936E+03  0.00000000000E+00 0.  1.
<mgrwt>
<rscale>  0 0.25626824E+04</rscale>
<asrwt>0</asrwt>
<pdfrwt beam="1">  1        2 0.14976663E+00 0.25626824E+04</pdfrwt>
<pdfrwt beam="2">  1       -2 0.25947039E+00 0.25626824E+04</pdfrwt>
<totfact> 0.13068479E+00</totfact>
</mgrwt>
</event>
<event>
12    1  0.2019083E-007  0.2796152E+04  0.7818608E-02  0.8304464E-01
         -1   -1    0    0    0  501 -0.00000000000E+00  0.00000000000E+00  0.81270152941E+03  0.81270152941E+03  0.00000000000E+00 0.  1.
          1   -1    0    0  501    0  0.00000000000E+00 -0.00000000000E+00 -0.24050854590E+04  0.24050854590E+04  0.00000000000E+00 0. -1.
         23    2    1    2    0    0  0.14319060282E+03  0.12412658104E+04 -0.70285950917E+03  0.14360515734E+04  0.83595878148E+02 0.  0.
        254    2    1    2    0    0 -0.14319060282E+03 -0.12412658104E+04 -0.88952442038E+03  0.17817354150E+04  0.90668794727E+03 0.  0.
        -24    2    4    4    0    0  0.68857142956E+02 -0.48421831298E+03  0.10992507088E+03  0.50763783888E+03  0.80024830430E+02 0.  0.
         24    2    4    4    0    0 -0.21204774577E+03 -0.75704749746E+03 -0.99944949126E+03  0.12740975761E+04  0.79625297649E+02 0.  0.
         11    1    3    3    0    0  0.12021753209E+03  0.70761929068E+03 -0.38518015854E+03  0.81458030304E+03  0.00000000000E+00 0. -1.
        -11    1    3    3    0    0  0.22973070727E+02  0.53364651976E+03 -0.31767935063E+03  0.62147127033E+03  0.00000000000E+00 0.  1.
          4    1    6    6  502    0 -0.11940085507E+03 -0.47779985718E+03 -0.68251634278E+03  0.84165184363E+03  0.00000000000E+00 0. -1.
          1    1    5    5  503    0  0.74046893853E+02 -0.48096457028E+03  0.11458717192E+03  0.49994007673E+03  0.00000000000E+00 0. -1.
         -2    1    5    5    0  503 -0.51897508973E+01 -0.32537427052E+01 -0.46621010377E+01  0.76977621458E+01  0.00000000000E+00 0.  1.
         -3    1    6    6    0  502 -0.92646890703E+02 -0.27924764028E+03 -0.31693314848E+03  0.43244573251E+03  0.00000000000E+00 0.  1.
<mgrwt>
<rscale>  0 0.27961521E+04</rscale>
<asrwt>0</asrwt>
<pdfrwt beam="1">  1        1 0.37001314E+00 0.27961521E+04</pdfrwt>
<pdfrwt beam="2">  1       -1 0.12503101E+00 0.27961521E+04</pdfrwt>
<totfact> 0.76300178E-01</totfact>
</mgrwt>
</event>
<event>
12    1  0.2019083E-007  0.2521905E+04  0.7818608E-02  0.8395223E-01
         -2   -1    0    0    0  501 -0.00000000000E+00  0.00000000000E+00  0.72408068559E+03  0.72408068559E+03  0.00000000000E+00 0.  1.
          2   -1    0    0  501    0  0.00000000000E+00 -0.00000000000E+00 -0.21958902598E+04  0.21958902598E+04  0.00000000000E+00 0. -1.
         23    2    1    2    0    0  0.62458775538E+03 -0.90658117953E+03 -0.73567238007E+03  0.13272365416E+04  0.91343787127E+02 0.  0.
        254    2    1    2    0    0 -0.62458775538E+03  0.90658117953E+03 -0.73613719419E+03  0.15927344038E+04  0.88481953704E+03 0.  0.
        -24    2    4    4    0    0 -0.13478859328E+03  0.46191451366E+03 -0.78537466834E+03  0.92448006428E+03  0.79479788358E+02 0.  0.
         24    2    4    4    0    0 -0.48979916209E+03  0.44466666586E+03  0.49237474154E+02  0.66825433952E+03  0.80671373533E+02 0.  0.
         11    1    3    3    0    0  0.21520593182E+03 -0.36656038838E+03 -0.24529743698E+03  0.49076567118E+03  0.00000000000E+00 0. -1.
        -11    1    3    3    0    0  0.40938182356E+03 -0.54002079115E+03 -0.49037494309E+03  0.83647087047E+03  0.00000000000E+00 0.  1.
          4    1    6    6  502    0 -0.43189188988E+03  0.39279472548E+03  0.16862888624E+02  0.58403994549E+03  0.00000000000E+00 0. -1.
          3    1    5    5  503    0 -0.69793324189E+02  0.36082174149E+03 -0.59366262347E+03  0.69821110542E+03  0.00000000000E+00 0. -1.
         -4    1    5    5    0  503 -0.64995269093E+02  0.10109277217E+03 -0.19171204488E+03  0.22626895885E+03  0.00000000000E+00 0.  1.
         -3    1    6    6    0  502 -0.57907272214E+02  0.51871940381E+02  0.32374585530E+02  0.84214394033E+02  0.00000000000E+00 0.  1.
<mgrwt>
<rscale>  0 0.25219054E+04</rscale>
<asrwt>0</asrwt>
<pdfrwt beam="1">  1        2 0.33782926E+00 0.25219054E+04</pdfrwt>
<pdfrwt beam="2">  1       -2 0.11139703E+00 0.25219054E+04</pdfrwt>
<totfact> 0.29446601E+00</totfact>
</mgrwt>
</event>
<event>
12    1  0.2019083E-007  0.2202574E+04  0.7818608E-02  0.8517357E-01
          2   -1    0    0  501    0  0.00000000000E+00  0.00000000000E+00  0.97350225422E+03  0.97350225422E+03  0.00000000000E+00 0. -1.
         -2   -1    0    0    0  501 -0.00000000000E+00 -0.00000000000E+00 -0.12458456123E+04  0.12458456123E+04  0.00000000000E+00 0.  1.
         23    2    1    2    0    0 -0.10856082027E+03 -0.58682322867E+03  0.58407654220E+03  0.83963999339E+03  0.87766496718E+02 0.  0.
        254    2    1    2    0    0  0.10856082027E+03  0.58682322867E+03 -0.85641990024E+03  0.13797078731E+04  0.90221495009E+03 0.  0.
        -24    2    4    4    0    0  0.25789940144E+03 -0.15796713000E+03 -0.29882054057E+03  0.43405013861E+03  0.87407619470E+02 0.  0.
         24    2    4    4    0    0 -0.14933858117E+03  0.74479035867E+03 -0.55759935967E+03  0.94565773449E+03  0.79604112325E+02 0.  0.
         11    1    3    3    0    0 -0.53585818454E+02 -0.17568693385E+03  0.13256778937E+03  0.22652054530E+03  0.00000000000E+00 0.  1.
        -11    1    3    3    0    0 -0.54975001812E+02 -0.41113629483E+03  0.45150875282E+03  0.61311944809E+03  0.00000000000E+00 0. -1.
          4    1    6    6  502    0 -0.10690913793E+03  0.34762354227E+03 -0.28533782201E+03  0.46226546873E+03  0.00000000000E+00 0. -1.
          3    1    5    5  503    0  0.13866280812E+03 -0.33955744292E+02 -0.13766065810E+03  0.19832000331E+03  0.00000000000E+00 0. -1.
         -4    1    5    5    0  503  0.11923659332E+03 -0.12401138570E+03 -0.16115988247E+03  0.23573013530E+03  0.00000000000E+00 0.  1.
         -3    1    6    6    0  502 -0.42429443243E+02  0.39716681640E+03 -0.27226153766E+03  0.48339226576E+03  0.00000000000E+00 0.  1.
<mgrwt>
<rscale>  0 0.22025744E+04</rscale>
<asrwt>0</asrwt>
<pdfrwt beam="1">  1        2 0.14976958E+00 0.22025744E+04</pdfrwt>
<pdfrwt beam="2">  1       -2 0.19166855E+00 0.22025744E+04</pdfrwt>
<totfact> 0.36163924E+00</totfact>
</mgrwt>
</event>
<event>
12    1  0.2235412E-007  0.2440183E+04  0.7818608E-02  0.8424611E-01
         -2   -1    0    0    0  501 -0.00000000000E+00  0.00000000000E+00  0.65902620922E+03  0.65902620922E+03  0.00000000000E+00 0.  1.
          2   -1    0    0  501    0  0.00000000000E+00 -0.00000000000E+00 -0.22588224802E+04  0.22588224802E+04  0.00000000000E+00 0. -1.
         23    2    1    2    0    0 -0.59975321218E+03  0.84307574807E+03 -0.46437530996E+03  0.11378328662E+04  0.92404384787E+02 0.  0.
        254    2    1    2    0    0  0.59975321218E+03 -0.84307574807E+03 -0.11354209610E+04  0.17800158233E+04  0.89933027292E+03 0.  0.
        -24    2    4    4    0    0  0.65160042218E+03 -0.41862545051E+03 -0.10943125429E+04  0.13430805712E+04  0.80716176614E+02 0.  0.
         24    2    4    4    0    0 -0.51847209995E+02 -0.42445029756E+03 -0.41108418157E+02  0.43693525209E+03  0.79851889079E+02 0.  0.
         11    1    3    3    0    0 -0.20730818707E+03  0.22372671873E+03 -0.11991441505E+03  0.32773433759E+03  0.00000000000E+00 0. -1.
        -11    1    3    3    0    0 -0.39244502511E+03  0.61934902934E+03 -0.34446089491E+03  0.81009852858E+03  0.00000000000E+00 0.  1.
          4    1    6    6  502    0  0.18879914903E+02 -0.10532292846E+03  0.33534748841E+01  0.10705426774E+03  0.00000000000E+00 0. -1.
          1    1    5    5  503    0  0.59221448653E+02 -0.30200274058E+02 -0.13602498034E+03  0.15140023715E+03  0.00000000000E+00 0. -1.
         -2    1    5    5    0  503  0.59237897352E+03 -0.38842517645E+03 -0.95828756255E+03  0.11916803340E+04  0.00000000000E+00 0.  1.
         -3    1    6    6    0  502 -0.70727124898E+02 -0.31912736910E+03 -0.44461893041E+02  0.32988098435E+03  0.00000000000E+00 0.  1.
<mgrwt>
<rscale>  0 0.24401830E+04</rscale>
<asrwt>0</asrwt>
<pdfrwt beam="1">  1        2 0.34751115E+00 0.24401830E+04</pdfrwt>
<pdfrwt beam="2">  1       -2 0.10138865E+00 0.24401830E+04</pdfrwt>
<totfact> 0.34267614E+00</totfact>
</mgrwt>
</event>
<event>
12    1  0.2019083E-007  0.1881342E+04  0.7818608E-02  0.8664200E-01
          2   -1    0    0  501    0  0.00000000000E+00  0.00000000000E+00  0.19272363158E+04  0.19272363158E+04  0.00000000000E+00 0. -1.
         -2   -1    0    0    0  501 -0.00000000000E+00 -0.00000000000E+00 -0.45913493986E+03  0.45913493986E+03  0.00000000000E+00 0.  1.
         23    2    1    2    0    0  0.86458345120E+01 -0.31802853535E+03  0.13901896107E+04  0.14282505421E+04  0.77817464437E+02 0.  0.
        254    2    1    2    0    0 -0.86458345120E+01  0.31802853535E+03  0.77911765297E+02  0.95812071354E+03  0.90039333560E+03 0.  0.
        -24    2    4    4    0    0  0.22608159012E+01  0.55157122621E+03  0.29418373081E+03  0.62993071747E+03  0.77670537957E+02 0.  0.
         24    2    4    4    0    0 -0.10906650413E+02 -0.23354269087E+03 -0.21627196552E+03  0.32818999606E+03  0.79208376886E+02 0.  0.
         13    1    3    3    0    0 -0.92380497556E+01 -0.59429134454E+02  0.15730938351E+03  0.16841438693E+03  0.00000000000E+00 0.  1.
        -13    1    3    3    0    0  0.17883884268E+02 -0.25859940089E+03  0.12328802272E+04  0.12598361552E+04  0.00000000000E+00 0. -1.
          2    1    6    6  502    0 -0.10551527812E+02 -0.28171444239E+01  0.13754430766E+01  0.11007401397E+02  0.00000000000E+00 0. -1.
          3    1    5    5  503    0 -0.19612634437E+02  0.12403949863E+03  0.38742214829E+02  0.13142074364E+03  0.00000000000E+00 0. -1.
         -4    1    5    5    0  503  0.21873450338E+02  0.42753172759E+03  0.25544151598E+03  0.49850997383E+03  0.00000000000E+00 0.  1.
         -1    1    6    6    0  502 -0.35512260139E+00 -0.23072554644E+03 -0.21764740859E+03  0.31718259467E+03  0.00000000000E+00 0.  1.
<mgrwt>
<rscale>  0 0.18813416E+04</rscale>
<asrwt>0</asrwt>
<pdfrwt beam="1">  1        2 0.29649789E+00 0.18813416E+04</pdfrwt>
<pdfrwt beam="2">  1       -2 0.70636146E-01 0.18813416E+04</pdfrwt>
<totfact> 0.12534902E+01</totfact>
</mgrwt>
</event>
<event>
12    1  0.2102198E-007  0.2717175E+04  0.7818608E-02  0.8329454E-01
         -1   -1    0    0    0  501 -0.00000000000E+00  0.00000000000E+00  0.61118549816E+03  0.61118549816E+03  0.00000000000E+00 0.  1.
          1   -1    0    0  501    0  0.00000000000E+00 -0.00000000000E+00 -0.30199659147E+04  0.30199659147E+04  0.00000000000E+00 0. -1.
         23    2    1    2    0    0 -0.89378224219E+03  0.45358311732E+03 -0.19720378687E+04  0.22140139430E+04  0.91323837611E+02 0.  0.
        254    2    1    2    0    0  0.89378224219E+03 -0.45358311732E+03 -0.43674254790E+03  0.14171374699E+04  0.90163751851E+03 0.  0.
        -24    2    4    4    0    0 -0.82643132670E+02  0.28090362290E+02  0.13919003062E+03  0.18282556463E+03  0.80202036310E+02 0.  0.
         24    2    4    4    0    0  0.97642537486E+03 -0.48167347961E+03 -0.57593257852E+03  0.12343119053E+04  0.80073035131E+02 0.  0.
         11    1    3    3    0    0 -0.39612389320E+03  0.16901260455E+03 -0.92374415145E+03  0.10192068762E+04  0.00000000000E+00 0. -1.
        -11    1    3    3    0    0 -0.49765834899E+03  0.28457051278E+03 -0.10482937172E+04  0.11948070667E+04  0.00000000000E+00 0.  1.
          4    1    6    6  502    0  0.23584730698E+03 -0.12063063807E+03 -0.10227217446E+03  0.28396355526E+03  0.00000000000E+00 0. -1.
          3    1    5    5  503    0 -0.68885429330E+01 -0.11267475453E+02 -0.59153786295E+01  0.14470650682E+02  0.00000000000E+00 0. -1.
         -4    1    5    5    0  503 -0.75754589737E+02  0.39357837743E+02  0.14510540925E+03  0.16835491395E+03  0.00000000000E+00 0.  1.
         -3    1    6    6    0  502  0.74057806788E+03 -0.36104284154E+03 -0.47366040406E+03  0.95034835005E+03  0.00000000000E+00 0.  1.
<mgrwt>
<rscale>  0 0.27171745E+04</rscale>
<asrwt>0</asrwt>
<pdfrwt beam="1">  1        1 0.46461015E+00 0.27171745E+04</pdfrwt>
<pdfrwt beam="2">  1       -1 0.94028537E-01 0.27171745E+04</pdfrwt>
<totfact> 0.55191959E-01</totfact>
</mgrwt>
</event>
<event>
12    1  0.2019083E-007  0.1492764E+04  0.7818608E-02  0.8889279E-01
          1   -1    0    0  501    0  0.00000000000E+00  0.00000000000E+00  0.88455858832E+03  0.88455858832E+03  0.00000000000E+00 0. -1.
         -1   -1    0    0    0  501 -0.00000000000E+00 -0.00000000000E+00 -0.62979009577E+03  0.62979009577E+03  0.00000000000E+00 0.  1.
         23    2    1    2    0    0 -0.71187384306E+01  0.19189384883E+03  0.50558578457E+03  0.54828742133E+03  0.90156448363E+02 0.  0.
        254    2    1    2    0    0  0.71187384306E+01 -0.19189384883E+03 -0.25081729202E+03  0.96606126276E+03  0.91295735047E+03 0.  0.
        -24    2    4    4    0    0 -0.14474855898E+03 -0.16506677402E+03 -0.56276777201E+03  0.60911164903E+03  0.78168091676E+02 0.  0.
         24    2    4    4    0    0  0.15186729741E+03 -0.26827074808E+02  0.31195048000E+03  0.35694961372E+03  0.79476768939E+02 0.  0.
         13    1    3    3    0    0  0.26978383682E+02  0.78363994770E+02  0.29726241746E+03  0.30859956853E+03  0.00000000000E+00 0. -1.
        -13    1    3    3    0    0 -0.34097122113E+02  0.11352985406E+03  0.20832336710E+03  0.23968785280E+03  0.00000000000E+00 0.  1.
          2    1    6    6  502    0  0.13617611772E+03 -0.45821962994E+02  0.29128269494E+03  0.32479100312E+03  0.00000000000E+00 0. -1.
          1    1    5    5  503    0 -0.13569933973E+03 -0.14909373547E+03 -0.42805363710E+03  0.47315237397E+03  0.00000000000E+00 0. -1.
         -2    1    5    5    0  503 -0.90492192543E+01 -0.15973038546E+02 -0.13471413491E+03  0.13595927506E+03  0.00000000000E+00 0.  1.
         -1    1    6    6    0  502  0.15691179692E+02  0.18994888186E+02  0.20667785053E+02  0.32158610609E+02  0.00000000000E+00 0.  1.
<mgrwt>
<rscale>  0 0.14927642E+04</rscale>
<asrwt>0</asrwt>
<pdfrwt beam="1">  1        1 0.13608594E+00 0.14927642E+04</pdfrwt>
<pdfrwt beam="2">  1       -1 0.96890784E-01 0.14927642E+04</pdfrwt>
<totfact> 0.18581716E+01</totfact>
</mgrwt>
</event>
<event>
12    1  0.2019083E-007  0.1919938E+04  0.7818608E-02  0.8644995E-01
          2   -1    0    0  501    0  0.00000000000E+00  0.00000000000E+00  0.66642511986E+03  0.66642511986E+03  0.00000000000E+00 0. -1.
         -2   -1    0    0    0  501 -0.00000000000E+00 -0.00000000000E+00 -0.13828124275E+04  0.13828124275E+04  0.00000000000E+00 0.  1.
         23    2    1    2    0    0 -0.20068701179E+03  0.67567684310E+03 -0.48822761418E+02  0.71235797692E+03  0.90861170179E+02 0.  0.
        254    2    1    2    0    0  0.20068701179E+03 -0.67567684310E+03 -0.66756454626E+03  0.13368795705E+04  0.91912463220E+03 0.  0.
        -24    2    4    4    0    0  0.48848600159E+03 -0.34259951241E+03 -0.93569493198E+02  0.60915101519E+03  0.79477730150E+02 0.  0.
         24    2    4    4    0    0 -0.28779898980E+03 -0.33307733069E+03 -0.57399505306E+03  0.72772855529E+03  0.79685396963E+02 0.  0.
         11    1    3    3    0    0  0.48016459933E+01  0.79585191795E+02  0.23854868116E+01  0.79765588474E+02  0.00000000000E+00 0. -1.
        -11    1    3    3    0    0 -0.20548865778E+03  0.59609165131E+03 -0.51208248230E+02  0.63259238845E+03  0.00000000000E+00 0.  1.
          4    1    6    6  502    0 -0.20848320496E+03 -0.18496136641E+03 -0.33926392326E+03  0.43906259627E+03  0.00000000000E+00 0. -1.
          1    1    5    5  503    0  0.47933054074E+03 -0.34369907498E+03 -0.83843838073E+02  0.59574878146E+03  0.00000000000E+00 0. -1.
         -2    1    5    5    0  503  0.91554608491E+01  0.10995625678E+01 -0.97256551255E+01  0.13402233725E+02  0.00000000000E+00 0.  1.
         -3    1    6    6    0  502 -0.79315784849E+02 -0.14811596428E+03 -0.23473112980E+03  0.28866595902E+03  0.00000000000E+00 0.  1.
<mgrwt>
<rscale>  0 0.19199385E+04</rscale>
<asrwt>0</asrwt>
<pdfrwt beam="1">  1        2 0.10252694E+00 0.19199385E+04</pdfrwt>
<pdfrwt beam="2">  1       -2 0.21274037E+00 0.19199385E+04</pdfrwt>
<totfact> 0.44785987E+00</totfact>
</mgrwt>
</event>
<event>
12    1  0.2019083E-007  0.1655751E+04  0.7818608E-02  0.8787012E-01
         -3   -1    0    0    0  501 -0.00000000000E+00  0.00000000000E+00  0.94697647689E+03  0.94697647689E+03  0.00000000000E+00 0.  1.
          3   -1    0    0  501    0  0.00000000000E+00 -0.00000000000E+00 -0.72375349446E+03  0.72375349446E+03  0.00000000000E+00 0. -1.
         23    2    1    2    0    0 -0.45672753507E+03 -0.34744828406E+03  0.31948936101E+01  0.58096991743E+03  0.90528924815E+02 0.  0.
        254    2    1    2    0    0  0.45672753507E+03  0.34744828406E+03  0.22002808882E+03  0.10897600539E+04  0.89991347575E+03 0.  0.
        -24    2    4    4    0    0  0.66394958272E+03  0.19897266270E+03  0.36281117904E+03  0.78638966617E+03  0.79734475104E+02 0.  0.
         24    2    4    4    0    0 -0.20722204765E+03  0.14847562136E+03 -0.14278309022E+03  0.30337038775E+03  0.81612463133E+02 0.  0.
         11    1    3    3    0    0 -0.17445648160E+03 -0.18645515389E+03 -0.12358312205E+02  0.25564294683E+03  0.00000000000E+00 0.  1.
        -11    1    3    3    0    0 -0.28227105347E+03 -0.16099313017E+03  0.15553205815E+02  0.32532697060E+03  0.00000000000E+00 0. -1.
          4    1    6    6  502    0 -0.68948264990E+02  0.21966303098E+02 -0.74620684269E+02  0.10394531369E+03  0.00000000000E+00 0. -1.
          1    1    5    5  503    0  0.55710888900E+03  0.19652478818E+03  0.30321083556E+03  0.66402493731E+03  0.00000000000E+00 0. -1.
         -2    1    5    5    0  503  0.10684069372E+03  0.24478745172E+01  0.59600343478E+02  0.12236472886E+03  0.00000000000E+00 0.  1.
         -3    1    6    6    0  502 -0.13827378266E+03  0.12650931826E+03 -0.68162405951E+02  0.19942507406E+03  0.00000000000E+00 0.  1.
<mgrwt>
<rscale>  0 0.16557506E+04</rscale>
<asrwt>0</asrwt>
<pdfrwt beam="1">  1        3 0.11134669E+00 0.16557506E+04</pdfrwt>
<pdfrwt beam="2">  1       -3 0.14568869E+00 0.16557506E+04</pdfrwt>
<totfact> 0.58962941E-01</totfact>
</mgrwt>
</event>
<event>
12    1  0.2019083E-007  0.5259099E+04  0.7818608E-02  0.7789736E-01
          1   -1    0    0  501    0  0.00000000000E+00  0.00000000000E+00  0.32133086682E+04  0.32133086682E+04  0.00000000000E+00 0. -1.
         -1   -1    0    0    0  501 -0.00000000000E+00 -0.00000000000E+00 -0.21518411857E+04  0.21518411857E+04  0.00000000000E+00 0.  1.
         23    2    1    2    0    0 -0.19103829089E+04  0.16176373615E+04  0.10202613411E+04  0.27047264721E+04  0.91096613619E+02 0.  0.
        254    2    1    2    0    0  0.19103829089E+04 -0.16176373615E+04  0.41206141358E+02  0.26604233818E+04  0.89991173582E+03 0.  0.
        -24    2    4    4    0    0  0.41662889226E+03 -0.17676132253E+03  0.32710197162E+03  0.56396754234E+03  0.78990442301E+02 0.  0.
         24    2    4    4    0    0  0.14937540167E+04 -0.14408760389E+04 -0.28589583026E+03  0.20964558394E+04  0.77238844028E+02 0.  0.
         13    1    3    3    0    0 -0.13970490188E+04  0.12067100509E+04  0.71342492728E+03  0.19791084444E+04  0.00000000000E+00 0.  1.
        -13    1    3    3    0    0 -0.51333389008E+03  0.41092731062E+03  0.30683641381E+03  0.72561802773E+03  0.00000000000E+00 0. -1.
          4    1    6    6  502    0  0.87015578612E+03 -0.88857246647E+03 -0.15773751641E+03  0.12536399979E+04  0.00000000000E+00 0. -1.
          3    1    5    5  503    0  0.35770558164E+03 -0.11921946983E+03  0.26971604262E+03  0.46358743379E+03  0.00000000000E+00 0. -1.
         -4    1    5    5    0  503  0.58923310619E+02 -0.57541852697E+02  0.57385928999E+02  0.10038010855E+03  0.00000000000E+00 0.  1.
         -3    1    6    6    0  502  0.62359823055E+03 -0.55230357247E+03 -0.12815831385E+03  0.84281584152E+03  0.00000000000E+00 0.  1.
<mgrwt>
<rscale>  0 0.52590988E+04</rscale>
<asrwt>0</asrwt>
<pdfrwt beam="1">  1        1 0.49435518E+00 0.52590988E+04</pdfrwt>
<pdfrwt beam="2">  1       -1 0.33105249E+00 0.52590988E+04</pdfrwt>
<totfact> 0.60860870E-03</totfact>
</mgrwt>
</event>
<event>
12    1  0.2019083E-007  0.1402767E+04  0.7818608E-02  0.8951818E-01
          2   -1    0    0  501    0  0.00000000000E+00  0.00000000000E+00  0.20933974366E+04  0.20933974366E+04  0.00000000000E+00 0. -1.
         -2   -1    0    0    0  501 -0.00000000000E+00 -0.00000000000E+00 -0.23499558041E+03  0.23499558041E+03  0.00000000000E+00 0.  1.
         23    2    1    2    0    0  0.20938556268E+03 -0.13425571477E+03  0.10817557404E+04  0.11133648361E+04  0.86711392193E+02 0.  0.
        254    2    1    2    0    0 -0.20938556268E+03  0.13425571477E+03  0.77664611571E+03  0.12150281809E+04  0.90069272253E+03 0.  0.
        -24    2    4    4    0    0 -0.54180893640E+03  0.27459186289E+02  0.32102457841E+03  0.63552922329E+03  0.80806455489E+02 0.  0.
         24    2    4    4    0    0  0.33242337372E+03  0.10679652849E+03  0.45562153730E+03  0.57949895756E+03  0.79481184369E+02 0.  0.
         11    1    3    3    0    0  0.14426935522E+02 -0.37908767993E+02  0.10208599763E+03  0.10984881461E+03  0.00000000000E+00 0.  1.
        -11    1    3    3    0    0  0.19495862716E+03 -0.96346946780E+02  0.97966974281E+03  0.10035160215E+04  0.00000000000E+00 0. -1.
          4    1    6    6  502    0  0.33247274907E+03  0.10640818317E+03  0.45868325383E+03  0.57641231568E+03  0.00000000000E+00 0. -1.
          3    1    5    5  503    0 -0.35288563875E+03  0.56247587328E+02  0.20527709120E+03  0.41210526481E+03  0.00000000000E+00 0. -1.
         -4    1    5    5    0  503 -0.18892329765E+03 -0.28788401040E+02  0.11574748720E+03  0.22342395848E+03  0.00000000000E+00 0.  1.
         -3    1    6    6    0  502 -0.49375348103E-01  0.38834531168E+00 -0.30617165298E+01  0.30866418831E+01  0.00000000000E+00 0.  1.
<mgrwt>
<rscale>  0 0.14027675E+04</rscale>
<asrwt>0</asrwt>
<pdfrwt beam="1">  1        2 0.32206113E+00 0.14027675E+04</pdfrwt>
<pdfrwt beam="2">  1       -2 0.36153168E-01 0.14027675E+04</pdfrwt>
<totfact> 0.41551575E+01</totfact>
</mgrwt>
</event>
<event>
12    1  0.2019083E-007  0.2525250E+04  0.7818608E-02  0.8394045E-01
          2   -1    0    0  501    0  0.00000000000E+00  0.00000000000E+00  0.91043926762E+03  0.91043926762E+03  0.00000000000E+00 0. -1.
         -2   -1    0    0    0  501 -0.00000000000E+00 -0.00000000000E+00 -0.17510471433E+04  0.17510471433E+04  0.00000000000E+00 0.  1.
         23    2    1    2    0    0  0.61365747960E+03 -0.91212614748E+03 -0.46684383386E+03  0.11979084002E+04  0.92150739288E+02 0.  0.
        254    2    1    2    0    0 -0.61365747960E+03  0.91212614748E+03 -0.37376404181E+03  0.14635780108E+04  0.89096095507E+03 0.  0.
        -24    2    4    4    0    0 -0.29484372863E+03  0.59829185150E+03 -0.64756811021E+03  0.93293836081E+03  0.78380889472E+02 0.  0.
         24    2    4    4    0    0 -0.31881375097E+03  0.31383429598E+03  0.27380406840E+03  0.53063964996E+03  0.80471094778E+02 0.  0.
         11    1    3    3    0    0  0.39126193786E+03 -0.63997528954E+03 -0.34799870300E+03  0.82689622839E+03  0.00000000000E+00 0.  1.
        -11    1    3    3    0    0  0.22239554174E+03 -0.27215085795E+03 -0.11884513086E+03  0.37101217176E+03  0.00000000000E+00 0. -1.
          4    1    6    6  502    0 -0.27369324987E+03  0.24719319959E+03  0.25386432376E+03  0.44772711312E+03  0.00000000000E+00 0. -1.
          1    1    5    5  503    0 -0.19948097597E+03  0.37111927196E+03 -0.35932555704E+03  0.55374816454E+03  0.00000000000E+00 0. -1.
         -4    1    5    5    0  503 -0.95362752663E+02  0.22717257954E+03 -0.28824255317E+03  0.37919019627E+03  0.00000000000E+00 0.  1.
         -3    1    6    6    0  502 -0.45120501094E+02  0.66641096396E+02  0.19939744636E+02  0.82912536833E+02  0.00000000000E+00 0.  1.
<mgrwt>
<rscale>  0 0.25252501E+04</rscale>
<asrwt>0</asrwt>
<pdfrwt beam="1">  1        2 0.14006758E+00 0.25252501E+04</pdfrwt>
<pdfrwt beam="2">  1       -2 0.26939187E+00 0.25252501E+04</pdfrwt>
<totfact> 0.12551013E+00</totfact>
</mgrwt>
</event>
<event>
12    1  0.2019083E-007  0.1701026E+04  0.7818608E-02  0.8760780E-01
          1   -1    0    0  501    0  0.00000000000E+00  0.00000000000E+00  0.15739869935E+04  0.15739869935E+04  0.00000000000E+00 0. -1.
         -1   -1    0    0    0  501 -0.00000000000E+00 -0.00000000000E+00 -0.45957942181E+03  0.45957942181E+03  0.00000000000E+00 0.  1.
         23    2    1    2    0    0 -0.10007019989E+03 -0.59836690353E+03  0.44809711928E+03  0.75959448731E+03  0.90198451738E+02 0.  0.
        254    2    1    2    0    0  0.10007019989E+03  0.59836690353E+03  0.66631045244E+03  0.12739719280E+04  0.90054309072E+03 0.  0.
        -24    2    4    4    0    0  0.37484990929E+02  0.80862954154E+03  0.64667190329E+03  0.10393647495E+04  0.82508617813E+02 0.  0.
         24    2    4    4    0    0  0.62585208963E+02 -0.21026263801E+03  0.19638549154E+02  0.23460717853E+03  0.80793380178E+02 0.  0.
         11    1    3    3    0    0  0.60892120745E+00 -0.15195302206E+03  0.14950401651E+03  0.21317021990E+03  0.00000000000E+00 0. -1.
        -11    1    3    3    0    0 -0.10067912110E+03 -0.44641388147E+03  0.29859310277E+03  0.54642426741E+03  0.00000000000E+00 0.  1.
          2    1    6    6  502    0  0.36845650366E+02 -0.20376681702E+03  0.20203805909E+02  0.20805458765E+03  0.00000000000E+00 0. -1.
          1    1    5    5  503    0  0.16213494532E+02  0.76404116310E+03  0.60395251620E+03  0.97405360127E+03  0.00000000000E+00 0. -1.
         -2    1    5    5    0  503  0.21271496397E+02  0.44588378438E+02  0.42719387089E+02  0.65311148236E+02  0.00000000000E+00 0.  1.
         -1    1    6    6    0  502  0.25739558597E+02 -0.64958209885E+01 -0.56525675574E+00  0.26552590877E+02  0.00000000000E+00 0.  1.
<mgrwt>
<rscale>  0 0.17010256E+04</rscale>
<asrwt>0</asrwt>
<pdfrwt beam="1">  1        1 0.24215184E+00 0.17010256E+04</pdfrwt>
<pdfrwt beam="2">  1       -1 0.70704527E-01 0.17010256E+04</pdfrwt>
<totfact> 0.11182325E+01</totfact>
</mgrwt>
</event>
<event>
12    1  0.2019083E-007  0.1719285E+04  0.7818608E-02  0.8750441E-01
          1   -1    0    0  501    0  0.00000000000E+00  0.00000000000E+00  0.17502594895E+04  0.17502594895E+04  0.00000000000E+00 0. -1.
         -1   -1    0    0    0  501 -0.00000000000E+00 -0.00000000000E+00 -0.42221479699E+03  0.42221479699E+03  0.00000000000E+00 0.  1.
         23    2    1    2    0    0  0.35244795817E+03 -0.46996472016E+03  0.23436236932E+03  0.63886292259E+03  0.90187096054E+02 0.  0.
        254    2    1    2    0    0 -0.35244795817E+03  0.46996472016E+03  0.10936823232E+04  0.15336113639E+04  0.90040901261E+03 0.  0.
        -24    2    4    4    0    0 -0.20763735682E+03  0.72923103551E+03  0.71519291615E+03  0.10455203393E+04  0.81979860409E+02 0.  0.
         24    2    4    4    0    0 -0.14481060135E+03 -0.25926631535E+03  0.37848940702E+03  0.48809102456E+03  0.82398328207E+02 0.  0.
         11    1    3    3    0    0  0.14106294718E+03 -0.12374985781E+03  0.91735852461E+02  0.20887376332E+03  0.00000000000E+00 0. -1.
        -11    1    3    3    0    0  0.21138501099E+03 -0.34621486235E+03  0.14262651686E+03  0.42998915928E+03  0.00000000000E+00 0.  1.
          4    1    6    6  502    0 -0.91090120200E+02 -0.19331081719E+03  0.32024090152E+03  0.38499443768E+03  0.00000000000E+00 0. -1.
          1    1    5    5  503    0 -0.19644736013E+03  0.59739328263E+03  0.56545376806E+03  0.84569986594E+03  0.00000000000E+00 0. -1.
         -2    1    5    5    0  503 -0.11189996691E+02  0.13183775288E+03  0.14973914809E+03  0.19982047338E+03  0.00000000000E+00 0.  1.
         -3    1    6    6    0  502 -0.53720481154E+02 -0.65955498165E+02  0.58248505504E+02  0.10309658688E+03  0.00000000000E+00 0.  1.
<mgrwt>
<rscale>  0 0.17192853E+04</rscale>
<asrwt>0</asrwt>
<pdfrwt beam="1">  1        1 0.26927069E+00 0.17192853E+04</pdfrwt>
<pdfrwt beam="2">  1       -1 0.64956123E-01 0.17192853E+04</pdfrwt>
<totfact> 0.10054898E+01</totfact>
</mgrwt>
</event>
<event>
12    1  0.2019083E-007  0.3524468E+04  0.7818608E-02  0.8108016E-01
         -1   -1    0    0    0  501 -0.00000000000E+00  0.00000000000E+00  0.18784169462E+04  0.18784169462E+04  0.00000000000E+00 0.  1.
          1   -1    0    0  501    0  0.00000000000E+00 -0.00000000000E+00 -0.16532374544E+04  0.16532374544E+04  0.00000000000E+00 0. -1.
         23    2    1    2    0    0  0.13172791544E+04 -0.10021002527E+03  0.10893218550E+04  0.17147576649E+04  0.92224322310E+02 0.  0.
        254    2    1    2    0    0 -0.13172791544E+04  0.10021002527E+03 -0.86414236317E+03  0.18168967358E+04  0.89950280976E+03 0.  0.
        -24    2    4    4    0    0 -0.98701414804E+03  0.31307531730E+03 -0.94747514017E+03  0.14061806831E+04  0.86150389786E+02 0.  0.
         24    2    4    4    0    0 -0.33026500639E+03 -0.21286529203E+03  0.83332777007E+02  0.41071605263E+03  0.85771307344E+02 0.  0.
         13    1    3    3    0    0  0.98112566440E+03 -0.10053964299E+03  0.77183744650E+03  0.12523772726E+04  0.00000000000E+00 0.  1.
        -13    1    3    3    0    0  0.33615349003E+03  0.32961772313E+00  0.31748440847E+03  0.46238039225E+03  0.00000000000E+00 0. -1.
          2    1    6    6  502    0 -0.31871443086E+03 -0.21562553806E+03  0.92439728169E+02  0.39575038148E+03  0.00000000000E+00 0. -1.
          1    1    5    5  503    0 -0.63182411781E+03  0.20272795410E+03 -0.66210950495E+03  0.93738430527E+03  0.00000000000E+00 0. -1.
         -2    1    5    5    0  503 -0.35519003023E+03  0.11034736320E+03 -0.28536563522E+03  0.46879637787E+03  0.00000000000E+00 0.  1.
         -1    1    6    6    0  502 -0.11550575534E+02  0.27602460287E+01 -0.91069511621E+01  0.14965671144E+02  0.00000000000E+00 0.  1.
<mgrwt>
<rscale>  0 0.35244683E+04</rscale>
<asrwt>0</asrwt>
<pdfrwt beam="1">  1        1 0.25434422E+00 0.35244683E+04</pdfrwt>
<pdfrwt beam="2">  1       -1 0.28898722E+00 0.35244683E+04</pdfrwt>
<totfact> 0.16256645E-01</totfact>
</mgrwt>
</event>
<event>
12    1  0.2098400E-007  0.2393143E+04  0.7818608E-02  0.8442075E-01
         -3   -1    0    0    0  501 -0.00000000000E+00  0.00000000000E+00  0.64110355882E+03  0.64110355882E+03  0.00000000000E+00 0.  1.
          3   -1    0    0  501    0  0.00000000000E+00 -0.00000000000E+00 -0.22333098080E+04  0.22333098080E+04  0.00000000000E+00 0. -1.
         23    2    1    2    0    0  0.59557397087E+03 -0.69733971214E+03 -0.12238622290E+04  0.15320357942E+04  0.91125684335E+02 0.  0.
        254    2    1    2    0    0 -0.59557397087E+03  0.69733971214E+03 -0.36834402017E+03  0.13423775726E+04  0.90846529996E+03 0.  0.
        -24    2    4    4    0    0 -0.81649725468E+03  0.41836660517E+03 -0.20759783842E+03  0.94390529346E+03  0.78498135557E+02 0.  0.
         24    2    4    4    0    0  0.22092328381E+03  0.27897310697E+03 -0.16074618174E+03  0.39847227911E+03  0.79421222196E+02 0.  0.
         13    1    3    3    0    0  0.10089189727E+03 -0.16372652978E+03 -0.22014200466E+03  0.29231499056E+03  0.00000000000E+00 0.  1.
        -13    1    3    3    0    0  0.49468207360E+03 -0.53361318236E+03 -0.10037202243E+04  0.12397208037E+04  0.00000000000E+00 0. -1.
          2    1    6    6  502    0  0.28695741270E+02  0.38221943473E+01 -0.11840443362E+02  0.31277001705E+02  0.00000000000E+00 0. -1.
          3    1    5    5  503    0 -0.81954741084E+02  0.59149217536E+02 -0.42960774846E+02  0.10982184526E+03  0.00000000000E+00 0. -1.
         -4    1    5    5    0  503 -0.73454251359E+03  0.35921738764E+03 -0.16463706358E+03  0.83408344820E+03  0.00000000000E+00 0.  1.
         -1    1    6    6    0  502  0.19222754254E+03  0.27515091262E+03 -0.14890573838E+03  0.36719527741E+03  0.00000000000E+00 0.  1.
<mgrwt>
<rscale>  0 0.23931426E+04</rscale>
<asrwt>0</asrwt>
<pdfrwt beam="1">  1        3 0.34358612E+00 0.23931426E+04</pdfrwt>
<pdfrwt beam="2">  1       -3 0.98631317E-01 0.23931426E+04</pdfrwt>
<totfact> 0.47325757E-02</totfact>
</mgrwt>
</event>
<event>
12    1  0.2019083E-007  0.2670871E+04  0.7818608E-02  0.8344519E-01
         -1   -1    0    0    0  501 -0.00000000000E+00  0.00000000000E+00  0.63081191994E+03  0.63081191994E+03  0.00000000000E+00 0.  1.
          1   -1    0    0  501    0  0.00000000000E+00 -0.00000000000E+00 -0.28271300596E+04  0.28271300596E+04  0.00000000000E+00 0. -1.
         23    2    1    2    0    0  0.11792020716E+04 -0.49894821198E+02 -0.10013211794E+04  0.15505477367E+04  0.92450854501E+02 0.  0.
        254    2    1    2    0    0 -0.11792020716E+04  0.49894821198E+02 -0.11949969603E+04  0.19073942429E+04  0.90395135047E+03 0.  0.
        -24    2    4    4    0    0  0.58614699209E+02 -0.14046996337E+03  0.38369465436E+01  0.17167414472E+03  0.79308235602E+02 0.  0.
         24    2    4    4    0    0 -0.12378167708E+04  0.19036478457E+03 -0.11988339068E+04  0.17357200982E+04  0.84216470234E+02 0.  0.
         11    1    3    3    0    0  0.89332372416E+03 -0.29947746605E+00 -0.77300419204E+03  0.11813394291E+04  0.00000000000E+00 0. -1.
        -11    1    3    3    0    0  0.28587834742E+03 -0.49595343732E+02 -0.22831698737E+03  0.36920830756E+03  0.00000000000E+00 0.  1.
          2    1    6    6  502    0 -0.15847098489E+03  0.20662191220E+02 -0.19357971901E+03  0.25102407616E+03  0.00000000000E+00 0. -1.
          1    1    5    5  503    0  0.14824734114E+02 -0.11807425784E+03  0.18316060019E+02  0.12040257954E+03  0.00000000000E+00 0. -1.
         -2    1    5    5    0  503  0.43789965094E+02 -0.22395705538E+02 -0.14479113475E+02  0.51271565185E+02  0.00000000000E+00 0.  1.
         -1    1    6    6    0  502 -0.10793457859E+04  0.16970259335E+03 -0.10052541878E+04  0.14846960220E+04  0.00000000000E+00 0.  1.
<mgrwt>
<rscale>  0 0.26708705E+04</rscale>
<asrwt>0</asrwt>
<pdfrwt beam="1">  1        1 0.43494309E+00 0.26708705E+04</pdfrwt>
<pdfrwt beam="2">  1       -1 0.97047986E-01 0.26708705E+04</pdfrwt>
<totfact> 0.71157756E-01</totfact>
</mgrwt>
</event>
<event>
12    1  0.2019083E-007  0.4004766E+04  0.7818608E-02  0.8003586E-01
          2   -1    0    0  501    0  0.00000000000E+00  0.00000000000E+00  0.24736969045E+04  0.24736969045E+04  0.00000000000E+00 0. -1.
         -2   -1    0    0    0  501 -0.00000000000E+00 -0.00000000000E+00 -0.16208682648E+04  0.16208682648E+04  0.00000000000E+00 0.  1.
         23    2    1    2    0    0 -0.13338744494E+04  0.27448208086E+03  0.17572059582E+04  0.22249359528E+04  0.89474886178E+02 0.  0.
        254    2    1    2    0    0  0.13338744494E+04 -0.27448208086E+03 -0.90437731846E+03  0.18696292165E+04  0.90722302313E+03 0.  0.
        -24    2    4    4    0    0  0.67531537251E+03 -0.57761922463E+03 -0.62246939386E+03  0.10877978558E+04  0.78365858828E+02 0.  0.
         24    2    4    4    0    0  0.65855907685E+03  0.30313714377E+03 -0.28190792460E+03  0.78183136068E+03  0.78714756920E+02 0.  0.
         11    1    3    3    0    0 -0.36640726251E+03  0.98305493092E+02  0.54453183651E+03  0.66365139416E+03  0.00000000000E+00 0. -1.
        -11    1    3    3    0    0 -0.96746718686E+03  0.17617658777E+03  0.12126741216E+04  0.15612845586E+04  0.00000000000E+00 0.  1.
          2    1    6    6  502    0  0.17774036932E+02  0.63506478120E+00 -0.19015829571E+02  0.26036925134E+02  0.00000000000E+00 0. -1.
          3    1    5    5  503    0  0.22034537614E+03 -0.14958137460E+03 -0.16158900423E+03  0.31150871369E+03  0.00000000000E+00 0. -1.
         -4    1    5    5    0  503  0.45496999636E+03 -0.42803785004E+03 -0.46088038962E+03  0.77628914213E+03  0.00000000000E+00 0.  1.
         -1    1    6    6    0  502  0.64078503992E+03  0.30250207899E+03 -0.26289209503E+03  0.75579443555E+03  0.00000000000E+00 0.  1.
<mgrwt>
<rscale>  0 0.40047656E+04</rscale>
<asrwt>0</asrwt>
<pdfrwt beam="1">  1        2 0.38056876E+00 0.40047656E+04</pdfrwt>
<pdfrwt beam="2">  1       -2 0.24936435E+00 0.40047656E+04</pdfrwt>
<totfact> 0.18436225E-01</totfact>
</mgrwt>
</event>
<event>
12    1  0.2019083E-007  0.2065022E+04  0.7818608E-02  0.8576810E-01
          2   -1    0    0  501    0  0.00000000000E+00  0.00000000000E+00  0.10845337981E+04  0.10845337981E+04  0.00000000000E+00 0. -1.
         -2   -1    0    0    0  501 -0.00000000000E+00 -0.00000000000E+00 -0.98298386922E+03  0.98298386922E+03  0.00000000000E+00 0.  1.
         23    2    1    2    0    0 -0.54452432566E+03  0.10454591088E+03 -0.58217323874E+03  0.80897422803E+03  0.89872315022E+02 0.  0.
        254    2    1    2    0    0  0.54452432566E+03 -0.10454591088E+03  0.68372316759E+03  0.12585434393E+04  0.89945407326E+03 0.  0.
        -24    2    4    4    0    0  0.26924477816E+03  0.39279603226E+03  0.29787449307E+03  0.56689033118E+03  0.76511178517E+02 0.  0.
         24    2    4    4    0    0  0.27527954749E+03 -0.49734194314E+03  0.38584867452E+03  0.69165310809E+03  0.79856024295E+02 0.  0.
         13    1    3    3    0    0 -0.40127362173E+03  0.58868907034E+02 -0.37042095332E+03  0.54927019796E+03  0.00000000000E+00 0. -1.
        -13    1    3    3    0    0 -0.14325070393E+03  0.45677003851E+02 -0.21175228542E+03  0.25970403007E+03  0.00000000000E+00 0.  1.
          2    1    6    6  502    0  0.62066943304E+02 -0.78926692483E+02  0.38460860256E+02  0.10752193269E+03  0.00000000000E+00 0. -1.
          3    1    5    5  503    0  0.10123870258E+03  0.21404277443E+03  0.13751660213E+03  0.27381453586E+03  0.00000000000E+00 0. -1.
         -4    1    5    5    0  503  0.16800607558E+03  0.17875325783E+03  0.16035789094E+03  0.29307579532E+03  0.00000000000E+00 0.  1.
         -1    1    6    6    0  502  0.21321260419E+03 -0.41841525066E+03  0.34738781427E+03  0.58413117540E+03  0.00000000000E+00 0.  1.
<mgrwt>
<rscale>  0 0.20650223E+04</rscale>
<asrwt>0</asrwt>
<pdfrwt beam="1">  1        2 0.16685135E+00 0.20650223E+04</pdfrwt>
<pdfrwt beam="2">  1       -2 0.15122829E+00 0.20650223E+04</pdfrwt>
<totfact> 0.60348847E+00</totfact>
</mgrwt>
</event>
<event>
12    1  0.2019083E-007  0.1744747E+04  0.7818608E-02  0.8736247E-01
         -1   -1    0    0    0  501 -0.00000000000E+00  0.00000000000E+00  0.42158886387E+03  0.42158886387E+03  0.00000000000E+00 0.  1.
          1   -1    0    0  501    0  0.00000000000E+00 -0.00000000000E+00 -0.18051612882E+04  0.18051612882E+04  0.00000000000E+00 0. -1.
         23    2    1    2    0    0 -0.39083577914E+03  0.48108693916E+03 -0.69223874438E+03  0.93353067507E+03  0.89932156571E+02 0.  0.
        254    2    1    2    0    0  0.39083577914E+03 -0.48108693916E+03 -0.69133368000E+03  0.12932194771E+04  0.90015393653E+03 0.  0.
        -24    2    4    4    0    0  0.35472515629E+03 -0.54370436564E+03 -0.64550961098E+02  0.65721722111E+03  0.79519025519E+02 0.  0.
         24    2    4    4    0    0  0.36110622853E+02  0.62617426481E+02 -0.62678271890E+03  0.63600225595E+03  0.80108511914E+02 0.  0.
         11    1    3    3    0    0 -0.22625882362E+03  0.24888604425E+03 -0.43518578246E+03  0.55002180279E+03  0.00000000000E+00 0. -1.
        -11    1    3    3    0    0 -0.16457695552E+03  0.23220089490E+03 -0.25705296192E+03  0.38350887228E+03  0.00000000000E+00 0.  1.
          4    1    6    6  502    0  0.27724318679E+02  0.18001898108E+01 -0.62589490824E+02  0.68478630909E+02  0.00000000000E+00 0. -1.
          3    1    5    5  503    0  0.22157618989E+03 -0.26721315852E+03 -0.31180493770E+02  0.34852704803E+03  0.00000000000E+00 0. -1.
         -4    1    5    5    0  503  0.13314896640E+03 -0.27649120712E+03 -0.33370467328E+02  0.30869017308E+03  0.00000000000E+00 0.  1.
         -3    1    6    6    0  502  0.83863041736E+01  0.60817236670E+02 -0.56419322807E+03  0.56752362504E+03  0.00000000000E+00 0.  1.
<mgrwt>
<rscale>  0 0.17447474E+04</rscale>
<asrwt>0</asrwt>
<pdfrwt beam="1">  1        1 0.27771712E+00 0.17447474E+04</pdfrwt>
<pdfrwt beam="2">  1       -1 0.64859826E-01 0.17447474E+04</pdfrwt>
<totfact> 0.92340133E+00</totfact>
</mgrwt>
</event>
<event>
12    1  0.2019083E-007  0.2435555E+04  0.7818608E-02  0.8426311E-01
         -1   -1    0    0    0  501 -0.00000000000E+00  0.00000000000E+00  0.37992414895E+03  0.37992414895E+03  0.00000000000E+00 0.  1.
          1   -1    0    0  501    0  0.00000000000E+00 -0.00000000000E+00 -0.39033634480E+04  0.39033634480E+04  0.00000000000E+00 0. -1.
         23    2    1    2    0    0 -0.73704570997E+03 -0.74065605976E+03 -0.17046789712E+04  0.20014365479E+04  0.89499068106E+02 0.  0.
        254    2    1    2    0    0  0.73704570997E+03  0.74065605976E+03 -0.18187603278E+04  0.22818510490E+04  0.89841377002E+03 0.  0.
        -24    2    4    4    0    0  0.57921081506E+03 -0.27202928161E+02 -0.68316949659E+03  0.89968984103E+03  0.80598271728E+02 0.  0.
         24    2    4    4    0    0  0.15783489491E+03  0.76785898792E+03 -0.11355908313E+04  0.13821612080E+04  0.79270356015E+02 0.  0.
         13    1    3    3    0    0 -0.69374288646E+03 -0.69632363477E+03 -0.16389461889E+04  0.19110966504E+04  0.00000000000E+00 0. -1.
        -13    1    3    3    0    0 -0.43302823502E+02 -0.44332424989E+02 -0.65732782222E+02  0.90339897539E+02  0.00000000000E+00 0.  1.
          4    1    6    6  502    0  0.63033323001E+02  0.15817532408E+03 -0.26884486970E+03  0.31822978635E+03  0.00000000000E+00 0. -1.
          1    1    5    5  503    0  0.34941865395E+02  0.64447501973E+01 -0.18842153038E+02  0.40218099079E+02  0.00000000000E+00 0. -1.
         -2    1    5    5    0  503  0.54426894966E+03 -0.33647678359E+02 -0.66432734355E+03  0.85947174195E+03  0.00000000000E+00 0.  1.
         -3    1    6    6    0  502  0.94801571905E+02  0.60968366384E+03 -0.86674596156E+03  0.10639314216E+04  0.00000000000E+00 0.  1.
<mgrwt>
<rscale>  0 0.24355550E+04</rscale>
<asrwt>0</asrwt>
<pdfrwt beam="1">  1        1 0.60051745E+00 0.24355550E+04</pdfrwt>
<pdfrwt beam="2">  1       -1 0.58449869E-01 0.24355550E+04</pdfrwt>
<totfact> 0.30940997E-01</totfact>
</mgrwt>
</event>
<event>
12    1  0.2019083E-007  0.2164533E+04  0.7818608E-02  0.8533337E-01
          1   -1    0    0  501    0  0.00000000000E+00  0.00000000000E+00  0.14635293810E+04  0.14635293810E+04  0.00000000000E+00 0. -1.
         -1   -1    0    0    0  501 -0.00000000000E+00 -0.00000000000E+00 -0.80032582097E+03  0.80032582097E+03  0.00000000000E+00 0.  1.
         23    2    1    2    0    0 -0.72131811005E+03 -0.28310511743E+03 -0.18842379248E+03  0.80266297993E+03  0.91192161803E+02 0.  0.
        254    2    1    2    0    0  0.72131811005E+03  0.28310511743E+03  0.85162735248E+03  0.14611922220E+04  0.89964728576E+03 0.  0.
        -24    2    4    4    0    0  0.63373450101E+03 -0.15911501680E+03  0.73899233030E+03  0.98959725586E+03  0.79095247757E+02 0.  0.
         24    2    4    4    0    0  0.87583609038E+02  0.44222013423E+03  0.11263502218E+03  0.47159496615E+03  0.80533397956E+02 0.  0.
         11    1    3    3    0    0 -0.27487243170E+03 -0.13291899014E+03 -0.11336414846E+03  0.32568964031E+03  0.00000000000E+00 0.  1.
        -11    1    3    3    0    0 -0.44644567835E+03 -0.15018612729E+03 -0.75059644019E+02  0.47697333962E+03  0.00000000000E+00 0. -1.
          2    1    6    6  502    0  0.90618671814E+02  0.38259437872E+03  0.12084157835E+03  0.41133063267E+03  0.00000000000E+00 0. -1.
          1    1    5    5  503    0  0.34849773767E+03 -0.12774634747E+03  0.41109531875E+03  0.55386746028E+03  0.00000000000E+00 0. -1.
         -2    1    5    5    0  503  0.28523676334E+03 -0.31368669336E+02  0.32789701155E+03  0.43572979559E+03  0.00000000000E+00 0.  1.
         -1    1    6    6    0  502 -0.30350627759E+01  0.59625755507E+02 -0.82065561745E+01  0.60264333483E+02  0.00000000000E+00 0.  1.
<mgrwt>
<rscale>  0 0.21645326E+04</rscale>
<asrwt>0</asrwt>
<pdfrwt beam="1">  1        1 0.22515836E+00 0.21645326E+04</pdfrwt>
<pdfrwt beam="2">  1       -1 0.12312705E+00 0.21645326E+04</pdfrwt>
<totfact> 0.36851555E+00</totfact>
</mgrwt>
</event>
<event>
12    1  0.2019083E-007  0.2644492E+04  0.7818608E-02  0.8353243E-01
         -1   -1    0    0    0  501 -0.00000000000E+00  0.00000000000E+00  0.50249127847E+03  0.50249127847E+03  0.00000000000E+00 0.  1.
          1   -1    0    0  501    0  0.00000000000E+00 -0.00000000000E+00 -0.34793330392E+04  0.34793330392E+04  0.00000000000E+00 0. -1.
         23    2    1    2    0    0  0.11596765620E+04  0.69755444705E+02 -0.14308606164E+04  0.18454052020E+04  0.91884197077E+02 0.  0.
        254    2    1    2    0    0 -0.11596765620E+04 -0.69755444705E+02 -0.15459811443E+04  0.21364191156E+04  0.90802719583E+03 0.  0.
        -24    2    4    4    0    0 -0.35424464381E+03 -0.22082159389E+02  0.30040131750E+02  0.36397712687E+03  0.74833481401E+02 0.  0.
         24    2    4    4    0    0 -0.80543191820E+03 -0.47673285316E+02 -0.15760212761E+04  0.17724419887E+04  0.81940367261E+02 0.  0.
         13    1    3    3    0    0  0.76534788765E+03  0.79759450020E+02 -0.90177589765E+03  0.11854613990E+04  0.00000000000E+00 0.  1.
        -13    1    3    3    0    0  0.39432867436E+03 -0.10004005315E+02 -0.52908471873E+03  0.65994380302E+03  0.00000000000E+00 0. -1.
          4    1    6    6  502    0 -0.22782406820E+03  0.21742324173E+02 -0.46931277072E+03  0.52214079660E+03  0.00000000000E+00 0. -1.
          1    1    5    5  503    0 -0.51301507372E+02  0.21089233980E+01 -0.21618474191E+02  0.55710417723E+02  0.00000000000E+00 0. -1.
         -2    1    5    5    0  503 -0.30294313643E+03 -0.24191082787E+02  0.51658605941E+02  0.30826670914E+03  0.00000000000E+00 0.  1.
         -3    1    6    6    0  502 -0.57760785000E+03 -0.69415609489E+02 -0.11067085054E+04  0.12503011921E+04  0.00000000000E+00 0.  1.
<mgrwt>
<rscale>  0 0.26444920E+04</rscale>
<asrwt>0</asrwt>
<pdfrwt beam="1">  1        1 0.53528201E+00 0.26444920E+04</pdfrwt>
<pdfrwt beam="2">  1       -1 0.77306350E-01 0.26444920E+04</pdfrwt>
<totfact> 0.38190815E-01</totfact>
</mgrwt>
</event>
<event>
12    1  0.2019083E-007  0.2687971E+04  0.7818608E-02  0.8338919E-01
          2   -1    0    0  501    0  0.00000000000E+00  0.00000000000E+00  0.72656655235E+03  0.72656655235E+03  0.00000000000E+00 0. -1.
         -2   -1    0    0    0  501 -0.00000000000E+00 -0.00000000000E+00 -0.24860715925E+04  0.24860715925E+04  0.00000000000E+00 0.  1.
         23    2    1    2    0    0 -0.11483079079E+04  0.29761120396E+02 -0.11644449984E+04  0.16381074929E+04  0.89259332750E+02 0.  0.
        254    2    1    2    0    0  0.11483079079E+04 -0.29761120396E+02 -0.59506004176E+03  0.15745306520E+04  0.89752634786E+03 0.  0.
        -24    2    4    4    0    0  0.10154421843E+04  0.19498823691E+03 -0.73143212461E+03  0.12695445405E+04  0.87218949717E+02 0.  0.
         24    2    4    4    0    0  0.13286572355E+03 -0.22474935731E+03  0.13637208285E+03  0.30498611145E+03  0.79079764119E+02 0.  0.
         11    1    3    3    0    0 -0.27739548006E+03 -0.16572654387E+02 -0.23991052430E+03  0.36712390946E+03  0.00000000000E+00 0.  1.
        -11    1    3    3    0    0 -0.87091242781E+03  0.46333774784E+02 -0.92453447413E+03  0.12709835835E+04  0.00000000000E+00 0. -1.
          4    1    6    6  502    0  0.10025325198E+03 -0.12378083745E+03  0.46501893454E+02  0.16593624181E+03  0.00000000000E+00 0. -1.
          3    1    5    5  503    0  0.70464738603E+03  0.15367886607E+03 -0.55280678453E+03  0.90870263207E+03  0.00000000000E+00 0. -1.
         -4    1    5    5    0  503  0.31079479829E+03  0.41309370842E+02 -0.17862534008E+03  0.36084190843E+03  0.00000000000E+00 0.  1.
         -3    1    6    6    0  502  0.32612471568E+02 -0.10096851986E+03  0.89870189398E+02  0.13904986964E+03  0.00000000000E+00 0.  1.
<mgrwt>
<rscale>  0 0.26879706E+04</rscale>
<asrwt>0</asrwt>
<pdfrwt beam="1">  1        2 0.11177947E+00 0.26879706E+04</pdfrwt>
<pdfrwt beam="2">  1       -2 0.38247255E+00 0.26879706E+04</pdfrwt>
<totfact> 0.33109632E-01</totfact>
</mgrwt>
</event>
<event>
12    1  0.2019083E-007  0.2558046E+04  0.7818608E-02  0.8382593E-01
          2   -1    0    0  501    0  0.00000000000E+00  0.00000000000E+00  0.82773695869E+03  0.82773695869E+03  0.00000000000E+00 0.  1.
         -2   -1    0    0    0  501 -0.00000000000E+00 -0.00000000000E+00 -0.19763521169E+04  0.19763521169E+04  0.00000000000E+00 0. -1.
         23    2    1    2    0    0 -0.67062385945E+03 -0.85078480882E+03 -0.20024458050E+03  0.11063280205E+04  0.10145267470E+03 0.  0.
        254    2    1    2    0    0  0.67062385945E+03  0.85078480882E+03 -0.94837057768E+03  0.16977610550E+04  0.89967477214E+03 0.  0.
        -24    2    4    4    0    0  0.94713149016E+02  0.39513408100E+03  0.89727936835E+02  0.42367395752E+03  0.79668042935E+02 0.  0.
         24    2    4    4    0    0  0.57591071043E+03  0.45565072781E+03 -0.10380985145E+04  0.12740870975E+04  0.79741294656E+02 0.  0.
         13    1    3    3    0    0 -0.51467787567E+03 -0.70919800706E+03 -0.14120281678E+03  0.88757724418E+03  0.00000000000E+00 0.  1.
        -13    1    3    3    0    0 -0.15594598378E+03 -0.14158680176E+03 -0.59041763711E+02  0.21875077634E+03  0.00000000000E+00 0. -1.
          4    1    6    6  502    0  0.40276281146E+03  0.33948769406E+03 -0.68636127623E+03  0.86519453201E+03  0.00000000000E+00 0. -1.
          3    1    5    5  503    0  0.61122787398E+02  0.36020309839E+03  0.83915851061E+02  0.37486549226E+03  0.00000000000E+00 0. -1.
         -4    1    5    5    0  503  0.33590361618E+02  0.34930982617E+02  0.58120857739E+01  0.48808465263E+02  0.00000000000E+00 0.  1.
         -3    1    6    6    0  502  0.17314789898E+03  0.11616303375E+03 -0.35173723829E+03  0.40889256551E+03  0.00000000000E+00 0.  1.
<mgrwt>
<rscale>  0 0.25580459E+04</rscale>
<asrwt>0</asrwt>
<pdfrwt beam="1">  1        2 0.12734415E+00 0.25580459E+04</pdfrwt>
<pdfrwt beam="2">  1       -2 0.30405417E+00 0.25580459E+04</pdfrwt>
<totfact> 0.87683729E-01</totfact>
</mgrwt>
</event>
<event>
12    1  0.2019083E-007  0.1784664E+04  0.7818608E-02  0.8714498E-01
         -1   -1    0    0    0  501 -0.00000000000E+00  0.00000000000E+00  0.62501710176E+03  0.62501710176E+03  0.00000000000E+00 0.  1.
          1   -1    0    0  501    0  0.00000000000E+00 -0.00000000000E+00 -0.12739753312E+04  0.12739753312E+04  0.00000000000E+00 0. -1.
         23    2    1    2    0    0  0.17458829395E+03  0.47487365715E+03 -0.69702371368E+03  0.86537107485E+03  0.83898612151E+02 0.  0.
        254    2    1    2    0    0 -0.17458829395E+03 -0.47487365715E+03  0.48065484270E+02  0.10336213581E+04  0.90004264257E+03 0.  0.
        -24    2    4    4    0    0 -0.29632906742E+03 -0.54121796872E+03  0.33370690367E+03  0.70590302092E+03  0.78809717204E+02 0.  0.
         24    2    4    4    0    0  0.12174077347E+03  0.66344311576E+02 -0.28564141940E+03  0.32771833715E+03  0.81153585387E+02 0.  0.
         13    1    3    3    0    0  0.13855694174E+03  0.41188014554E+03 -0.63743697710E+03  0.77147208645E+03  0.00000000000E+00 0. -1.
        -13    1    3    3    0    0  0.36031352219E+02  0.62993511604E+02 -0.59586736580E+02  0.93898988404E+02  0.00000000000E+00 0.  1.
          4    1    6    6  502    0 -0.37880346030E+01 -0.21049579199E+00 -0.66121495572E+02  0.66230247556E+02  0.00000000000E+00 0. -1.
          1    1    5    5  503    0 -0.12695548207E+03 -0.31315476261E+03  0.18598986961E+03  0.38571470204E+03  0.00000000000E+00 0. -1.
         -2    1    5    5    0  503 -0.16937358536E+03 -0.22806320611E+03  0.14771703406E+03  0.32018831889E+03  0.00000000000E+00 0.  1.
         -3    1    6    6    0  502  0.12552880807E+03  0.66554807368E+02 -0.21951992383E+03  0.26148808959E+03  0.00000000000E+00 0.  1.
<mgrwt>
<rscale>  0 0.17846640E+04</rscale>
<asrwt>0</asrwt>
<pdfrwt beam="1">  1        1 0.19599620E+00 0.17846640E+04</pdfrwt>
<pdfrwt beam="2">  1       -1 0.96156479E-01 0.17846640E+04</pdfrwt>
<totfact> 0.92971692E+00</totfact>
</mgrwt>
</event>
<event>
12    1  0.2019083E-007  0.1187075E+04  0.7818608E-02  0.9124245E-01
          2   -1    0    0  501    0  0.00000000000E+00  0.00000000000E+00  0.32751904205E+04  0.32751904205E+04  0.00000000000E+00 0. -1.
         -2   -1    0    0    0  501 -0.00000000000E+00 -0.00000000000E+00 -0.10756227381E+03  0.10756227381E+03  0.00000000000E+00 0.  1.
         23    2    1    2    0    0 -0.89407935830E+02  0.34019018576E+01  0.13155843923E+04  0.13219600658E+04  0.93865704735E+02 0.  0.
        254    2    1    2    0    0  0.89407935830E+02 -0.34019018576E+01  0.18520437544E+04  0.20607926285E+04  0.89933021601E+03 0.  0.
        -24    2    4    4    0    0  0.16548052386E+03  0.41892564187E+03  0.10982950618E+04  0.11897220346E+04  0.79397604806E+02 0.  0.
         24    2    4    4    0    0 -0.76072588032E+02 -0.42232754373E+03  0.75374869260E+03  0.87107059387E+03  0.80494068526E+02 0.  0.
         13    1    3    3    0    0 -0.88578790942E+02 -0.16873562938E+02  0.12513939345E+04  0.12546384733E+04  0.00000000000E+00 0. -1.
        -13    1    3    3    0    0 -0.82914488768E+00  0.20275464796E+02  0.64190457754E+02  0.67321592528E+02  0.00000000000E+00 0.  1.
          2    1    6    6  502    0 -0.78141411316E+02 -0.40189792160E+03  0.74186972444E+03  0.84734804395E+03  0.00000000000E+00 0. -1.
          1    1    5    5  503    0  0.11786779890E+03  0.31436689551E+03  0.72128437475E+03  0.79559443956E+03  0.00000000000E+00 0. -1.
         -2    1    5    5    0  503  0.47612724961E+02  0.10455874636E+03  0.37701068704E+03  0.39412759503E+03  0.00000000000E+00 0.  1.
         -1    1    6    6    0  502  0.20688232841E+01 -0.20429622131E+02  0.11878968163E+02  0.23722549922E+02  0.00000000000E+00 0.  1.
<mgrwt>
<rscale>  0 0.11870753E+04</rscale>
<asrwt>0</asrwt>
<pdfrwt beam="1">  1        2 0.50387537E+00 0.11870753E+04</pdfrwt>
<pdfrwt beam="2">  1       -2 0.16548045E-01 0.11870753E+04</pdfrwt>
<totfact> 0.34656865E+01</totfact>
</mgrwt>
</event>
<event>
12    1  0.2019083E-007  0.1437765E+04  0.7818608E-02  0.8926927E-01
         -1   -1    0    0    0  501 -0.00000000000E+00  0.00000000000E+00  0.56576374896E+03  0.56576374896E+03  0.00000000000E+00 0.  1.
          1   -1    0    0  501    0  0.00000000000E+00 -0.00000000000E+00 -0.91344204059E+03  0.91344204059E+03  0.00000000000E+00 0. -1.
         23    2    1    2    0    0 -0.41135907106E+03 -0.12832135302E+03 -0.13195585504E+03  0.45993563764E+03  0.91900969025E+02 0.  0.
        254    2    1    2    0    0  0.41135907106E+03  0.12832135302E+03 -0.21572243658E+03  0.10192701519E+04  0.89816079737E+03 0.  0.
        -24    2    4    4    0    0 -0.49107478828E+02  0.24975932080E+03  0.23731148647E+03  0.35729843658E+03  0.80957818494E+02 0.  0.
         24    2    4    4    0    0  0.46046654989E+03 -0.12143796778E+03 -0.45303392305E+03  0.66197171532E+03  0.78677778745E+02 0.  0.
         11    1    3    3    0    0 -0.20999822720E+03 -0.21968717447E+02 -0.43134965262E+02  0.21550523242E+03  0.00000000000E+00 0.  1.
        -11    1    3    3    0    0 -0.20136084386E+03 -0.10635263558E+03 -0.88820889779E+02  0.24443040522E+03  0.00000000000E+00 0. -1.
          2    1    6    6  502    0  0.32081155736E+03 -0.11335484281E+03 -0.35083687482E+03  0.48872884963E+03  0.00000000000E+00 0. -1.
          1    1    5    5  503    0 -0.62531553103E+02  0.22497289479E+03  0.23090754688E+03  0.32839198183E+03  0.00000000000E+00 0. -1.
         -2    1    5    5    0  503  0.13424074275E+02  0.24786426006E+02  0.64039395872E+01  0.28906454756E+02  0.00000000000E+00 0.  1.
         -1    1    6    6    0  502  0.13965499253E+03 -0.80831249651E+01 -0.10219704823E+03  0.17324286569E+03  0.00000000000E+00 0.  1.
<mgrwt>
<rscale>  0 0.14377655E+04</rscale>
<asrwt>0</asrwt>
<pdfrwt beam="1">  1        1 0.14052954E+00 0.14377655E+04</pdfrwt>
<pdfrwt beam="2">  1       -1 0.87040577E-01 0.14377655E+04</pdfrwt>
<totfact> 0.22430893E+01</totfact>
</mgrwt>
</event>
<event>
12    1  0.2019083E-007  0.2770306E+04  0.7818608E-02  0.8312547E-01
          2   -1    0    0  501    0  0.00000000000E+00  0.00000000000E+00  0.22154047176E+04  0.22154047176E+04  0.00000000000E+00 0. -1.
         -2   -1    0    0    0  501 -0.00000000000E+00 -0.00000000000E+00 -0.86604879379E+03  0.86604879379E+03  0.00000000000E+00 0.  1.
         23    2    1    2    0    0  0.40126141959E+02  0.12062898480E+04  0.91059832476E+03  0.15147016379E+04  0.91577497639E+02 0.  0.
        254    2    1    2    0    0 -0.40126141959E+02 -0.12062898480E+04  0.43875759902E+03  0.15667518734E+04  0.89747306228E+03 0.  0.
        -24    2    4    4    0    0  0.48568882642E+02 -0.90017675664E+03  0.70278498811E+03  0.11457875472E+04  0.79026793874E+02 0.  0.
         24    2    4    4    0    0 -0.88695024602E+02 -0.30611309139E+03 -0.26402738909E+03  0.42096432629E+03  0.76996556437E+02 0.  0.
         13    1    3    3    0    0  0.42941782633E+01  0.99718661756E+02  0.10922022901E+03  0.14795712181E+03  0.00000000000E+00 0. -1.
        -13    1    3    3    0    0  0.35831963696E+02  0.11065711863E+04  0.80137809575E+03  0.13667445161E+04  0.00000000000E+00 0.  1.
          4    1    6    6  502    0 -0.38165970980E+01 -0.58267693018E+02 -0.87015314916E+02  0.10479196292E+03  0.00000000000E+00 0. -1.
          3    1    5    5  503    0  0.30358951379E+00 -0.60540808208E+03  0.44714662880E+03  0.75263480232E+03  0.00000000000E+00 0. -1.
         -4    1    5    5    0  503  0.48265293128E+02 -0.29476867456E+03  0.25563835931E+03  0.39315274484E+03  0.00000000000E+00 0.  1.
         -3    1    6    6    0  502 -0.84878427504E+02 -0.24784539838E+03 -0.17701207418E+03  0.31617236337E+03  0.00000000000E+00 0.  1.
<mgrwt>
<rscale>  0 0.27703058E+04</rscale>
<asrwt>0</asrwt>
<pdfrwt beam="1">  1        2 0.34083149E+00 0.27703058E+04</pdfrwt>
<pdfrwt beam="2">  1       -2 0.13323828E+00 0.27703058E+04</pdfrwt>
<totfact> 0.18011350E+00</totfact>
</mgrwt>
</event>
<event>
12    1  0.2019083E-007  0.1903923E+04  0.7818608E-02  0.8652906E-01
          2   -1    0    0  501    0  0.00000000000E+00  0.00000000000E+00  0.82880717446E+03  0.82880717446E+03  0.00000000000E+00 0. -1.
         -2   -1    0    0    0  501 -0.00000000000E+00 -0.00000000000E+00 -0.10934160531E+04  0.10934160531E+04  0.00000000000E+00 0.  1.
         23    2    1    2    0    0 -0.73426835082E+03 -0.44452930077E+02 -0.58521249574E+02  0.74288191649E+03  0.85572958323E+02 0.  0.
        254    2    1    2    0    0  0.73426835082E+03  0.44452930077E+02 -0.20608762909E+03  0.11793413111E+04  0.89846966737E+03 0.  0.
        -24    2    4    4    0    0  0.10023734867E+03  0.40612917681E+03 -0.51793531437E+02  0.42893840368E+03  0.79480500325E+02 0.  0.
         24    2    4    4    0    0  0.63403100214E+03 -0.36167624673E+03 -0.15429409766E+03  0.75040290741E+03  0.80578134442E+02 0.  0.
         11    1    3    3    0    0 -0.60575609256E+03 -0.46190661364E+02 -0.79371603536E+02  0.61267762512E+03  0.00000000000E+00 0.  1.
        -11    1    3    3    0    0 -0.12851225825E+03  0.17377312873E+01  0.20850353962E+02  0.13020429137E+03  0.00000000000E+00 0. -1.
          2    1    6    6  502    0  0.24364572193E+03 -0.12069243821E+03 -0.93963699898E+02  0.28767877808E+03  0.00000000000E+00 0. -1.
          1    1    5    5  503    0 -0.13571505119E+02  0.32474411823E+02 -0.45608356917E+01  0.35490483184E+02  0.00000000000E+00 0. -1.
         -2    1    5    5    0  503  0.11380885379E+03  0.37365476498E+03 -0.47232695745E+02  0.39344792050E+03  0.00000000000E+00 0.  1.
         -1    1    6    6    0  502  0.39038528021E+03 -0.24098380852E+03 -0.60330397759E+02  0.46272412933E+03  0.00000000000E+00 0.  1.
<mgrwt>
<rscale>  0 0.19039234E+04</rscale>
<asrwt>0</asrwt>
<pdfrwt beam="1">  1        2 0.12750880E+00 0.19039234E+04</pdfrwt>
<pdfrwt beam="2">  1       -2 0.16821785E+00 0.19039234E+04</pdfrwt>
<totfact> 0.67468277E+00</totfact>
</mgrwt>
</event>
<event>
12    1  0.2019083E-007  0.4999310E+04  0.7818608E-02  0.7828614E-01
         -2   -1    0    0    0  501 -0.00000000000E+00  0.00000000000E+00  0.21295279727E+04  0.21295279727E+04  0.00000000000E+00 0.  1.
          2   -1    0    0  501    0  0.00000000000E+00 -0.00000000000E+00 -0.29341125231E+04  0.29341125231E+04  0.00000000000E+00 0. -1.
         23    2    1    2    0    0  0.21399622819E+04  0.61860448619E+03 -0.13422374151E+04  0.26015574480E+04  0.66255553535E+02 0.  0.
        254    2    1    2    0    0 -0.21399622819E+04 -0.61860448619E+03  0.53765286473E+03  0.24620830477E+04  0.90037339607E+03 0.  0.
        -24    2    4    4    0    0 -0.20562731341E+04 -0.41234965157E+03  0.65435575929E+03  0.21983352973E+04  0.78772978300E+02 0.  0.
         24    2    4    4    0    0 -0.83689147802E+02 -0.20625483461E+03 -0.11670289457E+03  0.26374775044E+03  0.79989874374E+02 0.  0.
         11    1    3    3    0    0  0.16722755469E+04  0.50167067295E+03 -0.10272194197E+04  0.20256748764E+04  0.00000000000E+00 0.  1.
        -11    1    3    3    0    0  0.46768673506E+03  0.11693381324E+03 -0.31501799542E+03  0.57588257160E+03  0.00000000000E+00 0. -1.
          2    1    6    6  502    0 -0.46640475255E+01 -0.66780145940E+02 -0.69817723206E+02  0.96725672418E+02  0.00000000000E+00 0. -1.
          3    1    5    5  503    0 -0.19506637246E+04 -0.40189793663E+03  0.63534962623E+03  0.20905214817E+04  0.00000000000E+00 0. -1.
         -2    1    5    5    0  503 -0.10560940957E+03 -0.10451714948E+02  0.19006133056E+02  0.10781381558E+03  0.00000000000E+00 0.  1.
         -1    1    6    6    0  502 -0.79025100276E+02 -0.13947468867E+03 -0.46885171359E+02  0.16702207802E+03  0.00000000000E+00 0.  1.
<mgrwt>
<rscale>  0 0.49993098E+04</rscale>
<asrwt>0</asrwt>
<pdfrwt beam="1">  1        2 0.45140193E+00 0.49993098E+04</pdfrwt>
<pdfrwt beam="2">  1       -2 0.32761969E+00 0.49993098E+04</pdfrwt>
<totfact> 0.29917295E-02</totfact>
</mgrwt>
</event>
<event>
12    1  0.2019083E-007  0.1849548E+04  0.7818608E-02  0.8680385E-01
         -2   -1    0    0    0  501 -0.00000000000E+00  0.00000000000E+00  0.63026670813E+03  0.63026670813E+03  0.00000000000E+00 0.  1.
          2   -1    0    0  501    0  0.00000000000E+00 -0.00000000000E+00 -0.13568973004E+04  0.13568973004E+04  0.00000000000E+00 0. -1.
         23    2    1    2    0    0 -0.13792223279E+03 -0.66976239331E+03 -0.10507714506E+03  0.69717373133E+03  0.86056954720E+02 0.  0.
        254    2    1    2    0    0  0.13792223279E+03  0.66976239331E+03 -0.62155344717E+03  0.12899902771E+04  0.90007889746E+03 0.  0.
        -24    2    4    4    0    0 -0.26344152821E+03 -0.48065880267E+02 -0.28059635045E+03  0.39608204177E+03  0.80217855206E+02 0.  0.
         24    2    4    4    0    0  0.40136376101E+03  0.71782827358E+03 -0.34095709672E+03  0.89390823538E+03  0.80311222648E+02 0.  0.
         13    1    3    3    0    0  0.87010743741E+01 -0.62010844649E+02  0.31022262172E+01  0.62695114298E+02  0.00000000000E+00 0.  1.
        -13    1    3    3    0    0 -0.14662330717E+03 -0.60775154866E+03 -0.10817937128E+03  0.63447861704E+03  0.00000000000E+00 0. -1.
          2    1    6    6  502    0  0.19932568492E+02  0.50323485671E+02 -0.43983476822E+02  0.69744582084E+02  0.00000000000E+00 0. -1.
          1    1    5    5  503    0 -0.12603258329E+03 -0.53706725905E+02 -0.10266190124E+03  0.17119605844E+03  0.00000000000E+00 0. -1.
         -2    1    5    5    0  503 -0.13740894492E+03  0.56408456383E+01 -0.17793444920E+03  0.22488598333E+03  0.00000000000E+00 0.  1.
         -1    1    6    6    0  502  0.38143119251E+03  0.66750478791E+03 -0.29697361990E+03  0.82416365330E+03  0.00000000000E+00 0.  1.
<mgrwt>
<rscale>  0 0.18495483E+04</rscale>
<asrwt>0</asrwt>
<pdfrwt beam="1">  1        2 0.20875343E+00 0.18495483E+04</pdfrwt>
<pdfrwt beam="2">  1       -2 0.96964110E-01 0.18495483E+04</pdfrwt>
<totfact> 0.12799735E+01</totfact>
</mgrwt>
</event>
<event>
12    1  0.2019083E-007  0.1811059E+04  0.7818608E-02  0.8700441E-01
          2   -1    0    0  501    0  0.00000000000E+00  0.00000000000E+00  0.10159831098E+04  0.10159831098E+04  0.00000000000E+00 0. -1.
         -2   -1    0    0    0  501 -0.00000000000E+00 -0.00000000000E+00 -0.80708376741E+03  0.80708376741E+03  0.00000000000E+00 0.  1.
         23    2    1    2    0    0 -0.29326958545E+03  0.26802339349E+03  0.63170808668E+03  0.75215306342E+03  0.93997525662E+02 0.  0.
        254    2    1    2    0    0  0.29326958545E+03 -0.26802339349E+03 -0.42280874424E+03  0.10709138138E+04  0.90013641924E+03 0.  0.
        -24    2    4    4    0    0  0.16151085376E+03 -0.52060410284E+03 -0.52186147270E+03  0.75898324477E+03  0.81251346963E+02 0.  0.
         24    2    4    4    0    0  0.13175873169E+03  0.25258070935E+03  0.99052728459E+02  0.31193056906E+03  0.79572977742E+02 0.  0.
         11    1    3    3    0    0 -0.25132929097E+03  0.22936541698E+03  0.59144281968E+03  0.68233387425E+03  0.00000000000E+00 0. -1.
        -11    1    3    3    0    0 -0.41940294480E+02  0.38657976513E+02  0.40265266994E+02  0.69819189162E+02  0.00000000000E+00 0.  1.
          2    1    6    6  502    0 -0.21838566416E+01  0.20415377068E+02  0.27852967931E+02  0.34602668586E+02  0.00000000000E+00 0. -1.
          1    1    5    5  503    0  0.14010871048E+03 -0.36791669772E+03 -0.41063173122E+03  0.56886867193E+03  0.00000000000E+00 0. -1.
         -2    1    5    5    0  503  0.21402143274E+02 -0.15268740512E+03 -0.11122974148E+03  0.19011457284E+03  0.00000000000E+00 0.  1.
         -1    1    6    6    0  502  0.13394258833E+03  0.23216533228E+03  0.71199760528E+02  0.27732790047E+03  0.00000000000E+00 0.  1.
<mgrwt>
<rscale>  0 0.18110588E+04</rscale>
<asrwt>0</asrwt>
<pdfrwt beam="1">  1        2 0.15630509E+00 0.18110588E+04</pdfrwt>
<pdfrwt beam="2">  1       -2 0.12416673E+00 0.18110588E+04</pdfrwt>
<totfact> 0.11315093E+01</totfact>
</mgrwt>
</event>
<event>
12    1  0.2019083E-007  0.3853859E+04  0.7818608E-02  0.8034695E-01
          2   -1    0    0  501    0  0.00000000000E+00  0.00000000000E+00  0.36413739363E+04  0.36413739363E+04  0.00000000000E+00 0. -1.
         -2   -1    0    0    0  501 -0.00000000000E+00 -0.00000000000E+00 -0.10196856212E+04  0.10196856212E+04  0.00000000000E+00 0.  1.
         23    2    1    2    0    0  0.14385668999E+04  0.11155678893E+04  0.12651464293E+04  0.22187858663E+04  0.91917308960E+02 0.  0.
        254    2    1    2    0    0 -0.14385668999E+04 -0.11155678893E+04  0.13565418858E+04  0.24422736912E+04  0.90029353746E+03 0.  0.
        -24    2    4    4    0    0 -0.31556076925E+02 -0.13954938683E+02  0.40812074062E+03  0.41734338155E+03  0.80140082943E+02 0.  0.
         24    2    4    4    0    0 -0.14070108230E+04 -0.11016129507E+04  0.94842114522E+03  0.20249303097E+04  0.87232684898E+02 0.  0.
         11    1    3    3    0    0  0.31858820108E+03  0.28309185146E+03  0.32866498775E+03  0.53820081048E+03  0.00000000000E+00 0. -1.
        -11    1    3    3    0    0  0.11199786988E+04  0.83247603788E+03  0.93648144153E+03  0.16805850558E+04  0.00000000000E+00 0.  1.
          2    1    6    6  502    0 -0.56023547696E+03 -0.45971252593E+03  0.42943670271E+03  0.84238665575E+03  0.00000000000E+00 0. -1.
          1    1    5    5  503    0  0.19704483150E+02  0.49755045316E+01  0.36935875235E+02  0.42157812810E+02  0.00000000000E+00 0. -1.
         -2    1    5    5    0  503 -0.51260560075E+02 -0.18930443215E+02  0.37118486538E+03  0.37518556874E+03  0.00000000000E+00 0.  1.
         -1    1    6    6    0  502 -0.84677534602E+03 -0.64190042473E+03  0.51898444251E+03  0.11825436539E+04  0.00000000000E+00 0.  1.
<mgrwt>
<rscale>  0 0.38538587E+04</rscale>
<asrwt>0</asrwt>
<pdfrwt beam="1">  1        2 0.56021137E+00 0.38538587E+04</pdfrwt>
<pdfrwt beam="2">  1       -2 0.15687471E+00 0.38538587E+04</pdfrwt>
<totfact> 0.13641364E-01</totfact>
</mgrwt>
</event>
<event>
12    1  0.2019083E-007  0.1725010E+04  0.7818608E-02  0.8747227E-01
          1   -1    0    0  501    0  0.00000000000E+00  0.00000000000E+00  0.15143104468E+04  0.15143104468E+04  0.00000000000E+00 0.  1.
         -1   -1    0    0    0  501 -0.00000000000E+00 -0.00000000000E+00 -0.49125674494E+03  0.49125674494E+03  0.00000000000E+00 0. -1.
         23    2    1    2    0    0  0.10888028321E+03 -0.59416317730E+03  0.27731190709E+03  0.67444797025E+03  0.11442627943E+03 0.  0.
        254    2    1    2    0    0 -0.10888028321E+03  0.59416317730E+03  0.74574179477E+03  0.13311192215E+04  0.92242222439E+03 0.  0.
        -24    2    4    4    0    0 -0.35731548899E+03  0.10938691582E+03  0.67641229594E+03  0.77713563046E+03  0.82257753398E+02 0.  0.
         24    2    4    4    0    0  0.24843520579E+03  0.48477626148E+03  0.69329498825E+02  0.55398359104E+03  0.73233630008E+02 0.  0.
         13    1    3    3    0    0 -0.12216158011E+02 -0.22779848028E+03  0.11989754470E+03  0.25771457731E+03  0.00000000000E+00 0.  1.
        -13    1    3    3    0    0  0.12109644122E+03 -0.36636469702E+03  0.15741436239E+03  0.41673339293E+03  0.00000000000E+00 0. -1.
          2    1    6    6  502    0  0.81991292369E+00  0.17736363739E+02 -0.84641544376E+01  0.19669589885E+02  0.00000000000E+00 0. -1.
          1    1    5    5  503    0 -0.18818625117E+03  0.83298374351E+02  0.43495742895E+03  0.48118670940E+03  0.00000000000E+00 0. -1.
         -2    1    5    5    0  503 -0.16912923782E+03  0.26088541467E+02  0.24145486699E+03  0.29594892106E+03  0.00000000000E+00 0.  1.
         -1    1    6    6    0  502  0.24761529286E+03  0.46703989775E+03  0.77793653263E+02  0.53431400116E+03  0.00000000000E+00 0.  1.
<mgrwt>
<rscale>  0 0.17250104E+04</rscale>
<asrwt>0</asrwt>
<pdfrwt beam="1">  1        1 0.23297084E+00 0.17250104E+04</pdfrwt>
<pdfrwt beam="2">  1       -1 0.75577961E-01 0.17250104E+04</pdfrwt>
<totfact> 0.10681855E+01</totfact>
</mgrwt>
</event>
<event>
12    1  0.2019083E-007  0.1168893E+04  0.7818608E-02  0.9140529E-01
          2   -1    0    0  501    0  0.00000000000E+00  0.00000000000E+00  0.28348914715E+04  0.28348914715E+04  0.00000000000E+00 0. -1.
         -2   -1    0    0    0  501 -0.00000000000E+00 -0.00000000000E+00 -0.12049047775E+03  0.12049047775E+03  0.00000000000E+00 0.  1.
         23    2    1    2    0    0 -0.10260147890E+03  0.19169331962E+03  0.64966297158E+03  0.69196241010E+03  0.97347871500E+02 0.  0.
        254    2    1    2    0    0  0.10260147890E+03 -0.19169331962E+03  0.20647380222E+04  0.22634195392E+04  0.90147186187E+03 0.  0.
        -24    2    4    4    0    0  0.19933345503E+03 -0.22221881476E+03  0.14851376982E+03  0.34278044598E+03  0.79542858849E+02 0.  0.
         24    2    4    4    0    0 -0.96731976130E+02  0.30525495136E+02  0.19162242524E+04  0.19206390932E+04  0.81549125268E+02 0.  0.
         13    1    3    3    0    0 -0.75698561418E+01  0.11577201522E+03  0.34107250176E+03  0.36026506032E+03  0.00000000000E+00 0. -1.
        -13    1    3    3    0    0 -0.95031622758E+02  0.75921304405E+02  0.30859046982E+03  0.33169734978E+03  0.00000000000E+00 0.  1.
          4    1    6    6  502    0 -0.49508961297E+02 -0.26442476668E+02  0.84592631753E+03  0.84778633895E+03  0.00000000000E+00 0. -1.
          3    1    5    5  503    0  0.13959185442E+01  0.25178366250E+00  0.17326525542E+02  0.17384489379E+02  0.00000000000E+00 0. -1.
         -4    1    5    5    0  503  0.19793753649E+03 -0.22247059842E+03  0.13118724427E+03  0.32539595660E+03  0.00000000000E+00 0.  1.
         -3    1    6    6    0  502 -0.47223014832E+02  0.56967971804E+02  0.10702979348E+04  0.10728527542E+04  0.00000000000E+00 0.  1.
<mgrwt>
<rscale>  0 0.11688925E+04</rscale>
<asrwt>0</asrwt>
<pdfrwt beam="1">  1        2 0.43613710E+00 0.11688925E+04</pdfrwt>
<pdfrwt beam="2">  1       -2 0.18536999E-01 0.11688925E+04</pdfrwt>
<totfact> 0.53829386E+01</totfact>
</mgrwt>
</event>
<event>
12    1  0.2019083E-007  0.1391242E+04  0.7818608E-02  0.8960183E-01
          2   -1    0    0  501    0  0.00000000000E+00  0.00000000000E+00  0.22141276186E+04  0.22141276186E+04  0.00000000000E+00 0.  1.
         -2   -1    0    0    0  501 -0.00000000000E+00 -0.00000000000E+00 -0.21854585942E+03  0.21854585942E+03  0.00000000000E+00 0. -1.
         23    2    1    2    0    0 -0.35529704275E+03  0.57060174186E+02  0.87827143865E+03  0.95320935480E+03  0.88065328401E+02 0.  0.
        254    2    1    2    0    0  0.35529704275E+03 -0.57060174186E+02  0.11173103205E+04  0.14794641232E+04  0.90052200833E+03 0.  0.
        -24    2    4    4    0    0 -0.17111682465E+03 -0.28072208489E+03  0.19421587873E+03  0.39050436098E+03  0.81780142900E+02 0.  0.
         24    2    4    4    0    0  0.52641386740E+03  0.22366191071E+03  0.92309444178E+03  0.10889597622E+04  0.81202248807E+02 0.  0.
         13    1    3    3    0    0 -0.23079927400E+03  0.43792622541E+02  0.67240003712E+03  0.71225550794E+03  0.00000000000E+00 0.  1.
        -13    1    3    3    0    0 -0.12449776875E+03  0.13267551645E+02  0.20587140153E+03  0.24095384686E+03  0.00000000000E+00 0. -1.
          2    1    6    6  502    0  0.36531351757E+03  0.17248525154E+03  0.58460067505E+03  0.71060754104E+03  0.00000000000E+00 0. -1.
          3    1    5    5  503    0 -0.67241078120E+02 -0.17376957470E+03  0.80395766710E+02  0.20293030080E+03  0.00000000000E+00 0. -1.
         -2    1    5    5    0  503 -0.10387574653E+03 -0.10695251019E+03  0.11382011202E+03  0.18757406018E+03  0.00000000000E+00 0.  1.
         -1    1    6    6    0  502  0.16110034983E+03  0.51176659163E+02  0.33849376674E+03  0.37835222119E+03  0.00000000000E+00 0.  1.
<mgrwt>
<rscale>  0 0.13912418E+04</rscale>
<asrwt>0</asrwt>
<pdfrwt beam="1">  1        2 0.34063500E+00 0.13912418E+04</pdfrwt>
<pdfrwt beam="2">  1       -2 0.33622441E-01 0.13912418E+04</pdfrwt>
<totfact> 0.40910254E+01</totfact>
</mgrwt>
</event>
<event>
12    1  0.2019083E-007  0.2658975E+04  0.7818608E-02  0.8348440E-01
         -2   -1    0    0    0  501 -0.00000000000E+00  0.00000000000E+00  0.22320187366E+04  0.22320187366E+04  0.00000000000E+00 0.  1.
          2   -1    0    0  501    0  0.00000000000E+00 -0.00000000000E+00 -0.79190040564E+03  0.79190040564E+03  0.00000000000E+00 0. -1.
         23    2    1    2    0    0 -0.10525498148E+04  0.16213026932E+03  0.12024137655E+04  0.16088637426E+04  0.92175604297E+02 0.  0.
        254    2    1    2    0    0  0.10525498148E+04 -0.16213026932E+03  0.23770456546E+03  0.14150553996E+04  0.90096114604E+03 0.  0.
        -24    2    4    4    0    0  0.16952805502E+03 -0.34894634322E+03 -0.15780445040E+03  0.42661096746E+03  0.81187197895E+02 0.  0.
         24    2    4    4    0    0  0.88302175978E+03  0.18681607390E+03  0.39550901586E+03  0.98844443216E+03  0.77248560620E+02 0.  0.
         11    1    3    3    0    0 -0.78409859458E+03  0.14736307443E+03  0.85263407146E+03  0.11676948838E+04  0.00000000000E+00 0. -1.
        -11    1    3    3    0    0 -0.26845122022E+03  0.14767194894E+02  0.34977969405E+03  0.44116885889E+03  0.00000000000E+00 0.  1.
          4    1    6    6  502    0  0.40254184884E+03  0.65533227684E+02  0.14232241534E+03  0.43196089396E+03  0.00000000000E+00 0. -1.
          1    1    5    5  503    0  0.46526892012E+01 -0.84312882767E+02 -0.29398068371E+02  0.89412281825E+02  0.00000000000E+00 0. -1.
         -2    1    5    5    0  503  0.16487536582E+03 -0.26463346046E+03 -0.12840638203E+03  0.33719868563E+03  0.00000000000E+00 0.  1.
         -3    1    6    6    0  502  0.48047991094E+03  0.12128284622E+03  0.25318660052E+03  0.55648353820E+03  0.00000000000E+00 0.  1.
<mgrwt>
<rscale>  0 0.26589746E+04</rscale>
<asrwt>0</asrwt>
<pdfrwt beam="1">  1        2 0.12183083E+00 0.26589746E+04</pdfrwt>
<pdfrwt beam="2">  1       -2 0.34338749E+00 0.26589746E+04</pdfrwt>
<totfact> 0.52634602E-01</totfact>
</mgrwt>
</event>
<event>
12    1  0.2019083E-007  0.2210820E+04  0.7818608E-02  0.8513938E-01
          2   -1    0    0  501    0  0.00000000000E+00  0.00000000000E+00  0.30689449135E+04  0.30689449135E+04  0.00000000000E+00 0. -1.
         -2   -1    0    0    0  501 -0.00000000000E+00 -0.00000000000E+00 -0.39815987803E+03  0.39815987803E+03  0.00000000000E+00 0.  1.
         23    2    1    2    0    0  0.22066776248E+03 -0.62935936626E+03  0.21144498341E+04  0.22190028166E+04  0.91038047597E+02 0.  0.
        254    2    1    2    0    0 -0.22066776248E+03  0.62935936626E+03  0.55633520144E+03  0.12481019749E+04  0.89636053582E+03 0.  0.
        -24    2    4    4    0    0 -0.26090944225E+03 -0.93446840424E+02  0.41678333168E+03  0.50647690125E+03  0.77488430695E+02 0.  0.
         24    2    4    4    0    0  0.40241679772E+02  0.72280620669E+03  0.13955186976E+03  0.74162507369E+03  0.80404106581E+02 0.  0.
         11    1    3    3    0    0  0.15158052668E+03 -0.37028836689E+03  0.13936885421E+04  0.14499854768E+04  0.00000000000E+00 0. -1.
        -11    1    3    3    0    0  0.69087235801E+02 -0.25907099937E+03  0.72076129200E+03  0.76901733980E+03  0.00000000000E+00 0.  1.
          2    1    6    6  502    0  0.32575438055E+02  0.66142394265E+03  0.10418971378E+03  0.67037175323E+03  0.00000000000E+00 0. -1.
          1    1    5    5  503    0 -0.16895913597E+03 -0.79781209033E+02  0.33041387484E+03  0.37958603719E+03  0.00000000000E+00 0. -1.
         -2    1    5    5    0  503 -0.91950306284E+02 -0.13665631391E+02  0.86369456836E+02  0.12689086406E+03  0.00000000000E+00 0.  1.
         -1    1    6    6    0  502  0.76662417172E+01  0.61382264038E+02  0.35362155983E+02  0.71253320458E+02  0.00000000000E+00 0.  1.
<mgrwt>
<rscale>  0 0.22108195E+04</rscale>
<asrwt>0</asrwt>
<pdfrwt beam="1">  1        2 0.47214535E+00 0.22108195E+04</pdfrwt>
<pdfrwt beam="2">  1       -2 0.61255368E-01 0.22108195E+04</pdfrwt>
<totfact> 0.35702777E+00</totfact>
</mgrwt>
</event>
<event>
12    1  0.2019083E-007  0.1766460E+04  0.7818608E-02  0.8724342E-01
         -2   -1    0    0    0  501 -0.00000000000E+00  0.00000000000E+00  0.36349887821E+03  0.36349887821E+03  0.00000000000E+00 0.  1.
          2   -1    0    0  501    0  0.00000000000E+00 -0.00000000000E+00 -0.21460730855E+04  0.21460730855E+04  0.00000000000E+00 0. -1.
         23    2    1    2    0    0 -0.51923157150E+03  0.29193077819E+03 -0.29781597162E+03  0.67229731087E+03  0.92001723641E+02 0.  0.
        254    2    1    2    0    0  0.51923157150E+03 -0.29193077819E+03 -0.14847582357E+04  0.18372746529E+04  0.90346340684E+03 0.  0.
        -24    2    4    4    0    0  0.29124471274E+03 -0.59693145277E+03 -0.74571109562E+03  0.10020636960E+04  0.83041981036E+02 0.  0.
         24    2    4    4    0    0  0.22798685877E+03  0.30500067458E+03 -0.73904714008E+03  0.83521095692E+03  0.79895231542E+02 0.  0.
         11    1    3    3    0    0 -0.23503106492E+03  0.10855486826E+03 -0.17488748763E+03  0.31242502177E+03  0.00000000000E+00 0. -1.
        -11    1    3    3    0    0 -0.28420050659E+03  0.18337590993E+03 -0.12292848399E+03  0.35987228910E+03  0.00000000000E+00 0.  1.
          2    1    6    6  502    0  0.25225840355E+02  0.53324883796E+01 -0.33241620824E+02  0.42068798520E+02  0.00000000000E+00 0. -1.
          3    1    5    5  503    0  0.88722766494E+02 -0.22697983041E+03 -0.32632358760E+03  0.40728203561E+03  0.00000000000E+00 0. -1.
         -4    1    5    5    0  503  0.20252194624E+03 -0.36995162236E+03 -0.41938750802E+03  0.59478166034E+03  0.00000000000E+00 0.  1.
         -1    1    6    6    0  502  0.20276101841E+03  0.29966818621E+03 -0.70580551926E+03  0.79314215840E+03  0.00000000000E+00 0.  1.
<mgrwt>
<rscale>  0 0.17664599E+04</rscale>
<asrwt>0</asrwt>
<pdfrwt beam="1">  1        2 0.33016509E+00 0.17664599E+04</pdfrwt>
<pdfrwt beam="2">  1       -2 0.55922904E-01 0.17664599E+04</pdfrwt>
<totfact> 0.15743075E+01</totfact>
</mgrwt>
</event>
<event>
12    1  0.2019083E-007  0.1598293E+04  0.7818608E-02  0.8821598E-01
          1   -1    0    0  501    0  0.00000000000E+00  0.00000000000E+00  0.97471011431E+03  0.97471011431E+03  0.00000000000E+00 0. -1.
         -1   -1    0    0    0  501 -0.00000000000E+00 -0.00000000000E+00 -0.65520485589E+03  0.65520485589E+03  0.00000000000E+00 0.  1.
         23    2    1    2    0    0  0.60358568234E+02 -0.43734114185E+03  0.43508852903E+03  0.62657634581E+03  0.91572145988E+02 0.  0.
        254    2    1    2    0    0 -0.60358568234E+02  0.43734114185E+03 -0.11558327060E+03  0.10033386244E+04  0.89354265238E+03 0.  0.
        -24    2    4    4    0    0  0.70508813617E+02  0.24468522072E+03  0.37170721679E+03  0.45765442157E+03  0.80243158804E+02 0.  0.
         24    2    4    4    0    0 -0.13086738185E+03  0.19265592114E+03 -0.48729048739E+03  0.54568420282E+03  0.77952899402E+02 0.  0.
         13    1    3    3    0    0 -0.21465517735E+02 -0.13787915458E+03  0.15360157907E+03  0.20752078164E+03  0.00000000000E+00 0. -1.
        -13    1    3    3    0    0  0.81824085969E+02 -0.29946198728E+03  0.28148694996E+03  0.41905556417E+03  0.00000000000E+00 0.  1.
          2    1    6    6  502    0 -0.27780736798E+02  0.98401970565E+00 -0.61822382182E+02  0.67784545218E+02  0.00000000000E+00 0. -1.
          1    1    5    5  503    0  0.20306830226E+01  0.14081204332E+03  0.17113584918E+03  0.22162949735E+03  0.00000000000E+00 0. -1.
         -2    1    5    5    0  503  0.68478130594E+02  0.10387317739E+03  0.20057136760E+03  0.23602492422E+03  0.00000000000E+00 0.  1.
         -1    1    6    6    0  502 -0.10308664505E+03  0.19167190143E+03 -0.42546810521E+03  0.47789965760E+03  0.00000000000E+00 0.  1.
<mgrwt>
<rscale>  0 0.15982926E+04</rscale>
<asrwt>0</asrwt>
<pdfrwt beam="1">  1        1 0.14995540E+00 0.15982926E+04</pdfrwt>
<pdfrwt beam="2">  1       -1 0.10080075E+00 0.15982926E+04</pdfrwt>
<totfact> 0.14229625E+01</totfact>
</mgrwt>
</event>
<event>
12    1  0.2019083E-007  0.1497522E+04  0.7818608E-02  0.8886102E-01
         -2   -1    0    0    0  501 -0.00000000000E+00  0.00000000000E+00  0.89505487717E+03  0.89505487717E+03  0.00000000000E+00 0. -1.
          2   -1    0    0  501    0  0.00000000000E+00 -0.00000000000E+00 -0.62637861030E+03  0.62637861030E+03  0.00000000000E+00 0.  1.
         23    2    1    2    0    0  0.24842501037E+03  0.36933996036E+03 -0.74819731658E+02  0.46035042393E+03  0.90540203600E+02 0.  0.
        254    2    1    2    0    0 -0.24842501037E+03 -0.36933996036E+03  0.34349599852E+03  0.10610830635E+04  0.89987819989E+03 0.  0.
        -24    2    4    4    0    0 -0.47896689055E+03 -0.25785703159E+03  0.50618602207E+03  0.74736094933E+03  0.80153407102E+02 0.  0.
         24    2    4    4    0    0  0.23054188018E+03 -0.11148292877E+03 -0.16269002355E+03  0.31372211421E+03  0.79846848768E+02 0.  0.
         11    1    3    3    0    0  0.15445843539E+03  0.19778245191E+03 -0.83710405090E+02  0.26454250786E+03  0.00000000000E+00 0.  1.
        -11    1    3    3    0    0  0.93966574986E+02  0.17155750845E+03  0.88906734316E+01  0.19580791606E+03  0.00000000000E+00 0. -1.
          2    1    6    6  502    0  0.16446766990E+03 -0.67448077260E+02 -0.15144596404E+03  0.23352673850E+03  0.00000000000E+00 0. -1.
          1    1    5    5  503    0 -0.43738699505E+03 -0.25699074144E+03  0.47877855571E+03  0.69755324530E+03  0.00000000000E+00 0. -1.
         -2    1    5    5    0  503 -0.41579895507E+02 -0.86629014303E+00  0.27407466359E+02  0.49807704035E+02  0.00000000000E+00 0.  1.
         -1    1    6    6    0  502  0.66074210279E+02 -0.44034851512E+02 -0.11244059507E+02  0.80195375713E+02  0.00000000000E+00 0.  1.
<mgrwt>
<rscale>  0 0.14975223E+04</rscale>
<asrwt>0</asrwt>
<pdfrwt beam="1">  1        2 0.96365941E-01 0.14975223E+04</pdfrwt>
<pdfrwt beam="2">  1       -2 0.13770075E+00 0.14975223E+04</pdfrwt>
<totfact> 0.17042730E+01</totfact>
</mgrwt>
</event>
<event>
12    1  0.2019083E-007  0.3829214E+04  0.7818608E-02  0.8039915E-01
          1   -1    0    0  501    0  0.00000000000E+00  0.00000000000E+00  0.33363817509E+04  0.33363817509E+04  0.00000000000E+00 0. -1.
         -1   -1    0    0    0  501 -0.00000000000E+00 -0.00000000000E+00 -0.10987113110E+04  0.10987113110E+04  0.00000000000E+00 0.  1.
         23    2    1    2    0    0 -0.92932714087E+02  0.14002851396E+04 -0.26175315773E+03  0.14304441944E+04  0.90669268201E+02 0.  0.
        254    2    1    2    0    0  0.92932714087E+02 -0.14002851396E+04  0.24994235976E+04  0.30046488674E+04  0.90075609044E+03 0.  0.
        -24    2    4    4    0    0 -0.38091716883E+03 -0.80903408327E+03  0.14985240275E+04  0.17468874179E+04  0.80045939702E+02 0.  0.
         24    2    4    4    0    0  0.47384988292E+03 -0.59125105634E+03  0.10008995702E+04  0.12577614495E+04  0.77797115577E+02 0.  0.
         11    1    3    3    0    0 -0.99135570068E+02  0.85512451483E+03 -0.17322646271E+03  0.87810774083E+03  0.00000000000E+00 0. -1.
        -11    1    3    3    0    0  0.62028559810E+01  0.54516062477E+03 -0.88526695019E+02  0.55233645358E+03  0.00000000000E+00 0.  1.
          4    1    6    6  502    0  0.35146711612E+03 -0.44742928720E+03  0.80382894857E+03  0.98481626678E+03  0.00000000000E+00 0. -1.
          3    1    5    5  503    0 -0.20174503104E+03 -0.33697766268E+03  0.64096712057E+03  0.75172724598E+03  0.00000000000E+00 0. -1.
         -4    1    5    5    0  503 -0.17917213779E+03 -0.47205642058E+03  0.85755690691E+03  0.99516017191E+03  0.00000000000E+00 0.  1.
         -3    1    6    6    0  502  0.12238276680E+03 -0.14382176914E+03  0.19707062160E+03  0.27294518275E+03  0.00000000000E+00 0.  1.
<mgrwt>
<rscale>  0 0.38292142E+04</rscale>
<asrwt>0</asrwt>
<pdfrwt beam="1">  1        1 0.51328950E+00 0.38292142E+04</pdfrwt>
<pdfrwt beam="2">  1       -1 0.16903251E+00 0.38292142E+04</pdfrwt>
<totfact> 0.66422997E-02</totfact>
</mgrwt>
</event>
<event>
12    1  0.2019083E-007  0.2144576E+04  0.7818608E-02  0.8541857E-01
          2   -1    0    0  501    0  0.00000000000E+00  0.00000000000E+00  0.23730658988E+04  0.23730658988E+04  0.00000000000E+00 0. -1.
         -2   -1    0    0    0  501 -0.00000000000E+00 -0.00000000000E+00 -0.48452167497E+03  0.48452167497E+03  0.00000000000E+00 0.  1.
         23    2    1    2    0    0 -0.24241745824E+03 -0.81549224420E+03  0.11051734731E+04  0.13977729641E+04  0.92558247739E+02 0.  0.
        254    2    1    2    0    0  0.24241745824E+03  0.81549224420E+03  0.78337075069E+03  0.14598146096E+04  0.89083956857E+03 0.  0.
        -24    2    4    4    0    0 -0.90633690925E+02  0.87633435327E+03  0.54911248290E+03  0.10412094586E+04  0.80101517207E+02 0.  0.
         24    2    4    4    0    0  0.33305114917E+03 -0.60842109064E+02  0.23425826779E+03  0.41860515104E+03  0.75686896172E+02 0.  0.
         11    1    3    3    0    0 -0.74338312280E+02 -0.16976255927E+03  0.19260256445E+03  0.26728497720E+03  0.00000000000E+00 0.  1.
        -11    1    3    3    0    0 -0.16807914596E+03 -0.64572968493E+03  0.91257090864E+03  0.11304879869E+04  0.00000000000E+00 0. -1.
          4    1    6    6  502    0  0.15696916349E+03  0.70504297434E+01  0.90101108661E+02  0.18112768045E+03  0.00000000000E+00 0. -1.
          1    1    5    5  503    0 -0.46742081567E+02  0.19982549374E+03  0.15363957460E+03  0.25635945276E+03  0.00000000000E+00 0. -1.
         -2    1    5    5    0  503 -0.43891609358E+02  0.67650885953E+03  0.39547290830E+03  0.78485000579E+03  0.00000000000E+00 0.  1.
         -3    1    6    6    0  502  0.17608198568E+03 -0.67892538807E+02  0.14415715913E+03  0.23747747058E+03  0.00000000000E+00 0.  1.
<mgrwt>
<rscale>  0 0.21445763E+04</rscale>
<asrwt>0</asrwt>
<pdfrwt beam="1">  1        2 0.36508705E+00 0.21445763E+04</pdfrwt>
<pdfrwt beam="2">  1       -2 0.74541798E-01 0.21445763E+04</pdfrwt>
<totfact> 0.61224606E+00</totfact>
</mgrwt>
</event>
<event>
12    1  0.2019083E-007  0.3103351E+04  0.7818608E-02  0.8214819E-01
         -1   -1    0    0    0  501 -0.00000000000E+00  0.00000000000E+00  0.91727324078E+03  0.91727324078E+03  0.00000000000E+00 0.  1.
          1   -1    0    0  501    0  0.00000000000E+00 -0.00000000000E+00 -0.26248418381E+04  0.26248418381E+04  0.00000000000E+00 0. -1.
         23    2    1    2    0    0  0.60776388214E+03 -0.67913133491E+03 -0.20257756408E+04  0.22232394635E+04  0.91817529250E+02 0.  0.
        254    2    1    2    0    0 -0.60776388214E+03  0.67913133491E+03  0.31820704353E+03  0.13188756153E+04  0.89865502818E+03 0.  0.
        -24    2    4    4    0    0 -0.81662900053E+03  0.50547208607E+03  0.36932716274E+03  0.10320229584E+04  0.79270922682E+02 0.  0.
         24    2    4    4    0    0  0.20886511839E+03  0.17365924884E+03 -0.51120119206E+02  0.28685265695E+03  0.76739871149E+02 0.  0.
         13    1    3    3    0    0  0.69929976536E+02 -0.89662338717E+02 -0.18815256908E+03  0.21984295725E+03  0.00000000000E+00 0.  1.
        -13    1    3    3    0    0  0.53783390561E+03 -0.58946899620E+03 -0.18376230717E+04  0.20033965063E+04  0.00000000000E+00 0. -1.
          2    1    6    6  502    0  0.16921630020E+03  0.95704387846E+02 -0.28194802766E+02  0.19643938762E+03  0.00000000000E+00 0. -1.
          3    1    5    5  503    0 -0.47809787072E+03  0.27722491022E+03  0.17389489286E+03  0.57937091625E+03  0.00000000000E+00 0. -1.
         -4    1    5    5    0  503 -0.33853112981E+03  0.22824717585E+03  0.19543226988E+03  0.45265204213E+03  0.00000000000E+00 0.  1.
         -1    1    6    6    0  502  0.39648818188E+02  0.77954860997E+02 -0.22925316440E+02  0.90413269328E+02  0.00000000000E+00 0.  1.
<mgrwt>
<rscale>  0 0.31033512E+04</rscale>
<asrwt>0</asrwt>
<pdfrwt beam="1">  1        1 0.40382183E+00 0.31033512E+04</pdfrwt>
<pdfrwt beam="2">  1       -1 0.14111896E+00 0.31033512E+04</pdfrwt>
<totfact> 0.38368001E-01</totfact>
</mgrwt>
</event>
<event>
12    1  0.2019083E-007  0.4342601E+04  0.7818608E-02  0.7938787E-01
          2   -1    0    0  501    0  0.00000000000E+00  0.00000000000E+00  0.33644545051E+04  0.33644545051E+04  0.00000000000E+00 0.  1.
         -2   -1    0    0    0  501 -0.00000000000E+00 -0.00000000000E+00 -0.14012808044E+04  0.14012808044E+04  0.00000000000E+00 0. -1.
         23    2    1    2    0    0 -0.20073272660E+04 -0.52925707123E+03  0.81594099240E+03  0.22322099325E+04  0.86750673230E+02 0.  0.
        254    2    1    2    0    0  0.20073272660E+04  0.52925707123E+03  0.11472327083E+04  0.25335253771E+04  0.89057967007E+03 0.  0.
        -24    2    4    4    0    0  0.24287752715E+03  0.24417772094E+03  0.53758384618E+03  0.64360982686E+03  0.81393887689E+02 0.  0.
         24    2    4    4    0    0  0.17644497389E+04  0.28507935029E+03  0.60964886213E+03  0.18899155502E+04  0.74538143012E+02 0.  0.
         11    1    3    3    0    0 -0.13311974910E+04 -0.34992268455E+03  0.58481210834E+03  0.14955058834E+04  0.00000000000E+00 0. -1.
        -11    1    3    3    0    0 -0.67612977507E+03 -0.17933438668E+03  0.23112888406E+03  0.73670404915E+03  0.00000000000E+00 0.  1.
          4    1    6    6  502    0  0.46851019570E+03  0.10915751131E+03  0.16311077309E+03  0.50795894524E+03  0.00000000000E+00 0. -1.
          1    1    5    5  503    0  0.11356894836E+03  0.94490354667E+02  0.30043703074E+03  0.33479656897E+03  0.00000000000E+00 0. -1.
         -2    1    5    5    0  503  0.12930857879E+03  0.14968736627E+03  0.23714681544E+03  0.30881325788E+03  0.00000000000E+00 0.  1.
         -3    1    6    6    0  502  0.12959395432E+04  0.17592183898E+03  0.44653808904E+03  0.13819566050E+04  0.00000000000E+00 0.  1.
<mgrwt>
<rscale>  0 0.43426008E+04</rscale>
<asrwt>0</asrwt>
<pdfrwt beam="1">  1        2 0.51760838E+00 0.43426008E+04</pdfrwt>
<pdfrwt beam="2">  1       -2 0.21558166E+00 0.43426008E+04</pdfrwt>
<totfact> 0.81448951E-02</totfact>
</mgrwt>
</event>
<event>
12    1  0.2019083E-007  0.2378144E+04  0.7818608E-02  0.8447732E-01
          1   -1    0    0  501    0  0.00000000000E+00  0.00000000000E+00  0.10739900261E+04  0.10739900261E+04  0.00000000000E+00 0. -1.
         -1   -1    0    0    0  501 -0.00000000000E+00 -0.00000000000E+00 -0.13164855803E+04  0.13164855803E+04  0.00000000000E+00 0.  1.
         23    2    1    2    0    0  0.91612419553E+03 -0.10010837161E+03  0.32811045938E+03  0.98212429149E+03  0.87214807759E+02 0.  0.
        254    2    1    2    0    0 -0.91612419553E+03  0.10010837161E+03 -0.57060601364E+03  0.14083513149E+04  0.89919796246E+03 0.  0.
        -24    2    4    4    0    0 -0.64174008111E+03  0.25282001303E+03 -0.76283075309E+03  0.10313930014E+04  0.78182317073E+02 0.  0.
         24    2    4    4    0    0 -0.27438411442E+03 -0.15271164142E+03  0.19222473945E+03  0.37695831355E+03  0.80868609666E+02 0.  0.
         11    1    3    3    0    0  0.52661169433E+03 -0.16102883067E+02  0.17306646485E+03  0.55455493930E+03  0.00000000000E+00 0. -1.
        -11    1    3    3    0    0  0.38951250119E+03 -0.84005488548E+02  0.15504399453E+03  0.42756935219E+03  0.00000000000E+00 0.  1.
          2    1    6    6  502    0 -0.10890043963E+03 -0.95196813608E+02  0.56280707834E+02  0.15520714270E+03  0.00000000000E+00 0. -1.
          1    1    5    5  503    0 -0.57035419053E+03  0.24982303017E+03 -0.68069522876E+03  0.92252991470E+03  0.00000000000E+00 0. -1.
         -2    1    5    5    0  503 -0.71385890583E+02  0.29969828577E+01 -0.82135524328E+02  0.10886308666E+03  0.00000000000E+00 0.  1.
         -1    1    6    6    0  502 -0.16548367479E+03 -0.57514827810E+02  0.13594403161E+03  0.22175117084E+03  0.00000000000E+00 0.  1.
<mgrwt>
<rscale>  0 0.23781441E+04</rscale>
<asrwt>0</asrwt>
<pdfrwt beam="1">  1        1 0.16522923E+00 0.23781441E+04</pdfrwt>
<pdfrwt beam="2">  1       -1 0.20253624E+00 0.23781441E+04</pdfrwt>
<totfact> 0.17220183E+00</totfact>
</mgrwt>
</event>
<event>
12    1  0.2019083E-007  0.3586849E+04  0.7818608E-02  0.8093511E-01
          2   -1    0    0  501    0  0.00000000000E+00  0.00000000000E+00  0.32171750442E+04  0.32171750442E+04  0.00000000000E+00 0. -1.
         -2   -1    0    0    0  501 -0.00000000000E+00 -0.00000000000E+00 -0.99975026523E+03  0.99975026523E+03  0.00000000000E+00 0.  1.
         23    2    1    2    0    0  0.32778652863E+03  0.15613442121E+04  0.16262462477E+04  0.22795720046E+04  0.80820226064E+02 0.  0.
        254    2    1    2    0    0 -0.32778652863E+03 -0.15613442121E+04  0.59117853131E+03  0.19373533049E+04  0.92660995831E+03 0.  0.
        -24    2    4    4    0    0 -0.95766009375E+02 -0.15867281563E+04  0.45293959828E+03  0.16547574187E+04  0.78679506047E+02 0.  0.
         24    2    4    4    0    0 -0.23202051926E+03  0.25383944150E+02  0.13823893304E+03  0.28259588613E+03  0.79199534542E+02 0.  0.
         11    1    3    3    0    0  0.25581467112E+02  0.23831745177E+03  0.26756927644E+03  0.35922546816E+03  0.00000000000E+00 0. -1.
        -11    1    3    3    0    0  0.30220506152E+03  0.13230267604E+04  0.13586769712E+04  0.19203465364E+04  0.00000000000E+00 0.  1.
          2    1    6    6  502    0 -0.39967213584E+02 -0.25891532884E+02  0.23994375116E+02  0.53324287843E+02  0.00000000000E+00 0. -1.
          1    1    5    5  503    0 -0.26916651322E+02 -0.52245067544E+03  0.18739082723E+03  0.55569284368E+03  0.00000000000E+00 0. -1.
         -2    1    5    5    0  503 -0.68849358053E+02 -0.10642774808E+04  0.26554877105E+03  0.10990645751E+04  0.00000000000E+00 0.  1.
         -1    1    6    6    0  502 -0.19205330567E+03  0.51275477034E+02  0.11424455792E+03  0.22927159828E+03  0.00000000000E+00 0.  1.
<mgrwt>
<rscale>  0 0.35868491E+04</rscale>
<asrwt>0</asrwt>
<pdfrwt beam="1">  1        2 0.49495000E+00 0.35868491E+04</pdfrwt>
<pdfrwt beam="2">  1       -2 0.15380773E+00 0.35868491E+04</pdfrwt>
<totfact> 0.28864099E-01</totfact>
</mgrwt>
</event>
<event>
12    1  0.2019083E-007  0.2916214E+04  0.7818608E-02  0.8268070E-01
          2   -1    0    0  501    0  0.00000000000E+00  0.00000000000E+00  0.34534834205E+04  0.34534834205E+04  0.00000000000E+00 0.  1.
         -2   -1    0    0    0  501 -0.00000000000E+00 -0.00000000000E+00 -0.61563246692E+03  0.61563246692E+03  0.00000000000E+00 0. -1.
         23    2    1    2    0    0  0.12459187570E+04  0.99364534714E+02  0.70380477007E+03  0.14375179527E+04  0.94497884509E+02 0.  0.
        254    2    1    2    0    0 -0.12459187570E+04 -0.99364534714E+02  0.21340461836E+04  0.26315979348E+04  0.89942632665E+03 0.  0.
        -24    2    4    4    0    0 -0.89858098566E+02 -0.30075544557E+03  0.24478081556E+03  0.40614203236E+03  0.80655978444E+02 0.  0.
         24    2    4    4    0    0 -0.11560606584E+04  0.20139091086E+03  0.18892653680E+04  0.22254559024E+04  0.79346065229E+02 0.  0.
         13    1    3    3    0    0  0.69236362461E+03  0.29588573728E+02  0.34453710528E+03  0.77391775357E+03  0.00000000000E+00 0. -1.
        -13    1    3    3    0    0  0.55355513236E+03  0.69775960986E+02  0.35926766479E+03  0.66360019911E+03  0.00000000000E+00 0.  1.
          2    1    6    6  502    0 -0.74147852911E+03  0.15961365037E+03  0.11748888890E+04  0.13984387109E+04  0.00000000000E+00 0. -1.
          3    1    5    5  503    0 -0.99316579732E+02 -0.29672629712E+03  0.23093902923E+03  0.38889987611E+03  0.00000000000E+00 0. -1.
         -4    1    5    5    0  503  0.94584811662E+01 -0.40291484489E+01  0.13841786335E+02  0.17242156249E+02  0.00000000000E+00 0.  1.
         -1    1    6    6    0  502 -0.41458212929E+03  0.41777260487E+02  0.71437647894E+03  0.82701719153E+03  0.00000000000E+00 0.  1.
<mgrwt>
<rscale>  0 0.29162143E+04</rscale>
<asrwt>0</asrwt>
<pdfrwt beam="1">  1        2 0.53130513E+00 0.29162143E+04</pdfrwt>
<pdfrwt beam="2">  1       -2 0.94712689E-01 0.29162143E+04</pdfrwt>
<totfact> 0.70826338E-01</totfact>
</mgrwt>
</event>
<event>
12    1  0.2019083E-007  0.1493789E+04  0.7818608E-02  0.8888593E-01
         -2   -1    0    0    0  501 -0.00000000000E+00  0.00000000000E+00  0.32199282192E+03  0.32199282192E+03  0.00000000000E+00 0.  1.
          2   -1    0    0  501    0  0.00000000000E+00 -0.00000000000E+00 -0.17324972856E+04  0.17324972856E+04  0.00000000000E+00 0. -1.
         23    2    1    2    0    0 -0.13203572439E+03  0.26483007118E+03  0.50228190558E+02  0.31364589804E+03  0.91008126613E+02 0.  0.
        254    2    1    2    0    0  0.13203572439E+03 -0.26483007118E+03 -0.14607326542E+04  0.17408442094E+04  0.89957227357E+03 0.  0.
        -24    2    4    4    0    0 -0.31959199465E+03 -0.14869642427E+03 -0.10600877716E+04  0.11200634549E+04  0.80662196646E+02 0.  0.
         24    2    4    4    0    0  0.45162771905E+03 -0.11613364691E+03 -0.40064488260E+03  0.62078075450E+03  0.86010479847E+02 0.  0.
         13    1    3    3    0    0 -0.11973492770E+03  0.14782489845E+03  0.46992633782E+02  0.19595142547E+03  0.00000000000E+00 0.  1.
        -13    1    3    3    0    0 -0.12300796695E+02  0.11700517274E+03  0.32355567758E+01  0.11769447257E+03  0.00000000000E+00 0. -1.
          4    1    6    6  502    0  0.34146553049E+02  0.13005851392E+02 -0.22689526837E+02  0.43011090240E+02  0.00000000000E+00 0. -1.
          3    1    5    5  503    0 -0.34070422253E+02 -0.53865024815E+01 -0.50658850843E+02  0.61287251939E+02  0.00000000000E+00 0. -1.
         -4    1    5    5    0  503 -0.28552157240E+03 -0.14330992179E+03 -0.10094289207E+04  0.10587762030E+04  0.00000000000E+00 0.  1.
         -3    1    6    6    0  502  0.41748116600E+03 -0.12913949830E+03 -0.37795535576E+03  0.57776966426E+03  0.00000000000E+00 0.  1.
<mgrwt>
<rscale>  0 0.14937894E+04</rscale>
<asrwt>0</asrwt>
<pdfrwt beam="1">  1        2 0.26653805E+00 0.14937894E+04</pdfrwt>
<pdfrwt beam="2">  1       -2 0.49537357E-01 0.14937894E+04</pdfrwt>
<totfact> 0.35066751E+01</totfact>
</mgrwt>
</event>
<event>
12    1  0.2019083E-007  0.2418577E+04  0.7818608E-02  0.8432581E-01
         -1   -1    0    0    0  501 -0.00000000000E+00  0.00000000000E+00  0.21137805343E+04  0.21137805343E+04  0.00000000000E+00 0.  1.
          1   -1    0    0  501    0  0.00000000000E+00 -0.00000000000E+00 -0.69183069462E+03  0.69183069462E+03  0.00000000000E+00 0. -1.
         23    2    1    2    0    0 -0.88823512418E+03 -0.53079959911E+03  0.49443452009E+03  0.11502409431E+04  0.88763068813E+02 0.  0.
        254    2    1    2    0    0  0.88823512418E+03  0.53079959911E+03  0.92751531957E+03  0.16553702858E+04  0.89958671883E+03 0.  0.
        -24    2    4    4    0    0  0.58674236186E+03  0.10730642617E+03  0.95429597105E+03  0.11282049740E+04  0.79902407337E+02 0.  0.
         24    2    4    4    0    0  0.30149276232E+03  0.42349317295E+03 -0.26780651475E+02  0.52716531176E+03  0.83316921261E+02 0.  0.
         11    1    3    3    0    0 -0.59854334158E+03 -0.33984548957E+03  0.37142254253E+03  0.78211494911E+03  0.00000000000E+00 0.  1.
        -11    1    3    3    0    0 -0.28969178260E+03 -0.19095410954E+03  0.12301197756E+03  0.36812599403E+03  0.00000000000E+00 0. -1.
          2    1    6    6  502    0  0.17314236299E+03  0.17643762115E+03 -0.27775325345E+02  0.24875687069E+03  0.00000000000E+00 0. -1.
          1    1    5    5  503    0  0.54525079308E+03  0.10063002019E+03  0.91908377770E+03  0.10733777614E+04  0.00000000000E+00 0. -1.
         -2    1    5    5    0  503  0.41491568783E+02  0.66764059789E+01  0.35212193343E+02  0.54827212558E+02  0.00000000000E+00 0.  1.
         -1    1    6    6    0  502  0.12835039932E+03  0.24705555180E+03  0.99467387027E+00  0.27840844107E+03  0.00000000000E+00 0.  1.
<mgrwt>
<rscale>  0 0.24185767E+04</rscale>
<asrwt>0</asrwt>
<pdfrwt beam="1">  1        1 0.10643549E+00 0.24185767E+04</pdfrwt>
<pdfrwt beam="2">  1       -1 0.32519700E+00 0.24185767E+04</pdfrwt>
<totfact> 0.56179760E-01</totfact>
</mgrwt>
</event>
<event>
12    1  0.2019083E-007  0.1218630E+04  0.7818608E-02  0.9096704E-01
          1   -1    0    0  501    0  0.00000000000E+00  0.00000000000E+00  0.75240080899E+03  0.75240080899E+03  0.00000000000E+00 0. -1.
         -1   -1    0    0    0  501 -0.00000000000E+00 -0.00000000000E+00 -0.49344015500E+03  0.49344015500E+03  0.00000000000E+00 0.  1.
         23    2    1    2    0    0 -0.43856252903E+02  0.24239702398E+03  0.15752174180E+03  0.30668521369E+03  0.92536657592E+02 0.  0.
        254    2    1    2    0    0  0.43856252903E+02 -0.24239702398E+03  0.10143891218E+03  0.93915575030E+03  0.90057980338E+03 0.  0.
        -24    2    4    4    0    0 -0.27296626143E+03 -0.32246022973E+02 -0.27594989802E+03  0.39746891035E+03  0.79264131858E+02 0.  0.
         24    2    4    4    0    0  0.31682251433E+03 -0.21015100101E+03  0.37738881021E+03  0.54168683995E+03  0.80388865475E+02 0.  0.
         11    1    3    3    0    0 -0.69990618643E+00  0.19164852799E+03  0.14133741783E+03  0.23813003554E+03  0.00000000000E+00 0. -1.
        -11    1    3    3    0    0 -0.43156346716E+02  0.50748495995E+02  0.16184323971E+02  0.68555178142E+02  0.00000000000E+00 0.  1.
          4    1    6    6  502    0  0.25931994362E+03 -0.17180122916E+03  0.25979657537E+03  0.40528601762E+03  0.00000000000E+00 0. -1.
          3    1    5    5  503    0 -0.21441474496E+03 -0.37898039454E+02 -0.16983728195E+03  0.27614243895E+03  0.00000000000E+00 0. -1.
         -4    1    5    5    0  503 -0.58551516464E+02  0.56520164807E+01 -0.10611261608E+03  0.12132647139E+03  0.00000000000E+00 0.  1.
         -1    1    6    6    0  502  0.57502570706E+02 -0.38349771843E+02  0.11759223483E+03  0.13640082233E+03  0.00000000000E+00 0.  1.
<mgrwt>
<rscale>  0 0.12186300E+04</rscale>
<asrwt>0</asrwt>
<pdfrwt beam="1">  1        1 0.11575397E+00 0.12186300E+04</pdfrwt>
<pdfrwt beam="2">  1       -1 0.75913870E-01 0.12186300E+04</pdfrwt>
<totfact> 0.42003314E+01</totfact>
</mgrwt>
</event>
<event>
12    1  0.2019083E-007  0.1549071E+04  0.7818608E-02  0.8852461E-01
          2   -1    0    0  501    0  0.00000000000E+00  0.00000000000E+00  0.57104298020E+03  0.57104298020E+03  0.00000000000E+00 0. -1.
         -2   -1    0    0    0  501 -0.00000000000E+00 -0.00000000000E+00 -0.10505435076E+04  0.10505435076E+04  0.00000000000E+00 0.  1.
         23    2    1    2    0    0 -0.30353340563E+03 -0.81501150866E+02  0.25914143256E+03  0.41715428832E+03  0.89935823055E+02 0.  0.
        254    2    1    2    0    0  0.30353340563E+03  0.81501150866E+02 -0.73864195992E+03  0.12044321994E+04  0.89793653015E+03 0.  0.
        -24    2    4    4    0    0 -0.30705683924E+03  0.55193369305E+01 -0.15626621104E+03  0.35355559777E+03  0.79171120970E+02 0.  0.
         24    2    4    4    0    0  0.61059024487E+03  0.75981813936E+02 -0.58237574888E+03  0.85087660167E+03  0.78967051394E+02 0.  0.
         13    1    3    3    0    0 -0.11130587565E+03 -0.55040723147E+02  0.14927774737E+03  0.19417086553E+03  0.00000000000E+00 0. -1.
        -13    1    3    3    0    0 -0.19222752998E+03 -0.26460427719E+02  0.10986368518E+03  0.22298342279E+03  0.00000000000E+00 0.  1.
          2    1    6    6  502    0  0.10121606100E+03  0.37193324055E+02 -0.78848233141E+02  0.13358547162E+03  0.00000000000E+00 0. -1.
          3    1    5    5  503    0 -0.11517127222E+03 -0.26269377493E+02 -0.88441366572E+02  0.14756821290E+03  0.00000000000E+00 0. -1.
         -4    1    5    5    0  503 -0.19188556703E+03  0.31788714423E+02 -0.67824844467E+02  0.20598738487E+03  0.00000000000E+00 0.  1.
         -1    1    6    6    0  502  0.50937418387E+03  0.38788489881E+02 -0.50352751574E+03  0.71729113005E+03  0.00000000000E+00 0.  1.
<mgrwt>
<rscale>  0 0.15490713E+04</rscale>
<asrwt>0</asrwt>
<pdfrwt beam="1">  1        2 0.87852767E-01 0.15490713E+04</pdfrwt>
<pdfrwt beam="2">  1       -2 0.16162208E+00 0.15490713E+04</pdfrwt>
<totfact> 0.12406727E+01</totfact>
</mgrwt>
</event>
<event>
12    1  0.2019083E-007  0.1142094E+04  0.7818608E-02  0.9165108E-01
         -1   -1    0    0    0  501 -0.00000000000E+00  0.00000000000E+00  0.40292038689E+03  0.40292038689E+03  0.00000000000E+00 0. -1.
          1   -1    0    0  501    0  0.00000000000E+00 -0.00000000000E+00 -0.80932784028E+03  0.80932784028E+03  0.00000000000E+00 0.  1.
         23    2    1    2    0    0 -0.27212877779E+02  0.40024447445E+02 -0.28294054073E+03  0.30169563104E+03  0.92856917297E+02 0.  0.
        254    2    1    2    0    0  0.27212877779E+02 -0.40024447445E+02 -0.12346691267E+03  0.91055259613E+03  0.90084374598E+03 0.  0.
        -24    2    4    4    0    0 -0.92392558565E+02  0.74285356475E+02 -0.48493407630E+03  0.50474531104E+03  0.74512224503E+02 0.  0.
         24    2    4    4    0    0  0.11960543634E+03 -0.11430980392E+03  0.36146716363E+03  0.40580728508E+03  0.81540484218E+02 0.  0.
         11    1    3    3    0    0 -0.46231349927E+02 -0.11330115383E+02 -0.10029906230E+03  0.11102076891E+03  0.00000000000E+00 0. -1.
        -11    1    3    3    0    0  0.19018472148E+02  0.51354562828E+02 -0.18264147843E+03  0.19067486213E+03  0.00000000000E+00 0.  1.
          2    1    6    6  502    0  0.43361414825E+01  0.12169985249E+02  0.32937908010E+02  0.35381018188E+02  0.00000000000E+00 0. -1.
          3    1    5    5  503    0 -0.13014771575E+02  0.44196368250E+02 -0.93786801288E+02  0.10449242720E+03  0.00000000000E+00 0. -1.
         -4    1    5    5    0  503 -0.79377786990E+02  0.30088988225E+02 -0.39114727501E+03  0.40025288385E+03  0.00000000000E+00 0.  1.
         -1    1    6    6    0  502  0.11526929486E+03 -0.12647978917E+03  0.32852925562E+03  0.37042626689E+03  0.00000000000E+00 0.  1.
<mgrwt>
<rscale>  0 0.11420940E+04</rscale>
<asrwt>0</asrwt>
<pdfrwt beam="1">  1        1 0.12451197E+00 0.11420940E+04</pdfrwt>
<pdfrwt beam="2">  1       -1 0.61987753E-01 0.11420940E+04</pdfrwt>
<totfact> 0.56926876E+01</totfact>
</mgrwt>
</event>
<event>
12    1  0.2019083E-007  0.2795534E+04  0.7818608E-02  0.8304656E-01
          1   -1    0    0  501    0  0.00000000000E+00  0.00000000000E+00  0.12155467012E+04  0.12155467012E+04  0.00000000000E+00 0. -1.
         -1   -1    0    0    0  501 -0.00000000000E+00 -0.00000000000E+00 -0.16073035350E+04  0.16073035350E+04  0.00000000000E+00 0.  1.
         23    2    1    2    0    0  0.81077122647E+03  0.85996890847E+03 -0.59018816254E+03  0.13241981415E+04  0.91006294439E+02 0.  0.
        254    2    1    2    0    0 -0.81077122647E+03 -0.85996890847E+03  0.19843132880E+03  0.14986520947E+04  0.89982587395E+03 0.  0.
        -24    2    4    4    0    0 -0.45186213319E+03 -0.41312284408E+03  0.54546739396E+03  0.82403847016E+03  0.81577268386E+02 0.  0.
         24    2    4    4    0    0 -0.35890909328E+03 -0.44684606439E+03 -0.34703606517E+03  0.67461362452E+03  0.78628044363E+02 0.  0.
         11    1    3    3    0    0  0.51948398652E+03  0.49761434405E+03 -0.38648716261E+03  0.81661249962E+03  0.00000000000E+00 0.  1.
        -11    1    3    3    0    0  0.29128723994E+03  0.36235456442E+03 -0.20370099993E+03  0.50758564192E+03  0.00000000000E+00 0. -1.
          2    1    6    6  502    0 -0.19135463199E+03 -0.20502939348E+03 -0.13053350375E+03  0.30934227480E+03  0.00000000000E+00 0. -1.
          1    1    5    5  503    0 -0.31147641161E+03 -0.24730815123E+03  0.38874946445E+03  0.55615197812E+03  0.00000000000E+00 0. -1.
         -2    1    5    5    0  503 -0.14038572157E+03 -0.16581469285E+03  0.15671792952E+03  0.26788649204E+03  0.00000000000E+00 0.  1.
         -3    1    6    6    0  502 -0.16755446129E+03 -0.24181667091E+03 -0.21650256142E+03  0.36527134972E+03  0.00000000000E+00 0.  1.
<mgrwt>
<rscale>  0 0.27955339E+04</rscale>
<asrwt>0</asrwt>
<pdfrwt beam="1">  1        1 0.18700719E+00 0.27955339E+04</pdfrwt>
<pdfrwt beam="2">  1       -1 0.24727747E+00 0.27955339E+04</pdfrwt>
<totfact> 0.65484114E-01</totfact>
</mgrwt>
</event>
<event>
12    1  0.2019083E-007  0.1564039E+04  0.7818608E-02  0.8842950E-01
          2   -1    0    0  501    0  0.00000000000E+00  0.00000000000E+00  0.47892528333E+03  0.47892528333E+03  0.00000000000E+00 0. -1.
         -2   -1    0    0    0  501 -0.00000000000E+00 -0.00000000000E+00 -0.12769310744E+04  0.12769310744E+04  0.00000000000E+00 0.  1.
         23    2    1    2    0    0 -0.48710725250E+02 -0.46967457043E+03 -0.50785821974E+03  0.69939461548E+03  0.90917104742E+02 0.  0.
        254    2    1    2    0    0  0.48710725250E+02  0.46967457043E+03 -0.29014757134E+03  0.10564617423E+04  0.89942140448E+03 0.  0.
        -24    2    4    4    0    0 -0.32646057601E+03  0.46569974112E+01 -0.30398629923E+03  0.45338308991E+03  0.80934299213E+02 0.  0.
         24    2    4    4    0    0  0.37517130126E+03  0.46501757302E+03  0.13838727889E+02  0.60307865235E+03  0.80731047446E+02 0.  0.
         13    1    3    3    0    0 -0.50999804057E+02 -0.11782086506E+03 -0.12034626808E+03  0.17597147638E+03  0.00000000000E+00 0.  1.
        -13    1    3    3    0    0  0.22890788073E+01 -0.35185370537E+03 -0.38751195166E+03  0.52342313910E+03  0.00000000000E+00 0. -1.
          4    1    6    6  502    0  0.46544667230E+02  0.81049826249E+02 -0.23281195990E+02  0.96319751190E+02  0.00000000000E+00 0. -1.
          1    1    5    5  503    0 -0.46289925437E+02  0.18862147909E+02 -0.80312171119E+02  0.94596948421E+02  0.00000000000E+00 0. -1.
         -2    1    5    5    0  503 -0.28017065057E+03 -0.14205150498E+02 -0.22367412811E+03  0.35878614149E+03  0.00000000000E+00 0.  1.
         -3    1    6    6    0  502  0.32862663403E+03  0.38396774677E+03  0.37119923880E+02  0.50675890116E+03  0.00000000000E+00 0.  1.
<mgrwt>
<rscale>  0 0.15640391E+04</rscale>
<asrwt>0</asrwt>
<pdfrwt beam="1">  1        2 0.73680815E-01 0.15640391E+04</pdfrwt>
<pdfrwt beam="2">  1       -2 0.19645093E+00 0.15640391E+04</pdfrwt>
<totfact> 0.87286200E+00</totfact>
</mgrwt>
</event>
<event>
12    1  0.2019083E-007  0.3351326E+04  0.7818608E-02  0.8149957E-01
         -2   -1    0    0    0  501 -0.00000000000E+00  0.00000000000E+00  0.11132995450E+04  0.11132995450E+04  0.00000000000E+00 0.  1.
          2   -1    0    0  501    0  0.00000000000E+00 -0.00000000000E+00 -0.25220945345E+04  0.25220945345E+04  0.00000000000E+00 0. -1.
         23    2    1    2    0    0  0.97225923827E+03  0.10411599799E+04 -0.13249351062E+04  0.19475589583E+04  0.90723373429E+02 0.  0.
        254    2    1    2    0    0 -0.97225923827E+03 -0.10411599799E+04 -0.83859883349E+02  0.16878351212E+04  0.90136162909E+03 0.  0.
        -24    2    4    4    0    0 -0.28174367789E+03 -0.66925214506E+03  0.32571676157E+03  0.79977476449E+03  0.79185424427E+02 0.  0.
         24    2    4    4    0    0 -0.69051556038E+03 -0.37190783479E+03 -0.40957664492E+03  0.88806035675E+03  0.75967048550E+02 0.  0.
         11    1    3    3    0    0  0.57759032604E+03  0.65602559291E+03 -0.86113375926E+03  0.12270010247E+04  0.00000000000E+00 0. -1.
        -11    1    3    3    0    0  0.39466891224E+03  0.38513438694E+03 -0.46380134690E+03  0.72055793360E+03  0.00000000000E+00 0.  1.
          2    1    6    6  502    0 -0.33540047410E+03 -0.20304733054E+03 -0.24107619395E+03  0.46026017398E+03  0.00000000000E+00 0. -1.
          1    1    5    5  503    0 -0.23438206174E+03 -0.47959741531E+03  0.21821381923E+03  0.57668527165E+03  0.00000000000E+00 0. -1.
         -2    1    5    5    0  503 -0.47361616152E+02 -0.18965472975E+03  0.10750294234E+03  0.22308949283E+03  0.00000000000E+00 0.  1.
         -1    1    6    6    0  502 -0.35511508628E+03 -0.16886050425E+03 -0.16850045097E+03  0.42780018277E+03  0.00000000000E+00 0.  1.
<mgrwt>
<rscale>  0 0.33513261E+04</rscale>
<asrwt>0</asrwt>
<pdfrwt beam="1">  1        2 0.38801454E+00 0.33513261E+04</pdfrwt>
<pdfrwt beam="2">  1       -2 0.17127686E+00 0.33513261E+04</pdfrwt>
<totfact> 0.58663646E-01</totfact>
</mgrwt>
</event>
<event>
12    1  0.2019083E-007  0.2118996E+04  0.7818608E-02  0.8552921E-01
          1   -1    0    0  501    0  0.00000000000E+00  0.00000000000E+00  0.19479560566E+04  0.19479560566E+04  0.00000000000E+00 0. -1.
         -1   -1    0    0    0  501 -0.00000000000E+00 -0.00000000000E+00 -0.57626337869E+03  0.57626337869E+03  0.00000000000E+00 0.  1.
         23    2    1    2    0    0  0.41520080140E+03  0.75862638327E+03  0.58498118903E+03  0.10485444216E+04  0.96626692106E+02 0.  0.
        254    2    1    2    0    0 -0.41520080140E+03 -0.75862638327E+03  0.78671148888E+03  0.14756750137E+04  0.90044216055E+03 0.  0.
        -24    2    4    4    0    0 -0.61984610586E+03 -0.67243523431E+03  0.35680884386E+03  0.98527262752E+03  0.84090785438E+02 0.  0.
         24    2    4    4    0    0  0.20464530446E+03 -0.86191148951E+02  0.42990264502E+03  0.49040238619E+03  0.79809782567E+02 0.  0.
         13    1    3    3    0    0  0.39099633047E+03  0.73158322694E+03  0.57939142533E+03  0.10118233898E+04  0.00000000000E+00 0. -1.
        -13    1    3    3    0    0  0.24204470926E+02  0.27043156330E+02  0.55897636955E+01  0.36721031783E+02  0.00000000000E+00 0.  1.
          4    1    6    6  502    0  0.10833669236E+02  0.40472448203E+01  0.76473053530E+02  0.77342591733E+02  0.00000000000E+00 0. -1.
          3    1    5    5  503    0 -0.35556800607E+02 -0.31905997677E+02  0.11116155159E+00  0.47773330574E+02  0.00000000000E+00 0. -1.
         -4    1    5    5    0  503 -0.58428930525E+03 -0.64052923664E+03  0.35669768231E+03  0.93749929695E+03  0.00000000000E+00 0.  1.
         -3    1    6    6    0  502  0.19381163522E+03 -0.90238393771E+02  0.35342959149E+03  0.41305979446E+03  0.00000000000E+00 0.  1.
<mgrwt>
<rscale>  0 0.21189957E+04</rscale>
<asrwt>0</asrwt>
<pdfrwt beam="1">  1        1 0.29968555E+00 0.21189957E+04</pdfrwt>
<pdfrwt beam="2">  1       -1 0.88655905E-01 0.21189957E+04</pdfrwt>
<totfact> 0.37055922E+00</totfact>
</mgrwt>
</event>
<event>
12    1  0.2019083E-007  0.1641544E+04  0.7818608E-02  0.8795424E-01
          1   -1    0    0  501    0  0.00000000000E+00  0.00000000000E+00  0.11048732823E+04  0.11048732823E+04  0.00000000000E+00 0. -1.
         -1   -1    0    0    0  501 -0.00000000000E+00 -0.00000000000E+00 -0.60972337393E+03  0.60972337393E+03  0.00000000000E+00 0.  1.
         23    2    1    2    0    0  0.83715484231E+02 -0.55282856888E+03  0.28256935224E+03  0.63318939183E+03  0.91954653134E+02 0.  0.
        254    2    1    2    0    0 -0.83715484231E+02  0.55282856888E+03  0.21258055612E+03  0.10814072644E+04  0.90090147616E+03 0.  0.
        -24    2    4    4    0    0  0.15159411388E+03  0.12557978156E+03 -0.30149574508E+03  0.36823565875E+03  0.77115233077E+02 0.  0.
         24    2    4    4    0    0 -0.23530959811E+03  0.42724878733E+03  0.51407630120E+03  0.71317160564E+03  0.80169585254E+02 0.  0.
         13    1    3    3    0    0  0.29963236161E+02 -0.15405398526E+03  0.12659770446E+03  0.20163681377E+03  0.00000000000E+00 0. -1.
        -13    1    3    3    0    0  0.53752248071E+02 -0.39877458363E+03  0.15597164778E+03  0.43155257806E+03  0.00000000000E+00 0.  1.
          4    1    6    6  502    0 -0.14648233925E+03  0.19563979617E+03  0.22434667225E+03  0.33175809698E+03  0.00000000000E+00 0. -1.
          1    1    5    5  503    0  0.15097557580E+03  0.13280792969E+03 -0.27440660756E+03  0.34019194134E+03  0.00000000000E+00 0. -1.
         -2    1    5    5    0  503  0.61853808421E+00 -0.72281481346E+01 -0.27089137516E+02  0.28043717410E+02  0.00000000000E+00 0.  1.
         -3    1    6    6    0  502 -0.88827258859E+02  0.23160899115E+03  0.28972962895E+03  0.38141350866E+03  0.00000000000E+00 0.  1.
<mgrwt>
<rscale>  0 0.16415445E+04</rscale>
<asrwt>0</asrwt>
<pdfrwt beam="1">  1        1 0.16998051E+00 0.16415445E+04</pdfrwt>
<pdfrwt beam="2">  1       -1 0.93803596E-01 0.16415445E+04</pdfrwt>
<totfact> 0.13246351E+01</totfact>
</mgrwt>
</event>
<event>
12    1  0.2019083E-007  0.3301279E+04  0.7818608E-02  0.8162570E-01
         -2   -1    0    0    0  501 -0.00000000000E+00  0.00000000000E+00  0.15240481026E+04  0.15240481026E+04  0.00000000000E+00 0.  1.
          2   -1    0    0  501    0  0.00000000000E+00 -0.00000000000E+00 -0.17877454231E+04  0.17877454231E+04  0.00000000000E+00 0. -1.
         23    2    1    2    0    0  0.14782166353E+04  0.17326283211E+03  0.21457807149E+03  0.15072434337E+04  0.10293002422E+03 0.  0.
        254    2    1    2    0    0 -0.14782166353E+04 -0.17326283211E+03 -0.47827539205E+03  0.18045500919E+04  0.90139295191E+03 0.  0.
        -24    2    4    4    0    0 -0.10964349722E+04 -0.13370274159E+03 -0.74089758214E+03  0.13324975116E+04  0.81082179513E+02 0.  0.
         24    2    4    4    0    0 -0.38178166317E+03 -0.39560090512E+02  0.26262219009E+03  0.47205258037E+03  0.80876355100E+02 0.  0.
         11    1    3    3    0    0  0.89965292865E+03  0.92762658812E+02  0.17943139127E+03  0.92204985064E+03  0.00000000000E+00 0.  1.
        -11    1    3    3    0    0  0.57856370667E+03  0.80500173294E+02  0.35146680222E+02  0.58519358311E+03  0.00000000000E+00 0. -1.
          2    1    6    6  502    0 -0.24821911707E+03 -0.32965747953E+02  0.12391722783E+03  0.27938315979E+03  0.00000000000E+00 0. -1.
          1    1    5    5  503    0 -0.76662657732E+03 -0.56064174452E+02 -0.51886456147E+03  0.92740494599E+03  0.00000000000E+00 0. -1.
         -2    1    5    5    0  503 -0.32980839483E+03 -0.77638567142E+02 -0.22203302067E+03  0.40509256557E+03  0.00000000000E+00 0.  1.
         -1    1    6    6    0  502 -0.13356254610E+03 -0.65943425595E+01  0.13870496226E+03  0.19266942059E+03  0.00000000000E+00 0.  1.
<mgrwt>
<rscale>  0 0.33012786E+04</rscale>
<asrwt>0</asrwt>
<pdfrwt beam="1">  1        2 0.27503776E+00 0.33012786E+04</pdfrwt>
<pdfrwt beam="2">  1       -2 0.23446894E+00 0.33012786E+04</pdfrwt>
<totfact> 0.58691412E-01</totfact>
</mgrwt>
</event>
<event>
12    1  0.2019083E-007  0.1320439E+04  0.7818608E-02  0.9013512E-01
          1   -1    0    0  501    0  0.00000000000E+00  0.00000000000E+00  0.16237107899E+04  0.16237107899E+04  0.00000000000E+00 0. -1.
         -1   -1    0    0    0  501 -0.00000000000E+00 -0.00000000000E+00 -0.26845268733E+03  0.26845268733E+03  0.00000000000E+00 0.  1.
         23    2    1    2    0    0 -0.27961522596E+03 -0.69061482044E+02  0.63786223052E+03  0.70548489722E+03  0.88806262120E+02 0.  0.
        254    2    1    2    0    0  0.27961522596E+03  0.69061482044E+02  0.71739587207E+03  0.11866785800E+04  0.90033052385E+03 0.  0.
        -24    2    4    4    0    0  0.14925626049E+03  0.42868401673E+03  0.63907140751E+03  0.78823623336E+03  0.82805061333E+02 0.  0.
         24    2    4    4    0    0  0.13035896547E+03 -0.35962253469E+03  0.78324464562E+02  0.39844234668E+03  0.79370993095E+02 0.  0.
         13    1    3    3    0    0 -0.19072046377E+03 -0.84435807399E+02  0.48567797783E+03  0.52857052417E+03  0.00000000000E+00 0. -1.
        -13    1    3    3    0    0 -0.88894762194E+02  0.15374325355E+02  0.15218425268E+03  0.17691437305E+03  0.00000000000E+00 0.  1.
          4    1    6    6  502    0 -0.68416930444E+01 -0.14591422157E+01  0.59849522613E-01  0.69958160128E+01  0.00000000000E+00 0. -1.
          3    1    5    5  503    0  0.50094589487E+02  0.54745678498E+02  0.91953479936E+02  0.11816090590E+03  0.00000000000E+00 0. -1.
         -4    1    5    5    0  503  0.99161671006E+02  0.37393833824E+03  0.54711792757E+03  0.67007532746E+03  0.00000000000E+00 0.  1.
         -3    1    6    6    0  502  0.13720065851E+03 -0.35816339247E+03  0.78264615040E+02  0.39144653067E+03  0.00000000000E+00 0.  1.
<mgrwt>
<rscale>  0 0.13204386E+04</rscale>
<asrwt>0</asrwt>
<pdfrwt beam="1">  1        1 0.24980165E+00 0.13204386E+04</pdfrwt>
<pdfrwt beam="2">  1       -1 0.41300415E-01 0.13204386E+04</pdfrwt>
<totfact> 0.30282733E+01</totfact>
</mgrwt>
</event>
<event>
12    1  0.2019083E-007  0.4169759E+04  0.7818608E-02  0.7971150E-01
         -1   -1    0    0    0  501 -0.00000000000E+00  0.00000000000E+00  0.13626123299E+04  0.13626123299E+04  0.00000000000E+00 0.  1.
          1   -1    0    0  501    0  0.00000000000E+00 -0.00000000000E+00 -0.31899928311E+04  0.31899928311E+04  0.00000000000E+00 0. -1.
         23    2    1    2    0    0  0.15464754622E+04 -0.11141855367E+04 -0.26125294120E+03  0.19260134827E+04  0.90989398966E+02 0.  0.
        254    2    1    2    0    0 -0.15464754622E+04  0.11141855367E+04 -0.15661275600E+04  0.26265916784E+04  0.90179407019E+03 0.  0.
        -24    2    4    4    0    0 -0.38202073943E+03  0.73396307371E+03 -0.36077020082E+03  0.90617318460E+03  0.79706108717E+02 0.  0.
         24    2    4    4    0    0 -0.11644547228E+04  0.38022246300E+03 -0.12053573592E+04  0.17204184938E+04  0.80184209239E+02 0.  0.
         11    1    3    3    0    0  0.25570437886E+03 -0.14406418720E+03 -0.36480181305E+02  0.29575331449E+03  0.00000000000E+00 0.  1.
        -11    1    3    3    0    0  0.12907710834E+04 -0.97012134951E+03 -0.22477275990E+03  0.16302601682E+04  0.00000000000E+00 0. -1.
          2    1    6    6  502    0 -0.11430062643E+04  0.37575724595E+03 -0.11665650030E+04  0.16758671590E+04  0.00000000000E+00 0. -1.
          3    1    5    5  503    0 -0.19775319196E+03  0.35332469864E+03 -0.13517890182E+03  0.42687000726E+03  0.00000000000E+00 0. -1.
         -4    1    5    5    0  503 -0.18426754747E+03  0.38063837507E+03 -0.22559129900E+03  0.47930317734E+03  0.00000000000E+00 0.  1.
         -1    1    6    6    0  502 -0.21448458489E+02  0.44652170485E+01 -0.38792356173E+02  0.44551334798E+02  0.00000000000E+00 0.  1.
<mgrwt>
<rscale>  0 0.41697595E+04</rscale>
<asrwt>0</asrwt>
<pdfrwt beam="1">  1        1 0.49076812E+00 0.41697595E+04</pdfrwt>
<pdfrwt beam="2">  1       -1 0.20963267E+00 0.41697595E+04</pdfrwt>
<totfact> 0.43131834E-02</totfact>
</mgrwt>
</event>
<event>
12    1  0.2019083E-007  0.2001481E+04  0.7818608E-02  0.8605929E-01
         -2   -1    0    0    0  501 -0.00000000000E+00  0.00000000000E+00  0.11921669127E+04  0.11921669127E+04  0.00000000000E+00 0.  1.
          2   -1    0    0  501    0  0.00000000000E+00 -0.00000000000E+00 -0.84005140773E+03  0.84005140773E+03  0.00000000000E+00 0. -1.
         23    2    1    2    0    0 -0.28578901183E+03 -0.58910266312E+03 -0.31700569743E+03  0.73317942860E+03  0.91335400244E+02 0.  0.
        254    2    1    2    0    0  0.28578901183E+03  0.58910266312E+03  0.66912120240E+03  0.12990388918E+04  0.90058955800E+03 0.  0.
        -24    2    4    4    0    0  0.27383863577E+03 -0.46873648079E+01  0.63851785251E+03  0.69915001828E+03  0.78077719351E+02 0.  0.
         24    2    4    4    0    0  0.11950376063E+02  0.59379002793E+03  0.30603349889E+02  0.59988887354E+03  0.78744439937E+02 0.  0.
         13    1    3    3    0    0 -0.18659333054E+03 -0.36392419175E+03 -0.24525226374E+03  0.47687164018E+03  0.00000000000E+00 0. -1.
        -13    1    3    3    0    0 -0.99195681285E+02 -0.22517847137E+03 -0.71753433695E+02  0.25630778841E+03  0.00000000000E+00 0.  1.
          2    1    6    6  502    0  0.12042202515E+02  0.42790193168E+02  0.20108722689E+02  0.48789097152E+02  0.00000000000E+00 0. -1.
          1    1    5    5  503    0  0.14165642759E+03 -0.30976999980E+02  0.39580359051E+03  0.42152888426E+03  0.00000000000E+00 0. -1.
         -2    1    5    5    0  503  0.13218220818E+03  0.26289635172E+02  0.24271426200E+03  0.27762113402E+03  0.00000000000E+00 0.  1.
         -1    1    6    6    0  502 -0.91826451904E-01  0.55099983476E+03  0.10494627201E+02  0.55109977639E+03  0.00000000000E+00 0.  1.
<mgrwt>
<rscale>  0 0.20014809E+04</rscale>
<asrwt>0</asrwt>
<pdfrwt beam="1">  1        2 0.12923868E+00 0.20014809E+04</pdfrwt>
<pdfrwt beam="2">  1       -2 0.18341029E+00 0.20014809E+04</pdfrwt>
<totfact> 0.51447469E+00</totfact>
</mgrwt>
</event>
<event>
12    1  0.2019083E-007  0.1580351E+04  0.7818608E-02  0.8832711E-01
         -1   -1    0    0    0  501 -0.00000000000E+00  0.00000000000E+00  0.74393837116E+03  0.74393837116E+03  0.00000000000E+00 0.  1.
          1   -1    0    0  501    0  0.00000000000E+00 -0.00000000000E+00 -0.83928603127E+03  0.83928603127E+03  0.00000000000E+00 0. -1.
         23    2    1    2    0    0  0.34994136643E+03 -0.16168835381E+03  0.33113090900E+03  0.51561866652E+03  0.87251628506E+02 0.  0.
        254    2    1    2    0    0 -0.34994136643E+03  0.16168835381E+03 -0.42647856911E+03  0.10676057359E+04  0.89960877816E+03 0.  0.
        -24    2    4    4    0    0 -0.69233627862E+01 -0.22821644567E+03 -0.48257467061E+03  0.53934446087E+03  0.76703687869E+02 0.  0.
         24    2    4    4    0    0 -0.34301800364E+03  0.38990479947E+03  0.56096101504E+02  0.52826127504E+03  0.78905631144E+02 0.  0.
         13    1    3    3    0    0  0.31604603344E+03 -0.15463870719E+03  0.26328840145E+03  0.43945307753E+03  0.00000000000E+00 0. -1.
        -13    1    3    3    0    0  0.33895332986E+02 -0.70496466203E+01  0.67842507545E+02  0.76165588987E+02  0.00000000000E+00 0.  1.
          4    1    6    6  502    0 -0.18450264953E+03  0.16625114473E+03 -0.46081569863E+00  0.24835636323E+03  0.00000000000E+00 0. -1.
          3    1    5    5  503    0  0.31067165665E+02 -0.14115549474E+03 -0.26286117519E+03  0.29997673227E+03  0.00000000000E+00 0. -1.
         -4    1    5    5    0  503 -0.37990528451E+02 -0.87060950921E+02 -0.21971349542E+03  0.23936772861E+03  0.00000000000E+00 0.  1.
         -1    1    6    6    0  502 -0.15851535412E+03  0.22365365474E+03  0.56556917203E+02  0.27990491181E+03  0.00000000000E+00 0.  1.
<mgrwt>
<rscale>  0 0.15803507E+04</rscale>
<asrwt>0</asrwt>
<pdfrwt beam="1">  1        1 0.12912093E+00 0.15803507E+04</pdfrwt>
<pdfrwt beam="2">  1       -1 0.11445206E+00 0.15803507E+04</pdfrwt>
<totfact> 0.13650840E+01</totfact>
</mgrwt>
</event>
<event>
12    1  0.2019083E-007  0.1714070E+04  0.7818608E-02  0.8753380E-01
         -1   -1    0    0    0  501 -0.00000000000E+00  0.00000000000E+00  0.73912257210E+03  0.73912257210E+03  0.00000000000E+00 0.  1.
          1   -1    0    0  501    0  0.00000000000E+00 -0.00000000000E+00 -0.99375843437E+03  0.99375843437E+03  0.00000000000E+00 0. -1.
         23    2    1    2    0    0 -0.41291995761E+03 -0.43493261730E+03  0.48967504433E+02  0.60868309646E+03  0.91804261594E+02 0.  0.
        254    2    1    2    0    0  0.41291995761E+03  0.43493261730E+03 -0.30360336670E+03  0.11241979100E+04  0.90109747730E+03 0.  0.
        -24    2    4    4    0    0 -0.13962731369E+03  0.48937149948E+03 -0.20733664456E+03  0.55558806456E+03  0.81910695703E+02 0.  0.
         24    2    4    4    0    0  0.55254727130E+03 -0.54438882177E+02 -0.96266722144E+02  0.56860984544E+03  0.76011812470E+02 0.  0.
         13    1    3    3    0    0 -0.18587600313E+03 -0.13196453495E+03  0.25006233997E+02  0.22932474521E+03  0.00000000000E+00 0.  1.
        -13    1    3    3    0    0 -0.22704395447E+03 -0.30296808236E+03  0.23961270436E+02  0.37935835126E+03  0.00000000000E+00 0. -1.
          2    1    6    6  502    0  0.30371092750E+03 -0.17976060241E+02 -0.16179699818E+02  0.30467236322E+03  0.00000000000E+00 0. -1.
          1    1    5    5  503    0 -0.30479495406E+02  0.12773217355E+03 -0.92991335391E+02  0.16090959032E+03  0.00000000000E+00 0. -1.
         -2    1    5    5    0  503 -0.10914781828E+03  0.36163932594E+03 -0.11434530917E+03  0.39467847424E+03  0.00000000000E+00 0.  1.
         -1    1    6    6    0  502  0.24883634380E+03 -0.36462821936E+02 -0.80087022327E+02  0.26393748222E+03  0.00000000000E+00 0.  1.
<mgrwt>
<rscale>  0 0.17140703E+04</rscale>
<asrwt>0</asrwt>
<pdfrwt beam="1">  1        1 0.15288591E+00 0.17140703E+04</pdfrwt>
<pdfrwt beam="2">  1       -1 0.11371116E+00 0.17140703E+04</pdfrwt>
<totfact> 0.10259229E+01</totfact>
</mgrwt>
</event>
<event>
12    1  0.2019083E-007  0.1378947E+04  0.7818608E-02  0.8969200E-01
         -1   -1    0    0    0  501 -0.00000000000E+00  0.00000000000E+00  0.41398813804E+03  0.41398813804E+03  0.00000000000E+00 0.  1.
          1   -1    0    0  501    0  0.00000000000E+00 -0.00000000000E+00 -0.11482793258E+04  0.11482793258E+04  0.00000000000E+00 0. -1.
         23    2    1    2    0    0  0.12449862344E+03 -0.24862273183E+03 -0.54125445764E+03  0.61540703722E+03  0.91957944314E+02 0.  0.
        254    2    1    2    0    0 -0.12449862344E+03  0.24862273183E+03 -0.19303673007E+03  0.94686042658E+03  0.88428972528E+03 0.  0.
        -24    2    4    4    0    0 -0.44802954927E+03  0.33041709740E+03 -0.21537801083E+03  0.60240081971E+03  0.81198058894E+02 0.  0.
         24    2    4    4    0    0  0.32353092583E+03 -0.81794365572E+02  0.22341280760E+02  0.34445960687E+03  0.82405762707E+02 0.  0.
         13    1    3    3    0    0  0.81801085769E+02 -0.22721838445E+03 -0.48355209029E+03  0.54050183708E+03  0.00000000000E+00 0. -1.
        -13    1    3    3    0    0  0.42697537667E+02 -0.21404347377E+02 -0.57702367349E+02  0.74905200134E+02  0.00000000000E+00 0.  1.
          2    1    6    6  502    0  0.48414501946E+02 -0.32327731207E+02  0.28599882598E+02  0.64861386728E+02  0.00000000000E+00 0. -1.
          3    1    5    5  503    0 -0.99334899457E+02  0.41798554218E+02 -0.62786598129E+02  0.12472649394E+03  0.00000000000E+00 0. -1.
         -4    1    5    5    0  503 -0.34869464981E+03  0.28861854318E+03 -0.15259141270E+03  0.47767432578E+03  0.00000000000E+00 0.  1.
         -1    1    6    6    0  502  0.27511642389E+03 -0.49466634365E+02 -0.62586018386E+01  0.27959822014E+03  0.00000000000E+00 0.  1.
<mgrwt>
<rscale>  0 0.13789475E+04</rscale>
<asrwt>0</asrwt>
<pdfrwt beam="1">  1        1 0.17665835E+00 0.13789475E+04</pdfrwt>
<pdfrwt beam="2">  1       -1 0.63690484E-01 0.13789475E+04</pdfrwt>
<totfact> 0.28487786E+01</totfact>
</mgrwt>
</event>
<event>
12    1  0.2019083E-007  0.1820678E+04  0.7818608E-02  0.8695380E-01
          2   -1    0    0  501    0  0.00000000000E+00  0.00000000000E+00  0.11193878767E+04  0.11193878767E+04  0.00000000000E+00 0. -1.
         -2   -1    0    0    0  501 -0.00000000000E+00 -0.00000000000E+00 -0.74033100050E+03  0.74033100050E+03  0.00000000000E+00 0.  1.
         23    2    1    2    0    0  0.54553696097E+03 -0.40627413774E+03  0.21438133449E+03  0.71911128835E+03  0.92154423015E+02 0.  0.
        254    2    1    2    0    0 -0.54553696097E+03  0.40627413774E+03  0.16467554168E+03  0.11406075888E+04  0.90066552441E+03 0.  0.
        -24    2    4    4    0    0  0.71773653253E+02  0.58763230180E+01  0.35932824496E+03  0.37531005481E+03  0.80962096951E+02 0.  0.
         24    2    4    4    0    0 -0.61731061422E+03  0.40039781472E+03 -0.19465270327E+03  0.76529753401E+03  0.79998976321E+02 0.  0.
         13    1    3    3    0    0  0.44211738146E+03 -0.36929984619E+03  0.16969864745E+03  0.60053957932E+03  0.00000000000E+00 0. -1.
        -13    1    3    3    0    0  0.10341957951E+03 -0.36974291543E+02  0.44682687044E+02  0.11857170903E+03  0.00000000000E+00 0.  1.
          4    1    6    6  502    0 -0.35326359769E+03  0.23795581683E+03 -0.72357871075E+02  0.43203449136E+03  0.00000000000E+00 0. -1.
          1    1    5    5  503    0  0.82680351712E+02 -0.79793150198E+01  0.33572022027E+03  0.34584357205E+03  0.00000000000E+00 0. -1.
         -2    1    5    5    0  503 -0.10906698459E+02  0.13855638038E+02  0.23608024683E+02  0.29466482758E+02  0.00000000000E+00 0.  1.
         -3    1    6    6    0  502 -0.26404701653E+03  0.16244199789E+03 -0.12229483220E+03  0.33326304265E+03  0.00000000000E+00 0.  1.
<mgrwt>
<rscale>  0 0.18206785E+04</rscale>
<asrwt>0</asrwt>
<pdfrwt beam="1">  1        2 0.17221352E+00 0.18206785E+04</pdfrwt>
<pdfrwt beam="2">  1       -2 0.11389708E+00 0.18206785E+04</pdfrwt>
<totfact> 0.12061620E+01</totfact>
</mgrwt>
</event>
<event>
12    1  0.2019083E-007  0.1922431E+04  0.7818608E-02  0.8643771E-01
          2   -1    0    0  501    0  0.00000000000E+00  0.00000000000E+00  0.18104426582E+04  0.18104426582E+04  0.00000000000E+00 0. -1.
         -2   -1    0    0    0  501 -0.00000000000E+00 -0.00000000000E+00 -0.51033672047E+03  0.51033672047E+03  0.00000000000E+00 0.  1.
         23    2    1    2    0    0 -0.49928516770E+03 -0.46992818279E+03  0.86609794422E+03  0.11074723575E+04  0.79064518218E+02 0.  0.
        254    2    1    2    0    0  0.49928516770E+03  0.46992818279E+03  0.43400799354E+03  0.12133070212E+04  0.90201597187E+03 0.  0.
        -24    2    4    4    0    0 -0.23220271581E+03  0.15226895001E+03  0.26955684496E+03  0.39509079093E+03  0.79573274716E+02 0.  0.
         24    2    4    4    0    0  0.73148788351E+03  0.31765923278E+03  0.16445114857E+03  0.81821623024E+03  0.80322520337E+02 0.  0.
         13    1    3    3    0    0 -0.34937911137E+03 -0.28982982458E+03  0.60965346443E+03  0.76009501864E+03  0.00000000000E+00 0. -1.
        -13    1    3    3    0    0 -0.14990605633E+03 -0.18009835821E+03  0.25644447979E+03  0.34737733888E+03  0.00000000000E+00 0.  1.
          4    1    6    6  502    0  0.19873962712E+03  0.56061484228E+02  0.20586566034E+02  0.20751900179E+03  0.00000000000E+00 0. -1.
          1    1    5    5  503    0 -0.71806392501E+01  0.33585487296E+02  0.28679270975E+02  0.44744241200E+02  0.00000000000E+00 0. -1.
         -2    1    5    5    0  503 -0.22502207656E+03  0.11868346271E+03  0.24087757399E+03  0.35034654973E+03  0.00000000000E+00 0.  1.
         -3    1    6    6    0  502  0.53274825639E+03  0.26159774855E+03  0.14386458254E+03  0.61069722845E+03  0.00000000000E+00 0.  1.
<mgrwt>
<rscale>  0 0.19224311E+04</rscale>
<asrwt>0</asrwt>
<pdfrwt beam="1">  1        2 0.27852964E+00 0.19224311E+04</pdfrwt>
<pdfrwt beam="2">  1       -2 0.78513342E-01 0.19224311E+04</pdfrwt>
<totfact> 0.11475592E+01</totfact>
</mgrwt>
</event>
<event>
12    1  0.2029314E-007  0.3413913E+04  0.7818608E-02  0.8134500E-01
          1   -1    0    0  501    0  0.00000000000E+00  0.00000000000E+00  0.18798245298E+04  0.18798245298E+04  0.00000000000E+00 0. -1.
         -1   -1    0    0    0  501 -0.00000000000E+00 -0.00000000000E+00 -0.15499849548E+04  0.15499849548E+04  0.00000000000E+00 0.  1.
         23    2    1    2    0    0  0.77207211819E+03  0.13595775884E+04 -0.11775804470E+03  0.15703279238E+04  0.86696347564E+02 0.  0.
        254    2    1    2    0    0 -0.77207211819E+03 -0.13595775884E+04  0.44759761969E+03  0.18594815608E+04  0.90154393760E+03 0.  0.
        -24    2    4    4    0    0 -0.18843616556E+03 -0.19730316257E+03 -0.25226465043E+03  0.38033118723E+03  0.81102599662E+02 0.  0.
         24    2    4    4    0    0 -0.58363595263E+03 -0.11622744258E+04  0.69986227012E+03  0.14791503736E+04  0.81030022284E+02 0.  0.
         13    1    3    3    0    0  0.33636768187E+03  0.63659740558E+03 -0.16838684495E+02  0.72019651172E+03  0.00000000000E+00 0. -1.
        -13    1    3    3    0    0  0.43570443632E+03  0.72298018279E+03 -0.10091936021E+03  0.85013141208E+03  0.00000000000E+00 0.  1.
          4    1    6    6  502    0 -0.46863743638E+03 -0.98773665764E+03  0.60643614442E+03  0.12502038029E+04  0.00000000000E+00 0. -1.
          1    1    5    5  503    0 -0.17551186187E+03 -0.14428809229E+03 -0.18051089129E+03  0.29018554256E+03  0.00000000000E+00 0. -1.
         -2    1    5    5    0  503 -0.12924303683E+02 -0.53015070272E+02 -0.71753759141E+02  0.90145644667E+02  0.00000000000E+00 0.  1.
         -3    1    6    6    0  502 -0.11499851626E+03 -0.17453776817E+03  0.93426125702E+02  0.22894657067E+03  0.00000000000E+00 0.  1.
<mgrwt>
<rscale>  0 0.34139126E+04</rscale>
<asrwt>0</asrwt>
<pdfrwt beam="1">  1        1 0.28920378E+00 0.34139126E+04</pdfrwt>
<pdfrwt beam="2">  1       -1 0.23845922E+00 0.34139126E+04</pdfrwt>
<totfact> 0.24522813E-01</totfact>
</mgrwt>
</event>
<event>
12    1  0.2019083E-007  0.2814178E+04  0.7818608E-02  0.8298880E-01
          2   -1    0    0  501    0  0.00000000000E+00  0.00000000000E+00  0.24368413626E+04  0.24368413626E+04  0.00000000000E+00 0. -1.
         -2   -1    0    0    0  501 -0.00000000000E+00 -0.00000000000E+00 -0.81248574336E+03  0.81248574336E+03  0.00000000000E+00 0.  1.
         23    2    1    2    0    0  0.19725709325E+03  0.12346087079E+04  0.92106095498E+03  0.15555392394E+04  0.90443463289E+02 0.  0.
        254    2    1    2    0    0 -0.19725709325E+03 -0.12346087079E+04  0.70329466425E+03  0.16937878665E+04  0.90062474402E+03 0.  0.
        -24    2    4    4    0    0 -0.20257827752E+02 -0.12293062503E+03 -0.19957944004E+03  0.24874085834E+03  0.80732543401E+02 0.  0.
         24    2    4    4    0    0 -0.17699926550E+03 -0.11116780829E+04  0.90287410429E+03  0.14450470082E+04  0.76304047907E+02 0.  0.
         13    1    3    3    0    0  0.12341388237E+03  0.66959257367E+03  0.44909244617E+03  0.81564037804E+03  0.00000000000E+00 0.  1.
        -13    1    3    3    0    0  0.73843210880E+02  0.56501613425E+03  0.47196850882E+03  0.73989886138E+03  0.00000000000E+00 0. -1.
          4    1    6    6  502    0 -0.76995327513E+02 -0.40628164782E+03  0.28760069738E+03  0.50369357644E+03  0.00000000000E+00 0. -1.
          3    1    5    5  503    0 -0.22036748571E+02  0.32240949893E+01 -0.28492863863E+02  0.36164296857E+02  0.00000000000E+00 0. -1.
         -4    1    5    5    0  503  0.17789208195E+01 -0.12615472002E+03 -0.17108657618E+03  0.21257656148E+03  0.00000000000E+00 0.  1.
         -3    1    6    6    0  502 -0.10000393799E+03 -0.70539643507E+03  0.61527340692E+03  0.94135343176E+03  0.00000000000E+00 0.  1.
<mgrwt>
<rscale>  0 0.28141776E+04</rscale>
<asrwt>0</asrwt>
<pdfrwt beam="1">  1        2 0.37489867E+00 0.28141776E+04</pdfrwt>
<pdfrwt beam="2">  1       -2 0.12499781E+00 0.28141776E+04</pdfrwt>
<totfact> 0.15776878E+00</totfact>
</mgrwt>
</event>
<event>
12    1  0.2019083E-007  0.1714633E+04  0.7818608E-02  0.8753063E-01
          2   -1    0    0  501    0  0.00000000000E+00  0.00000000000E+00  0.28081546898E+04  0.28081546898E+04  0.00000000000E+00 0. -1.
         -2   -1    0    0    0  501 -0.00000000000E+00 -0.00000000000E+00 -0.26173459746E+03  0.26173459746E+03  0.00000000000E+00 0.  1.
         23    2    1    2    0    0 -0.34640932205E+03 -0.48997279704E+03  0.67325963943E+03  0.90648691486E+03  0.91472534032E+02 0.  0.
        254    2    1    2    0    0  0.34640932205E+03  0.48997279704E+03  0.18731604529E+04  0.21634023724E+04  0.90083682339E+03 0.  0.
        -24    2    4    4    0    0  0.13167232264E+03  0.65742939596E+03  0.17039691013E+04  0.18328677038E+04  0.79638622592E+02 0.  0.
         24    2    4    4    0    0  0.21473699941E+03 -0.16745659892E+03  0.16919135160E+03  0.33053466861E+03  0.80459693383E+02 0.  0.
         13    1    3    3    0    0 -0.23302110057E+03 -0.27947941856E+03  0.45636287177E+03  0.58367340991E+03  0.00000000000E+00 0. -1.
        -13    1    3    3    0    0 -0.11338822147E+03 -0.21049337848E+03  0.21689676767E+03  0.32281350495E+03  0.00000000000E+00 0.  1.
          4    1    6    6  502    0  0.19656235004E+03 -0.16320415492E+03  0.12896624160E+03  0.28618987598E+03  0.00000000000E+00 0. -1.
          3    1    5    5  503    0  0.86175532692E+02  0.53014256579E+03  0.14254111041E+04  0.15232446219E+04  0.00000000000E+00 0. -1.
         -4    1    5    5    0  503  0.45496789946E+02  0.12728683017E+03  0.27855799723E+03  0.30962308191E+03  0.00000000000E+00 0.  1.
         -3    1    6    6    0  502  0.18174649362E+02 -0.42524440016E+01  0.40225109994E+02  0.44344792631E+02  0.00000000000E+00 0.  1.
<mgrwt>
<rscale>  0 0.17146326E+04</rscale>
<asrwt>0</asrwt>
<pdfrwt beam="1">  1        2 0.43202378E+00 0.17146326E+04</pdfrwt>
<pdfrwt beam="2">  1       -2 0.40266863E-01 0.17146326E+04</pdfrwt>
<totfact> 0.12726874E+01</totfact>
</mgrwt>
</event>
<event>
12    1  0.2019083E-007  0.1733924E+04  0.7818608E-02  0.8742249E-01
          1   -1    0    0  501    0  0.00000000000E+00  0.00000000000E+00  0.34172647766E+04  0.34172647766E+04  0.00000000000E+00 0. -1.
         -1   -1    0    0    0  501 -0.00000000000E+00 -0.00000000000E+00 -0.21994878357E+03  0.21994878357E+03  0.00000000000E+00 0.  1.
         23    2    1    2    0    0  0.23691511286E+03  0.51553768814E+03  0.17281677299E+04  0.18210697015E+04  0.88449288269E+02 0.  0.
        254    2    1    2    0    0 -0.23691511286E+03 -0.51553768814E+03  0.14691482631E+04  0.18161438586E+04  0.90447444276E+03 0.  0.
        -24    2    4    4    0    0 -0.31690619641E+03 -0.10592136063E+03  0.64483766267E+02  0.34860717058E+03  0.75630227463E+02 0.  0.
         24    2    4    4    0    0  0.79991083552E+02 -0.40961632751E+03  0.14046644968E+04  0.14675366880E+04  0.79984203717E+02 0.  0.
         13    1    3    3    0    0  0.86117861490E+02  0.10645719297E+03  0.36271975405E+03  0.38770483616E+03  0.00000000000E+00 0. -1.
        -13    1    3    3    0    0  0.15079725137E+03  0.40908049517E+03  0.13654479758E+04  0.14333648654E+04  0.00000000000E+00 0.  1.
          2    1    6    6  502    0  0.94324585063E+02 -0.38309079454E+03  0.12908243749E+04  0.13497715551E+04  0.00000000000E+00 0. -1.
          3    1    5    5  503    0 -0.14098190198E+03 -0.60668421742E+02 -0.64020323023E+01  0.15361490846E+03  0.00000000000E+00 0. -1.
         -4    1    5    5    0  503 -0.17592429443E+03 -0.45252938891E+02  0.70885798569E+02  0.19499226212E+03  0.00000000000E+00 0.  1.
         -1    1    6    6    0  502 -0.14333501512E+02 -0.26525532964E+02  0.11384012191E+03  0.11776513288E+03  0.00000000000E+00 0.  1.
<mgrwt>
<rscale>  0 0.17339241E+04</rscale>
<asrwt>0</asrwt>
<pdfrwt beam="1">  1        1 0.52573300E+00 0.17339241E+04</pdfrwt>
<pdfrwt beam="2">  1       -1 0.33838277E-01 0.17339241E+04</pdfrwt>
<totfact> 0.22846430E+00</totfact>
</mgrwt>
</event>
<event>
12    1  0.2019083E-007  0.2156584E+04  0.7818608E-02  0.8536719E-01
          2   -1    0    0  501    0  0.00000000000E+00  0.00000000000E+00  0.15685391942E+04  0.15685391942E+04  0.00000000000E+00 0. -1.
         -2   -1    0    0    0  501 -0.00000000000E+00 -0.00000000000E+00 -0.74127134007E+03  0.74127134007E+03  0.00000000000E+00 0.  1.
         23    2    1    2    0    0 -0.12094461505E+03  0.77093400823E+03  0.80268158098E+03  0.11230725233E+04  0.89595352729E+02 0.  0.
        254    2    1    2    0    0  0.12094461505E+03 -0.77093400823E+03  0.24586273148E+02  0.11867380109E+04  0.89374256743E+03 0.  0.
        -24    2    4    4    0    0 -0.80775150820E+02  0.36104926651E+02  0.28650674361E+03  0.31068233209E+03  0.81297027133E+02 0.  0.
         24    2    4    4    0    0  0.20171976587E+03 -0.80703893488E+03 -0.26192047046E+03  0.87605567886E+03  0.82876493929E+02 0.  0.
         11    1    3    3    0    0  0.81021289235E+01  0.19527913379E+03  0.20757320834E+03  0.28510738575E+03  0.00000000000E+00 0.  1.
        -11    1    3    3    0    0 -0.12904674398E+03  0.57565487444E+03  0.59510837264E+03  0.83796513757E+03  0.00000000000E+00 0. -1.
          4    1    6    6  502    0  0.19332488984E+03 -0.69310827550E+03 -0.20373180837E+03  0.74785041575E+03  0.00000000000E+00 0. -1.
          3    1    5    5  503    0 -0.88562374460E+02  0.51766739105E+02  0.24869951389E+03  0.26902516175E+03  0.00000000000E+00 0. -1.
         -4    1    5    5    0  503  0.77872236407E+01 -0.15661812453E+02  0.37807229722E+02  0.41657170339E+02  0.00000000000E+00 0.  1.
         -3    1    6    6    0  502  0.83948760331E+01 -0.11393065939E+03 -0.58188662099E+02  0.12820526311E+03  0.00000000000E+00 0.  1.
<mgrwt>
<rscale>  0 0.21565835E+04</rscale>
<asrwt>0</asrwt>
<pdfrwt beam="1">  1        2 0.24131372E+00 0.21565835E+04</pdfrwt>
<pdfrwt beam="2">  1       -2 0.11404174E+00 0.21565835E+04</pdfrwt>
<totfact> 0.64124850E+00</totfact>
</mgrwt>
</event>
<event>
12    1  0.2019083E-007  0.2219606E+04  0.7818608E-02  0.8510312E-01
         -1   -1    0    0    0  501 -0.00000000000E+00  0.00000000000E+00  0.10030382624E+04  0.10030382624E+04  0.00000000000E+00 0.  1.
          1   -1    0    0  501    0  0.00000000000E+00 -0.00000000000E+00 -0.12279315252E+04  0.12279315252E+04  0.00000000000E+00 0. -1.
         23    2    1    2    0    0  0.23628718357E+03  0.35622531688E+03 -0.91384467374E+03  0.10130279462E+04  0.91571953169E+02 0.  0.
        254    2    1    2    0    0 -0.23628718357E+03 -0.35622531688E+03  0.68895141087E+03  0.12179418414E+04  0.90884551656E+03 0.  0.
        -24    2    4    4    0    0 -0.71972871265E+02  0.21074199673E+03  0.56026732147E+03  0.60842876918E+03  0.81815721414E+02 0.  0.
         24    2    4    4    0    0 -0.16431431230E+03 -0.56696731361E+03  0.12868408940E+03  0.60951307221E+03  0.80594431601E+02 0.  0.
         13    1    3    3    0    0  0.19364732268E+03  0.23106454170E+03 -0.69107293134E+03  0.75397075835E+03  0.00000000000E+00 0. -1.
        -13    1    3    3    0    0  0.42639860884E+02  0.12516077517E+03 -0.22277174240E+03  0.25905718788E+03  0.00000000000E+00 0.  1.
          2    1    6    6  502    0 -0.13304804765E+03 -0.33305365573E+03  0.59166858540E+02  0.36349310547E+03  0.00000000000E+00 0. -1.
          1    1    5    5  503    0  0.29618522500E+01  0.10011370076E+03  0.29253279774E+03  0.30920375710E+03  0.00000000000E+00 0. -1.
         -2    1    5    5    0  503 -0.74934723515E+02  0.11062829598E+03  0.26773452373E+03  0.29922501208E+03  0.00000000000E+00 0.  1.
         -1    1    6    6    0  502 -0.31266264658E+02 -0.23391365788E+03  0.69517230858E+02  0.24601996674E+03  0.00000000000E+00 0.  1.
<mgrwt>
<rscale>  0 0.22196056E+04</rscale>
<asrwt>0</asrwt>
<pdfrwt beam="1">  1        1 0.18891254E+00 0.22196056E+04</pdfrwt>
<pdfrwt beam="2">  1       -1 0.15431358E+00 0.22196056E+04</pdfrwt>
<totfact> 0.29978901E+00</totfact>
</mgrwt>
</event>
<event>
12    1  0.2019083E-007  0.1814321E+04  0.7818608E-02  0.8698721E-01
          1   -1    0    0  501    0  0.00000000000E+00  0.00000000000E+00  0.20952085163E+04  0.20952085163E+04  0.00000000000E+00 0. -1.
         -1   -1    0    0    0  501 -0.00000000000E+00 -0.00000000000E+00 -0.39277244756E+03  0.39277244756E+03  0.00000000000E+00 0.  1.
         23    2    1    2    0    0  0.92949149839E+02 -0.62365537901E+03  0.99451398868E+03  0.11819799042E+04  0.10214129502E+03 0.  0.
        254    2    1    2    0    0 -0.92949149839E+02  0.62365537901E+03  0.70792208002E+03  0.13060010596E+04  0.89827585962E+03 0.  0.
        -24    2    4    4    0    0 -0.28438042735E+03 -0.10348323429E+03  0.80840507987E+02  0.32368039151E+03  0.81564703636E+02 0.  0.
         24    2    4    4    0    0  0.19143127751E+03  0.72713861330E+03  0.62708157203E+03  0.98232066805E+03  0.79662412343E+02 0.  0.
         11    1    3    3    0    0  0.37787216257E+02 -0.47137203114E+03  0.68076035017E+03  0.82888727811E+03  0.00000000000E+00 0.  1.
        -11    1    3    3    0    0  0.55161933582E+02 -0.15228334787E+03  0.31375363851E+03  0.35309262614E+03  0.00000000000E+00 0. -1.
          4    1    6    6  502    0  0.72550554808E+02  0.43006762362E+03  0.36003098468E+03  0.56554756990E+03  0.00000000000E+00 0. -1.
          1    1    5    5  503    0 -0.25764960102E+03 -0.74276058501E+02  0.90362297461E+02  0.28295864464E+03  0.00000000000E+00 0. -1.
         -2    1    5    5    0  503 -0.26730826328E+02 -0.29207175787E+02 -0.95217894740E+01  0.40721746874E+02  0.00000000000E+00 0.  1.
         -3    1    6    6    0  502  0.11888072270E+03  0.29707098968E+03  0.26705058735E+03  0.41677309815E+03  0.00000000000E+00 0.  1.
<mgrwt>
<rscale>  0 0.18143210E+04</rscale>
<asrwt>0</asrwt>
<pdfrwt beam="1">  1        1 0.32233977E+00 0.18143210E+04</pdfrwt>
<pdfrwt beam="2">  1       -1 0.60426532E-01 0.18143210E+04</pdfrwt>
<totfact> 0.67219582E+00</totfact>
</mgrwt>
</event>
<event>
12    1  0.2019083E-007  0.3129696E+04  0.7818608E-02  0.8207635E-01
          2   -1    0    0  501    0  0.00000000000E+00  0.00000000000E+00  0.17504057980E+04  0.17504057980E+04  0.00000000000E+00 0. -1.
         -2   -1    0    0    0  501 -0.00000000000E+00 -0.00000000000E+00 -0.13989608127E+04  0.13989608127E+04  0.00000000000E+00 0.  1.
         23    2    1    2    0    0  0.13005738744E+04 -0.36142239943E+03 -0.32116799831E+03  0.13905143008E+04  0.90898756687E+02 0.  0.
        254    2    1    2    0    0 -0.13005738744E+04  0.36142239943E+03  0.67261298369E+03  0.17588523099E+04  0.90500534185E+03 0.  0.
        -24    2    4    4    0    0 -0.10775965219E+04  0.63588755023E+03  0.44375366521E+03  0.13300526586E+04  0.80966157022E+02 0.  0.
         24    2    4    4    0    0 -0.22297735244E+03 -0.27446515080E+03  0.22885931848E+03  0.42879965134E+03  0.80265401226E+02 0.  0.
         11    1    3    3    0    0  0.58887537390E+03 -0.17755457086E+03 -0.19081211456E+03  0.64397911044E+03  0.00000000000E+00 0.  1.
        -11    1    3    3    0    0  0.71169850048E+03 -0.18386782857E+03 -0.13035588375E+03  0.74653519033E+03  0.00000000000E+00 0. -1.
          2    1    6    6  502    0 -0.72994498556E+02 -0.37901255705E+02  0.58957559429E+02  0.10119632314E+03  0.00000000000E+00 0. -1.
          3    1    5    5  503    0 -0.46457815393E+03  0.30882853970E+03  0.22626950913E+03  0.60200151063E+03  0.00000000000E+00 0. -1.
         -4    1    5    5    0  503 -0.61301836802E+03  0.32705901053E+03  0.21748415609E+03  0.72805114796E+03  0.00000000000E+00 0.  1.
         -1    1    6    6    0  502 -0.14998285388E+03 -0.23656389509E+03  0.16990175905E+03  0.32760332820E+03  0.00000000000E+00 0.  1.
<mgrwt>
<rscale>  0 0.31296959E+04</rscale>
<asrwt>0</asrwt>
<pdfrwt beam="1">  1        2 0.26929320E+00 0.31296959E+04</pdfrwt>
<pdfrwt beam="2">  1       -2 0.21522474E+00 0.31296959E+04</pdfrwt>
<totfact> 0.82546261E-01</totfact>
</mgrwt>
</event>
<event>
12    1  0.2019083E-007  0.2432975E+04  0.7818608E-02  0.8427261E-01
          2   -1    0    0  501    0  0.00000000000E+00  0.00000000000E+00  0.12532968151E+04  0.12532968151E+04  0.00000000000E+00 0. -1.
         -2   -1    0    0    0  501 -0.00000000000E+00 -0.00000000000E+00 -0.11807588951E+04  0.11807588951E+04  0.00000000000E+00 0.  1.
         23    2    1    2    0    0 -0.10149618283E+04 -0.14025670553E+03  0.24886088759E+03  0.10585926331E+04  0.94165625308E+02 0.  0.
        254    2    1    2    0    0  0.10149618283E+04  0.14025670553E+03 -0.17632296758E+03  0.13754630772E+04  0.90054951630E+03 0.  0.
        -24    2    4    4    0    0  0.17024074052E+03 -0.27469421752E+03  0.16460029264E+03  0.37083980228E+03  0.77395605450E+02 0.  0.
         24    2    4    4    0    0  0.84472108782E+03  0.41495092306E+03 -0.34092326022E+03  0.10046232749E+04  0.85447471237E+02 0.  0.
         13    1    3    3    0    0 -0.84928046412E+03 -0.13008069529E+03  0.17460430419E+03  0.87674680328E+03  0.00000000000E+00 0. -1.
        -13    1    3    3    0    0 -0.16568136423E+03 -0.10176010239E+02  0.74256583399E+02  0.18184582980E+03  0.00000000000E+00 0.  1.
          4    1    6    6  502    0  0.11968650568E+03  0.46496357233E+02 -0.18365473393E+02  0.12970759997E+03  0.00000000000E+00 0. -1.
          1    1    5    5  503    0  0.10172457055E+02 -0.76872844649E+02  0.31907389768E+02  0.83851026522E+02  0.00000000000E+00 0. -1.
         -2    1    5    5    0  503  0.16006828347E+03 -0.19782137287E+03  0.13269290287E+03  0.28698877575E+03  0.00000000000E+00 0.  1.
         -3    1    6    6    0  502  0.72503458214E+03  0.36845456582E+03 -0.32255778683E+03  0.87491567492E+03  0.00000000000E+00 0.  1.
<mgrwt>
<rscale>  0 0.24329746E+04</rscale>
<asrwt>0</asrwt>
<pdfrwt beam="1">  1        2 0.19281489E+00 0.24329746E+04</pdfrwt>
<pdfrwt beam="2">  1       -2 0.18165522E+00 0.24329746E+04</pdfrwt>
<totfact> 0.27892273E+00</totfact>
</mgrwt>
</event>
<event>
12    1  0.2019083E-007  0.1368781E+04  0.7818608E-02  0.8976732E-01
         -2   -1    0    0    0  501 -0.00000000000E+00  0.00000000000E+00  0.77035616139E+03  0.77035616139E+03  0.00000000000E+00 0.  1.
          2   -1    0    0  501    0  0.00000000000E+00 -0.00000000000E+00 -0.60801793002E+03  0.60801793002E+03  0.00000000000E+00 0. -1.
         23    2    1    2    0    0 -0.30285626379E+03 -0.77780826416E+02  0.26982540285E+03  0.42337004720E+03  0.93084238020E+02 0.  0.
        254    2    1    2    0    0  0.30285626379E+03  0.77780826416E+02 -0.10748717149E+03  0.95500404421E+03  0.89593942817E+03 0.  0.
        -24    2    4    4    0    0  0.24351972871E+03  0.38393745185E+03 -0.32692193204E+03  0.56565333212E+03  0.79849341189E+02 0.  0.
         24    2    4    4    0    0  0.59336535084E+02 -0.30615662544E+03  0.21943476055E+03  0.38935071209E+03  0.78674387003E+02 0.  0.
         11    1    3    3    0    0 -0.64819567299E+02 -0.45016043259E+02  0.31592640772E+02  0.85006560962E+02  0.00000000000E+00 0. -1.
        -11    1    3    3    0    0 -0.23803669649E+03 -0.32764783157E+02  0.23823276208E+03  0.33836348624E+03  0.00000000000E+00 0.  1.
          4    1    6    6  502    0 -0.51052933812E+00 -0.53235250936E+02  0.75104448970E+02  0.92059387558E+02  0.00000000000E+00 0. -1.
          1    1    5    5  503    0  0.48818085300E+02  0.11906372484E+03 -0.12754379654E+03  0.18118166590E+03  0.00000000000E+00 0. -1.
         -2    1    5    5    0  503  0.19470164341E+03  0.26487372702E+03 -0.19937813550E+03  0.38447166622E+03  0.00000000000E+00 0.  1.
         -3    1    6    6    0  502  0.59847064422E+02 -0.25292137450E+03  0.14433031158E+03  0.29729132453E+03  0.00000000000E+00 0.  1.
<mgrwt>
<rscale>  0 0.13687810E+04</rscale>
<asrwt>0</asrwt>
<pdfrwt beam="1">  1        2 0.93541220E-01 0.13687810E+04</pdfrwt>
<pdfrwt beam="2">  1       -2 0.11851633E+00 0.13687810E+04</pdfrwt>
<totfact> 0.26068106E+01</totfact>
</mgrwt>
</event>
<event>
12    1  0.2019083E-007  0.1367371E+04  0.7818608E-02  0.8977782E-01
         -2   -1    0    0    0  501 -0.00000000000E+00  0.00000000000E+00  0.16284533790E+04  0.16284533790E+04  0.00000000000E+00 0.  1.
          2   -1    0    0  501    0  0.00000000000E+00 -0.00000000000E+00 -0.28703657598E+03  0.28703657598E+03  0.00000000000E+00 0. -1.
         23    2    1    2    0    0  0.17459936877E+03  0.62539706237E+02  0.85885552138E+03  0.88369472735E+03  0.94273061424E+02 0.  0.
        254    2    1    2    0    0 -0.17459936877E+03 -0.62539706237E+02  0.48256128165E+03  0.10317952276E+04  0.89293888190E+03 0.  0.
        -24    2    4    4    0    0 -0.16602440485E+03  0.23149947127E+03 -0.14698114113E+03  0.33216235187E+03  0.87018756292E+02 0.  0.
         24    2    4    4    0    0 -0.85749639247E+01 -0.29403917751E+03  0.62954242278E+03  0.69963287578E+03  0.81424387444E+02 0.  0.
         13    1    3    3    0    0  0.15298008835E+03  0.25137324917E+02  0.53628068462E+03  0.55823988144E+03  0.00000000000E+00 0.  1.
        -13    1    3    3    0    0  0.21619280419E+02  0.37402381320E+02  0.32257483676E+03  0.32545484591E+03  0.00000000000E+00 0. -1.
          4    1    6    6  502    0  0.28439893158E+02 -0.11825637966E+03  0.31086332638E+03  0.33381043504E+03  0.00000000000E+00 0. -1.
          1    1    5    5  503    0 -0.12363523456E+03  0.10072430881E+03 -0.91966855608E+02  0.18408954381E+03  0.00000000000E+00 0. -1.
         -2    1    5    5    0  503 -0.42389170285E+02  0.13077516246E+03 -0.55014285521E+02  0.14807280805E+03  0.00000000000E+00 0.  1.
         -3    1    6    6    0  502 -0.37014857083E+02 -0.17578279785E+03  0.31867909640E+03  0.36582244074E+03  0.00000000000E+00 0.  1.
<mgrwt>
<rscale>  0 0.13673707E+04</rscale>
<asrwt>0</asrwt>
<pdfrwt beam="1">  1        2 0.44159474E-01 0.13673707E+04</pdfrwt>
<pdfrwt beam="2">  1       -2 0.25053128E+00 0.13673707E+04</pdfrwt>
<totfact> 0.71863783E+00</totfact>
</mgrwt>
</event>
<event>
12    1  0.2019083E-007  0.1558234E+04  0.7818608E-02  0.8846626E-01
         -1   -1    0    0    0  501 -0.00000000000E+00  0.00000000000E+00  0.88193609825E+03  0.88193609825E+03  0.00000000000E+00 0.  1.
          1   -1    0    0  501    0  0.00000000000E+00 -0.00000000000E+00 -0.68828446600E+03  0.68828446600E+03  0.00000000000E+00 0. -1.
         23    2    1    2    0    0  0.49125011774E+03 -0.14608068210E+03  0.34863991103E+02  0.52250142211E+03  0.95530070453E+02 0.  0.
        254    2    1    2    0    0 -0.49125011774E+03  0.14608068210E+03  0.15878764114E+03  0.10477191421E+04  0.89990868535E+03 0.  0.
        -24    2    4    4    0    0 -0.67556453034E+03  0.18767175280E+03  0.33170806317E+03  0.77976012413E+03  0.79921777778E+02 0.  0.
         24    2    4    4    0    0  0.18431441259E+03 -0.41591070705E+02 -0.17292042203E+03  0.26795901801E+03  0.78733367302E+02 0.  0.
         11    1    3    3    0    0  0.35010699422E+03 -0.13821102934E+03  0.52496971790E+02  0.38004358708E+03  0.00000000000E+00 0.  1.
        -11    1    3    3    0    0  0.14114312352E+03 -0.78696527607E+01 -0.17632980687E+02  0.14245783502E+03  0.00000000000E+00 0. -1.
          2    1    6    6  502    0  0.13474141816E+03 -0.15793622549E+02 -0.16150180984E+03  0.21092065537E+03  0.00000000000E+00 0. -1.
          1    1    5    5  503    0 -0.50311277360E+03  0.11032755303E+03  0.21890727833E+03  0.55965616983E+03  0.00000000000E+00 0. -1.
         -2    1    5    5    0  503 -0.17245175673E+03  0.77344199776E+02  0.11280078484E+03  0.22010395431E+03  0.00000000000E+00 0.  1.
         -1    1    6    6    0  502  0.49572994431E+02 -0.25797448156E+02 -0.11418612191E+02  0.57038362639E+02  0.00000000000E+00 0.  1.
<mgrwt>
<rscale>  0 0.15582335E+04</rscale>
<asrwt>0</asrwt>
<pdfrwt beam="1">  1        1 0.10588992E+00 0.15582335E+04</pdfrwt>
<pdfrwt beam="2">  1       -1 0.13568248E+00 0.15582335E+04</pdfrwt>
<totfact> 0.12239425E+01</totfact>
</mgrwt>
</event>
<event>
12    1  0.2054086E-007  0.3986518E+04  0.7818608E-02  0.8007272E-01
          2   -1    0    0  501    0  0.00000000000E+00  0.00000000000E+00  0.31421401383E+04  0.31421401383E+04  0.00000000000E+00 0. -1.
         -2   -1    0    0    0  501 -0.00000000000E+00 -0.00000000000E+00 -0.12644505754E+04  0.12644505754E+04  0.00000000000E+00 0.  1.
         23    2    1    2    0    0  0.11645301673E+04  0.13046715957E+04  0.16913082670E+04  0.24342222571E+04  0.81337933156E+02 0.  0.
        254    2    1    2    0    0 -0.11645301673E+04 -0.13046715957E+04  0.18638129589E+03  0.19723684567E+04  0.89286105211E+03 0.  0.
        -24    2    4    4    0    0 -0.11292943767E+04 -0.13174406380E+04  0.36348696463E+03  0.17746774733E+04  0.80010852694E+02 0.  0.
         24    2    4    4    0    0 -0.35235790526E+02  0.12769042286E+02 -0.17710566874E+03  0.19769098346E+03  0.79439899722E+02 0.  0.
         11    1    3    3    0    0  0.99805656471E+03  0.10989098578E+04  0.13979393067E+04  0.20391061981E+04  0.00000000000E+00 0.  1.
        -11    1    3    3    0    0  0.16647360257E+03  0.20576173794E+03  0.29336896035E+03  0.39511605896E+03  0.00000000000E+00 0. -1.
          4    1    6    6  502    0  0.20191195219E+01  0.57158731134E-01 -0.14973004152E+03  0.14974366579E+03  0.00000000000E+00 0. -1.
          1    1    5    5  503    0 -0.10291375186E+04 -0.11756618044E+04  0.30890180076E+03  0.15927099652E+04  0.00000000000E+00 0. -1.
         -2    1    5    5    0  503 -0.10015685813E+03 -0.14177883360E+03  0.54585163864E+02  0.18196750810E+03  0.00000000000E+00 0.  1.
         -3    1    6    6    0  502 -0.37254910048E+02  0.12711883555E+02 -0.27375627218E+02  0.47947317670E+02  0.00000000000E+00 0.  1.
<mgrwt>
<rscale>  0 0.39865177E+04</rscale>
<asrwt>0</asrwt>
<pdfrwt beam="1">  1        2 0.48340617E+00 0.39865177E+04</pdfrwt>
<pdfrwt beam="2">  1       -2 0.19453086E+00 0.39865177E+04</pdfrwt>
<totfact> 0.16126838E-01</totfact>
</mgrwt>
</event>
<event>
12    1  0.2019083E-007  0.2311402E+04  0.7818608E-02  0.8473439E-01
          2   -1    0    0  501    0  0.00000000000E+00  0.00000000000E+00  0.10717165489E+04  0.10717165489E+04  0.00000000000E+00 0. -1.
         -2   -1    0    0    0  501 -0.00000000000E+00 -0.00000000000E+00 -0.12462665427E+04  0.12462665427E+04  0.00000000000E+00 0.  1.
         23    2    1    2    0    0  0.49247305334E+03 -0.51310069538E+03  0.59978556439E+03  0.93838172904E+03  0.12253780756E+03 0.  0.
        254    2    1    2    0    0 -0.49247305334E+03  0.51310069538E+03 -0.77433555827E+03  0.13796013626E+04  0.89325378863E+03 0.  0.
        -24    2    4    4    0    0 -0.54170270339E+03  0.68205099559E+03 -0.79836854332E+03  0.11845897097E+04  0.85000411277E+02 0.  0.
         24    2    4    4    0    0  0.49229650056E+02 -0.16895030021E+03  0.24032985042E+02  0.19501165286E+03  0.80524517972E+02 0.  0.
         13    1    3    3    0    0  0.30788600546E+03 -0.31260794590E+03  0.44515465979E+03  0.62504415151E+03  0.00000000000E+00 0. -1.
        -13    1    3    3    0    0  0.18458704787E+03 -0.20049274948E+03  0.15463090460E+03  0.31333757753E+03  0.00000000000E+00 0.  1.
          4    1    6    6  502    0 -0.13580099615E+02 -0.17445796533E+02  0.21712286100E+02  0.30987066495E+02  0.00000000000E+00 0. -1.
          1    1    5    5  503    0 -0.16430751841E+03  0.17005052405E+03 -0.25814885235E+03  0.35007852163E+03  0.00000000000E+00 0. -1.
         -2    1    5    5    0  503 -0.37739518498E+03  0.51200047154E+03 -0.54021969097E+03  0.83451118807E+03  0.00000000000E+00 0.  1.
         -3    1    6    6    0  502  0.62809749671E+02 -0.15150450368E+03  0.23206989416E+01  0.16402458636E+03  0.00000000000E+00 0.  1.
<mgrwt>
<rscale>  0 0.23114017E+04</rscale>
<asrwt>0</asrwt>
<pdfrwt beam="1">  1        2 0.16487947E+00 0.23114017E+04</pdfrwt>
<pdfrwt beam="2">  1       -2 0.19173331E+00 0.23114017E+04</pdfrwt>
<totfact> 0.31004615E+00</totfact>
</mgrwt>
</event>
<event>
12    1  0.2019083E-007  0.1811004E+04  0.7818608E-02  0.8700470E-01
          2   -1    0    0  501    0  0.00000000000E+00  0.00000000000E+00  0.16178286581E+04  0.16178286581E+04  0.00000000000E+00 0.  1.
         -2   -1    0    0    0  501 -0.00000000000E+00 -0.00000000000E+00 -0.50681117043E+03  0.50681117043E+03  0.00000000000E+00 0. -1.
         23    2    1    2    0    0  0.64741045256E+03 -0.29501936080E+02  0.18347436941E+03  0.68017611520E+03  0.94689202870E+02 0.  0.
        254    2    1    2    0    0 -0.64741045256E+03  0.29501936080E+02  0.92754311823E+03  0.14444637133E+04  0.89784660413E+03 0.  0.
        -24    2    4    4    0    0 -0.15678751581E+03  0.55960959001E+02  0.92913288887E+03  0.94739902275E+03  0.81012524260E+02 0.  0.
         24    2    4    4    0    0 -0.49062293675E+03 -0.26459022921E+02 -0.15897706411E+01  0.49706469055E+03  0.75231863331E+02 0.  0.
         13    1    3    3    0    0  0.61697042741E+03 -0.68544866574E+01  0.17387609808E+03  0.64104008437E+03  0.00000000000E+00 0.  1.
        -13    1    3    3    0    0  0.30440025147E+02 -0.22647449422E+02  0.95982713293E+01  0.39136030826E+02  0.00000000000E+00 0. -1.
          2    1    6    6  502    0 -0.71722857061E+02  0.22838276106E+02 -0.12080753909E+00  0.75271307116E+02  0.00000000000E+00 0. -1.
          3    1    5    5  503    0 -0.14563034493E+02 -0.82321361458E+01  0.25049131098E+03  0.25104929181E+03  0.00000000000E+00 0. -1.
         -4    1    5    5    0  503 -0.14222448132E+03  0.64193095147E+02  0.67864157789E+03  0.69634973095E+03  0.00000000000E+00 0.  1.
         -1    1    6    6    0  502 -0.41890007969E+03 -0.49297299027E+02 -0.14689631020E+01  0.42179338343E+03  0.00000000000E+00 0.  1.
<mgrwt>
<rscale>  0 0.18110037E+04</rscale>
<asrwt>0</asrwt>
<pdfrwt beam="1">  1        2 0.24889671E+00 0.18110037E+04</pdfrwt>
<pdfrwt beam="2">  1       -2 0.77970950E-01 0.18110037E+04</pdfrwt>
<totfact> 0.15052745E+01</totfact>
</mgrwt>
</event>
<event>
12    1  0.2019083E-007  0.1539244E+04  0.7818608E-02  0.8858767E-01
         -1   -1    0    0    0  501 -0.00000000000E+00  0.00000000000E+00  0.18367935401E+03  0.18367935401E+03  0.00000000000E+00 0.  1.
          1   -1    0    0  501    0  0.00000000000E+00 -0.00000000000E+00 -0.32247393847E+04  0.32247393847E+04  0.00000000000E+00 0. -1.
         23    2    1    2    0    0  0.18795959776E+03  0.45170547079E+03 -0.12424941239E+04  0.13384667077E+04  0.91295327876E+02 0.  0.
        254    2    1    2    0    0 -0.18795959776E+03 -0.45170547079E+03 -0.17985659068E+04  0.20699520310E+04  0.90027520623E+03 0.  0.
        -24    2    4    4    0    0  0.13167857178E+03  0.21275390977E+03 -0.66646132706E+03  0.71653468067E+03  0.81533893190E+02 0.  0.
         24    2    4    4    0    0 -0.31963816954E+03 -0.66445938056E+03 -0.11321045797E+04  0.13534173503E+04  0.80018229027E+02 0.  0.
         11    1    3    3    0    0  0.15255512056E+03  0.32497816697E+03 -0.80079542459E+03  0.87758599912E+03  0.00000000000E+00 0.  1.
        -11    1    3    3    0    0  0.35404477201E+02  0.12672730382E+03 -0.44169869934E+03  0.46088070857E+03  0.00000000000E+00 0. -1.
          2    1    6    6  502    0 -0.10152137053E+03 -0.16785903688E+03 -0.24816794730E+03  0.31633933521E+03  0.00000000000E+00 0. -1.
          3    1    5    5  503    0  0.10539219833E+03  0.94654472712E+02 -0.38155288250E+03  0.40700072091E+03  0.00000000000E+00 0. -1.
         -4    1    5    5    0  503  0.26286373455E+02  0.11809943706E+03 -0.28490844456E+03  0.30953395976E+03  0.00000000000E+00 0.  1.
         -1    1    6    6    0  502 -0.21811679901E+03 -0.49660034368E+03 -0.88393663240E+03  0.10370780151E+04  0.00000000000E+00 0.  1.
<mgrwt>
<rscale>  0 0.15392440E+04</rscale>
<asrwt>0</asrwt>
<pdfrwt beam="1">  1        1 0.49611377E+00 0.15392440E+04</pdfrwt>
<pdfrwt beam="2">  1       -1 0.28258361E-01 0.15392440E+04</pdfrwt>
<totfact> 0.44842083E+00</totfact>
</mgrwt>
</event>
<event>
12    1  0.2019083E-007  0.1187157E+04  0.7818608E-02  0.9124173E-01
         -1   -1    0    0    0  501 -0.00000000000E+00  0.00000000000E+00  0.19162380087E+03  0.19162380087E+03  0.00000000000E+00 0.  1.
          1   -1    0    0  501    0  0.00000000000E+00 -0.00000000000E+00 -0.18386817125E+04  0.18386817125E+04  0.00000000000E+00 0. -1.
         23    2    1    2    0    0  0.18839021698E+03 -0.27622095584E+02 -0.10756818015E+03  0.23652524595E+03  0.90107849678E+02 0.  0.
        254    2    1    2    0    0 -0.18839021698E+03  0.27622095584E+02 -0.15394897315E+04  0.17937802675E+04  0.90075810319E+03 0.  0.
        -24    2    4    4    0    0  0.23486986037E+03 -0.23169709371E+03 -0.28792606116E+03  0.44508262259E+03  0.79685191163E+02 0.  0.
         24    2    4    4    0    0 -0.42326007735E+03  0.25931918930E+03 -0.12515636704E+04  0.13486976449E+04  0.78601407739E+02 0.  0.
         11    1    3    3    0    0  0.15078145934E+03  0.17593241646E+02 -0.79411119468E+02  0.17132044982E+03  0.00000000000E+00 0. -1.
        -11    1    3    3    0    0  0.37608757644E+02 -0.45215337231E+02 -0.28157060679E+02  0.65204796131E+02  0.00000000000E+00 0.  1.
          4    1    6    6  502    0 -0.35266806021E+03  0.20789874502E+03 -0.94338546822E+03  0.10283835814E+04  0.00000000000E+00 0. -1.
          3    1    5    5  503    0  0.39798256635E+02 -0.66962750567E+02 -0.10613299600E+03  0.13165152500E+03  0.00000000000E+00 0. -1.
         -4    1    5    5    0  503  0.19507160373E+03 -0.16473434315E+03 -0.18179306515E+03  0.31343109758E+03  0.00000000000E+00 0.  1.
         -1    1    6    6    0  502 -0.70592017138E+02  0.51420444281E+02 -0.30817820215E+03  0.32031406347E+03  0.00000000000E+00 0.  1.
<mgrwt>
<rscale>  0 0.11871566E+04</rscale>
<asrwt>0</asrwt>
<pdfrwt beam="1">  1        1 0.28287410E+00 0.11871566E+04</pdfrwt>
<pdfrwt beam="2">  1       -1 0.29480585E-01 0.11871566E+04</pdfrwt>
<totfact> 0.40009426E+01</totfact>
</mgrwt>
</event>
<event>
12    1  0.2019083E-007  0.1181229E+04  0.7818608E-02  0.9129448E-01
          2   -1    0    0  501    0  0.00000000000E+00  0.00000000000E+00  0.14719350712E+03  0.14719350712E+03  0.00000000000E+00 0. -1.
         -2   -1    0    0    0  501 -0.00000000000E+00 -0.00000000000E+00 -0.23698417358E+04  0.23698417358E+04  0.00000000000E+00 0.  1.
         23    2    1    2    0    0  0.10042040010E+02 -0.17991107573E+03 -0.15359235853E+03  0.25379174907E+03  0.91382720232E+02 0.  0.
        254    2    1    2    0    0 -0.10042040010E+02  0.17991107573E+03 -0.20690558701E+04  0.22632434939E+04  0.89933869090E+03 0.  0.
        -24    2    4    4    0    0 -0.31811993425E+03  0.36311624083E+02 -0.25971217609E+03  0.42050700177E+03  0.82806385735E+02 0.  0.
         24    2    4    4    0    0  0.30807789424E+03  0.14359945164E+03 -0.18093436941E+04  0.18427364921E+04  0.80127302520E+02 0.  0.
         11    1    3    3    0    0  0.34549105903E+02 -0.15708923979E+03 -0.96408890281E+02  0.18752424937E+03  0.00000000000E+00 0. -1.
        -11    1    3    3    0    0 -0.24507065893E+02 -0.22821835932E+02 -0.57183468253E+02  0.66267499692E+02  0.00000000000E+00 0.  1.
          4    1    6    6  502    0  0.23440453846E+03  0.69026202651E+02 -0.12777635548E+04  0.13009188315E+04  0.00000000000E+00 0. -1.
          3    1    5    5  503    0 -0.11722699054E+03  0.36802922815E+02 -0.14155533527E+03  0.18744208541E+03  0.00000000000E+00 0. -1.
         -4    1    5    5    0  503 -0.20089294371E+03 -0.49129873254E+00 -0.11815684082E+03  0.23306491636E+03  0.00000000000E+00 0.  1.
         -3    1    6    6    0  502  0.73673355776E+02  0.74573248992E+02 -0.53158013927E+03  0.54181766055E+03  0.00000000000E+00 0.  1.
<mgrwt>
<rscale>  0 0.11812287E+04</rscale>
<asrwt>0</asrwt>
<pdfrwt beam="1">  1        2 0.22645157E-01 0.11812287E+04</pdfrwt>
<pdfrwt beam="2">  1       -2 0.36459100E+00 0.11812287E+04</pdfrwt>
<totfact> 0.31076878E+00</totfact>
</mgrwt>
</event>
<event>
12    1  0.2235732E-007  0.3884351E+04  0.7818608E-02  0.8028292E-01
          2   -1    0    0  501    0  0.00000000000E+00  0.00000000000E+00  0.17260396408E+04  0.17260396408E+04  0.00000000000E+00 0. -1.
         -2   -1    0    0    0  501 -0.00000000000E+00 -0.00000000000E+00 -0.21853756903E+04  0.21853756903E+04  0.00000000000E+00 0.  1.
         23    2    1    2    0    0 -0.15628295456E+04 -0.69102670927E+03 -0.89505933341E+03  0.19311828647E+04  0.91552962959E+02 0.  0.
        254    2    1    2    0    0  0.15628295456E+04  0.69102670927E+03  0.43572328387E+03  0.19802324664E+04  0.90083946375E+03 0.  0.
        -24    2    4    4    0    0  0.33019969787E+03  0.32696120550E+03 -0.23634846928E+03  0.52779683802E+03  0.82300868247E+02 0.  0.
         24    2    4    4    0    0  0.12326298477E+04  0.36406550377E+03  0.67207175316E+03  0.14524356284E+04  0.77257884609E+02 0.  0.
         13    1    3    3    0    0 -0.10122916279E+04 -0.39943806744E+03 -0.56927185627E+03  0.12281512757E+04  0.00000000000E+00 0. -1.
        -13    1    3    3    0    0 -0.55053791764E+03 -0.29158864183E+03 -0.32578747713E+03  0.70303158895E+03  0.00000000000E+00 0.  1.
          2    1    6    6  502    0  0.95810384286E+03  0.25147116325E+03  0.53061784098E+03  0.11237241711E+04  0.00000000000E+00 0. -1.
          1    1    5    5  503    0  0.31816327340E+03  0.31391441587E+03 -0.20490108526E+03  0.49168545206E+03  0.00000000000E+00 0. -1.
         -4    1    5    5    0  503  0.12036424471E+02  0.13046789627E+02 -0.31447384019E+02  0.36111385951E+02  0.00000000000E+00 0.  1.
         -1    1    6    6    0  502  0.27452600485E+03  0.11259434052E+03  0.14145391217E+03  0.32871145724E+03  0.00000000000E+00 0.  1.
<mgrwt>
<rscale>  0 0.38843507E+04</rscale>
<asrwt>0</asrwt>
<pdfrwt beam="1">  1        2 0.26554456E+00 0.38843507E+04</pdfrwt>
<pdfrwt beam="2">  1       -2 0.33621165E+00 0.38843507E+04</pdfrwt>
<totfact> 0.14339107E-01</totfact>
</mgrwt>
</event>
<event>
12    1  0.2019083E-007  0.3599138E+04  0.7818608E-02  0.8090689E-01
          2   -1    0    0  501    0  0.00000000000E+00  0.00000000000E+00  0.23837058392E+04  0.23837058392E+04  0.00000000000E+00 0. -1.
         -2   -1    0    0    0  501 -0.00000000000E+00 -0.00000000000E+00 -0.13585772418E+04  0.13585772418E+04  0.00000000000E+00 0.  1.
         23    2    1    2    0    0  0.96186662141E+03 -0.85564803741E+03  0.16150400650E+04  0.20673516617E+04  0.90925905928E+02 0.  0.
        254    2    1    2    0    0 -0.96186662141E+03  0.85564803741E+03 -0.58991146764E+03  0.16749314192E+04  0.89447121704E+03 0.  0.
        -24    2    4    4    0    0 -0.11156244504E+04  0.75280056416E+03 -0.59363945337E+03  0.14729382378E+04  0.76240723011E+02 0.  0.
         24    2    4    4    0    0  0.15375782902E+03  0.10284747325E+03  0.37279857301E+01  0.20199318146E+03  0.81044893365E+02 0.  0.
         13    1    3    3    0    0  0.15723636415E+03 -0.15852868603E+03  0.23169618669E+03  0.32177281028E+03  0.00000000000E+00 0.  1.
        -13    1    3    3    0    0  0.80463025726E+03 -0.69711935138E+03  0.13833438783E+04  0.17455788515E+04  0.00000000000E+00 0. -1.
          4    1    6    6  502    0  0.69086894341E+02  0.64867018419E+02  0.39323395821E+02  0.10260145470E+03  0.00000000000E+00 0. -1.
          1    1    5    5  503    0 -0.21358697810E+03  0.15024007443E+03 -0.14824672606E+03  0.30028081685E+03  0.00000000000E+00 0. -1.
         -2    1    5    5    0  503 -0.90203747232E+03  0.60256048973E+03 -0.44539272731E+03  0.11726574209E+04  0.00000000000E+00 0.  1.
         -3    1    6    6    0  502  0.84670934677E+02  0.37980454832E+02 -0.35595410091E+02  0.99391726758E+02  0.00000000000E+00 0.  1.
<mgrwt>
<rscale>  0 0.35991380E+04</rscale>
<asrwt>0</asrwt>
<pdfrwt beam="1">  1        2 0.36672398E+00 0.35991380E+04</pdfrwt>
<pdfrwt beam="2">  1       -2 0.20901188E+00 0.35991380E+04</pdfrwt>
<totfact> 0.38470721E-01</totfact>
</mgrwt>
</event>
<event>
12    1  0.2019083E-007  0.1800209E+04  0.7818608E-02  0.8706189E-01
          2   -1    0    0  501    0  0.00000000000E+00  0.00000000000E+00  0.80403715180E+03  0.80403715180E+03  0.00000000000E+00 0.  1.
         -2   -1    0    0    0  501 -0.00000000000E+00 -0.00000000000E+00 -0.10076496142E+04  0.10076496142E+04  0.00000000000E+00 0. -1.
         23    2    1    2    0    0  0.65758551843E+03  0.11265103520E+03 -0.15061656736E+03  0.69011939656E+03  0.92035109350E+02 0.  0.
        254    2    1    2    0    0 -0.65758551843E+03 -0.11265103520E+03 -0.52995895001E+02  0.11215673694E+04  0.89999768303E+03 0.  0.
        -24    2    4    4    0    0 -0.20885604303E+03  0.26486645638E+03  0.27716161343E+03  0.44386336874E+03  0.80131415341E+02 0.  0.
         24    2    4    4    0    0 -0.44872947541E+03 -0.37751749158E+03 -0.33015750843E+03  0.67770400067E+03  0.80007084737E+02 0.  0.
         11    1    3    3    0    0  0.31056288142E+03  0.64196547216E+02 -0.11739106527E+03  0.33815848680E+03  0.00000000000E+00 0. -1.
        -11    1    3    3    0    0  0.34702263701E+03  0.48454487983E+02 -0.33225502090E+02  0.35196090975E+03  0.00000000000E+00 0.  1.
          2    1    6    6  502    0 -0.35521074653E+03 -0.26240718304E+03 -0.22301320061E+03  0.49473941808E+03  0.00000000000E+00 0. -1.
          1    1    5    5  503    0 -0.10134191136E+02  0.41027614207E+02  0.62813640028E+02  0.75706805051E+02  0.00000000000E+00 0. -1.
         -2    1    5    5    0  503 -0.19872185189E+03  0.22383884217E+03  0.21434797340E+03  0.36815656369E+03  0.00000000000E+00 0.  1.
         -1    1    6    6    0  502 -0.93518728875E+02 -0.11511030854E+03 -0.10714430782E+03  0.18296458259E+03  0.00000000000E+00 0.  1.
<mgrwt>
<rscale>  0 0.18002086E+04</rscale>
<asrwt>0</asrwt>
<pdfrwt beam="1">  1        2 0.12369802E+00 0.18002086E+04</pdfrwt>
<pdfrwt beam="2">  1       -2 0.15502302E+00 0.18002086E+04</pdfrwt>
<totfact> 0.88602285E+00</totfact>
</mgrwt>
</event>
<event>
12    1  0.2019083E-007  0.1713116E+04  0.7818608E-02  0.8753919E-01
          2   -1    0    0  501    0  0.00000000000E+00  0.00000000000E+00  0.84560227228E+03  0.84560227228E+03  0.00000000000E+00 0. -1.
         -2   -1    0    0    0  501 -0.00000000000E+00 -0.00000000000E+00 -0.86765604465E+03  0.86765604465E+03  0.00000000000E+00 0.  1.
         23    2    1    2    0    0 -0.14931884403E+03 -0.50709556749E+03 -0.32552001413E+03  0.62742118874E+03  0.90840721711E+02 0.  0.
        254    2    1    2    0    0  0.14931884403E+03  0.50709556749E+03  0.30346624176E+03  0.10858371282E+04  0.89861475468E+03 0.  0.
        -24    2    4    4    0    0  0.47157245603E+03  0.33542313008E+03 -0.29899659970E+02  0.58495118460E+03  0.79903949933E+02 0.  0.
         24    2    4    4    0    0 -0.32225361200E+03  0.17167243741E+03  0.33336590173E+03  0.50088594360E+03  0.80218999277E+02 0.  0.
         13    1    3    3    0    0 -0.27530189021E+02 -0.24199749401E+02 -0.35933544908E+02  0.51329901892E+02  0.00000000000E+00 0. -1.
        -13    1    3    3    0    0 -0.12178865501E+03 -0.48289581809E+03 -0.28958646922E+03  0.57609128684E+03  0.00000000000E+00 0.  1.
          4    1    6    6  502    0 -0.30213848354E+03  0.13284534795E+03  0.29157639976E+03  0.44040021186E+03  0.00000000000E+00 0. -1.
          1    1    5    5  503    0  0.12723394438E+03  0.49869986231E+02 -0.65056407121E+00  0.13665985278E+03  0.00000000000E+00 0. -1.
         -2    1    5    5    0  503  0.34433851165E+03  0.28555314385E+03 -0.29249095899E+02  0.44829133181E+03  0.00000000000E+00 0.  1.
         -3    1    6    6    0  502 -0.20115128458E+02  0.38827089467E+02  0.41789501969E+02  0.60485731741E+02  0.00000000000E+00 0.  1.
<mgrwt>
<rscale>  0 0.17131164E+04</rscale>
<asrwt>0</asrwt>
<pdfrwt beam="1">  1        2 0.13009266E+00 0.17131164E+04</pdfrwt>
<pdfrwt beam="2">  1       -2 0.13348555E+00 0.17131164E+04</pdfrwt>
<totfact> 0.12335379E+01</totfact>
</mgrwt>
</event>
<event>
12    1  0.2019083E-007  0.1642032E+04  0.7818608E-02  0.8795134E-01
          1   -1    0    0  501    0  0.00000000000E+00  0.00000000000E+00  0.95291658762E+03  0.95291658762E+03  0.00000000000E+00 0. -1.
         -1   -1    0    0    0  501 -0.00000000000E+00 -0.00000000000E+00 -0.70737262566E+03  0.70737262566E+03  0.00000000000E+00 0.  1.
         23    2    1    2    0    0 -0.36972206798E+03 -0.41701354175E+03  0.21106814526E+03  0.60260118578E+03  0.89351696121E+02 0.  0.
        254    2    1    2    0    0  0.36972206798E+03  0.41701354175E+03  0.34475816699E+02  0.10576880275E+04  0.89828763770E+03 0.  0.
        -24    2    4    4    0    0 -0.28574868379E+02 -0.20922326431E+03 -0.17054160257E+03  0.28358393225E+03  0.82124971801E+02 0.  0.
         24    2    4    4    0    0  0.39829693636E+03  0.62623680606E+03  0.20501741927E+03  0.77410409526E+03  0.79950117662E+02 0.  0.
         13    1    3    3    0    0 -0.14465745331E+03 -0.10089056630E+03  0.67225873737E+02  0.18874322045E+03  0.00000000000E+00 0.  1.
        -13    1    3    3    0    0 -0.22506461467E+03 -0.31612297546E+03  0.14384227152E+03  0.41385796533E+03  0.00000000000E+00 0. -1.
          4    1    6    6  502    0  0.74181881575E+02  0.92909406708E+02  0.60937670981E+02  0.13359831269E+03  0.00000000000E+00 0. -1.
          3    1    5    5  503    0  0.22831639280E+02 -0.46018055012E+02 -0.63797004807E+02  0.81908503598E+02  0.00000000000E+00 0. -1.
         -4    1    5    5    0  503 -0.51406507659E+02 -0.16320520929E+03 -0.10674459777E+03  0.20167542865E+03  0.00000000000E+00 0.  1.
         -1    1    6    6    0  502  0.32411505478E+03  0.53332739935E+03  0.14407974829E+03  0.64050578257E+03  0.00000000000E+00 0.  1.
<mgrwt>
<rscale>  0 0.16420318E+04</rscale>
<asrwt>0</asrwt>
<pdfrwt beam="1">  1        1 0.14660255E+00 0.16420318E+04</pdfrwt>
<pdfrwt beam="2">  1       -1 0.10882656E+00 0.16420318E+04</pdfrwt>
<totfact> 0.12342770E+01</totfact>
</mgrwt>
</event>
<event>
12    1  0.2019083E-007  0.4843225E+04  0.7818608E-02  0.7853157E-01
          2   -1    0    0  501    0  0.00000000000E+00  0.00000000000E+00  0.34308589122E+04  0.34308589122E+04  0.00000000000E+00 0. -1.
         -2   -1    0    0    0  501 -0.00000000000E+00 -0.00000000000E+00 -0.17092534303E+04  0.17092534303E+04  0.00000000000E+00 0.  1.
         23    2    1    2    0    0 -0.15500671831E+04  0.57580686086E+03 -0.92130812942E+03  0.18950923676E+04  0.91129575255E+02 0.  0.
        254    2    1    2    0    0  0.15500671831E+04 -0.57580686086E+03  0.26429136113E+04  0.32450199749E+04  0.90050012095E+03 0.  0.
        -24    2    4    4    0    0  0.11732310173E+04 -0.77876996598E+03  0.17180437145E+04  0.22228167208E+04  0.79286123803E+02 0.  0.
         24    2    4    4    0    0  0.37683616576E+03  0.20296310512E+03  0.92486989675E+03  0.10222032541E+04  0.79471056980E+02 0.  0.
         11    1    3    3    0    0 -0.67531139959E+03  0.28895090282E+03 -0.44078432338E+03  0.85663815605E+03  0.00000000000E+00 0. -1.
        -11    1    3    3    0    0 -0.87475578347E+03  0.28685595804E+03 -0.48052380604E+03  0.10384542116E+04  0.00000000000E+00 0.  1.
          2    1    6    6  502    0  0.23074926609E+03  0.92774544587E+02  0.46638120939E+03  0.52854874174E+03  0.00000000000E+00 0. -1.
          3    1    5    5  503    0  0.13625685499E+03 -0.11827760954E+03  0.20025546844E+03  0.26955106398E+03  0.00000000000E+00 0. -1.
         -4    1    5    5    0  503  0.10369741623E+04 -0.66049235643E+03  0.15177882461E+04  0.19532656568E+04  0.00000000000E+00 0.  1.
         -1    1    6    6    0  502  0.14608689968E+03  0.11018856053E+03  0.45848868736E+03  0.49365451236E+03  0.00000000000E+00 0.  1.
<mgrwt>
<rscale>  0 0.48432251E+04</rscale>
<asrwt>0</asrwt>
<pdfrwt beam="1">  1        2 0.52782445E+00 0.48432251E+04</pdfrwt>
<pdfrwt beam="2">  1       -2 0.26296207E+00 0.48432251E+04</pdfrwt>
<totfact> 0.35757751E-02</totfact>
</mgrwt>
</event>
<event>
12    1  0.2019083E-007  0.2707804E+04  0.7818608E-02  0.8332477E-01
         -1   -1    0    0    0  501 -0.00000000000E+00  0.00000000000E+00  0.53516222778E+03  0.53516222778E+03  0.00000000000E+00 0.  1.
          1   -1    0    0  501    0  0.00000000000E+00 -0.00000000000E+00 -0.34252247510E+04  0.34252247510E+04  0.00000000000E+00 0. -1.
         23    2    1    2    0    0  0.93839307352E+03 -0.16487168398E+03 -0.23590381815E+04  0.25457500052E+04  0.89541692336E+02 0.  0.
        254    2    1    2    0    0 -0.93839307352E+03  0.16487168398E+03 -0.53102434181E+03  0.14146369737E+04  0.90080335425E+03 0.  0.
        -24    2    4    4    0    0 -0.49706716582E+03 -0.23102991390E+03 -0.59528381682E+03  0.81314287525E+03  0.79924492782E+02 0.  0.
         24    2    4    4    0    0 -0.44132590770E+03  0.39590159789E+03  0.64259475012E+02  0.60149409840E+03  0.78480814656E+02 0.  0.
         13    1    3    3    0    0  0.72091262316E+03 -0.13927746278E+03 -0.19068711543E+04  0.20433479442E+04  0.00000000000E+00 0. -1.
        -13    1    3    3    0    0  0.21748045035E+03 -0.25594221201E+02 -0.45216702716E+03  0.50240206100E+03  0.00000000000E+00 0.  1.
          4    1    6    6  502    0 -0.28580210172E+03  0.20569333718E+03  0.46039380129E+02  0.35512281654E+03  0.00000000000E+00 0. -1.
          1    1    5    5  503    0 -0.25781788577E+03 -0.12562068042E+03 -0.36921660386E+03  0.46751632927E+03  0.00000000000E+00 0. -1.
         -2    1    5    5    0  503 -0.23924928005E+03 -0.10540923349E+03 -0.22606721297E+03  0.34562654598E+03  0.00000000000E+00 0.  1.
         -3    1    6    6    0  502 -0.15552380598E+03  0.19020826071E+03  0.18220094883E+02  0.24637128186E+03  0.00000000000E+00 0.  1.
<mgrwt>
<rscale>  0 0.27078042E+04</rscale>
<asrwt>0</asrwt>
<pdfrwt beam="1">  1        1 0.52695767E+00 0.27078042E+04</pdfrwt>
<pdfrwt beam="2">  1       -1 0.82332647E-01 0.27078042E+04</pdfrwt>
<totfact> 0.36598677E-01</totfact>
</mgrwt>
</event>
<event>
12    1  0.2019083E-007  0.2016248E+04  0.7818608E-02  0.8599062E-01
          2   -1    0    0  501    0  0.00000000000E+00  0.00000000000E+00  0.13267822851E+04  0.13267822851E+04  0.00000000000E+00 0. -1.
         -2   -1    0    0    0  501 -0.00000000000E+00 -0.00000000000E+00 -0.76599902287E+03  0.76599902287E+03  0.00000000000E+00 0.  1.
         23    2    1    2    0    0  0.46092066774E+03  0.65547637783E+03  0.15664935341E+03  0.82198162978E+03  0.94961233832E+02 0.  0.
        254    2    1    2    0    0 -0.46092066774E+03 -0.65547637783E+03  0.40413390884E+03  0.12707996782E+04  0.89972799336E+03 0.  0.
        -24    2    4    4    0    0 -0.51579095658E+03 -0.45241296430E+03  0.64241354325E+03  0.94338087494E+03  0.80959949989E+02 0.  0.
         24    2    4    4    0    0  0.54870288832E+02 -0.20306341352E+03 -0.23827963440E+03  0.32741880327E+03  0.78615456858E+02 0.  0.
         11    1    3    3    0    0  0.56905825215E+02  0.67036305835E+02 -0.11434058976E+02  0.88672864779E+02  0.00000000000E+00 0.  1.
        -11    1    3    3    0    0  0.40401484253E+03  0.58844007199E+03  0.16808341239E+03  0.73330876500E+03  0.00000000000E+00 0. -1.
          4    1    6    6  502    0  0.49219350600E+02 -0.88159456484E+02 -0.15660198021E+03  0.18632985388E+03  0.00000000000E+00 0. -1.
          1    1    5    5  503    0 -0.35167477447E+03 -0.27838242818E+03  0.46074968038E+03  0.64301025753E+03  0.00000000000E+00 0. -1.
         -2    1    5    5    0  503 -0.16411618211E+03 -0.17403053612E+03  0.18166386287E+03  0.30037061741E+03  0.00000000000E+00 0.  1.
         -3    1    6    6    0  502  0.56509382324E+01 -0.11490395704E+03 -0.81677654192E+02  0.14108894939E+03  0.00000000000E+00 0.  1.
<mgrwt>
<rscale>  0 0.20162479E+04</rscale>
<asrwt>0</asrwt>
<pdfrwt beam="1">  1        2 0.20412035E+00 0.20162479E+04</pdfrwt>
<pdfrwt beam="2">  1       -2 0.11784600E+00 0.20162479E+04</pdfrwt>
<totfact> 0.82195792E+00</totfact>
</mgrwt>
</event>
<event>
12    1  0.2019083E-007  0.2099513E+04  0.7818608E-02  0.8561458E-01
          1   -1    0    0  501    0  0.00000000000E+00  0.00000000000E+00  0.56484343354E+03  0.56484343354E+03  0.00000000000E+00 0. -1.
         -1   -1    0    0    0  501 -0.00000000000E+00 -0.00000000000E+00 -0.19509622025E+04  0.19509622025E+04  0.00000000000E+00 0.  1.
         23    2    1    2    0    0  0.44590046217E+03 -0.64116982847E+03 -0.97328873234E+03  0.12512115955E+04  0.91178556235E+02 0.  0.
        254    2    1    2    0    0 -0.44590046217E+03  0.64116982847E+03 -0.41283003659E+03  0.12645940405E+04  0.90489970553E+03 0.  0.
        -24    2    4    4    0    0 -0.39597727431E+03  0.30947258064E+03  0.21240089140E+03  0.55138133724E+03  0.79598746480E+02 0.  0.
         24    2    4    4    0    0 -0.49923187856E+02  0.33169724783E+03 -0.62523092799E+03  0.71321270327E+03  0.72410343771E+02 0.  0.
         13    1    3    3    0    0  0.11410571673E+03 -0.20112098196E+03 -0.34671341368E+03  0.41674927139E+03  0.00000000000E+00 0.  1.
        -13    1    3    3    0    0  0.33179474544E+03 -0.44004884651E+03 -0.62657531866E+03  0.83446232412E+03  0.00000000000E+00 0. -1.
          2    1    6    6  502    0 -0.24143418764E+02  0.30284475351E+03 -0.56772596529E+03  0.64390264874E+03  0.00000000000E+00 0. -1.
          3    1    5    5  503    0 -0.31538571279E+03  0.24195517214E+03  0.13139822421E+03  0.41865970248E+03  0.00000000000E+00 0. -1.
         -4    1    5    5    0  503 -0.80591561522E+02  0.67517408504E+02  0.81002667187E+02  0.13272163475E+03  0.00000000000E+00 0.  1.
         -1    1    6    6    0  502 -0.25779769091E+02  0.28852494328E+02 -0.57504962709E+02  0.69310054534E+02  0.00000000000E+00 0.  1.
<mgrwt>
<rscale>  0 0.20995125E+04</rscale>
<asrwt>0</asrwt>
<pdfrwt beam="1">  1        1 0.86898989E-01 0.20995125E+04</pdfrwt>
<pdfrwt beam="2">  1       -1 0.30014803E+00 0.20995125E+04</pdfrwt>
<totfact> 0.11325840E+00</totfact>
</mgrwt>
</event>
<event>
12    1  0.2019083E-007  0.2211193E+04  0.7818608E-02  0.8513784E-01
          2   -1    0    0  501    0  0.00000000000E+00  0.00000000000E+00  0.16313556530E+04  0.16313556530E+04  0.00000000000E+00 0.  1.
         -2   -1    0    0    0  501 -0.00000000000E+00 -0.00000000000E+00 -0.74928080217E+03  0.74928080217E+03  0.00000000000E+00 0. -1.
         23    2    1    2    0    0 -0.74794080768E+03  0.82501275145E+02 -0.20126911526E+03  0.78413203904E+03  0.90176968762E+02 0.  0.
        254    2    1    2    0    0  0.74794080768E+03 -0.82501275145E+02  0.10833439661E+04  0.15965044162E+04  0.89942775682E+03 0.  0.
        -24    2    4    4    0    0  0.89481564348E+03  0.53555980196E+02  0.10413921333E+04  0.13764479398E+04  0.80920188385E+02 0.  0.
         24    2    4    4    0    0 -0.14687483580E+03 -0.13605725534E+03  0.41951832779E+02  0.22005647633E+03  0.81123993843E+02 0.  0.
         11    1    3    3    0    0 -0.18733040694E+03  0.40365591053E+02 -0.86955804599E+02  0.21043615245E+03  0.00000000000E+00 0. -1.
        -11    1    3    3    0    0 -0.56061040074E+03  0.42135684093E+02 -0.11431331066E+03  0.57369588658E+03  0.00000000000E+00 0.  1.
          4    1    6    6  502    0 -0.12049803253E+03 -0.66007880129E+02  0.73353719663E+01  0.13758860332E+03  0.00000000000E+00 0. -1.
          1    1    5    5  503    0  0.70856827641E+03  0.93642195424E+01  0.81683816937E+03  0.10813793441E+04  0.00000000000E+00 0. -1.
         -2    1    5    5    0  503  0.18624736707E+03  0.44191760654E+02  0.22455396397E+03  0.29506859573E+03  0.00000000000E+00 0.  1.
         -3    1    6    6    0  502 -0.26376803272E+02 -0.70049375213E+02  0.34616460813E+02  0.82467873004E+02  0.00000000000E+00 0.  1.
<mgrwt>
<rscale>  0 0.22111929E+04</rscale>
<asrwt>0</asrwt>
<pdfrwt beam="1">  1        2 0.25097779E+00 0.22111929E+04</pdfrwt>
<pdfrwt beam="2">  1       -2 0.11527397E+00 0.22111929E+04</pdfrwt>
<totfact> 0.57345347E+00</totfact>
</mgrwt>
</event>
<event>
12    1  0.2019083E-007  0.1819212E+04  0.7818608E-02  0.8696149E-01
         -1   -1    0    0    0  501 -0.00000000000E+00  0.00000000000E+00  0.51008117851E+03  0.51008117851E+03  0.00000000000E+00 0.  1.
          1   -1    0    0  501    0  0.00000000000E+00 -0.00000000000E+00 -0.16220612552E+04  0.16220612552E+04  0.00000000000E+00 0. -1.
         23    2    1    2    0    0  0.41985299015E+03 -0.53787810991E+03 -0.45878342128E+03  0.82751245951E+03  0.93301921501E+02 0.  0.
        254    2    1    2    0    0 -0.41985299015E+03  0.53787810991E+03 -0.65319665542E+03  0.13046299742E+04  0.89989116257E+03 0.  0.
        -24    2    4    4    0    0 -0.17591441123E+03  0.60742907629E+03 -0.42179484598E+02  0.63873934638E+03  0.79327680543E+02 0.  0.
         24    2    4    4    0    0 -0.24393857892E+03 -0.69550966378E+02 -0.61101717082E+03  0.66589062782E+03  0.75663584182E+02 0.  0.
         13    1    3    3    0    0  0.17573717132E+03 -0.29254820528E+03 -0.25344288960E+03  0.42508976003E+03  0.00000000000E+00 0. -1.
        -13    1    3    3    0    0  0.24411581883E+03 -0.24532990463E+03 -0.20534053168E+03  0.40242269948E+03  0.00000000000E+00 0.  1.
          4    1    6    6  502    0 -0.24856007682E+03 -0.62962079373E+02 -0.59685125766E+03  0.64959815193E+03  0.00000000000E+00 0. -1.
          1    1    5    5  503    0 -0.16272797215E+03  0.58839708691E+03 -0.27055846443E+02  0.61108390883E+03  0.00000000000E+00 0. -1.
         -2    1    5    5    0  503 -0.13186439080E+02  0.19031989379E+02 -0.15123638155E+02  0.27655437556E+02  0.00000000000E+00 0.  1.
         -3    1    6    6    0  502  0.46214978988E+01 -0.65888870049E+01 -0.14165913164E+02  0.16292475888E+02  0.00000000000E+00 0.  1.
<mgrwt>
<rscale>  0 0.18192118E+04</rscale>
<asrwt>0</asrwt>
<pdfrwt beam="1">  1        1 0.24954789E+00 0.18192118E+04</pdfrwt>
<pdfrwt beam="2">  1       -1 0.78474027E-01 0.18192118E+04</pdfrwt>
<totfact> 0.82495421E+00</totfact>
</mgrwt>
</event>
<event>
12    1  0.2019083E-007  0.2370968E+04  0.7818608E-02  0.8450453E-01
         -1   -1    0    0    0  501 -0.00000000000E+00  0.00000000000E+00  0.12002844995E+04  0.12002844995E+04  0.00000000000E+00 0.  1.
          1   -1    0    0  501    0  0.00000000000E+00 -0.00000000000E+00 -0.11708663464E+04  0.11708663464E+04  0.00000000000E+00 0. -1.
         23    2    1    2    0    0  0.11363874808E+03 -0.41233812084E+03 -0.91069419746E+03  0.10095951840E+04  0.83558501762E+02 0.  0.
        254    2    1    2    0    0 -0.11363874808E+03  0.41233812084E+03  0.94011235054E+03  0.13615556620E+04  0.88717872952E+03 0.  0.
        -24    2    4    4    0    0 -0.43586051748E+03  0.10262367043E+03  0.20704991044E+03  0.49967803142E+03  0.79388042158E+02 0.  0.
         24    2    4    4    0    0  0.32222176940E+03  0.30971445042E+03  0.73306244010E+03  0.86187763058E+03  0.75515558266E+02 0.  0.
         11    1    3    3    0    0  0.38572250310E+02 -0.10621043350E+03 -0.16460398888E+03  0.19965707559E+03  0.00000000000E+00 0.  1.
        -11    1    3    3    0    0  0.75066497771E+02 -0.30612768734E+03 -0.74609020858E+03  0.80993810837E+03  0.00000000000E+00 0. -1.
          2    1    6    6  502    0  0.30997872416E+03  0.30374902239E+03  0.72760303689E+03  0.84720508575E+03  0.00000000000E+00 0. -1.
          1    1    5    5  503    0 -0.43861549471E+03  0.10511155123E+03  0.20498039924E+03  0.49542805177E+03  0.00000000000E+00 0. -1.
         -4    1    5    5    0  503  0.27549772306E+01 -0.24878808049E+01  0.20695111986E+01  0.42499796519E+01  0.00000000000E+00 0.  1.
         -1    1    6    6    0  502  0.12243045244E+02  0.59654280260E+01  0.54594032104E+01  0.14672544830E+02  0.00000000000E+00 0.  1.
<mgrwt>
<rscale>  0 0.23709683E+04</rscale>
<asrwt>0</asrwt>
<pdfrwt beam="1">  1        1 0.18013328E+00 0.23709683E+04</pdfrwt>
<pdfrwt beam="2">  1       -1 0.18465915E+00 0.23709683E+04</pdfrwt>
<totfact> 0.19438972E+00</totfact>
</mgrwt>
</event>
<event>
12    1  0.2019083E-007  0.3516317E+04  0.7818608E-02  0.8109934E-01
         -1   -1    0    0    0  501 -0.00000000000E+00  0.00000000000E+00  0.19472603444E+04  0.19472603444E+04  0.00000000000E+00 0.  1.
          1   -1    0    0  501    0  0.00000000000E+00 -0.00000000000E+00 -0.15874202648E+04  0.15874202648E+04  0.00000000000E+00 0. -1.
         23    2    1    2    0    0 -0.21353356380E+03  0.16155797457E+04  0.31798495849E+03  0.16628764684E+04  0.91374054004E+02 0.  0.
        254    2    1    2    0    0  0.21353356380E+03 -0.16155797457E+04  0.41855121161E+02  0.18718041408E+04  0.91989368565E+03 0.  0.
        -24    2    4    4    0    0 -0.33969773373E+03 -0.77527158042E+03 -0.85629524448E+02  0.85449647880E+03  0.79945250670E+02 0.  0.
         24    2    4    4    0    0  0.55323129753E+03 -0.84030816526E+03  0.12748464561E+03  0.10173076620E+04  0.80497597404E+02 0.  0.
         13    1    3    3    0    0 -0.98688858402E+02  0.48597336864E+03  0.12166833605E+03  0.51060042087E+03  0.00000000000E+00 0. -1.
        -13    1    3    3    0    0 -0.11484470539E+03  0.11296063770E+04  0.19631662243E+03  0.11522760475E+04  0.00000000000E+00 0.  1.
          2    1    6    6  502    0  0.16204276450E+03 -0.31478137946E+03  0.37622398742E+02  0.35603457594E+03  0.00000000000E+00 0. -1.
          1    1    5    5  503    0 -0.15121463519E+03 -0.30437837893E+03 -0.70216251511E+02  0.34704810247E+03  0.00000000000E+00 0. -1.
         -2    1    5    5    0  503 -0.18848309854E+03 -0.47089320149E+03 -0.15413272938E+02  0.50744837632E+03  0.00000000000E+00 0.  1.
         -3    1    6    6    0  502  0.39118853302E+03 -0.52552678580E+03  0.89862246868E+02  0.66127308608E+03  0.00000000000E+00 0.  1.
<mgrwt>
<rscale>  0 0.35163166E+04</rscale>
<asrwt>0</asrwt>
<pdfrwt beam="1">  1        1 0.24421850E+00 0.35163166E+04</pdfrwt>
<pdfrwt beam="2">  1       -1 0.29957852E+00 0.35163166E+04</pdfrwt>
<totfact> 0.15410977E-01</totfact>
</mgrwt>
</event>
<event>
12    1  0.2019083E-007  0.1930085E+04  0.7818608E-02  0.8640024E-01
          1   -1    0    0  501    0  0.00000000000E+00  0.00000000000E+00  0.14344308415E+04  0.14344308415E+04  0.00000000000E+00 0. -1.
         -1   -1    0    0    0  501 -0.00000000000E+00 -0.00000000000E+00 -0.64925199008E+03  0.64925199008E+03  0.00000000000E+00 0.  1.
         23    2    1    2    0    0 -0.44974197154E+03 -0.18586297533E+02 -0.34253073750E+03  0.57303826750E+03  0.91827329619E+02 0.  0.
        254    2    1    2    0    0  0.44974197154E+03  0.18586297533E+02  0.11277095889E+04  0.15106445641E+04  0.89872397910E+03 0.  0.
        -24    2    4    4    0    0  0.56630654490E+03  0.31200241211E+03  0.90931414109E+03  0.11186169559E+04  0.80019240406E+02 0.  0.
         24    2    4    4    0    0 -0.11656457336E+03 -0.29341611457E+03  0.21839544781E+03  0.39202760818E+03  0.79427689748E+02 0.  0.
         13    1    3    3    0    0 -0.33217731308E+03  0.69230408192E+01 -0.29282850150E+03  0.44287495652E+03  0.00000000000E+00 0.  1.
        -13    1    3    3    0    0 -0.11756465847E+03 -0.25509338352E+02 -0.49702235998E+02  0.13016331098E+03  0.00000000000E+00 0. -1.
          4    1    6    6  502    0 -0.96737230433E+02 -0.25556456296E+03  0.21755842537E+03  0.34928928704E+03  0.00000000000E+00 0. -1.
          1    1    5    5  503    0  0.33396820164E+03  0.14190446161E+03  0.48141159090E+03  0.60285052524E+03  0.00000000000E+00 0. -1.
         -2    1    5    5    0  503  0.23233834326E+03  0.17009795050E+03  0.42790255019E+03  0.51576643064E+03  0.00000000000E+00 0.  1.
         -3    1    6    6    0  502 -0.19827342926E+02 -0.37851551618E+02  0.83702243674E+00  0.42738321141E+02  0.00000000000E+00 0.  1.
<mgrwt>
<rscale>  0 0.19300851E+04</rscale>
<asrwt>0</asrwt>
<pdfrwt beam="1">  1        1 0.22068167E+00 0.19300851E+04</pdfrwt>
<pdfrwt beam="2">  1       -1 0.99884922E-01 0.19300851E+04</pdfrwt>
<totfact> 0.64811071E+00</totfact>
</mgrwt>
</event>
<event>
12    1  0.2019083E-007  0.1597086E+04  0.7818608E-02  0.8822340E-01
         -1   -1    0    0    0  501 -0.00000000000E+00  0.00000000000E+00  0.58685128979E+03  0.58685128979E+03  0.00000000000E+00 0.  1.
          1   -1    0    0  501    0  0.00000000000E+00 -0.00000000000E+00 -0.10865972759E+04  0.10865972759E+04  0.00000000000E+00 0. -1.
         23    2    1    2    0    0 -0.41319454477E+03  0.13408846442E+03  0.16464551953E+03  0.47324765228E+03  0.90253782058E+02 0.  0.
        254    2    1    2    0    0  0.41319454477E+03 -0.13408846442E+03 -0.66439150567E+03  0.12002009134E+04  0.90019815136E+03 0.  0.
        -24    2    4    4    0    0  0.44541946180E+03  0.22460068460E+03 -0.65999543398E+03  0.83119783626E+03  0.80323755237E+02 0.  0.
         24    2    4    4    0    0 -0.32224917029E+02 -0.35868914902E+03 -0.43960716919E+01  0.36900307718E+03  0.80296915397E+02 0.  0.
         11    1    3    3    0    0 -0.14433529761E+03  0.29349024636E+01  0.59852765922E+02  0.15628066220E+03  0.00000000000E+00 0.  1.
        -11    1    3    3    0    0 -0.26885924716E+03  0.13115356195E+03  0.10479275360E+03  0.31696699009E+03  0.00000000000E+00 0. -1.
          4    1    6    6  502    0 -0.40827521184E+02 -0.78534491539E+02 -0.59402959985E+01  0.88712118472E+02  0.00000000000E+00 0. -1.
          1    1    5    5  503    0  0.14537312631E+03  0.64456668150E+02 -0.15287418422E+03  0.22058677233E+03  0.00000000000E+00 0. -1.
         -2    1    5    5    0  503  0.30004633548E+03  0.16014401645E+03 -0.50712124976E+03  0.61061106393E+03  0.00000000000E+00 0.  1.
         -3    1    6    6    0  502  0.86026041542E+01 -0.28015465748E+03  0.15442243066E+01  0.28029095871E+03  0.00000000000E+00 0.  1.
<mgrwt>
<rscale>  0 0.15970861E+04</rscale>
<asrwt>0</asrwt>
<pdfrwt beam="1">  1        1 0.16716881E+00 0.15970861E+04</pdfrwt>
<pdfrwt beam="2">  1       -1 0.90284815E-01 0.15970861E+04</pdfrwt>
<totfact> 0.14943731E+01</totfact>
</mgrwt>
</event>
<event>
12    1  0.2019083E-007  0.1858225E+04  0.7818608E-02  0.8675934E-01
          1   -1    0    0  501    0  0.00000000000E+00  0.00000000000E+00  0.12802210965E+04  0.12802210965E+04  0.00000000000E+00 0. -1.
         -1   -1    0    0    0  501 -0.00000000000E+00 -0.00000000000E+00 -0.67429783475E+03  0.67429783475E+03  0.00000000000E+00 0.  1.
         23    2    1    2    0    0 -0.59998846590E+03 -0.24365478471E+03 -0.67771217224E+02  0.65727822400E+03  0.89821559475E+02 0.  0.
        254    2    1    2    0    0  0.59998846590E+03  0.24365478471E+03  0.67369447898E+03  0.12972407073E+04  0.89978630142E+03 0.  0.
        -24    2    4    4    0    0 -0.18358050451E+03 -0.11226931115E+03  0.23386785086E+03  0.32742513763E+03  0.78783559318E+02 0.  0.
         24    2    4    4    0    0  0.78356897041E+03  0.35592409586E+03  0.43982662812E+03  0.96981556962E+03  0.80202761074E+02 0.  0.
         13    1    3    3    0    0 -0.16037655674E+03 -0.95180281347E+02 -0.49313099687E+02  0.19290336366E+03  0.00000000000E+00 0.  1.
        -13    1    3    3    0    0 -0.43961190916E+03 -0.14847450336E+03 -0.18458117537E+02  0.46437486035E+03  0.00000000000E+00 0. -1.
          4    1    6    6  502    0  0.44727343493E+03  0.18852986754E+03  0.20567394490E+03  0.52716108369E+03  0.00000000000E+00 0. -1.
          1    1    5    5  503    0 -0.14116895943E+03 -0.48472175035E+02  0.17969004807E+03  0.23359524874E+03  0.00000000000E+00 0. -1.
         -2    1    5    5    0  503 -0.42411545087E+02 -0.63797136116E+02  0.54177802797E+02  0.93829888891E+02  0.00000000000E+00 0.  1.
         -1    1    6    6    0  502  0.33629553548E+03  0.16739422832E+03  0.23415268322E+03  0.44265448593E+03  0.00000000000E+00 0.  1.
<mgrwt>
<rscale>  0 0.18582253E+04</rscale>
<asrwt>0</asrwt>
<pdfrwt beam="1">  1        1 0.19695709E+00 0.18582253E+04</pdfrwt>
<pdfrwt beam="2">  1       -1 0.10373813E+00 0.18582253E+04</pdfrwt>
<totfact> 0.76847304E+00</totfact>
</mgrwt>
</event>
<event>
12    1  0.2019083E-007  0.2187008E+04  0.7818608E-02  0.8523855E-01
          1   -1    0    0  501    0  0.00000000000E+00  0.00000000000E+00  0.32341740329E+04  0.32341740329E+04  0.00000000000E+00 0. -1.
         -1   -1    0    0    0  501 -0.00000000000E+00 -0.00000000000E+00 -0.36972367698E+03  0.36972367698E+03  0.00000000000E+00 0.  1.
         23    2    1    2    0    0 -0.46356908611E+03  0.41732374108E+02  0.24704197288E+04  0.25155808135E+04  0.92386710008E+02 0.  0.
        254    2    1    2    0    0  0.46356908611E+03 -0.41732374108E+02  0.39403062721E+03  0.10883168965E+04  0.90140759000E+03 0.  0.
        -24    2    4    4    0    0  0.37612218203E+03  0.31406340520E+03 -0.59027385686E+02  0.50012029305E+03  0.80822997682E+02 0.  0.
         24    2    4    4    0    0  0.87446904075E+02 -0.35579577931E+03  0.45305801289E+03  0.58819660341E+03  0.80474117652E+02 0.  0.
         13    1    3    3    0    0 -0.14265270864E+03  0.70960878750E+01  0.55105089157E+03  0.56926025230E+03  0.00000000000E+00 0.  1.
        -13    1    3    3    0    0 -0.32091637747E+03  0.34636286233E+02  0.19193688372E+04  0.19463205612E+04  0.00000000000E+00 0. -1.
          4    1    6    6  502    0  0.90458741439E+02 -0.22068402792E+03  0.26370803722E+03  0.35556455529E+03  0.00000000000E+00 0. -1.
          1    1    5    5  503    0  0.10223112406E+03  0.13520704303E+03 -0.19562700356E+02  0.17063073128E+03  0.00000000000E+00 0. -1.
         -2    1    5    5    0  503  0.27389105798E+03  0.17885636217E+03 -0.39464685329E+02  0.32948956177E+03  0.00000000000E+00 0.  1.
         -3    1    6    6    0  502 -0.30118373635E+01 -0.13511175139E+03  0.18934997567E+03  0.23263204812E+03  0.00000000000E+00 0.  1.
<mgrwt>
<rscale>  0 0.21870077E+04</rscale>
<asrwt>0</asrwt>
<pdfrwt beam="1">  1        1 0.49756522E+00 0.21870077E+04</pdfrwt>
<pdfrwt beam="2">  1       -1 0.56880568E-01 0.21870077E+04</pdfrwt>
<totfact> 0.11461763E+00</totfact>
</mgrwt>
</event>
<event>
12    1  0.2019083E-007  0.2369778E+04  0.7818608E-02  0.8450906E-01
          2   -1    0    0  501    0  0.00000000000E+00  0.00000000000E+00  0.11618271296E+04  0.11618271296E+04  0.00000000000E+00 0. -1.
         -2   -1    0    0    0  501 -0.00000000000E+00 -0.00000000000E+00 -0.12084083622E+04  0.12084083622E+04  0.00000000000E+00 0.  1.
         23    2    1    2    0    0  0.53176467059E+03 -0.31891640399E+03 -0.82002421718E+03  0.10321858576E+04  0.92122691471E+02 0.  0.
        254    2    1    2    0    0 -0.53176467059E+03  0.31891640399E+03  0.77344298453E+03  0.13380496342E+04  0.89871098556E+03 0.  0.
        -24    2    4    4    0    0 -0.33149266181E+03  0.40103478761E+03  0.92336803167E+03  0.10628782342E+04  0.79908278886E+02 0.  0.
         24    2    4    4    0    0 -0.20027200879E+03 -0.82118383625E+02 -0.14992504715E+03  0.27517140000E+03  0.79934180328E+02 0.  0.
         13    1    3    3    0    0  0.22245601516E+03 -0.98342730140E+02 -0.37613728269E+03  0.44792547001E+03  0.00000000000E+00 0.  1.
        -13    1    3    3    0    0  0.30930865543E+03 -0.22057367385E+03 -0.44388693448E+03  0.58426038761E+03  0.00000000000E+00 0. -1.
          2    1    6    6  502    0 -0.57408958034E+02 -0.21173990423E+02 -0.28323981172E+01  0.61254786034E+02  0.00000000000E+00 0. -1.
          1    1    5    5  503    0 -0.15329109297E+03  0.22670689326E+03  0.42228513880E+03  0.50320861786E+03  0.00000000000E+00 0. -1.
         -2    1    5    5    0  503 -0.17820156884E+03  0.17432789436E+03  0.50108289287E+03  0.55966961631E+03  0.00000000000E+00 0.  1.
         -1    1    6    6    0  502 -0.14286305075E+03 -0.60944393202E+02 -0.14709264903E+03  0.21391661397E+03  0.00000000000E+00 0.  1.
<mgrwt>
<rscale>  0 0.23697777E+04</rscale>
<asrwt>0</asrwt>
<pdfrwt beam="1">  1        2 0.17874264E+00 0.23697777E+04</pdfrwt>
<pdfrwt beam="2">  1       -2 0.18590898E+00 0.23697777E+04</pdfrwt>
<totfact> 0.29735051E+00</totfact>
</mgrwt>
</event>
<event>
12    1  0.2019083E-007  0.2609696E+04  0.7818608E-02  0.8364915E-01
         -2   -1    0    0    0  501 -0.00000000000E+00  0.00000000000E+00  0.18231661436E+04  0.18231661436E+04  0.00000000000E+00 0.  1.
          2   -1    0    0  501    0  0.00000000000E+00 -0.00000000000E+00 -0.93388523185E+03  0.93388523185E+03  0.00000000000E+00 0. -1.
         23    2    1    2    0    0  0.99346892993E+03  0.52202027664E+03  0.64669080278E+03  0.12985917537E+04  0.92983140222E+02 0.  0.
        254    2    1    2    0    0 -0.99346892993E+03 -0.52202027664E+03  0.24259010898E+03  0.14584596218E+04  0.89931575290E+03 0.  0.
        -24    2    4    4    0    0  0.12560051698E+03 -0.42318042028E+02 -0.10825793917E+03  0.18866869565E+03  0.79434178906E+02 0.  0.
         24    2    4    4    0    0 -0.11190694469E+04 -0.47970223462E+03  0.35084804814E+03  0.12697909261E+04  0.82728364286E+02 0.  0.
         11    1    3    3    0    0  0.72295594056E+03  0.41758784288E+03  0.50640145922E+03  0.97646676155E+03  0.00000000000E+00 0.  1.
        -11    1    3    3    0    0  0.27051298937E+03  0.10443243377E+03  0.14028934357E+03  0.32212499213E+03  0.00000000000E+00 0. -1.
          4    1    6    6  502    0 -0.19426860109E+03 -0.11598834172E+03  0.53380815634E+02  0.23247171067E+03  0.00000000000E+00 0. -1.
          3    1    5    5  503    0  0.88574539358E+01  0.57676492069E+01 -0.47297257372E+02  0.48463912580E+02  0.00000000000E+00 0. -1.
         -4    1    5    5    0  503  0.11674306305E+03 -0.48085691235E+02 -0.60960681796E+02  0.14020478307E+03  0.00000000000E+00 0.  1.
         -1    1    6    6    0  502 -0.92480084582E+03 -0.36371389289E+03  0.29746723251E+03  0.10373192154E+04  0.00000000000E+00 0.  1.
<mgrwt>
<rscale>  0 0.26096957E+04</rscale>
<asrwt>0</asrwt>
<pdfrwt beam="1">  1        2 0.14367465E+00 0.26096957E+04</pdfrwt>
<pdfrwt beam="2">  1       -2 0.28048710E+00 0.26096957E+04</pdfrwt>
<totfact> 0.10286268E+00</totfact>
</mgrwt>
</event>
<event>
12    1  0.2019083E-007  0.1729952E+04  0.7818608E-02  0.8744464E-01
          1   -1    0    0  501    0  0.00000000000E+00  0.00000000000E+00  0.48670737305E+03  0.48670737305E+03  0.00000000000E+00 0. -1.
         -1   -1    0    0    0  501 -0.00000000000E+00 -0.00000000000E+00 -0.15372340787E+04  0.15372340787E+04  0.00000000000E+00 0.  1.
         23    2    1    2    0    0 -0.23602973102E+03 -0.55744025627E+03 -0.19481759284E+03  0.64239105084E+03  0.90899364588E+02 0.  0.
        254    2    1    2    0    0  0.23602973102E+03  0.55744025627E+03 -0.85570911279E+03  0.13815504009E+04  0.89999652846E+03 0.  0.
        -24    2    4    4    0    0 -0.11147698077E+03  0.68528456866E+03 -0.62843994516E+03  0.93983777201E+03  0.79474623161E+02 0.  0.
         24    2    4    4    0    0  0.34750671179E+03 -0.12784431239E+03 -0.22726916762E+03  0.44171262888E+03  0.79710030777E+02 0.  0.
         13    1    3    3    0    0 -0.63123264644E+02 -0.26482846215E+03 -0.88495892700E+02  0.28626942542E+03  0.00000000000E+00 0.  1.
        -13    1    3    3    0    0 -0.17290646637E+03 -0.29261179412E+03 -0.10632170014E+03  0.35612162543E+03  0.00000000000E+00 0. -1.
          2    1    6    6  502    0  0.28415001593E+03 -0.96453321878E+02 -0.14511515260E+03  0.33332098999E+03  0.00000000000E+00 0. -1.
          3    1    5    5  503    0 -0.63044600916E+02  0.54109860939E+03 -0.51940435580E+03  0.75269064802E+03  0.00000000000E+00 0. -1.
         -4    1    5    5    0  503 -0.48432379858E+02  0.14418595927E+03 -0.10903558936E+03  0.18714712399E+03  0.00000000000E+00 0.  1.
         -1    1    6    6    0  502  0.63356695857E+02 -0.31390990509E+02 -0.82154015022E+02  0.10839163888E+03  0.00000000000E+00 0.  1.
<mgrwt>
<rscale>  0 0.17299516E+04</rscale>
<asrwt>0</asrwt>
<pdfrwt beam="1">  1        1 0.74878058E-01 0.17299516E+04</pdfrwt>
<pdfrwt beam="2">  1       -1 0.23649755E+00 0.17299516E+04</pdfrwt>
<totfact> 0.37332544E+00</totfact>
</mgrwt>
</event>
<event>
12    1  0.2019083E-007  0.2108437E+04  0.7818608E-02  0.8557536E-01
          1   -1    0    0  501    0  0.00000000000E+00  0.00000000000E+00  0.10796333862E+04  0.10796333862E+04  0.00000000000E+00 0. -1.
         -1   -1    0    0    0  501 -0.00000000000E+00 -0.00000000000E+00 -0.10294019629E+04  0.10294019629E+04  0.00000000000E+00 0.  1.
         23    2    1    2    0    0 -0.34262758987E+03  0.66943847182E+03 -0.39500868344E+03  0.85475789188E+03  0.95066612674E+02 0.  0.
        254    2    1    2    0    0  0.34262758987E+03 -0.66943847182E+03  0.44524010676E+03  0.12542774572E+04  0.89968419692E+03 0.  0.
        -24    2    4    4    0    0  0.20605318596E+03 -0.42746035423E+03 -0.21989129398E+03  0.52889697634E+03  0.78737288100E+02 0.  0.
         24    2    4    4    0    0  0.13657440391E+03 -0.24197811760E+03  0.66513140074E+03  0.72538048090E+03  0.81062226892E+02 0.  0.
         11    1    3    3    0    0 -0.71207680753E+02  0.21458589507E+03 -0.88558968254E+02  0.24281748499E+03  0.00000000000E+00 0. -1.
        -11    1    3    3    0    0 -0.27141990912E+03  0.45485257676E+03 -0.30644971519E+03  0.61194040689E+03  0.00000000000E+00 0.  1.
          2    1    6    6  502    0  0.14703853427E+03 -0.21680689444E+03  0.61027566410E+03  0.66412494776E+03  0.00000000000E+00 0. -1.
          1    1    5    5  503    0  0.12365953373E+03 -0.32912192543E+03 -0.17697889946E+03  0.39361714004E+03  0.00000000000E+00 0. -1.
         -2    1    5    5    0  503  0.82393652233E+02 -0.98338428803E+02 -0.42912394513E+02  0.13527983630E+03  0.00000000000E+00 0.  1.
         -1    1    6    6    0  502 -0.10464130358E+02 -0.25171223152E+02  0.54855736634E+02  0.61255533144E+02  0.00000000000E+00 0.  1.
<mgrwt>
<rscale>  0 0.21084371E+04</rscale>
<asrwt>0</asrwt>
<pdfrwt beam="1">  1        1 0.16609744E+00 0.21084371E+04</pdfrwt>
<pdfrwt beam="2">  1       -1 0.15836953E+00 0.21084371E+04</pdfrwt>
<totfact> 0.36305645E+00</totfact>
</mgrwt>
</event>
<event>
12    1  0.2019083E-007  0.1417464E+04  0.7818608E-02  0.8941273E-01
         -1   -1    0    0    0  501 -0.00000000000E+00  0.00000000000E+00  0.28898978620E+03  0.28898978620E+03  0.00000000000E+00 0.  1.
          1   -1    0    0  501    0  0.00000000000E+00 -0.00000000000E+00 -0.17381269638E+04  0.17381269638E+04  0.00000000000E+00 0. -1.
         23    2    1    2    0    0  0.68371236532E+02 -0.32337375696E+03 -0.74596367767E+02  0.35092588205E+03  0.91318913347E+02 0.  0.
        254    2    1    2    0    0 -0.68371236532E+02  0.32337375696E+03 -0.13745408099E+04  0.16761908680E+04  0.90055992320E+03 0.  0.
        -24    2    4    4    0    0  0.27955419425E+03  0.45742252012E+03 -0.57017171730E+03  0.78666711321E+03  0.79771237693E+02 0.  0.
         24    2    4    4    0    0 -0.34792543078E+03 -0.13404876316E+03 -0.80436909258E+03  0.88952375479E+03  0.72261310163E+02 0.  0.
         11    1    3    3    0    0  0.21252196777E+02 -0.24523468959E+03 -0.81815055899E+02  0.25939431802E+03  0.00000000000E+00 0.  1.
        -11    1    3    3    0    0  0.47119039755E+02 -0.78139067365E+02  0.72186881323E+01  0.91531564034E+02  0.00000000000E+00 0. -1.
          2    1    6    6  502    0 -0.30722873843E+03 -0.14074502261E+03 -0.73166804370E+03  0.80593845006E+03  0.00000000000E+00 0. -1.
          1    1    5    5  503    0  0.28174593153E+03  0.43205560592E+03 -0.55130929655E+03  0.75497997126E+03  0.00000000000E+00 0. -1.
         -2    1    5    5    0  503 -0.21917372842E+01  0.25366914201E+02 -0.18862420746E+02  0.31687141947E+02  0.00000000000E+00 0.  1.
         -1    1    6    6    0  502 -0.40696692351E+02  0.66962594513E+01 -0.72701048880E+02  0.83585304732E+02  0.00000000000E+00 0.  1.
<mgrwt>
<rscale>  0 0.14174638E+04</rscale>
<asrwt>0</asrwt>
<pdfrwt beam="1">  1        1 0.26740415E+00 0.14174638E+04</pdfrwt>
<pdfrwt beam="2">  1       -1 0.44459967E-01 0.14174638E+04</pdfrwt>
<totfact> 0.21899253E+01</totfact>
</mgrwt>
</event>
<event>
12    1  0.2019083E-007  0.1312064E+04  0.7818608E-02  0.9020053E-01
         -2   -1    0    0    0  501 -0.00000000000E+00  0.00000000000E+00  0.54289793504E+03  0.54289793504E+03  0.00000000000E+00 0. -1.
          2   -1    0    0  501    0  0.00000000000E+00 -0.00000000000E+00 -0.79274193089E+03  0.79274193089E+03  0.00000000000E+00 0.  1.
         23    2    1    2    0    0 -0.30990579562E+03 -0.41544275787E+02  0.20851310571E+02  0.32626810469E+03  0.90821638257E+02 0.  0.
        254    2    1    2    0    0  0.30990579562E+03  0.41544275787E+02 -0.27069530641E+03  0.10093717612E+04  0.92075397065E+03 0.  0.
        -24    2    4    4    0    0  0.41470179245E+03  0.19990058769E+03  0.19050716763E+03  0.50442155216E+03  0.78805455045E+02 0.  0.
         24    2    4    4    0    0 -0.10479599683E+03 -0.15835631191E+03 -0.46120247404E+03  0.50495020908E+03  0.78791300998E+02 0.  0.
         13    1    3    3    0    0 -0.16513156393E+03 -0.21279096979E+02 -0.34357016078E+02  0.17000481736E+03  0.00000000000E+00 0.  1.
        -13    1    3    3    0    0 -0.14477423170E+03 -0.20265178808E+02  0.55208326649E+02  0.15626328733E+03  0.00000000000E+00 0. -1.
          4    1    6    6  502    0 -0.92275288633E+02 -0.15571929707E+03 -0.36001164087E+03  0.40295360767E+03  0.00000000000E+00 0. -1.
          3    1    5    5  503    0  0.11054086952E+03  0.88142390563E+02  0.38695434287E+02  0.14658001734E+03  0.00000000000E+00 0. -1.
         -4    1    5    5    0  503  0.30416092293E+03  0.11175819713E+03  0.15181173334E+03  0.35784153482E+03  0.00000000000E+00 0.  1.
         -3    1    6    6    0  502 -0.12520708193E+02 -0.26370148409E+01 -0.10119083317E+03  0.10199660141E+03  0.00000000000E+00 0.  1.
<mgrwt>
<rscale>  0 0.13120640E+04</rscale>
<asrwt>0</asrwt>
<pdfrwt beam="1">  1        2 0.12196030E+00 0.13120640E+04</pdfrwt>
<pdfrwt beam="2">  1       -2 0.83522760E-01 0.13120640E+04</pdfrwt>
<totfact> 0.42835336E+01</totfact>
</mgrwt>
</event>
<event>
12    1  0.2019083E-007  0.1361417E+04  0.7818608E-02  0.8982230E-01
          2   -1    0    0  501    0  0.00000000000E+00  0.00000000000E+00  0.20805780028E+04  0.20805780028E+04  0.00000000000E+00 0. -1.
         -2   -1    0    0    0  501 -0.00000000000E+00 -0.00000000000E+00 -0.22270937881E+03  0.22270937881E+03  0.00000000000E+00 0.  1.
         23    2    1    2    0    0 -0.35938637173E+03 -0.83483725783E+02  0.63979868488E+03  0.74422414168E+03  0.91646708765E+02 0.  0.
        254    2    1    2    0    0  0.35938637173E+03  0.83483725783E+02  0.12180699391E+04  0.15590632399E+04  0.90047527055E+03 0.  0.
        -24    2    4    4    0    0 -0.79474361078E+02  0.30550394403E+03  0.10906220931E+03  0.34335814480E+03  0.79695772896E+02 0.  0.
         24    2    4    4    0    0  0.43886073281E+03 -0.22202021825E+03  0.11090077298E+04  0.12157050951E+04  0.78415645372E+02 0.  0.
         13    1    3    3    0    0 -0.11574228329E+03  0.15809117100E+02  0.18441976617E+03  0.21830449945E+03  0.00000000000E+00 0.  1.
        -13    1    3    3    0    0 -0.24364408844E+03 -0.99292842883E+02  0.45537891871E+03  0.52591964223E+03  0.00000000000E+00 0. -1.
          4    1    6    6  502    0  0.40964396622E+03 -0.18623255965E+03  0.10330305224E+04  0.11267842764E+04  0.00000000000E+00 0. -1.
          3    1    5    5  503    0 -0.91886165613E+02  0.27980606033E+03  0.11105529127E+03  0.31475034002E+03  0.00000000000E+00 0. -1.
         -4    1    5    5    0  503  0.12411804534E+02  0.25697883702E+02 -0.19930819605E+01  0.28607804779E+02  0.00000000000E+00 0.  1.
         -3    1    6    6    0  502  0.29216766592E+02 -0.35787658594E+02  0.75977207377E+02  0.88920818702E+02  0.00000000000E+00 0.  1.
<mgrwt>
<rscale>  0 0.13614173E+04</rscale>
<asrwt>0</asrwt>
<pdfrwt beam="1">  1        2 0.32008891E+00 0.13614173E+04</pdfrwt>
<pdfrwt beam="2">  1       -2 0.34262983E-01 0.13614173E+04</pdfrwt>
<totfact> 0.46966842E+01</totfact>
</mgrwt>
</event>
<event>
12    1  0.2019083E-007  0.1243866E+04  0.7818608E-02  0.9075304E-01
         -2   -1    0    0    0  501 -0.00000000000E+00  0.00000000000E+00  0.29819319217E+03  0.29819319217E+03  0.00000000000E+00 0.  1.
          2   -1    0    0  501    0  0.00000000000E+00 -0.00000000000E+00 -0.12971488446E+04  0.12971488446E+04  0.00000000000E+00 0. -1.
         23    2    1    2    0    0  0.15606323333E+03 -0.23414527199E+03 -0.15884527888E+03  0.33322646371E+03  0.81414447742E+02 0.  0.
        254    2    1    2    0    0 -0.15606323333E+03  0.23414527199E+03 -0.84011037354E+03  0.12621155730E+04  0.89887181444E+03 0.  0.
        -24    2    4    4    0    0 -0.38154136437E+03 -0.20318558064E+03 -0.34236437442E+03  0.55736377546E+03  0.81134582143E+02 0.  0.
         24    2    4    4    0    0  0.22547813103E+03  0.43733085263E+03 -0.49774599912E+03  0.70475179759E+03  0.82615702670E+02 0.  0.
         11    1    3    3    0    0  0.11243093940E+03 -0.15169109167E+03 -0.14679465009E+03  0.23916432159E+03  0.00000000000E+00 0.  1.
        -11    1    3    3    0    0  0.43632293935E+02 -0.82454180324E+02 -0.12050628790E+02  0.94062142125E+02  0.00000000000E+00 0. -1.
          2    1    6    6  502    0  0.23085426008E+03  0.40572858120E+03 -0.46305354055E+03  0.65751650353E+03  0.00000000000E+00 0. -1.
          3    1    5    5  503    0 -0.24537386134E+03 -0.16778979248E+03 -0.20787317915E+03  0.36272993383E+03  0.00000000000E+00 0. -1.
         -4    1    5    5    0  503 -0.13616750302E+03 -0.35395788154E+02 -0.13449119527E+03  0.19463384162E+03  0.00000000000E+00 0.  1.
         -1    1    6    6    0  502 -0.53761290466E+01  0.31602271432E+02 -0.34692458569E+02  0.47235294058E+02  0.00000000000E+00 0.  1.
<mgrwt>
<rscale>  0 0.12438665E+04</rscale>
<asrwt>0</asrwt>
<pdfrwt beam="1">  1        2 0.19956136E+00 0.12438665E+04</pdfrwt>
<pdfrwt beam="2">  1       -2 0.45875876E-01 0.12438665E+04</pdfrwt>
<totfact> 0.73534436E+01</totfact>
</mgrwt>
</event>
<event>
12    1  0.2019083E-007  0.3184584E+04  0.7818608E-02  0.8192900E-01
          2   -1    0    0  501    0  0.00000000000E+00  0.00000000000E+00  0.28139703954E+04  0.28139703954E+04  0.00000000000E+00 0. -1.
         -2   -1    0    0    0  501 -0.00000000000E+00 -0.00000000000E+00 -0.90100221205E+03  0.90100221205E+03  0.00000000000E+00 0.  1.
         23    2    1    2    0    0  0.71299743853E+03  0.12471698322E+04  0.11867446635E+04  0.18655538634E+04  0.90168637333E+02 0.  0.
        254    2    1    2    0    0 -0.71299743853E+03 -0.12471698322E+04  0.72622351986E+03  0.18494187441E+04  0.91057737308E+03 0.  0.
        -24    2    4    4    0    0 -0.57691313405E+03 -0.16483855842E+03  0.21713941531E+03  0.64296326598E+03  0.79067826174E+02 0.  0.
         24    2    4    4    0    0 -0.13608430448E+03 -0.10823312738E+04  0.50908410455E+03  0.12064554781E+04  0.80051676719E+02 0.  0.
         11    1    3    3    0    0  0.15219384326E+03  0.20266308604E+03  0.22676460452E+03  0.34008451631E+03  0.00000000000E+00 0. -1.
        -11    1    3    3    0    0  0.56080359527E+03  0.10445067462E+04  0.95998005898E+03  0.15254693471E+04  0.00000000000E+00 0.  1.
          2    1    6    6  502    0 -0.49924963632E+02 -0.16722942680E+03  0.74880745733E+02  0.18990868665E+03  0.00000000000E+00 0. -1.
          1    1    5    5  503    0 -0.89793615843E+02 -0.10934745470E+02  0.75005035705E+01  0.90767393145E+02  0.00000000000E+00 0. -1.
         -2    1    5    5    0  503 -0.48711951821E+03 -0.15390381295E+03  0.20963891174E+03  0.55219587284E+03  0.00000000000E+00 0.  1.
         -1    1    6    6    0  502 -0.86159340851E+02 -0.91510184699E+03  0.43420335881E+03  0.10165467914E+04  0.00000000000E+00 0.  1.
<mgrwt>
<rscale>  0 0.31845838E+04</rscale>
<asrwt>0</asrwt>
<pdfrwt beam="1">  1        2 0.43291852E+00 0.31845838E+04</pdfrwt>
<pdfrwt beam="2">  1       -2 0.13861573E+00 0.31845838E+04</pdfrwt>
<totfact> 0.70432384E-01</totfact>
</mgrwt>
</event>
<event>
12    1  0.2019083E-007  0.1997657E+04  0.7818608E-02  0.8607717E-01
          1   -1    0    0  501    0  0.00000000000E+00  0.00000000000E+00  0.68738322906E+03  0.68738322906E+03  0.00000000000E+00 0. -1.
         -1   -1    0    0    0  501 -0.00000000000E+00 -0.00000000000E+00 -0.14513856288E+04  0.14513856288E+04  0.00000000000E+00 0.  1.
         23    2    1    2    0    0 -0.55810978874E+03  0.54049689144E+03 -0.19311378614E+03  0.80674109770E+03  0.99573281420E+02 0.  0.
        254    2    1    2    0    0  0.55810978874E+03 -0.54049689144E+03 -0.57088861361E+03  0.13320277602E+04  0.91910865449E+03 0.  0.
        -24    2    4    4    0    0  0.15378404074E+03 -0.21750542786E+03 -0.73288647043E+03  0.78401498695E+03  0.81232868291E+02 0.  0.
         24    2    4    4    0    0  0.40432574799E+03 -0.32299146359E+03  0.16199785683E+03  0.54801277321E+03  0.79195315159E+02 0.  0.
         11    1    3    3    0    0 -0.42152668125E+03  0.45808461587E+03 -0.17191713575E+03  0.64581867414E+03  0.00000000000E+00 0. -1.
        -11    1    3    3    0    0 -0.13658310749E+03  0.82412275567E+02 -0.21196650393E+02  0.16092242355E+03  0.00000000000E+00 0.  1.
          2    1    6    6  502    0  0.36589042189E+03 -0.31086184420E+03  0.13248718232E+03  0.49805997680E+03  0.00000000000E+00 0. -1.
          1    1    5    5  503    0  0.15126764276E+03 -0.21248547806E+03 -0.73337631459E+03  0.77837831222E+03  0.00000000000E+00 0. -1.
         -2    1    5    5    0  503  0.25163979863E+01 -0.50199497978E+01  0.48984415496E+00  0.56366747373E+01  0.00000000000E+00 0.  1.
         -1    1    6    6    0  502  0.38435326098E+02 -0.12129619385E+02  0.29510674509E+02  0.49952796405E+02  0.00000000000E+00 0.  1.
<mgrwt>
<rscale>  0 0.19976568E+04</rscale>
<asrwt>0</asrwt>
<pdfrwt beam="1">  1        1 0.10575127E+00 0.19976568E+04</pdfrwt>
<pdfrwt beam="2">  1       -1 0.22329010E+00 0.19976568E+04</pdfrwt>
<totfact> 0.27180578E+00</totfact>
</mgrwt>
</event>
<event>
12    1  0.2019083E-007  0.1507225E+04  0.7818608E-02  0.8879662E-01
          2   -1    0    0  501    0  0.00000000000E+00  0.00000000000E+00  0.24958540487E+04  0.24958540487E+04  0.00000000000E+00 0. -1.
         -2   -1    0    0    0  501 -0.00000000000E+00 -0.00000000000E+00 -0.22755021653E+03  0.22755021653E+03  0.00000000000E+00 0.  1.
         23    2    1    2    0    0  0.20784050379E+03 -0.16537950996E+03  0.14573900998E+04  0.14841980407E+04  0.91158453924E+02 0.  0.
        254    2    1    2    0    0 -0.20784050379E+03  0.16537950996E+03  0.81091373240E+03  0.12392062245E+04  0.89861166709E+03 0.  0.
        -24    2    4    4    0    0 -0.14492446432E+03  0.36935282893E+03  0.83865353395E+01  0.40474253437E+03  0.79508317550E+02 0.  0.
         24    2    4    4    0    0 -0.62916039470E+02 -0.20397331897E+03  0.80252719706E+03  0.83446369017E+03  0.81952457715E+02 0.  0.
         11    1    3    3    0    0  0.63509530728E+02 -0.96786402955E+02  0.75764543296E+03  0.76643830174E+03  0.00000000000E+00 0. -1.
        -11    1    3    3    0    0  0.14433097306E+03 -0.68593107000E+02  0.69974466681E+03  0.71775973894E+03  0.00000000000E+00 0.  1.
          2    1    6    6  502    0 -0.17342559015E+02 -0.12760294843E+03  0.59338502010E+03  0.60719770988E+03  0.00000000000E+00 0. -1.
          3    1    5    5  503    0 -0.81104609459E+02  0.10644699796E+03 -0.44370731866E+01  0.13389775453E+03  0.00000000000E+00 0. -1.
         -4    1    5    5    0  503 -0.63819854859E+02  0.26290583096E+03  0.12823608526E+02  0.27084477984E+03  0.00000000000E+00 0.  1.
         -1    1    6    6    0  502 -0.45573480455E+02 -0.76370370537E+02  0.20914217695E+03  0.22726598029E+03  0.00000000000E+00 0.  1.
<mgrwt>
<rscale>  0 0.15072254E+04</rscale>
<asrwt>0</asrwt>
<pdfrwt beam="1">  1        2 0.38397753E+00 0.15072254E+04</pdfrwt>
<pdfrwt beam="2">  1       -2 0.35007727E-01 0.15072254E+04</pdfrwt>
<totfact> 0.25954967E+01</totfact>
</mgrwt>
</event>
<event>
12    1  0.2019083E-007  0.1858505E+04  0.7818608E-02  0.8675791E-01
         -1   -1    0    0    0  501 -0.00000000000E+00  0.00000000000E+00  0.19281783091E+04  0.19281783091E+04  0.00000000000E+00 0.  1.
          1   -1    0    0  501    0  0.00000000000E+00 -0.00000000000E+00 -0.44783725924E+03  0.44783725924E+03  0.00000000000E+00 0. -1.
         23    2    1    2    0    0 -0.27908150013E+03  0.46690477638E+03  0.11452098380E+04  0.12709488351E+04  0.88987720347E+02 0.  0.
        254    2    1    2    0    0  0.27908150013E+03 -0.46690477638E+03  0.33513121179E+03  0.11050667332E+04  0.90165015488E+03 0.  0.
        -24    2    4    4    0    0  0.51666668090E+03 -0.35704778880E+02  0.30286404895E+03  0.60540237582E+03  0.81031562434E+02 0.  0.
         24    2    4    4    0    0 -0.23758518078E+03 -0.43119999750E+03  0.32267162834E+02  0.49966435738E+03  0.79013570141E+02 0.  0.
         11    1    3    3    0    0 -0.20312382300E+03  0.37827604297E+03  0.96540778972E+03  0.10565813990E+04  0.00000000000E+00 0.  1.
        -11    1    3    3    0    0 -0.75957677126E+02  0.88628733409E+02  0.17980204832E+03  0.21436743614E+03  0.00000000000E+00 0. -1.
          4    1    6    6  502    0 -0.52658705024E+02 -0.17015817776E+03  0.23240551827E+02  0.17962980800E+03  0.00000000000E+00 0. -1.
          3    1    5    5  503    0  0.17977797655E+03 -0.10779464600E+02  0.61835645229E+02  0.19042049451E+03  0.00000000000E+00 0. -1.
         -4    1    5    5    0  503  0.33688870436E+03 -0.24925314280E+02  0.24102840372E+03  0.41498188131E+03  0.00000000000E+00 0.  1.
         -3    1    6    6    0  502 -0.18492647575E+03 -0.26104181974E+03  0.90266110066E+01  0.32003454938E+03  0.00000000000E+00 0.  1.
<mgrwt>
<rscale>  0 0.18585049E+04</rscale>
<asrwt>0</asrwt>
<pdfrwt beam="1">  1        1 0.68898041E-01 0.18585049E+04</pdfrwt>
<pdfrwt beam="2">  1       -1 0.29664281E+00 0.18585049E+04</pdfrwt>
<totfact> 0.16817858E+00</totfact>
</mgrwt>
</event>
<event>
12    1  0.2019083E-007  0.1431444E+04  0.7818608E-02  0.8931367E-01
          1   -1    0    0  501    0  0.00000000000E+00  0.00000000000E+00  0.85730205196E+03  0.85730205196E+03  0.00000000000E+00 0. -1.
         -1   -1    0    0    0  501 -0.00000000000E+00 -0.00000000000E+00 -0.59752292611E+03  0.59752292611E+03  0.00000000000E+00 0.  1.
         23    2    1    2    0    0  0.46912416111E+01  0.73247123681E+02  0.50266332497E+03  0.51617734561E+03  0.91550450424E+02 0.  0.
        254    2    1    2    0    0 -0.46912416111E+01 -0.73247123681E+02 -0.24288419912E+03  0.93864763247E+03  0.90370321173E+03 0.  0.
        -24    2    4    4    0    0 -0.33006262436E+03  0.10763188255E+02  0.18654140311E+03  0.38761419909E+03  0.79936787793E+02 0.  0.
         24    2    4    4    0    0  0.32537138275E+03 -0.84010311936E+02 -0.42942560222E+03  0.55103343338E+03  0.79418056072E+02 0.  0.
         13    1    3    3    0    0 -0.31528116791E+02  0.43006178402E+02  0.39559899591E+03  0.39917680180E+03  0.00000000000E+00 0. -1.
        -13    1    3    3    0    0  0.36219358402E+02  0.30240945279E+02  0.10706432906E+03  0.11700054381E+03  0.00000000000E+00 0.  1.
          4    1    6    6  502    0  0.92967990718E+02 -0.16019808301E+02 -0.18105825365E+03  0.20416114413E+03  0.00000000000E+00 0. -1.
          1    1    5    5  503    0 -0.10390627208E+03 -0.23058774633E+02  0.30300357455E+02  0.11066314710E+03  0.00000000000E+00 0. -1.
         -2    1    5    5    0  503 -0.22615635229E+03  0.33821962888E+02  0.15624104565E+03  0.27695105199E+03  0.00000000000E+00 0.  1.
         -3    1    6    6    0  502  0.23240339203E+03 -0.67990503635E+02 -0.24836734857E+03  0.34687228925E+03  0.00000000000E+00 0.  1.
<mgrwt>
<rscale>  0 0.14314435E+04</rscale>
<asrwt>0</asrwt>
<pdfrwt beam="1">  1        1 0.13189262E+00 0.14314435E+04</pdfrwt>
<pdfrwt beam="2">  1       -1 0.91926604E-01 0.14314435E+04</pdfrwt>
<totfact> 0.22143234E+01</totfact>
</mgrwt>
</event>
<event>
12    1  0.4002452E-007  0.2151734E+04  0.7818608E-02  0.8538791E-01
          2   -1    0    0  501    0  0.00000000000E+00  0.00000000000E+00  0.85890188261E+03  0.85890188261E+03  0.00000000000E+00 0.  1.
         -2   -1    0    0    0  501 -0.00000000000E+00 -0.00000000000E+00 -0.13476387810E+04  0.13476387810E+04  0.00000000000E+00 0. -1.
         23    2    1    2    0    0 -0.72452476537E+03  0.48246272116E+03 -0.36996736399E+03  0.95000155187E+03  0.88998231489E+02 0.  0.
        254    2    1    2    0    0  0.72452476537E+03 -0.48246272116E+03 -0.11876953442E+03  0.12565391118E+04  0.89837515778E+03 0.  0.
        -24    2    4    4    0    0  0.91442408021E+03 -0.45732055258E+03 -0.18736413772E+02  0.10259459674E+04  0.83069780615E+02 0.  0.
         24    2    4    4    0    0 -0.18989931484E+03 -0.25142168574E+02 -0.10003312065E+03  0.23059314440E+03  0.80453058359E+02 0.  0.
         13    1    3    3    0    0 -0.38226538304E+03  0.25131105091E+03 -0.24249874897E+03  0.51777380257E+03  0.00000000000E+00 0. -1.
        -13    1    3    3    0    0 -0.34225938233E+03  0.23115167025E+03 -0.12746861502E+03  0.43222774930E+03  0.00000000000E+00 0.  1.
          2    1    6    6  502    0 -0.16564760112E+03 -0.23894301183E+02 -0.11407503525E+03  0.20254179582E+03  0.00000000000E+00 0. -1.
          1    1    5    5  503    0  0.87974676612E+03 -0.44572907649E+03 -0.32153899131E+01  0.98622468072E+03  0.00000000000E+00 0. -1.
         -2    1    5    5    0  503  0.34677314087E+02 -0.11591476093E+02 -0.15521023859E+02  0.39721286635E+02  0.00000000000E+00 0.  1.
         -1    1    6    6    0  502 -0.24251713722E+02 -0.12478673908E+01  0.14041914603E+02  0.28051348581E+02  0.00000000000E+00 0.  1.
<mgrwt>
<rscale>  0 0.21517337E+04</rscale>
<asrwt>0</asrwt>
<pdfrwt beam="1">  1        2 0.13213875E+00 0.21517337E+04</pdfrwt>
<pdfrwt beam="2">  1       -2 0.20732904E+00 0.21517337E+04</pdfrwt>
<totfact> 0.34195578E+00</totfact>
</mgrwt>
</event>
<event>
12    1  0.2019083E-007  0.1638181E+04  0.7818608E-02  0.8797429E-01
          1   -1    0    0  501    0  0.00000000000E+00  0.00000000000E+00  0.19729115331E+04  0.19729115331E+04  0.00000000000E+00 0. -1.
         -1   -1    0    0    0  501 -0.00000000000E+00 -0.00000000000E+00 -0.34006066203E+03  0.34006066203E+03  0.00000000000E+00 0.  1.
         23    2    1    2    0    0  0.26372673360E+03  0.49207535959E+03  0.71427927313E+03  0.91109740937E+03  0.90629243712E+02 0.  0.
        254    2    1    2    0    0 -0.26372673360E+03 -0.49207535959E+03  0.91857159796E+03  0.14018747858E+04  0.89988287286E+03 0.  0.
        -24    2    4    4    0    0 -0.21578364111E+03  0.22915408392E+03  0.36341120364E+03  0.48703988987E+03  0.77884385084E+02 0.  0.
         24    2    4    4    0    0 -0.47943092493E+02 -0.72122944351E+03  0.55516039431E+03  0.91483489590E+03  0.79052976238E+02 0.  0.
         11    1    3    3    0    0  0.13703034263E+03  0.32470711121E+03  0.39943607383E+03  0.53269240650E+03  0.00000000000E+00 0.  1.
        -11    1    3    3    0    0  0.12669639097E+03  0.16736824837E+03  0.31484319931E+03  0.37840500287E+03  0.00000000000E+00 0. -1.
          4    1    6    6  502    0 -0.61214529953E+02 -0.57027943861E+03  0.46614000722E+03  0.73908887362E+03  0.00000000000E+00 0. -1.
          1    1    5    5  503    0 -0.13842944257E+02  0.56702380644E+02  0.74171322304E+02  0.94383113578E+02  0.00000000000E+00 0. -1.
         -2    1    5    5    0  503 -0.20194069685E+03  0.17245170328E+03  0.28923988134E+03  0.39265677629E+03  0.00000000000E+00 0.  1.
         -3    1    6    6    0  502  0.13271437460E+02 -0.15095000489E+03  0.89020387095E+02  0.17574602228E+03  0.00000000000E+00 0.  1.
<mgrwt>
<rscale>  0 0.16381814E+04</rscale>
<asrwt>0</asrwt>
<pdfrwt beam="1">  1        1 0.30352484E+00 0.16381814E+04</pdfrwt>
<pdfrwt beam="2">  1       -1 0.52317026E-01 0.16381814E+04</pdfrwt>
<totfact> 0.10947638E+01</totfact>
</mgrwt>
</event>
<event>
12    1  0.2070327E-007  0.2936962E+04  0.7818608E-02  0.8261964E-01
         -1   -1    0    0    0  501 -0.00000000000E+00  0.00000000000E+00  0.81298447676E+03  0.81298447676E+03  0.00000000000E+00 0.  1.
          1   -1    0    0  501    0  0.00000000000E+00 -0.00000000000E+00 -0.26524944284E+04  0.26524944284E+04  0.00000000000E+00 0. -1.
         23    2    1    2    0    0 -0.13096042443E+04 -0.21974038469E+03 -0.76380664295E+03  0.15347150422E+04  0.92739200903E+02 0.  0.
        254    2    1    2    0    0  0.13096042443E+04  0.21974038469E+03 -0.10757033086E+04  0.19307638629E+04  0.89853345667E+03 0.  0.
        -24    2    4    4    0    0  0.12940885133E+04 -0.61873405724E+02 -0.78031045510E+03  0.15145251511E+04  0.80053908672E+02 0.  0.
         24    2    4    4    0    0  0.15515731004E+02  0.28161379041E+03 -0.29539285355E+03  0.41623871184E+03  0.80316016146E+02 0.  0.
         11    1    3    3    0    0 -0.40389295359E+03 -0.10737315160E+03 -0.21919436004E+03  0.47191596616E+03  0.00000000000E+00 0.  1.
        -11    1    3    3    0    0 -0.90571129076E+03 -0.11236723309E+03 -0.54461228290E+03  0.10627990760E+04  0.00000000000E+00 0. -1.
          4    1    6    6  502    0 -0.22290630325E+02  0.13381083282E+03 -0.10098239048E+03  0.16911432336E+03  0.00000000000E+00 0. -1.
          3    1    5    5  503    0  0.63601084226E+03  0.46756172825E+01 -0.40506880871E+03  0.75406391816E+03  0.00000000000E+00 0. -1.
         -4    1    5    5    0  503  0.65807767108E+03 -0.66549023006E+02 -0.37524164639E+03  0.76046123295E+03  0.00000000000E+00 0.  1.
         -3    1    6    6    0  502  0.37806361329E+02  0.14780295760E+03 -0.19441046307E+03  0.24712438848E+03  0.00000000000E+00 0.  1.
<mgrwt>
<rscale>  0 0.29369622E+04</rscale>
<asrwt>0</asrwt>
<pdfrwt beam="1">  1        1 0.40807607E+00 0.29369622E+04</pdfrwt>
<pdfrwt beam="2">  1       -1 0.12507453E+00 0.29369622E+04</pdfrwt>
<totfact> 0.50657479E-01</totfact>
</mgrwt>
</event>
<event>
12    1  0.2019083E-007  0.1695485E+04  0.7818608E-02  0.8763944E-01
         -1   -1    0    0    0  501 -0.00000000000E+00  0.00000000000E+00  0.98009392930E+03  0.98009392930E+03  0.00000000000E+00 0.  1.
          1   -1    0    0  501    0  0.00000000000E+00 -0.00000000000E+00 -0.73326366698E+03  0.73326366698E+03  0.00000000000E+00 0. -1.
         23    2    1    2    0    0  0.28635284465E+03  0.28062363179E+03 -0.36699952699E+03  0.55219873469E+03  0.97402337934E+02 0.  0.
        254    2    1    2    0    0 -0.28635284465E+03 -0.28062363179E+03  0.61382978931E+03  0.11611588616E+04  0.90041952291E+03 0.  0.
        -24    2    4    4    0    0 -0.47234225779E+03  0.23042435001E+02  0.39879948789E+02  0.48116666044E+03  0.79327060297E+02 0.  0.
         24    2    4    4    0    0  0.18598941314E+03 -0.30366606679E+03  0.57394984052E+03  0.67999220115E+03  0.78522813692E+02 0.  0.
         13    1    3    3    0    0  0.11595975603E+03  0.11646293024E+03 -0.21638516125E+03  0.27172194823E+03  0.00000000000E+00 0. -1.
        -13    1    3    3    0    0  0.17039308862E+03  0.16416070155E+03 -0.15061436574E+03  0.28047678647E+03  0.00000000000E+00 0.  1.
          2    1    6    6  502    0  0.15738214922E+03 -0.20328936575E+03  0.36537820785E+03  0.44676273557E+03  0.00000000000E+00 0. -1.
          1    1    5    5  503    0 -0.24009793984E+03 -0.26402472227E+02  0.31273019725E+02  0.24356131265E+03  0.00000000000E+00 0. -1.
         -2    1    5    5    0  503 -0.23224431795E+03  0.49444907228E+02  0.86069290645E+01  0.23760534779E+03  0.00000000000E+00 0.  1.
         -3    1    6    6    0  502  0.28607263922E+02 -0.10037670104E+03  0.20857163267E+03  0.23322946558E+03  0.00000000000E+00 0.  1.
<mgrwt>
<rscale>  0 0.16954849E+04</rscale>
<asrwt>0</asrwt>
<pdfrwt beam="1">  1        1 0.11280979E+00 0.16954849E+04</pdfrwt>
<pdfrwt beam="2">  1       -1 0.15078368E+00 0.16954849E+04</pdfrwt>
<totfact> 0.83086911E+00</totfact>
</mgrwt>
</event>
<event>
12    1  0.2019083E-007  0.2252636E+04  0.7818608E-02  0.8496834E-01
          1   -1    0    0  501    0  0.00000000000E+00  0.00000000000E+00  0.15011858201E+04  0.15011858201E+04  0.00000000000E+00 0. -1.
         -1   -1    0    0    0  501 -0.00000000000E+00 -0.00000000000E+00 -0.84506039451E+03  0.84506039451E+03  0.00000000000E+00 0.  1.
         23    2    1    2    0    0  0.62967462364E+03 -0.70324339576E+03  0.30104439847E+03  0.99470779374E+03  0.88172896825E+02 0.  0.
        254    2    1    2    0    0 -0.62967462364E+03  0.70324339576E+03  0.35508102708E+03  0.13515384208E+04  0.89974005236E+03 0.  0.
        -24    2    4    4    0    0 -0.29144705590E+03 -0.11174728050E+03  0.33540522334E+03  0.46526341369E+03  0.80898326258E+02 0.  0.
         24    2    4    4    0    0 -0.33822756774E+03  0.81499067626E+03  0.19675803745E+02  0.88627500713E+03  0.80551604827E+02 0.  0.
         11    1    3    3    0    0  0.13237466917E+03 -0.15606030959E+03  0.10373566632E+03  0.22943182372E+03  0.00000000000E+00 0. -1.
        -11    1    3    3    0    0  0.49729995448E+03 -0.54718308617E+03  0.19730873214E+03  0.76527597002E+03  0.00000000000E+00 0.  1.
          2    1    6    6  502    0 -0.44710571315E+02  0.17818274689E+03 -0.14248142544E+02  0.18425834050E+03  0.00000000000E+00 0. -1.
          1    1    5    5  503    0 -0.69559779715E+02  0.84897045398E+01  0.72132423789E+02  0.10056701546E+03  0.00000000000E+00 0. -1.
         -2    1    5    5    0  503 -0.22188727618E+03 -0.12023698504E+03  0.26327279955E+03  0.36469639823E+03  0.00000000000E+00 0.  1.
         -1    1    6    6    0  502 -0.29351699643E+03  0.63680792937E+03  0.33923946289E+02  0.70201666663E+03  0.00000000000E+00 0.  1.
<mgrwt>
<rscale>  0 0.22526364E+04</rscale>
<asrwt>0</asrwt>
<pdfrwt beam="1">  1        1 0.23095167E+00 0.22526364E+04</pdfrwt>
<pdfrwt beam="2">  1       -1 0.13000929E+00 0.22526364E+04</pdfrwt>
<totfact> 0.30047477E+00</totfact>
</mgrwt>
</event>
<event>
12    1  0.2019083E-007  0.1554637E+04  0.7818608E-02  0.8848912E-01
          2   -1    0    0  501    0  0.00000000000E+00  0.00000000000E+00  0.49684495941E+03  0.49684495941E+03  0.00000000000E+00 0.  1.
         -2   -1    0    0    0  501 -0.00000000000E+00 -0.00000000000E+00 -0.12161214613E+04  0.12161214613E+04  0.00000000000E+00 0. -1.
         23    2    1    2    0    0 -0.38963009977E+03 -0.64681707658E+02 -0.59810072326E+03  0.72257979432E+03  0.91661038865E+02 0.  0.
        254    2    1    2    0    0  0.38963009977E+03  0.64681707658E+02 -0.12117577862E+03  0.99038662637E+03  0.90010375092E+03 0.  0.
        -24    2    4    4    0    0 -0.19526617617E+03  0.12022188682E+03 -0.28558173775E+03  0.37483093506E+03  0.79744086378E+02 0.  0.
         24    2    4    4    0    0  0.58489627594E+03 -0.55540179164E+02  0.16440595914E+03  0.61555569131E+03  0.81799294640E+02 0.  0.
         13    1    3    3    0    0 -0.38805887192E+03 -0.53116912654E+02 -0.59070779773E+03  0.70876427448E+03  0.00000000000E+00 0. -1.
        -13    1    3    3    0    0 -0.15712278448E+01 -0.11564795004E+02 -0.73929255314E+01  0.13815519836E+02  0.00000000000E+00 0.  1.
          4    1    6    6  502    0  0.35031265160E+03 -0.52061046195E+02  0.61893617376E+02  0.35952764327E+03  0.00000000000E+00 0. -1.
          1    1    5    5  503    0 -0.91871130115E+02  0.58487064335E+02 -0.74955534962E+02  0.13220958159E+03  0.00000000000E+00 0. -1.
         -2    1    5    5    0  503 -0.10339504605E+03  0.61734822487E+02 -0.21062620279E+03  0.24262135347E+03  0.00000000000E+00 0.  1.
         -3    1    6    6    0  502  0.23458362433E+03 -0.34791329690E+01  0.10251234176E+03  0.25602804804E+03  0.00000000000E+00 0.  1.
<mgrwt>
<rscale>  0 0.15546367E+04</rscale>
<asrwt>0</asrwt>
<pdfrwt beam="1">  1        2 0.76437687E-01 0.15546367E+04</pdfrwt>
<pdfrwt beam="2">  1       -2 0.18709561E+00 0.15546367E+04</pdfrwt>
<totfact> 0.96688396E+00</totfact>
</mgrwt>
</event>
<event>
12    1  0.2019083E-007  0.1935214E+04  0.7818608E-02  0.8637524E-01
         -1   -1    0    0    0  501 -0.00000000000E+00  0.00000000000E+00  0.56933233231E+03  0.56933233231E+03  0.00000000000E+00 0.  1.
          1   -1    0    0  501    0  0.00000000000E+00 -0.00000000000E+00 -0.16444930411E+04  0.16444930411E+04  0.00000000000E+00 0. -1.
         23    2    1    2    0    0 -0.38108908493E+03  0.21440956920E+03 -0.11294045255E+04  0.12151302338E+04  0.98926987102E+02 0.  0.
        254    2    1    2    0    0  0.38108908493E+03 -0.21440956920E+03  0.54243816693E+02  0.99869513966E+03  0.89624172873E+03 0.  0.
        -24    2    4    4    0    0  0.55251229031E+03 -0.42628296377E+03  0.10485175144E+03  0.71021016266E+03  0.80109857207E+02 0.  0.
         24    2    4    4    0    0 -0.17142320538E+03  0.21187339457E+03 -0.50607934744E+02  0.28848497700E+03  0.79913504652E+02 0.  0.
         11    1    3    3    0    0 -0.28634282230E+03  0.13664140374E+03 -0.91116875376E+03  0.96482722958E+03  0.00000000000E+00 0. -1.
        -11    1    3    3    0    0 -0.94746262628E+02  0.77768165455E+02 -0.21823577173E+03  0.25030300419E+03  0.00000000000E+00 0.  1.
          2    1    6    6  502    0 -0.16127222599E+03  0.20639227967E+03 -0.28405321702E+02  0.26346416508E+03  0.00000000000E+00 0. -1.
          1    1    5    5  503    0  0.30202444988E+03 -0.20717996449E+03  0.20148705207E+02  0.36680822828E+03  0.00000000000E+00 0. -1.
         -2    1    5    5    0  503  0.25048784044E+03 -0.21910299928E+03  0.84703046229E+02  0.34340193439E+03  0.00000000000E+00 0.  1.
         -1    1    6    6    0  502 -0.10150979396E+02  0.54811149047E+01 -0.22202613042E+02  0.25020811921E+02  0.00000000000E+00 0.  1.
<mgrwt>
<rscale>  0 0.19352137E+04</rscale>
<asrwt>0</asrwt>
<pdfrwt beam="1">  1        1 0.25299893E+00 0.19352137E+04</pdfrwt>
<pdfrwt beam="2">  1       -1 0.87589591E-01 0.19352137E+04</pdfrwt>
<totfact> 0.62211035E+00</totfact>
</mgrwt>
</event>
<event>
12    1  0.2404119E-007  0.2401607E+04  0.7818608E-02  0.8438902E-01
         -2   -1    0    0    0  501 -0.00000000000E+00  0.00000000000E+00  0.78637966957E+03  0.78637966957E+03  0.00000000000E+00 0.  1.
          2   -1    0    0  501    0  0.00000000000E+00 -0.00000000000E+00 -0.18336292740E+04  0.18336292740E+04  0.00000000000E+00 0. -1.
         23    2    1    2    0    0  0.17488604017E+03 -0.90267973928E+03 -0.95299036382E+03  0.13273798061E+04  0.91272544054E+02 0.  0.
        254    2    1    2    0    0 -0.17488604017E+03  0.90267973928E+03 -0.94259240629E+02  0.12926291375E+04  0.90365338706E+03 0.  0.
        -24    2    4    4    0    0  0.27025752700E+03  0.21831044816E+02 -0.10700199960E+03  0.30235961627E+03  0.80350384049E+02 0.  0.
         24    2    4    4    0    0 -0.44514356716E+03  0.88084869446E+03  0.12742758972E+02  0.99026952124E+03  0.80150663534E+02 0.  0.
         11    1    3    3    0    0  0.10688967228E+03 -0.32822188342E+03 -0.37333536751E+03  0.50846268636E+03  0.00000000000E+00 0. -1.
        -11    1    3    3    0    0  0.67996367887E+02 -0.57445785586E+03 -0.57965499631E+03  0.81891711971E+03  0.00000000000E+00 0.  1.
          2    1    6    6  502    0 -0.23666624347E+02  0.17522022260E+02 -0.79655610470E+00  0.29457849102E+02  0.00000000000E+00 0. -1.
          3    1    5    5  503    0  0.70261625446E+02  0.39020340829E+02 -0.45800168669E+02  0.92503721324E+02  0.00000000000E+00 0. -1.
         -4    1    5    5    0  503  0.19999590155E+03 -0.17189296013E+02 -0.61201830932E+02  0.20985589495E+03  0.00000000000E+00 0.  1.
         -1    1    6    6    0  502 -0.42147694282E+03  0.86332667220E+03  0.13539315076E+02  0.96081167213E+03  0.00000000000E+00 0.  1.
<mgrwt>
<rscale>  0 0.24016068E+04</rscale>
<asrwt>0</asrwt>
<pdfrwt beam="1">  1        2 0.28209681E+00 0.24016068E+04</pdfrwt>
<pdfrwt beam="2">  1       -2 0.12098149E+00 0.24016068E+04</pdfrwt>
<totfact> 0.38673397E+00</totfact>
</mgrwt>
</event>
<event>
12    1  0.2019083E-007  0.4613847E+04  0.7818608E-02  0.7891003E-01
          1   -1    0    0  501    0  0.00000000000E+00  0.00000000000E+00  0.25217764574E+04  0.25217764574E+04  0.00000000000E+00 0. -1.
         -1   -1    0    0    0  501 -0.00000000000E+00 -0.00000000000E+00 -0.21103754392E+04  0.21103754392E+04  0.00000000000E+00 0.  1.
         23    2    1    2    0    0 -0.21642415081E+04 -0.47938504500E+03  0.15824817003E+03  0.22242359079E+04  0.91823548286E+02 0.  0.
        254    2    1    2    0    0  0.21642415081E+04  0.47938504500E+03  0.25315284812E+03  0.24079159887E+04  0.90566092853E+03 0.  0.
        -24    2    4    4    0    0  0.17325528141E+04  0.52581166226E+03  0.52918932778E+03  0.18879968150E+04  0.79205244154E+02 0.  0.
         24    2    4    4    0    0  0.43168869393E+03 -0.46426617266E+02 -0.27603647966E+03  0.51991917373E+03  0.74894925421E+02 0.  0.
         13    1    3    3    0    0 -0.45712504777E+03 -0.13919930159E+03  0.41271434852E+02  0.47962807069E+03  0.00000000000E+00 0.  1.
        -13    1    3    3    0    0 -0.17071164603E+04 -0.34018574341E+03  0.11697673517E+03  0.17446078372E+04  0.00000000000E+00 0. -1.
          4    1    6    6  502    0  0.30616707856E+03 -0.53485382536E+00 -0.20614749879E+03  0.36910074142E+03  0.00000000000E+00 0. -1.
          1    1    5    5  503    0  0.16804454213E+04  0.50146208447E+03  0.50033633774E+03  0.18236494967E+04  0.00000000000E+00 0. -1.
         -2    1    5    5    0  503  0.52107392884E+02  0.24349577790E+02  0.28852990037E+02  0.64347318249E+02  0.00000000000E+00 0.  1.
         -3    1    6    6    0  502  0.12552161537E+03 -0.45891763441E+02 -0.69888980868E+02  0.15081843231E+03  0.00000000000E+00 0.  1.
<mgrwt>
<rscale>  0 0.46138466E+04</rscale>
<asrwt>0</asrwt>
<pdfrwt beam="1">  1        1 0.38796561E+00 0.46138466E+04</pdfrwt>
<pdfrwt beam="2">  1       -1 0.32467314E+00 0.46138466E+04</pdfrwt>
<totfact> 0.22223302E-02</totfact>
</mgrwt>
</event>
<event>
12    1  0.2019083E-007  0.1547511E+04  0.7818608E-02  0.8853459E-01
          1   -1    0    0  501    0  0.00000000000E+00  0.00000000000E+00  0.41862717641E+03  0.41862717641E+03  0.00000000000E+00 0. -1.
         -1   -1    0    0    0  501 -0.00000000000E+00 -0.00000000000E+00 -0.14301456310E+04  0.14301456310E+04  0.00000000000E+00 0.  1.
         23    2    1    2    0    0  0.19976545754E+03 -0.42270557015E+03 -0.12320799531E+03  0.49445003087E+03  0.10351031765E+03 0.  0.
        254    2    1    2    0    0 -0.19976545754E+03  0.42270557015E+03 -0.88831045926E+03  0.13543227765E+04  0.90912511456E+03 0.  0.
        -24    2    4    4    0    0 -0.13957171385E+02  0.28764871745E+03  0.11637690823E+03  0.32067582552E+03  0.79704535757E+02 0.  0.
         24    2    4    4    0    0 -0.18580828615E+03  0.13505685270E+03 -0.10046873675E+04  0.10336469510E+04  0.79146953628E+02 0.  0.
         11    1    3    3    0    0  0.21189897833E+03 -0.40676125002E+03 -0.12066662966E+03  0.47425344179E+03  0.00000000000E+00 0. -1.
        -11    1    3    3    0    0 -0.12133520792E+02 -0.15944320126E+02 -0.25413656480E+01  0.20196589079E+02  0.00000000000E+00 0.  1.
          4    1    6    6  502    0 -0.25490049386E+02  0.53895421805E+02 -0.18023834336E+03  0.18984288116E+03  0.00000000000E+00 0. -1.
          3    1    5    5  503    0 -0.23949085258E+02  0.24721123238E+02  0.43152771338E+01  0.34688820038E+02  0.00000000000E+00 0. -1.
         -4    1    5    5    0  503  0.99919138734E+01  0.26292759421E+03  0.11206163109E+03  0.28598700548E+03  0.00000000000E+00 0.  1.
         -3    1    6    6    0  502 -0.16031823677E+03  0.81161430891E+02 -0.82444902413E+03  0.84380406985E+03  0.00000000000E+00 0.  1.
<mgrwt>
<rscale>  0 0.15475113E+04</rscale>
<asrwt>0</asrwt>
<pdfrwt beam="1">  1        1 0.64404182E-01 0.15475113E+04</pdfrwt>
<pdfrwt beam="2">  1       -1 0.22002240E+00 0.15475113E+04</pdfrwt>
<totfact> 0.59841440E+00</totfact>
</mgrwt>
</event>
<event>
12    1  0.2019083E-007  0.1555917E+04  0.7818608E-02  0.8848097E-01
         -1   -1    0    0    0  501 -0.00000000000E+00  0.00000000000E+00  0.33038372399E+03  0.33038372399E+03  0.00000000000E+00 0.  1.
          1   -1    0    0  501    0  0.00000000000E+00 -0.00000000000E+00 -0.18318673774E+04  0.18318673774E+04  0.00000000000E+00 0. -1.
         23    2    1    2    0    0 -0.22225432185E+03  0.48393116240E+02 -0.11286221576E+04  0.11545750855E+04  0.86699342801E+02 0.  0.
        254    2    1    2    0    0  0.22225432185E+03 -0.48393116240E+02 -0.37286149581E+03  0.10076760159E+04  0.90810042438E+03 0.  0.
        -24    2    4    4    0    0  0.20636120257E+02 -0.42684876867E+03 -0.37139904160E+03  0.57179348963E+03  0.79905105646E+02 0.  0.
         24    2    4    4    0    0  0.20161820159E+03  0.37845565243E+03 -0.14624542130E+01  0.43588252631E+03  0.78184767719E+02 0.  0.
         11    1    3    3    0    0 -0.54119290912E+02 -0.14825995655E+02 -0.16301639903E+03  0.17240375329E+03  0.00000000000E+00 0.  1.
        -11    1    3    3    0    0 -0.16813503093E+03  0.63219111895E+02 -0.96560575859E+03  0.98217133218E+03  0.00000000000E+00 0. -1.
          4    1    6    6  502    0  0.20078184844E+03  0.33450428692E+03 -0.13280102150E+02  0.39036243383E+03  0.00000000000E+00 0. -1.
          3    1    5    5  503    0 -0.27184336098E+02 -0.16741425484E+03 -0.16749711847E+03  0.23837324839E+03  0.00000000000E+00 0. -1.
         -4    1    5    5    0  503  0.47820456356E+02 -0.25943451383E+03 -0.20390192313E+03  0.33342024124E+03  0.00000000000E+00 0.  1.
         -3    1    6    6    0  502  0.83635314407E+00  0.43951365507E+02  0.11817647937E+02  0.45520092479E+02  0.00000000000E+00 0.  1.
<mgrwt>
<rscale>  0 0.15559167E+04</rscale>
<asrwt>0</asrwt>
<pdfrwt beam="1">  1        1 0.28182575E+00 0.15559167E+04</pdfrwt>
<pdfrwt beam="2">  1       -1 0.50828266E-01 0.15559167E+04</pdfrwt>
<totfact> 0.14521119E+01</totfact>
</mgrwt>
</event>
<event>
12    1  0.2019083E-007  0.1741275E+04  0.7818608E-02  0.8738168E-01
          2   -1    0    0  501    0  0.00000000000E+00  0.00000000000E+00  0.89786523926E+03  0.89786523926E+03  0.00000000000E+00 0.  1.
         -2   -1    0    0    0  501 -0.00000000000E+00 -0.00000000000E+00 -0.84423506419E+03  0.84423506419E+03  0.00000000000E+00 0. -1.
         23    2    1    2    0    0  0.49492349165E+03 -0.39596456489E+03  0.71792709326E+02  0.64462000738E+03  0.92970756505E+02 0.  0.
        254    2    1    2    0    0 -0.49492349165E+03  0.39596456489E+03 -0.18162534255E+02  0.10974802961E+04  0.89576555157E+03 0.  0.
        -24    2    4    4    0    0 -0.50990089769E+03 -0.15634211638E+03 -0.18938762453E+02  0.53913428893E+03  0.76585389984E+02 0.  0.
         24    2    4    4    0    0  0.14977406045E+02  0.55230668127E+03  0.77622819883E+00  0.55834600714E+03  0.80515019036E+02 0.  0.
         13    1    3    3    0    0  0.31168714380E+03 -0.30442169906E+03  0.53976519194E+02  0.43901584378E+03  0.00000000000E+00 0.  1.
        -13    1    3    3    0    0  0.18323634784E+03 -0.91542865837E+02  0.17816190133E+02  0.20560416360E+03  0.00000000000E+00 0. -1.
          4    1    6    6  502    0 -0.89573216479E+01  0.23789518748E+03 -0.36438655266E+02  0.24083631254E+03  0.00000000000E+00 0. -1.
          1    1    5    5  503    0 -0.24270999358E+03 -0.44774869760E+02  0.16863595919E+02  0.24738090228E+03  0.00000000000E+00 0. -1.
         -2    1    5    5    0  503 -0.26719090411E+03 -0.11156724662E+03 -0.35802358373E+02  0.29175338665E+03  0.00000000000E+00 0.  1.
         -3    1    6    6    0  502  0.23934727693E+02  0.31441149379E+03  0.37214883465E+02  0.31750969460E+03  0.00000000000E+00 0.  1.
<mgrwt>
<rscale>  0 0.17412746E+04</rscale>
<asrwt>0</asrwt>
<pdfrwt beam="1">  1        2 0.13813311E+00 0.17412746E+04</pdfrwt>
<pdfrwt beam="2">  1       -2 0.12988232E+00 0.17412746E+04</pdfrwt>
<totfact> 0.12145333E+01</totfact>
</mgrwt>
</event>
<event>
12    1  0.2210287E-007  0.3676043E+04  0.7818608E-02  0.8073292E-01
          1   -1    0    0  501    0  0.00000000000E+00  0.00000000000E+00  0.28291394559E+04  0.28291394559E+04  0.00000000000E+00 0. -1.
         -1   -1    0    0    0  501 -0.00000000000E+00 -0.00000000000E+00 -0.11941170388E+04  0.11941170388E+04  0.00000000000E+00 0.  1.
         23    2    1    2    0    0 -0.13174177710E+04  0.52033232354E+03  0.18466640711E+04  0.23291741726E+04  0.92459851580E+02 0.  0.
        254    2    1    2    0    0  0.13174177710E+04 -0.52033232354E+03 -0.21164165406E+03  0.16940823222E+04  0.90486872760E+03 0.  0.
        -24    2    4    4    0    0  0.10735796650E+04 -0.14836339675E+03  0.17294225496E+03  0.11006876535E+04  0.83781217707E+02 0.  0.
         24    2    4    4    0    0  0.24383810609E+03 -0.37196892679E+03 -0.38458390902E+03  0.59339466871E+03  0.79965900804E+02 0.  0.
         13    1    3    3    0    0 -0.55845477055E+03  0.21668484199E+03  0.85626595031E+03  0.10449954206E+04  0.00000000000E+00 0. -1.
        -13    1    3    3    0    0 -0.75896300049E+03  0.30364748155E+03  0.99039812083E+03  0.12841787519E+04  0.00000000000E+00 0.  1.
          4    1    6    6  502    0  0.86791224602E+02 -0.20182924278E+03 -0.20326583237E+03  0.29930713075E+03  0.00000000000E+00 0. -1.
          3    1    5    5  503    0  0.86825426027E+03 -0.12402842081E+03  0.10649204475E+03  0.88350951622E+03  0.00000000000E+00 0. -1.
         -4    1    5    5    0  503  0.20532540468E+03 -0.24334975933E+02  0.66450210209E+02  0.21717813725E+03  0.00000000000E+00 0.  1.
         -3    1    6    6    0  502  0.15704688148E+03 -0.17013968401E+03 -0.18131807665E+03  0.29408753795E+03  0.00000000000E+00 0.  1.
<mgrwt>
<rscale>  0 0.36760433E+04</rscale>
<asrwt>0</asrwt>
<pdfrwt beam="1">  1        1 0.43525222E+00 0.36760433E+04</pdfrwt>
<pdfrwt beam="2">  1       -1 0.18371031E+00 0.36760433E+04</pdfrwt>
<totfact> 0.12496565E-01</totfact>
</mgrwt>
</event>
<event>
12    1  0.2019083E-007  0.1988187E+04  0.7818608E-02  0.8612164E-01
         -1   -1    0    0    0  501 -0.00000000000E+00  0.00000000000E+00  0.12771596546E+04  0.12771596546E+04  0.00000000000E+00 0.  1.
          1   -1    0    0  501    0  0.00000000000E+00 -0.00000000000E+00 -0.77376512367E+03  0.77376512367E+03  0.00000000000E+00 0. -1.
         23    2    1    2    0    0  0.31152865093E+03 -0.71964924820E+03  0.13597050131E+03  0.80099222084E+03  0.90307363099E+02 0.  0.
        254    2    1    2    0    0 -0.31152865093E+03  0.71964924820E+03  0.36742402967E+03  0.12499325575E+04  0.90132449200E+03 0.  0.
        -24    2    4    4    0    0 -0.36847202265E+03  0.83467256987E+03  0.50624033588E+03  0.10464837806E+04  0.79994343155E+02 0.  0.
         24    2    4    4    0    0  0.56943371717E+02 -0.11502332167E+03 -0.13881630621E+03  0.20344877691E+03  0.75156675331E+02 0.  0.
         13    1    3    3    0    0  0.17499981893E+03 -0.50611785352E+03  0.10418447686E+03  0.54555900093E+03  0.00000000000E+00 0.  1.
        -13    1    3    3    0    0  0.13652883200E+03 -0.21353139467E+03  0.31786024449E+02  0.25543321990E+03  0.00000000000E+00 0. -1.
          2    1    6    6  502    0  0.74849990572E+01 -0.40357835301E+02 -0.95533122448E+02  0.10397767821E+03  0.00000000000E+00 0. -1.
          1    1    5    5  503    0 -0.15504155410E+03  0.41132985000E+03  0.27987653446E+03  0.52111515382E+03  0.00000000000E+00 0. -1.
         -4    1    5    5    0  503 -0.21343046855E+03  0.42334271987E+03  0.22636380143E+03  0.52536862674E+03  0.00000000000E+00 0.  1.
         -1    1    6    6    0  502  0.49458372659E+02 -0.74665486368E+02 -0.43283183765E+02  0.99471098705E+02  0.00000000000E+00 0.  1.
<mgrwt>
<rscale>  0 0.19881867E+04</rscale>
<asrwt>0</asrwt>
<pdfrwt beam="1">  1        1 0.11904079E+00 0.19881867E+04</pdfrwt>
<pdfrwt beam="2">  1       -1 0.19648610E+00 0.19881867E+04</pdfrwt>
<totfact> 0.34464742E+00</totfact>
</mgrwt>
</event>
<event>
12    1  0.2019083E-007  0.2871344E+04  0.7818608E-02  0.8281455E-01
          2   -1    0    0  501    0  0.00000000000E+00  0.00000000000E+00  0.35001816003E+04  0.35001816003E+04  0.00000000000E+00 0. -1.
         -2   -1    0    0    0  501 -0.00000000000E+00 -0.00000000000E+00 -0.58887065528E+03  0.58887065528E+03  0.00000000000E+00 0.  1.
         23    2    1    2    0    0  0.93323829539E+03  0.98612889045E+02  0.47021180233E+02  0.94388104558E+03  0.89678419607E+02 0.  0.
        254    2    1    2    0    0 -0.93323829539E+03 -0.98612889045E+02  0.28642897648E+04  0.31451712100E+04  0.89849199535E+03 0.  0.
        -24    2    4    4    0    0 -0.24497175996E+03 -0.12522709356E+03  0.20734755520E+04  0.20932302208E+04  0.81356650998E+02 0.  0.
         24    2    4    4    0    0 -0.68826653543E+03  0.26614204514E+02  0.79081421281E+03  0.10519409892E+04  0.82301797238E+02 0.  0.
         11    1    3    3    0    0  0.67002696409E+03  0.30228568554E+02  0.29009948995E+02  0.67133559127E+03  0.00000000000E+00 0. -1.
        -11    1    3    3    0    0  0.26321133131E+03  0.68384320491E+02  0.18011231239E+02  0.27254545431E+03  0.00000000000E+00 0.  1.
          2    1    6    6  502    0 -0.34218651056E+03 -0.22992386959E+02  0.42129530590E+03  0.54324027156E+03  0.00000000000E+00 0. -1.
          1    1    5    5  503    0 -0.24177993710E+02 -0.26469724402E+01  0.40723596587E+03  0.40796165719E+03  0.00000000000E+00 0. -1.
         -2    1    5    5    0  503 -0.22079376625E+03 -0.12258012112E+03  0.16662395861E+04  0.16852685636E+04  0.00000000000E+00 0.  1.
         -1    1    6    6    0  502 -0.34608002487E+03  0.49606591473E+02  0.36951890691E+03  0.50870071760E+03  0.00000000000E+00 0.  1.
<mgrwt>
<rscale>  0 0.28713441E+04</rscale>
<asrwt>0</asrwt>
<pdfrwt beam="1">  1        2 0.53848946E+00 0.28713441E+04</pdfrwt>
<pdfrwt beam="2">  1       -2 0.90595488E-01 0.28713441E+04</pdfrwt>
<totfact> 0.73149621E-01</totfact>
</mgrwt>
</event>
<event>
12    1  0.2019083E-007  0.2893901E+04  0.7818608E-02  0.8274695E-01
         -1   -1    0    0    0  501 -0.00000000000E+00  0.00000000000E+00  0.98989205096E+03  0.98989205096E+03  0.00000000000E+00 0.  1.
          1   -1    0    0  501    0  0.00000000000E+00 -0.00000000000E+00 -0.21150439624E+04  0.21150439624E+04  0.00000000000E+00 0. -1.
         23    2    1    2    0    0  0.78827243061E+03 -0.68579298319E+03  0.33033798001E+03  0.10995925761E+04  0.91078052619E+02 0.  0.
        254    2    1    2    0    0 -0.78827243061E+03  0.68579298319E+03 -0.14554898915E+04  0.20053434373E+04  0.90070307913E+03 0.  0.
        -24    2    4    4    0    0 -0.39337548290E+03 -0.96990313807E+02 -0.16848138835E+03  0.44609217089E+03  0.80379445046E+02 0.  0.
         24    2    4    4    0    0 -0.39489694770E+03  0.78278329700E+03 -0.12870085031E+04  0.15592512664E+04  0.78615109039E+02 0.  0.
         11    1    3    3    0    0  0.61745387140E+03 -0.50529393996E+03  0.28335757276E+03  0.84667748470E+03  0.00000000000E+00 0. -1.
        -11    1    3    3    0    0  0.17081855921E+03 -0.18049904323E+03  0.46980407258E+02  0.25291509137E+03  0.00000000000E+00 0.  1.
          4    1    6    6  502    0 -0.81984692049E+02  0.22262486366E+03 -0.38733592826E+03  0.45421629316E+03  0.00000000000E+00 0. -1.
          3    1    5    5  503    0 -0.18027699049E+03 -0.37177205860E+02 -0.11933116265E+03  0.21936696268E+03  0.00000000000E+00 0. -1.
         -4    1    5    5    0  503 -0.21309849241E+03 -0.59813107947E+02 -0.49150225699E+02  0.22672520821E+03  0.00000000000E+00 0.  1.
         -3    1    6    6    0  502 -0.31291225565E+03  0.56015843334E+03 -0.89967257488E+03  0.11050349733E+04  0.00000000000E+00 0.  1.
<mgrwt>
<rscale>  0 0.28939006E+04</rscale>
<asrwt>0</asrwt>
<pdfrwt beam="1">  1        1 0.32539137E+00 0.28939006E+04</pdfrwt>
<pdfrwt beam="2">  1       -1 0.15229109E+00 0.28939006E+04</pdfrwt>
<totfact> 0.71572777E-01</totfact>
</mgrwt>
</event>
<event>
12    1  0.2019083E-007  0.1393888E+04  0.7818608E-02  0.8958255E-01
          2   -1    0    0  501    0  0.00000000000E+00  0.00000000000E+00  0.18184501557E+04  0.18184501557E+04  0.00000000000E+00 0.  1.
         -2   -1    0    0    0  501 -0.00000000000E+00 -0.00000000000E+00 -0.26711241673E+03  0.26711241673E+03  0.00000000000E+00 0. -1.
         23    2    1    2    0    0  0.36382126794E+03 -0.30961062369E+02  0.21970066424E+03  0.43645179975E+03  0.94325443290E+02 0.  0.
        254    2    1    2    0    0 -0.36382126794E+03  0.30961062369E+02  0.13316370747E+04  0.16491107727E+04  0.90165655289E+03 0.  0.
        -24    2    4    4    0    0  0.10646675478E+03 -0.21505995053E+03  0.96855679689E+03  0.10012210200E+04  0.82190692203E+02 0.  0.
         24    2    4    4    0    0 -0.47028802272E+03  0.24602101290E+03  0.36308027784E+03  0.64788975268E+03  0.78972655862E+02 0.  0.
         13    1    3    3    0    0  0.33506378574E+03 -0.59955449448E+01  0.21481628709E+03  0.39805743841E+03  0.00000000000E+00 0. -1.
        -13    1    3    3    0    0  0.28757482203E+02 -0.24965517424E+02  0.48843771442E+01  0.38394361343E+02  0.00000000000E+00 0.  1.
          4    1    6    6  502    0 -0.11859446517E+03  0.49610139366E+02  0.12839430646E+03  0.18168905038E+03  0.00000000000E+00 0. -1.
          3    1    5    5  503    0  0.87315420617E+02 -0.10044786516E+03  0.42374287838E+03  0.44415288277E+03  0.00000000000E+00 0. -1.
         -4    1    5    5    0  503  0.19151334159E+02 -0.11461208537E+03  0.54481391851E+03  0.55706813723E+03  0.00000000000E+00 0.  1.
         -3    1    6    6    0  502 -0.35169355755E+03  0.19641087353E+03  0.23468597138E+03  0.46620070230E+03  0.00000000000E+00 0.  1.
<mgrwt>
<rscale>  0 0.13938875E+04</rscale>
<asrwt>0</asrwt>
<pdfrwt beam="1">  1        2 0.27976156E+00 0.13938875E+04</pdfrwt>
<pdfrwt beam="2">  1       -2 0.41094219E-01 0.13938875E+04</pdfrwt>
<totfact> 0.46030734E+01</totfact>
</mgrwt>
</event>
<event>
12    1  0.2019083E-007  0.2534021E+04  0.7818608E-02  0.8390965E-01
          1   -1    0    0  501    0  0.00000000000E+00  0.00000000000E+00  0.19162769912E+04  0.19162769912E+04  0.00000000000E+00 0. -1.
         -1   -1    0    0    0  501 -0.00000000000E+00 -0.00000000000E+00 -0.83772622727E+03  0.83772622727E+03  0.00000000000E+00 0.  1.
         23    2    1    2    0    0 -0.60993430283E+03  0.13987643179E+03 -0.51818280641E+03  0.81731927164E+03  0.88949991500E+02 0.  0.
        254    2    1    2    0    0  0.60993430283E+03 -0.13987643179E+03  0.15967335703E+04  0.19366839468E+04  0.89977849790E+03 0.  0.
        -24    2    4    4    0    0 -0.12192846947E+03  0.53787699651E+02 -0.12817486834E+02  0.15628682267E+03  0.80632590629E+02 0.  0.
         24    2    4    4    0    0  0.73186277230E+03 -0.19366413144E+03  0.16095510571E+04  0.17803971241E+04  0.77655655071E+02 0.  0.
         11    1    3    3    0    0 -0.25850481799E+03  0.24784295842E+02 -0.17787415489E+03  0.31476692524E+03  0.00000000000E+00 0. -1.
        -11    1    3    3    0    0 -0.35142948484E+03  0.11509213595E+03 -0.34030865152E+03  0.50255234640E+03  0.00000000000E+00 0.  1.
          4    1    6    6  502    0  0.46364847110E+03 -0.11136217873E+03  0.92740759167E+03  0.10428117187E+04  0.00000000000E+00 0. -1.
          3    1    5    5  503    0 -0.10423889924E+03  0.59822188205E+02 -0.36973989920E+02  0.12574385968E+03  0.00000000000E+00 0. -1.
         -4    1    5    5    0  503 -0.17689570224E+02 -0.60344885538E+01  0.24156503086E+02  0.30542962989E+02  0.00000000000E+00 0.  1.
         -3    1    6    6    0  502  0.26821430120E+03 -0.82301952705E+02  0.68214346546E+03  0.73758540540E+03  0.00000000000E+00 0.  1.
<mgrwt>
<rscale>  0 0.25340209E+04</rscale>
<asrwt>0</asrwt>
<pdfrwt beam="1">  1        1 0.29481184E+00 0.25340209E+04</pdfrwt>
<pdfrwt beam="2">  1       -1 0.12888096E+00 0.25340209E+04</pdfrwt>
<totfact> 0.15593084E+00</totfact>
</mgrwt>
</event>
<event>
12    1  0.2019083E-007  0.1451543E+04  0.7818608E-02  0.8917332E-01
          2   -1    0    0  501    0  0.00000000000E+00  0.00000000000E+00  0.35837475253E+03  0.35837475253E+03  0.00000000000E+00 0. -1.
         -2   -1    0    0    0  501 -0.00000000000E+00 -0.00000000000E+00 -0.14698131711E+04  0.14698131711E+04  0.00000000000E+00 0.  1.
         23    2    1    2    0    0  0.40460904335E+03  0.10586219497E+03 -0.17219971355E+03  0.46284073527E+03  0.98252341443E+02 0.  0.
        254    2    1    2    0    0 -0.40460904335E+03 -0.10586219497E+03 -0.93923870498E+03  0.13653471883E+04  0.89838094227E+03 0.  0.
        -24    2    4    4    0    0 -0.43145195520E+02  0.28736273202E+03 -0.23747194012E+02  0.30226269564E+03  0.79749359264E+02 0.  0.
         24    2    4    4    0    0 -0.36146384783E+03 -0.39322492699E+03 -0.91549151097E+03  0.10630844927E+04  0.82109533158E+02 0.  0.
         11    1    3    3    0    0  0.56510123406E+02  0.40795631692E+02 -0.58243046338E+02  0.90829125611E+02  0.00000000000E+00 0.  1.
        -11    1    3    3    0    0  0.34809891994E+03  0.65066563279E+02 -0.11395666721E+03  0.37201160966E+03  0.00000000000E+00 0. -1.
          4    1    6    6  502    0 -0.33056859658E+03 -0.34630064917E+03 -0.76507732055E+03  0.90252038375E+03  0.00000000000E+00 0. -1.
          1    1    5    5  503    0 -0.67613629214E+01  0.24347247574E+03 -0.27586428644E+02  0.24512358825E+03  0.00000000000E+00 0. -1.
         -2    1    5    5    0  503 -0.36383832598E+02  0.43890256275E+02  0.38392346313E+01  0.57139107387E+02  0.00000000000E+00 0.  1.
         -3    1    6    6    0  502 -0.30895251246E+02 -0.46924277812E+02 -0.15041419042E+03  0.16056410893E+03  0.00000000000E+00 0.  1.
<mgrwt>
<rscale>  0 0.14515425E+04</rscale>
<asrwt>0</asrwt>
<pdfrwt beam="1">  1        2 0.55134579E-01 0.14515425E+04</pdfrwt>
<pdfrwt beam="2">  1       -2 0.22612510E+00 0.14515425E+04</pdfrwt>
<totfact> 0.78877906E+00</totfact>
</mgrwt>
</event>
<event>
12    1  0.2019083E-007  0.1590571E+04  0.7818608E-02  0.8826362E-01
          2   -1    0    0  501    0  0.00000000000E+00  0.00000000000E+00  0.15663572838E+04  0.15663572838E+04  0.00000000000E+00 0. -1.
         -2   -1    0    0    0  501 -0.00000000000E+00 -0.00000000000E+00 -0.40378959729E+03  0.40378959729E+03  0.00000000000E+00 0.  1.
         23    2    1    2    0    0 -0.49570950666E+03 -0.15182824998E+03  0.23750091715E+03  0.57746497242E+03  0.90991077826E+02 0.  0.
        254    2    1    2    0    0  0.49570950666E+03  0.15182824998E+03  0.92506676932E+03  0.13926819086E+04  0.90279268853E+03 0.  0.
        -24    2    4    4    0    0 -0.94231519238E+02  0.35798182083E+03  0.52127743077E+03  0.64427279176E+03  0.79540600449E+02 0.  0.
         24    2    4    4    0    0  0.58994102590E+03 -0.20615357084E+03  0.40378933855E+03  0.74840911687E+03  0.80874393221E+02 0.  0.
         13    1    3    3    0    0 -0.27874146972E+03 -0.39449261618E+02  0.11457245110E+03  0.30394061547E+03  0.00000000000E+00 0.  1.
        -13    1    3    3    0    0 -0.21696803694E+03 -0.11237898837E+03  0.12292846605E+03  0.27352435695E+03  0.00000000000E+00 0. -1.
          4    1    6    6  502    0  0.30703874619E+03 -0.89105451164E+02  0.16273559127E+03  0.35874147482E+03  0.00000000000E+00 0. -1.
          1    1    5    5  503    0  0.28751640654E+01  0.77131333658E+02  0.15021276028E+03  0.16888274793E+03  0.00000000000E+00 0. -1.
         -2    1    5    5    0  503 -0.97106683303E+02  0.28085048717E+03  0.37106467049E+03  0.47539004383E+03  0.00000000000E+00 0.  1.
         -3    1    6    6    0  502  0.28290227970E+03 -0.11704811968E+03  0.24105374728E+03  0.38966764205E+03  0.00000000000E+00 0.  1.
<mgrwt>
<rscale>  0 0.15905707E+04</rscale>
<asrwt>0</asrwt>
<pdfrwt beam="1">  1        2 0.24097804E+00 0.15905707E+04</pdfrwt>
<pdfrwt beam="2">  1       -2 0.62121477E-01 0.15905707E+04</pdfrwt>
<totfact> 0.26883594E+01</totfact>
</mgrwt>
</event>
<event>
12    1  0.2019083E-007  0.1871288E+04  0.7818608E-02  0.8669282E-01
         -2   -1    0    0    0  501 -0.00000000000E+00  0.00000000000E+00  0.68888673365E+03  0.68888673365E+03  0.00000000000E+00 0.  1.
          2   -1    0    0  501    0  0.00000000000E+00 -0.00000000000E+00 -0.12707891096E+04  0.12707891096E+04  0.00000000000E+00 0. -1.
         23    2    1    2    0    0 -0.65703669438E+03 -0.28190408233E+03 -0.21510866741E+03  0.75214746024E+03  0.91032597148E+02 0.  0.
        254    2    1    2    0    0  0.65703669438E+03  0.28190408233E+03 -0.36679370856E+03  0.12075283830E+04  0.90134346493E+03 0.  0.
        -24    2    4    4    0    0  0.31959953476E+03  0.66052965319E+02 -0.63504146855E+03  0.71941194435E+03  0.88142056063E+02 0.  0.
         24    2    4    4    0    0  0.33743715962E+03  0.21585111702E+03  0.26824775999E+03  0.48811643868E+03  0.76454271060E+02 0.  0.
         13    1    3    3    0    0 -0.45888635607E+03 -0.16804568461E+03 -0.11161394172E+03  0.50127209366E+03  0.00000000000E+00 0. -1.
        -13    1    3    3    0    0 -0.19815033831E+03 -0.11385839773E+03 -0.10349472569E+03  0.25087536657E+03  0.00000000000E+00 0.  1.
          2    1    6    6  502    0  0.27398568085E+03  0.17091678489E+03  0.17705814763E+03  0.36828017638E+03  0.00000000000E+00 0. -1.
          3    1    5    5  503    0  0.50324793006E+02  0.70505502029E+01 -0.18321789618E+03  0.19013440649E+03  0.00000000000E+00 0. -1.
         -4    1    5    5    0  503  0.26927474176E+03  0.59002415117E+02 -0.45182357237E+03  0.52927753786E+03  0.00000000000E+00 0.  1.
         -1    1    6    6    0  502  0.63451478765E+02  0.44934332125E+02  0.91189612356E+02  0.11983626230E+03  0.00000000000E+00 0.  1.
<mgrwt>
<rscale>  0 0.18712881E+04</rscale>
<asrwt>0</asrwt>
<pdfrwt beam="1">  1        2 0.19550601E+00 0.18712881E+04</pdfrwt>
<pdfrwt beam="2">  1       -2 0.10598258E+00 0.18712881E+04</pdfrwt>
<totfact> 0.11604861E+01</totfact>
</mgrwt>
</event>
<event>
12    1  0.2019083E-007  0.2095263E+04  0.7818608E-02  0.8563333E-01
          2   -1    0    0  501    0  0.00000000000E+00  0.00000000000E+00  0.16904979733E+04  0.16904979733E+04  0.00000000000E+00 0. -1.
         -2   -1    0    0    0  501 -0.00000000000E+00 -0.00000000000E+00 -0.64923584178E+03  0.64923584178E+03  0.00000000000E+00 0.  1.
         23    2    1    2    0    0 -0.76964065710E+03  0.33660958352E+03  0.58320235570E+03  0.10259747614E+04  0.82743402242E+02 0.  0.
        254    2    1    2    0    0  0.76964065710E+03 -0.33660958352E+03  0.45805977578E+03  0.13137590536E+04  0.90027292527E+03 0.  0.
        -24    2    4    4    0    0  0.40208812391E+03  0.57931387901E+02  0.61948958888E+03  0.74543541547E+03  0.82919857785E+02 0.  0.
         24    2    4    4    0    0  0.36755253319E+03 -0.39454097142E+03 -0.16142981309E+03  0.56832363815E+03  0.78579452360E+02 0.  0.
         13    1    3    3    0    0 -0.24732958894E+03  0.69124536622E+02  0.19340697395E+03  0.32149087810E+03  0.00000000000E+00 0. -1.
        -13    1    3    3    0    0 -0.52231106816E+03  0.26748504690E+03  0.38979538175E+03  0.70448388333E+03  0.00000000000E+00 0.  1.
          2    1    6    6  502    0  0.17949923579E+03 -0.24423646364E+03 -0.72232634418E+02  0.31159104495E+03  0.00000000000E+00 0. -1.
          3    1    5    5  503    0  0.61098362777E+02  0.26876375745E+02  0.61467293799E+02  0.90739063882E+02  0.00000000000E+00 0. -1.
         -4    1    5    5    0  503  0.34098976113E+03  0.31055012156E+02  0.55802229508E+03  0.65469635159E+03  0.00000000000E+00 0.  1.
         -1    1    6    6    0  502  0.18805329740E+03 -0.15030450778E+03 -0.89197178674E+02  0.25673259319E+03  0.00000000000E+00 0.  1.
<mgrwt>
<rscale>  0 0.20952631E+04</rscale>
<asrwt>0</asrwt>
<pdfrwt beam="1">  1        2 0.26007661E+00 0.20952631E+04</pdfrwt>
<pdfrwt beam="2">  1       -2 0.99882438E-01 0.20952631E+04</pdfrwt>
<totfact> 0.75810441E+00</totfact>
</mgrwt>
</event>
<event>
12    1  0.2019083E-007  0.1366844E+04  0.7818608E-02  0.8978175E-01
          2   -1    0    0  501    0  0.00000000000E+00  0.00000000000E+00  0.12993678165E+04  0.12993678165E+04  0.00000000000E+00 0. -1.
         -2   -1    0    0    0  501 -0.00000000000E+00 -0.00000000000E+00 -0.35945601569E+03  0.35945601569E+03  0.00000000000E+00 0.  1.
         23    2    1    2    0    0  0.44186768090E+02 -0.55330643259E+02 -0.18380475944E+03  0.21683361687E+03  0.90656920617E+02 0.  0.
        254    2    1    2    0    0 -0.44186768090E+02  0.55330643259E+02  0.11237165603E+04  0.14419902153E+04  0.90087897233E+03 0.  0.
        -24    2    4    4    0    0 -0.14607333977E+03  0.38312174701E+03  0.97247346206E+03  0.10583598431E+04  0.79380284239E+02 0.  0.
         24    2    4    4    0    0  0.10188657168E+03 -0.32779110375E+03  0.15124309820E+03  0.38363037221E+03  0.80435729232E+02 0.  0.
         13    1    3    3    0    0  0.61635955806E+02 -0.19736266249E+02 -0.15458838006E+03  0.16758901665E+03  0.00000000000E+00 0.  1.
        -13    1    3    3    0    0 -0.17449187716E+02 -0.35594377010E+02 -0.29216379380E+02  0.49244600219E+02  0.00000000000E+00 0. -1.
          2    1    6    6  502    0  0.11290656361E+03 -0.31883548717E+03  0.14311089020E+03  0.36726650661E+03  0.00000000000E+00 0. -1.
          1    1    5    5  503    0 -0.13953177554E+03  0.30477121326E+03  0.83856817160E+03  0.90307872705E+03  0.00000000000E+00 0. -1.
         -2    1    5    5    0  503 -0.65415642277E+01  0.78350533748E+02  0.13390529046E+03  0.15528111609E+03  0.00000000000E+00 0.  1.
         -1    1    6    6    0  502 -0.11019991922E+02 -0.89556165883E+01  0.81322079996E+01  0.16363865600E+02  0.00000000000E+00 0.  1.
<mgrwt>
<rscale>  0 0.13668439E+04</rscale>
<asrwt>0</asrwt>
<pdfrwt beam="1">  1        2 0.19990274E+00 0.13668439E+04</pdfrwt>
<pdfrwt beam="2">  1       -2 0.55300926E-01 0.13668439E+04</pdfrwt>
<totfact> 0.49611143E+01</totfact>
</mgrwt>
</event>
<event>
12    1  0.2019083E-007  0.3377700E+04  0.7818608E-02  0.8143401E-01
          1   -1    0    0  501    0  0.00000000000E+00  0.00000000000E+00  0.32093957436E+04  0.32093957436E+04  0.00000000000E+00 0. -1.
         -1   -1    0    0    0  501 -0.00000000000E+00 -0.00000000000E+00 -0.88870783833E+03  0.88870783833E+03  0.00000000000E+00 0.  1.
         23    2    1    2    0    0 -0.13680207014E+04  0.76254528514E+03  0.12155444316E+04  0.19846555067E+04  0.91396191316E+02 0.  0.
        254    2    1    2    0    0  0.13680207014E+04 -0.76254528514E+03  0.11051434737E+04  0.21134480753E+04  0.89014870545E+03 0.  0.
        -24    2    4    4    0    0  0.15801242411E+03 -0.92733422738E+02  0.61025173218E+03  0.64229868238E+03  0.81074082770E+02 0.  0.
         24    2    4    4    0    0  0.12100082773E+04 -0.66981186240E+03  0.49489174157E+03  0.14711493929E+04  0.81207992795E+02 0.  0.
         13    1    3    3    0    0 -0.12745700956E+04  0.73541780618E+03  0.11430215756E+04  0.18632945555E+04  0.00000000000E+00 0. -1.
        -13    1    3    3    0    0 -0.93450605779E+02  0.27127478959E+02  0.72522856001E+02  0.12136095121E+03  0.00000000000E+00 0.  1.
          4    1    6    6  502    0  0.10788040096E+04 -0.60793729890E+03  0.46693668961E+03  0.13234181965E+04  0.00000000000E+00 0. -1.
          3    1    5    5  503    0  0.44102820520E+02  0.19809105440E+01  0.23019709235E+03  0.23439215880E+03  0.00000000000E+00 0. -1.
         -4    1    5    5    0  503  0.11390960359E+03 -0.94714333282E+02  0.38005463983E+03  0.40790652357E+03  0.00000000000E+00 0.  1.
         -3    1    6    6    0  502  0.13120426767E+03 -0.61874563504E+02  0.27955051957E+02  0.14773119641E+03  0.00000000000E+00 0.  1.
<mgrwt>
<rscale>  0 0.33777005E+04</rscale>
<asrwt>0</asrwt>
<pdfrwt beam="1">  1        1 0.49375319E+00 0.33777005E+04</pdfrwt>
<pdfrwt beam="2">  1       -1 0.13672428E+00 0.33777005E+04</pdfrwt>
<totfact> 0.15352201E-01</totfact>
</mgrwt>
</event>
<event>
12    1  0.2019083E-007  0.1012132E+04  0.7818608E-02  0.9295338E-01
         -1   -1    0    0    0  501 -0.00000000000E+00  0.00000000000E+00  0.27316611907E+03  0.27316611907E+03  0.00000000000E+00 0.  1.
          1   -1    0    0  501    0  0.00000000000E+00 -0.00000000000E+00 -0.93753514538E+03  0.93753514538E+03  0.00000000000E+00 0. -1.
         23    2    1    2    0    0 -0.37862267178E+02  0.10827296983E+02 -0.64227486662E+01  0.95568738385E+02  0.86840948983E+02 0.  0.
        254    2    1    2    0    0  0.37862267178E+02 -0.10827296983E+02 -0.65794627764E+03  0.11151325261E+04  0.89948677855E+03 0.  0.
        -24    2    4    4    0    0  0.29844816758E+03  0.33102424792E+03 -0.24742999054E+03  0.51631914651E+03  0.81948150650E+02 0.  0.
         24    2    4    4    0    0 -0.26058590040E+03 -0.34185154491E+03 -0.41051628710E+03  0.59881337955E+03  0.72707298907E+02 0.  0.
         13    1    3    3    0    0 -0.21529543609E+02 -0.27368072534E+02  0.25515687633E+02  0.43169236241E+02  0.00000000000E+00 0.  1.
        -13    1    3    3    0    0 -0.16332723568E+02  0.38195369517E+02 -0.31938436299E+02  0.52399502144E+02  0.00000000000E+00 0. -1.
          4    1    6    6  502    0 -0.24502749529E+03 -0.27954200359E+03 -0.34976218133E+03  0.51040747321E+03  0.00000000000E+00 0. -1.
          1    1    5    5  503    0  0.29465273148E+03  0.33575236743E+03 -0.24138055216E+03  0.50775432579E+03  0.00000000000E+00 0. -1.
         -2    1    5    5    0  503  0.37954360981E+01 -0.47281195059E+01 -0.60494383799E+01  0.85648207190E+01  0.00000000000E+00 0.  1.
         -3    1    6    6    0  502 -0.15558405111E+02 -0.62309541311E+02 -0.60754105768E+02  0.88405906339E+02  0.00000000000E+00 0.  1.
<mgrwt>
<rscale>  0 0.10121321E+04</rscale>
<asrwt>0</asrwt>
<pdfrwt beam="1">  1        1 0.14423618E+00 0.10121321E+04</pdfrwt>
<pdfrwt beam="2">  1       -1 0.42025557E-01 0.10121321E+04</pdfrwt>
<totfact> 0.94432006E+01</totfact>
</mgrwt>
</event>
<event>
12    1  0.2019083E-007  0.1762234E+04  0.7818608E-02  0.8726645E-01
         -1   -1    0    0    0  501 -0.00000000000E+00  0.00000000000E+00  0.14089007158E+04  0.14089007158E+04  0.00000000000E+00 0.  1.
          1   -1    0    0  501    0  0.00000000000E+00 -0.00000000000E+00 -0.55104443974E+03  0.55104443974E+03  0.00000000000E+00 0. -1.
         23    2    1    2    0    0  0.59407632344E+03 -0.27360693813E+03  0.36941302441E+03  0.75657339735E+03  0.90276731816E+02 0.  0.
        254    2    1    2    0    0 -0.59407632344E+03  0.27360693813E+03  0.48844325164E+03  0.12033717582E+04  0.88416024774E+03 0.  0.
        -24    2    4    4    0    0 -0.18401017498E+03 -0.10454550033E+03  0.58777322930E+03  0.63027253280E+03  0.83525986273E+02 0.  0.
         24    2    4    4    0    0 -0.41006614846E+03  0.37815243845E+03 -0.99329977667E+02  0.57309922539E+03  0.86155469128E+02 0.  0.
         13    1    3    3    0    0  0.38229510453E+03 -0.12762933325E+03  0.22478945584E+03  0.46148574530E+03  0.00000000000E+00 0.  1.
        -13    1    3    3    0    0  0.21178121890E+03 -0.14597760487E+03  0.14462356857E+03  0.29508765205E+03  0.00000000000E+00 0. -1.
          4    1    6    6  502    0 -0.33090161610E+03  0.25981446269E+03 -0.91244629005E+02  0.43049392201E+03  0.00000000000E+00 0. -1.
          3    1    5    5  503    0 -0.61445435278E+02 -0.78740050051E+02  0.21616242695E+03  0.23812125445E+03  0.00000000000E+00 0. -1.
         -4    1    5    5    0  503 -0.12256473970E+03 -0.25805450275E+02  0.37161080236E+03  0.39215127835E+03  0.00000000000E+00 0.  1.
         -3    1    6    6    0  502 -0.79164532361E+02  0.11833797576E+03 -0.80853486621E+01  0.14260530339E+03  0.00000000000E+00 0.  1.
<mgrwt>
<rscale>  0 0.17622337E+04</rscale>
<asrwt>0</asrwt>
<pdfrwt beam="1">  1        1 0.84776068E-01 0.17622337E+04</pdfrwt>
<pdfrwt beam="2">  1       -1 0.21675395E+00 0.17622337E+04</pdfrwt>
<totfact> 0.42372465E+00</totfact>
</mgrwt>
</event>
<event>
12    1  0.2019083E-007  0.1748679E+04  0.7818608E-02  0.8734078E-01
          1   -1    0    0  501    0  0.00000000000E+00  0.00000000000E+00  0.62976012869E+03  0.62976012869E+03  0.00000000000E+00 0. -1.
         -1   -1    0    0    0  501 -0.00000000000E+00 -0.00000000000E+00 -0.12139057824E+04  0.12139057824E+04  0.00000000000E+00 0.  1.
         23    2    1    2    0    0  0.40239133366E+03 -0.47882198833E+03 -0.35504966452E+03  0.72395084278E+03  0.82796597643E+02 0.  0.
        254    2    1    2    0    0 -0.40239133366E+03  0.47882198833E+03 -0.22909598915E+03  0.11197150683E+04  0.90004865422E+03 0.  0.
        -24    2    4    4    0    0 -0.75676845559E+02  0.35163506942E+03  0.30347105206E+03  0.47690766467E+03  0.77278937464E+02 0.  0.
         24    2    4    4    0    0 -0.32671448810E+03  0.12718691890E+03 -0.53256704122E+03  0.64280740361E+03  0.81577176145E+02 0.  0.
         11    1    3    3    0    0  0.12328512544E+03 -0.13002413471E+03 -0.61627049299E+02  0.18948190143E+03  0.00000000000E+00 0. -1.
        -11    1    3    3    0    0  0.27910620822E+03 -0.34879785361E+03 -0.29342261522E+03  0.53446894136E+03  0.00000000000E+00 0.  1.
          4    1    6    6  502    0 -0.23286557930E+03  0.12076032589E+03 -0.42947604798E+03  0.50324855700E+03  0.00000000000E+00 0. -1.
          3    1    5    5  503    0 -0.65877795449E+02  0.34848406509E+03  0.30322478645E+03  0.46661150722E+03  0.00000000000E+00 0. -1.
         -4    1    5    5    0  503 -0.97990501096E+01  0.31510043306E+01  0.24626561482E+00  0.10296157443E+02  0.00000000000E+00 0.  1.
         -3    1    6    6    0  502 -0.93848908800E+02  0.64265930167E+01 -0.10309099324E+03  0.13955884661E+03  0.00000000000E+00 0.  1.
<mgrwt>
<rscale>  0 0.17486789E+04</rscale>
<asrwt>0</asrwt>
<pdfrwt beam="1">  1        1 0.96886174E-01 0.17486789E+04</pdfrwt>
<pdfrwt beam="2">  1       -1 0.18675473E+00 0.17486789E+04</pdfrwt>
<totfact> 0.56325718E+00</totfact>
</mgrwt>
</event>
<event>
12    1  0.2019083E-007  0.2135451E+04  0.7818608E-02  0.8545786E-01
          2   -1    0    0  501    0  0.00000000000E+00  0.00000000000E+00  0.24233788318E+04  0.24233788318E+04  0.00000000000E+00 0. -1.
         -2   -1    0    0    0  501 -0.00000000000E+00 -0.00000000000E+00 -0.47043311384E+03  0.47043311384E+03  0.00000000000E+00 0.  1.
         23    2    1    2    0    0 -0.53696756730E+03 -0.50302932850E+03  0.14478948131E+04  0.16268006621E+04  0.93318437190E+02 0.  0.
        254    2    1    2    0    0  0.53696756730E+03  0.50302932850E+03  0.50505090483E+03  0.12670112835E+04  0.89937117055E+03 0.  0.
        -24    2    4    4    0    0 -0.33204851846E+02 -0.16302020922E+03 -0.89251372153E+02  0.20482055196E+03  0.79419772565E+02 0.  0.
         24    2    4    4    0    0  0.57017241915E+03  0.66604953773E+03  0.59430227698E+03  0.10621907316E+04  0.79595097267E+02 0.  0.
         13    1    3    3    0    0 -0.36839645407E+03 -0.28806745920E+03  0.87606635775E+03  0.99307153398E+03  0.00000000000E+00 0.  1.
        -13    1    3    3    0    0 -0.16857111323E+03 -0.21496186931E+03  0.57182845540E+03  0.63372912816E+03  0.00000000000E+00 0. -1.
          4    1    6    6  502    0  0.87487856434E+02  0.10383284598E+03  0.12855544456E+03  0.18698098099E+03  0.00000000000E+00 0. -1.
          3    1    5    5  503    0 -0.31209174474E+02 -0.41878908811E+02 -0.61202010709E+02  0.80458322685E+02  0.00000000000E+00 0. -1.
         -4    1    5    5    0  503 -0.19956773718E+01 -0.12114130041E+03 -0.28049361444E+02  0.12436222928E+03  0.00000000000E+00 0.  1.
         -1    1    6    6    0  502  0.48268456271E+03  0.56221669175E+03  0.46574683242E+03  0.87520975056E+03  0.00000000000E+00 0.  1.
<mgrwt>
<rscale>  0 0.21354509E+04</rscale>
<asrwt>0</asrwt>
<pdfrwt beam="1">  1        2 0.37282750E+00 0.21354509E+04</pdfrwt>
<pdfrwt beam="2">  1       -2 0.72374327E-01 0.21354509E+04</pdfrwt>
<totfact> 0.61199623E+00</totfact>
</mgrwt>
</event>
<event>
12    1  0.2019083E-007  0.1889380E+04  0.7818608E-02  0.8660161E-01
          2   -1    0    0  501    0  0.00000000000E+00  0.00000000000E+00  0.13000945351E+04  0.13000945351E+04  0.00000000000E+00 0. -1.
         -2   -1    0    0    0  501 -0.00000000000E+00 -0.00000000000E+00 -0.68644199753E+03  0.68644199753E+03  0.00000000000E+00 0.  1.
         23    2    1    2    0    0 -0.11036771592E+03 -0.10335548500E+03 -0.50840153541E+03  0.53824325082E+03  0.91489271807E+02 0.  0.
        254    2    1    2    0    0  0.11036771592E+03  0.10335548500E+03  0.11220540730E+04  0.14482932818E+04  0.90315264405E+03 0.  0.
        -24    2    4    4    0    0 -0.33110156966E+03  0.17921376928E+02  0.85125033046E+03  0.91737741963E+03  0.83694562306E+02 0.  0.
         24    2    4    4    0    0  0.44146928558E+03  0.85434108071E+02  0.27080374255E+03  0.53091586220E+03  0.79642129721E+02 0.  0.
         13    1    3    3    0    0 -0.10484258538E+03 -0.82901979985E+02 -0.49600149835E+03  0.51369464895E+03  0.00000000000E+00 0.  1.
        -13    1    3    3    0    0 -0.55251305361E+01 -0.20453505014E+02 -0.12400037054E+02  0.24548601869E+02  0.00000000000E+00 0. -1.
          4    1    6    6  502    0  0.11219465673E+03  0.56777307178E+02  0.84619034671E+02  0.15156412715E+03  0.00000000000E+00 0. -1.
          1    1    5    5  503    0 -0.14823116964E+03 -0.33554808740E+02  0.38404398734E+03  0.41302323065E+03  0.00000000000E+00 0. -1.
         -2    1    5    5    0  503 -0.18287040002E+03  0.51476185668E+02  0.46720634311E+03  0.50435418898E+03  0.00000000000E+00 0.  1.
         -3    1    6    6    0  502  0.32927462885E+03  0.28656800893E+02  0.18618470787E+03  0.37935173505E+03  0.00000000000E+00 0.  1.
<mgrwt>
<rscale>  0 0.18893803E+04</rscale>
<asrwt>0</asrwt>
<pdfrwt beam="1">  1        2 0.20001454E+00 0.18893803E+04</pdfrwt>
<pdfrwt beam="2">  1       -2 0.10560646E+00 0.18893803E+04</pdfrwt>
<totfact> 0.11234637E+01</totfact>
</mgrwt>
</event>
<event>
12    1  0.2019083E-007  0.1654851E+04  0.7818608E-02  0.8787542E-01
         -2   -1    0    0    0  501 -0.00000000000E+00  0.00000000000E+00  0.19435244003E+03  0.19435244003E+03  0.00000000000E+00 0.  1.
          2   -1    0    0  501    0  0.00000000000E+00 -0.00000000000E+00 -0.35226364760E+04  0.35226364760E+04  0.00000000000E+00 0. -1.
         23    2    1    2    0    0  0.29240357853E+03 -0.49668029577E+03 -0.11878618632E+04  0.13233362138E+04  0.89508434184E+02 0.  0.
        254    2    1    2    0    0 -0.29240357853E+03  0.49668029577E+03 -0.21404221728E+04  0.23936527023E+04  0.90331335217E+03 0.  0.
        -24    2    4    4    0    0  0.17541067783E+03  0.53740031903E+03 -0.14150694042E+04  0.15258804714E+04  0.79509657527E+02 0.  0.
         24    2    4    4    0    0 -0.46781425636E+03 -0.40720023267E+02 -0.72535276864E+03  0.86777223084E+03  0.79898103153E+02 0.  0.
         11    1    3    3    0    0  0.23094462934E+03 -0.30920944397E+03 -0.77813490251E+03  0.86858495760E+03  0.00000000000E+00 0.  1.
        -11    1    3    3    0    0  0.61458949195E+02 -0.18747085179E+03 -0.40972696066E+03  0.45475125618E+03  0.00000000000E+00 0. -1.
          4    1    6    6  502    0 -0.21857656101E+03  0.11061505829E+02 -0.38345652158E+03  0.44151667452E+03  0.00000000000E+00 0. -1.
          1    1    5    5  503    0  0.49905877199E+02  0.11904396491E+03 -0.24457429652E+03  0.27654773309E+03  0.00000000000E+00 0. -1.
         -2    1    5    5    0  503  0.12550480063E+03  0.41835635413E+03 -0.11704951077E+04  0.12493327384E+04  0.00000000000E+00 0.  1.
         -1    1    6    6    0  502 -0.24923769535E+03 -0.51781529096E+02 -0.34189624706E+03  0.42625555632E+03  0.00000000000E+00 0.  1.
<mgrwt>
<rscale>  0 0.16548510E+04</rscale>
<asrwt>0</asrwt>
<pdfrwt beam="1">  1        2 0.54194407E+00 0.16548510E+04</pdfrwt>
<pdfrwt beam="2">  1       -2 0.29900376E-01 0.16548510E+04</pdfrwt>
<totfact> 0.78083207E+00</totfact>
</mgrwt>
</event>
<event>
12    1  0.2019083E-007  0.2268340E+04  0.7818608E-02  0.8490510E-01
          2   -1    0    0  501    0  0.00000000000E+00  0.00000000000E+00  0.10815419828E+04  0.10815419828E+04  0.00000000000E+00 0. -1.
         -2   -1    0    0    0  501 -0.00000000000E+00 -0.00000000000E+00 -0.11893584637E+04  0.11893584637E+04  0.00000000000E+00 0.  1.
         23    2    1    2    0    0  0.21902059958E+03 -0.86461881609E+03 -0.38088921707E+03  0.97407086750E+03  0.90563453138E+02 0.  0.
        254    2    1    2    0    0 -0.21902059958E+03  0.86461881609E+03  0.27307273614E+03  0.12968295790E+04  0.90092314738E+03 0.  0.
        -24    2    4    4    0    0 -0.90652034398E+02 -0.14700372991E+03 -0.91379941757E+02  0.21097050007E+03  0.79563623577E+02 0.  0.
         24    2    4    4    0    0 -0.12836856518E+03  0.10116225460E+04  0.36445267790E+03  0.10858590789E+04  0.80034496811E+02 0.  0.
         13    1    3    3    0    0  0.81941385252E+02 -0.30981118626E+03 -0.18448057573E+03  0.36977080005E+03  0.00000000000E+00 0.  1.
        -13    1    3    3    0    0  0.13707921433E+03 -0.55480762984E+03 -0.19640864134E+03  0.60430006745E+03  0.00000000000E+00 0. -1.
          2    1    6    6  502    0 -0.56152531357E+02  0.20144337048E+03  0.63056203298E+02  0.21842303693E+03  0.00000000000E+00 0. -1.
          3    1    5    5  503    0  0.89387374155E+01 -0.13723274748E+02 -0.28955235578E+02  0.33266123366E+02  0.00000000000E+00 0. -1.
         -4    1    5    5    0  503 -0.99590771814E+02 -0.13328045516E+03 -0.62424706179E+02  0.17770437671E+03  0.00000000000E+00 0.  1.
         -1    1    6    6    0  502 -0.72216033822E+02  0.81017917553E+03  0.30139647460E+03  0.86743604196E+03  0.00000000000E+00 0.  1.
<mgrwt>
<rscale>  0 0.22683396E+04</rscale>
<asrwt>0</asrwt>
<pdfrwt beam="1">  1        2 0.16639107E+00 0.22683396E+04</pdfrwt>
<pdfrwt beam="2">  1       -2 0.18297823E+00 0.22683396E+04</pdfrwt>
<totfact> 0.35162660E+00</totfact>
</mgrwt>
</event>
<event>
12    1  0.2019083E-007  0.1759816E+04  0.7818608E-02  0.8727965E-01
         -1   -1    0    0    0  501 -0.00000000000E+00  0.00000000000E+00  0.43423459057E+03  0.43423459057E+03  0.00000000000E+00 0.  1.
          1   -1    0    0  501    0  0.00000000000E+00 -0.00000000000E+00 -0.17829954568E+04  0.17829954568E+04  0.00000000000E+00 0. -1.
         23    2    1    2    0    0  0.34314475539E+03  0.52474701291E+03 -0.69529371805E+03  0.94033373655E+03  0.87672293287E+02 0.  0.
        254    2    1    2    0    0 -0.34314475539E+03 -0.52474701291E+03 -0.65346714816E+03  0.12768963108E+04  0.90018727170E+03 0.  0.
        -24    2    4    4    0    0 -0.98962909296E+02 -0.22849159942E+03 -0.81237797711E+03  0.85399888097E+03  0.85755714574E+02 0.  0.
         24    2    4    4    0    0 -0.24418184609E+03 -0.29625541349E+03  0.15891082895E+03  0.42289742984E+03  0.78724460124E+02 0.  0.
         13    1    3    3    0    0  0.25647454299E+03  0.31882447903E+03 -0.46716035966E+03  0.62102096685E+03  0.00000000000E+00 0. -1.
        -13    1    3    3    0    0  0.86670212396E+02  0.20592253389E+03 -0.22813335839E+03  0.31931276970E+03  0.00000000000E+00 0.  1.
          2    1    6    6  502    0 -0.21360177857E+03 -0.26524768200E+03  0.16584898830E+03  0.37879801945E+03  0.00000000000E+00 0. -1.
          3    1    5    5  503    0 -0.49009077981E+02 -0.19285716746E+03 -0.56117253643E+03  0.59540775306E+03  0.00000000000E+00 0. -1.
         -4    1    5    5    0  503 -0.49953831315E+02 -0.35634431959E+02 -0.25120544069E+03  0.25859112791E+03  0.00000000000E+00 0.  1.
         -1    1    6    6    0  502 -0.30580067522E+02 -0.31007731493E+02 -0.69381593497E+01  0.44099410395E+02  0.00000000000E+00 0.  1.
<mgrwt>
<rscale>  0 0.17598162E+04</rscale>
<asrwt>0</asrwt>
<pdfrwt beam="1">  1        1 0.27430699E+00 0.17598162E+04</pdfrwt>
<pdfrwt beam="2">  1       -1 0.66805323E-01 0.17598162E+04</pdfrwt>
<totfact> 0.89928626E+00</totfact>
</mgrwt>
</event>
<event>
12    1  0.2019083E-007  0.3337713E+04  0.7818608E-02  0.8153365E-01
          2   -1    0    0  501    0  0.00000000000E+00  0.00000000000E+00  0.29615030144E+04  0.29615030144E+04  0.00000000000E+00 0. -1.
         -2   -1    0    0    0  501 -0.00000000000E+00 -0.00000000000E+00 -0.94042837756E+03  0.94042837756E+03  0.00000000000E+00 0.  1.
         23    2    1    2    0    0 -0.58216528208E+03  0.13852723688E+04  0.51236363896E+03  0.15899309847E+04  0.86418089137E+02 0.  0.
        254    2    1    2    0    0  0.58216528208E+03 -0.13852723688E+04  0.15087109979E+04  0.23120004072E+04  0.90068921188E+03 0.  0.
        -24    2    4    4    0    0  0.35154425154E+03 -0.84578543360E+02  0.10936696820E+03  0.38589285970E+03  0.78837013188E+02 0.  0.
         24    2    4    4    0    0  0.23062103054E+03 -0.13006938255E+04  0.13993440297E+04  0.19261075475E+04  0.82073649177E+02 0.  0.
         11    1    3    3    0    0 -0.94430646842E+02  0.28304164375E+03  0.12944832040E+03  0.32524850009E+03  0.00000000000E+00 0.  1.
        -11    1    3    3    0    0 -0.48773463524E+03  0.11022307251E+04  0.38291531856E+03  0.12646824846E+04  0.00000000000E+00 0. -1.
          2    1    6    6  502    0  0.49349858298E+02 -0.39772120437E+03  0.47079991286E+03  0.61827997127E+03  0.00000000000E+00 0. -1.
          1    1    5    5  503    0  0.16396679942E+03 -0.78850360671E+02  0.44173678700E+02  0.18722661290E+03  0.00000000000E+00 0. -1.
         -2    1    5    5    0  503  0.18757745212E+03 -0.57281826887E+01  0.65193289500E+02  0.19866624680E+03  0.00000000000E+00 0.  1.
         -1    1    6    6    0  502  0.18127117224E+03 -0.90297262111E+03  0.92854411681E+03  0.13078275763E+04  0.00000000000E+00 0.  1.
<mgrwt>
<rscale>  0 0.33377127E+04</rscale>
<asrwt>0</asrwt>
<pdfrwt beam="1">  1        2 0.45561585E+00 0.33377127E+04</pdfrwt>
<pdfrwt beam="2">  1       -2 0.14468129E+00 0.33377127E+04</pdfrwt>
<totfact> 0.50469022E-01</totfact>
</mgrwt>
</event>
<event>
12    1  0.2019083E-007  0.3652308E+04  0.7818608E-02  0.8078614E-01
         -1   -1    0    0    0  501 -0.00000000000E+00  0.00000000000E+00  0.17786545357E+04  0.17786545357E+04  0.00000000000E+00 0.  1.
          1   -1    0    0  501    0  0.00000000000E+00 -0.00000000000E+00 -0.18749214795E+04  0.18749214795E+04  0.00000000000E+00 0. -1.
         23    2    1    2    0    0  0.13651293757E+04 -0.24564017452E+03  0.96270494043E+03  0.16910264408E+04  0.94086734044E+02 0.  0.
        254    2    1    2    0    0 -0.13651293757E+04  0.24564017452E+03 -0.10589718842E+04  0.19625495744E+04  0.89792097242E+03 0.  0.
        -24    2    4    4    0    0 -0.15679983599E+03  0.76339824740E+02 -0.64271327120E+03  0.67090797700E+03  0.81383089281E+02 0.  0.
         24    2    4    4    0    0 -0.12083295397E+04  0.16930034978E+03 -0.41625861301E+03  0.12916415974E+04  0.79648592576E+02 0.  0.
         11    1    3    3    0    0  0.72717950043E+03 -0.14818466998E+03  0.56796837159E+03  0.93452490249E+03  0.00000000000E+00 0.  1.
        -11    1    3    3    0    0  0.63794987524E+03 -0.97455504541E+02  0.39473656884E+03  0.75650153831E+03  0.00000000000E+00 0. -1.
          2    1    6    6  502    0 -0.97624672819E+03  0.10805168287E+03 -0.34897240875E+03  0.10423601021E+04  0.00000000000E+00 0. -1.
          1    1    5    5  503    0 -0.84853165464E+02  0.83837497992E+02 -0.36923850922E+03  0.38802817224E+03  0.00000000000E+00 0. -1.
         -2    1    5    5    0  503 -0.71946670528E+02 -0.74976732512E+01 -0.27347476198E+03  0.28287980476E+03  0.00000000000E+00 0.  1.
         -1    1    6    6    0  502 -0.23208281148E+03  0.61248666910E+02 -0.67286204261E+02  0.24928149523E+03  0.00000000000E+00 0.  1.
<mgrwt>
<rscale>  0 0.36523075E+04</rscale>
<asrwt>0</asrwt>
<pdfrwt beam="1">  1        1 0.28844946E+00 0.36523075E+04</pdfrwt>
<pdfrwt beam="2">  1       -1 0.27363916E+00 0.36523075E+04</pdfrwt>
<totfact> 0.14283567E-01</totfact>
</mgrwt>
</event>
<event>
12    1  0.2019083E-007  0.2508956E+04  0.7818608E-02  0.8399802E-01
          2   -1    0    0  501    0  0.00000000000E+00  0.00000000000E+00  0.24749315876E+04  0.24749315876E+04  0.00000000000E+00 0. -1.
         -2   -1    0    0    0  501 -0.00000000000E+00 -0.00000000000E+00 -0.63586180550E+03  0.63586180550E+03  0.00000000000E+00 0.  1.
         23    2    1    2    0    0  0.74352700486E+03  0.13134186886E+03 -0.16140519455E+03  0.77734083877E+03  0.90133508266E+02 0.  0.
        254    2    1    2    0    0 -0.74352700486E+03 -0.13134186886E+03  0.20004749767E+04  0.23334525544E+04  0.93435410720E+03 0.  0.
        -24    2    4    4    0    0 -0.10288334238E+03  0.17215200120E+03  0.13529661265E+04  0.13701176297E+04  0.80521338772E+02 0.  0.
         24    2    4    4    0    0 -0.64064366248E+03 -0.30349387006E+03  0.64750885015E+03  0.96333492467E+03  0.78826611146E+02 0.  0.
         13    1    3    3    0    0  0.38165085789E+03  0.24734184002E+02 -0.97869593290E+02  0.39477539750E+03  0.00000000000E+00 0.  1.
        -13    1    3    3    0    0  0.36187614697E+03  0.10660768486E+03 -0.63535601258E+02  0.38256544126E+03  0.00000000000E+00 0. -1.
          4    1    6    6  502    0 -0.63168963473E+03 -0.29859832817E+03  0.64823932709E+03  0.95310386705E+03  0.00000000000E+00 0. -1.
          3    1    5    5  503    0  0.16645113232E+01  0.51780786609E+02  0.47259406674E+03  0.47542525425E+03  0.00000000000E+00 0. -1.
         -4    1    5    5    0  503 -0.10454785371E+03  0.12037121459E+03  0.88037205979E+03  0.89469237544E+03  0.00000000000E+00 0.  1.
         -3    1    6    6    0  502 -0.89540277520E+01 -0.48955418898E+01 -0.73047693784E+00  0.10231057616E+02  0.00000000000E+00 0.  1.
<mgrwt>
<rscale>  0 0.25089555E+04</rscale>
<asrwt>0</asrwt>
<pdfrwt beam="1">  1        2 0.38075870E+00 0.25089555E+04</pdfrwt>
<pdfrwt beam="2">  1       -2 0.97824895E-01 0.25089555E+04</pdfrwt>
<totfact> 0.27905901E+00</totfact>
</mgrwt>
</event>
<event>
12    1  0.2019083E-007  0.2961972E+04  0.7818608E-02  0.8254674E-01
          1   -1    0    0  501    0  0.00000000000E+00  0.00000000000E+00  0.14134393844E+04  0.14134393844E+04  0.00000000000E+00 0. -1.
         -1   -1    0    0    0  501 -0.00000000000E+00 -0.00000000000E+00 -0.15517605934E+04  0.15517605934E+04  0.00000000000E+00 0.  1.
         23    2    1    2    0    0 -0.39615110829E+03  0.11693131462E+04  0.46457967418E+03  0.13222320088E+04  0.90742917199E+02 0.  0.
        254    2    1    2    0    0  0.39615110829E+03 -0.11693131462E+04 -0.60290088311E+03  0.16429679690E+04  0.90090251302E+03 0.  0.
        -24    2    4    4    0    0  0.30336993351E+03 -0.76359057133E+03  0.90282969553E+02  0.83044576582E+03  0.79907935746E+02 0.  0.
         24    2    4    4    0    0  0.92781174775E+02 -0.40572257482E+03 -0.69318385266E+03  0.81252220319E+03  0.80432101569E+02 0.  0.
         11    1    3    3    0    0 -0.98980086411E+02  0.25762897299E+03  0.14310647683E+03  0.31088455887E+03  0.00000000000E+00 0. -1.
        -11    1    3    3    0    0 -0.29717102188E+03  0.91168417316E+03  0.32147319735E+03  0.10113474499E+04  0.00000000000E+00 0.  1.
          2    1    6    6  502    0  0.19902241482E+02 -0.23235645448E+02 -0.26557261011E+02  0.40512745498E+02  0.00000000000E+00 0. -1.
          3    1    5    5  503    0  0.19099832626E+03 -0.57609505955E+03  0.67007011395E+02  0.61061920855E+03  0.00000000000E+00 0. -1.
         -2    1    5    5    0  503  0.11237160725E+03 -0.18749551178E+03  0.23275958158E+02  0.21982655727E+03  0.00000000000E+00 0.  1.
         -1    1    6    6    0  502  0.72878933293E+02 -0.38248692938E+03 -0.66662659165E+03  0.77200945769E+03  0.00000000000E+00 0.  1.
<mgrwt>
<rscale>  0 0.29619720E+04</rscale>
<asrwt>0</asrwt>
<pdfrwt beam="1">  1        1 0.21745221E+00 0.29619720E+04</pdfrwt>
<pdfrwt beam="2">  1       -1 0.23873240E+00 0.29619720E+04</pdfrwt>
<totfact> 0.53048676E-01</totfact>
</mgrwt>
</event>
<event>
12    1  0.2019083E-007  0.2470335E+04  0.7818608E-02  0.8413631E-01
          2   -1    0    0  501    0  0.00000000000E+00  0.00000000000E+00  0.30149008955E+04  0.30149008955E+04  0.00000000000E+00 0. -1.
         -2   -1    0    0    0  501 -0.00000000000E+00 -0.00000000000E+00 -0.50603277707E+03  0.50603277707E+03  0.00000000000E+00 0.  1.
         23    2    1    2    0    0  0.79280212757E+03  0.42745742091E+03  0.19092297243E+04  0.21129779936E+04  0.90899950090E+02 0.  0.
        254    2    1    2    0    0 -0.79280212757E+03 -0.42745742091E+03  0.59963839417E+03  0.14079556790E+04  0.90084289986E+03 0.  0.
        -24    2    4    4    0    0 -0.27681518358E+03 -0.59239642267E+03  0.54963704144E+03  0.85808489433E+03  0.81539199863E+02 0.  0.
         24    2    4    4    0    0 -0.51598694399E+03  0.16493900176E+03  0.50001352735E+02  0.54987078471E+03  0.80064623513E+02 0.  0.
         13    1    3    3    0    0  0.55243153579E+03  0.33683719965E+03  0.14176956461E+04  0.15583647987E+04  0.00000000000E+00 0. -1.
        -13    1    3    3    0    0  0.24037059178E+03  0.90620221264E+02  0.49153407817E+03  0.55461319485E+03  0.00000000000E+00 0.  1.
          4    1    6    6  502    0 -0.49239017037E+03  0.13771630502E+03  0.42320666129E+02  0.51303498840E+03  0.00000000000E+00 0. -1.
          3    1    5    5  503    0 -0.15707360449E+03 -0.41140829300E+03  0.34000856212E+03  0.55635844839E+03  0.00000000000E+00 0. -1.
         -4    1    5    5    0  503 -0.11974157909E+03 -0.18098812967E+03  0.20962847931E+03  0.30172644595E+03  0.00000000000E+00 0.  1.
         -3    1    6    6    0  502 -0.23596773618E+02  0.27222696740E+02  0.76806866053E+01  0.36835796309E+02  0.00000000000E+00 0.  1.
<mgrwt>
<rscale>  0 0.24703349E+04</rscale>
<asrwt>0</asrwt>
<pdfrwt beam="1">  1        2 0.46383090E+00 0.24703349E+04</pdfrwt>
<pdfrwt beam="2">  1       -2 0.77851198E-01 0.24703349E+04</pdfrwt>
<totfact> 0.22392396E+00</totfact>
</mgrwt>
</event>
<event>
12    1  0.2019083E-007  0.2294192E+04  0.7818608E-02  0.8480215E-01
          1   -1    0    0  501    0  0.00000000000E+00  0.00000000000E+00  0.11444651508E+04  0.11444651508E+04  0.00000000000E+00 0. -1.
         -1   -1    0    0    0  501 -0.00000000000E+00 -0.00000000000E+00 -0.11497330207E+04  0.11497330207E+04  0.00000000000E+00 0.  1.
         23    2    1    2    0    0  0.30171882242E+03  0.91015280174E+03 -0.12673097365E+03  0.96934807767E+03  0.64518103516E+02 0.  0.
        254    2    1    2    0    0 -0.30171882242E+03 -0.91015280174E+03  0.12146310370E+03  0.13248500938E+04  0.90612477910E+03 0.  0.
        -24    2    4    4    0    0 -0.39323085979E+02  0.17429423425E+03 -0.24308076607E+02  0.19670986856E+03  0.78607280951E+02 0.  0.
         24    2    4    4    0    0 -0.26239573644E+03 -0.10844470360E+04  0.14577118030E+03  0.11281402253E+04  0.81081653567E+02 0.  0.
         13    1    3    3    0    0  0.20458184962E+03  0.52489277617E+03 -0.87344794101E+02  0.57008356644E+03  0.00000000000E+00 0. -1.
        -13    1    3    3    0    0  0.97136972799E+02  0.38526002557E+03 -0.39386179548E+02  0.39926451123E+03  0.00000000000E+00 0.  1.
          2    1    6    6  502    0 -0.15199830371E+03 -0.56174246610E+03  0.38302924532E+02  0.58320253479E+03  0.00000000000E+00 0. -1.
          3    1    5    5  503    0 -0.19038823687E+02  0.11898853042E+02  0.16714033639E+02  0.27989612923E+02  0.00000000000E+00 0. -1.
         -4    1    5    5    0  503 -0.20284262291E+02  0.16239538120E+03 -0.41022110247E+02  0.16872025564E+03  0.00000000000E+00 0.  1.
         -1    1    6    6    0  502 -0.11039743273E+03 -0.52270456988E+03  0.10746825577E+03  0.54493769050E+03  0.00000000000E+00 0.  1.
<mgrwt>
<rscale>  0 0.22941921E+04</rscale>
<asrwt>0</asrwt>
<pdfrwt beam="1">  1        1 0.17607156E+00 0.22941921E+04</pdfrwt>
<pdfrwt beam="2">  1       -1 0.17688200E+00 0.22941921E+04</pdfrwt>
<totfact> 0.23277238E+00</totfact>
</mgrwt>
</event>
<event>
12    1  0.2019083E-007  0.3103852E+04  0.7818608E-02  0.8214681E-01
         -2   -1    0    0    0  501 -0.00000000000E+00  0.00000000000E+00  0.11753662123E+04  0.11753662123E+04  0.00000000000E+00 0.  1.
          2   -1    0    0  501    0  0.00000000000E+00 -0.00000000000E+00 -0.20491270463E+04  0.20491270463E+04  0.00000000000E+00 0. -1.
         23    2    1    2    0    0 -0.13304433669E+04 -0.49342269970E+03 -0.36976040970E+03  0.14695774821E+04  0.96900474831E+02 0.  0.
        254    2    1    2    0    0  0.13304433669E+04  0.49342269970E+03 -0.50400042425E+03  0.17549157766E+04  0.90120333002E+03 0.  0.
        -24    2    4    4    0    0  0.41813928419E+03  0.39964928723E+03  0.17623188519E+03  0.61007816518E+03  0.81102876042E+02 0.  0.
         24    2    4    4    0    0  0.91230408274E+03  0.93773412469E+02 -0.68023230944E+03  0.11448376114E+04  0.82734330121E+02 0.  0.
         11    1    3    3    0    0 -0.72471198616E+03 -0.24040857135E+03 -0.15710505043E+03  0.77954200716E+03  0.00000000000E+00 0. -1.
        -11    1    3    3    0    0 -0.60573138077E+03 -0.25301412836E+03 -0.21265535927E+03  0.69003547490E+03  0.00000000000E+00 0.  1.
          2    1    6    6  502    0  0.51213016673E+03  0.87234786131E+02 -0.35637233953E+03  0.62999084118E+03  0.00000000000E+00 0. -1.
          1    1    5    5  503    0  0.17798439493E+03  0.20807670694E+03  0.11419336805E+03  0.29667235482E+03  0.00000000000E+00 0. -1.
         -2    1    5    5    0  503  0.24015488926E+03  0.19157258029E+03  0.62038517137E+02  0.31340581035E+03  0.00000000000E+00 0.  1.
         -1    1    6    6    0  502  0.40017391601E+03  0.65386263385E+01 -0.32385996991E+03  0.51484677022E+03  0.00000000000E+00 0.  1.
<mgrwt>
<rscale>  0 0.31038522E+04</rscale>
<asrwt>0</asrwt>
<pdfrwt beam="1">  1        2 0.31525031E+00 0.31038522E+04</pdfrwt>
<pdfrwt beam="2">  1       -2 0.18082557E+00 0.31038522E+04</pdfrwt>
<totfact> 0.95291140E-01</totfact>
</mgrwt>
</event>
<event>
12    1  0.2019083E-007  0.1694022E+04  0.7818608E-02  0.8764781E-01
         -1   -1    0    0    0  501 -0.00000000000E+00  0.00000000000E+00  0.85571564730E+03  0.85571564730E+03  0.00000000000E+00 0.  1.
          1   -1    0    0  501    0  0.00000000000E+00 -0.00000000000E+00 -0.83839511697E+03  0.83839511697E+03  0.00000000000E+00 0. -1.
         23    2    1    2    0    0 -0.21242977280E+03  0.54998246787E+03  0.12174658879E+03  0.60798145171E+03  0.84924027232E+02 0.  0.
        254    2    1    2    0    0  0.21242977280E+03 -0.54998246787E+03 -0.10442605845E+03  0.10861293126E+04  0.90618152628E+03 0.  0.
        -24    2    4    4    0    0  0.27865396175E+03 -0.57765286738E+03  0.26684409439E+03  0.69944705375E+03  0.81789636819E+02 0.  0.
         24    2    4    4    0    0 -0.66224188948E+02  0.27670399512E+02 -0.37127015284E+03  0.38668225881E+03  0.80810572794E+02 0.  0.
         13    1    3    3    0    0 -0.15764783224E+03  0.48800145693E+03  0.10891263695E+03  0.52427113545E+03  0.00000000000E+00 0. -1.
        -13    1    3    3    0    0 -0.54781940558E+02  0.61981010946E+02  0.12833951833E+02  0.83710316263E+02  0.00000000000E+00 0.  1.
          4    1    6    6  502    0 -0.64705640451E+02  0.50659156495E+02 -0.32153076623E+03  0.33186624366E+03  0.00000000000E+00 0. -1.
          1    1    5    5  503    0  0.26259013432E+03 -0.54828939860E+03  0.23081291528E+03  0.65026874838E+03  0.00000000000E+00 0. -1.
         -2    1    5    5    0  503  0.16063827431E+02 -0.29363468785E+02  0.36031179116E+02  0.49178305372E+02  0.00000000000E+00 0.  1.
         -3    1    6    6    0  502 -0.15185484973E+01 -0.22988756983E+02 -0.49739386608E+02  0.54816015154E+02  0.00000000000E+00 0.  1.
<mgrwt>
<rscale>  0 0.16940222E+04</rscale>
<asrwt>0</asrwt>
<pdfrwt beam="1">  1        1 0.12898386E+00 0.16940222E+04</pdfrwt>
<pdfrwt beam="2">  1       -1 0.13164856E+00 0.16940222E+04</pdfrwt>
<totfact> 0.95826861E+00</totfact>
</mgrwt>
</event>
<event>
12    1  0.2019083E-007  0.1955718E+04  0.7818608E-02  0.8627608E-01
          1   -1    0    0  501    0  0.00000000000E+00  0.00000000000E+00  0.10516498694E+04  0.10516498694E+04  0.00000000000E+00 0. -1.
         -1   -1    0    0    0  501 -0.00000000000E+00 -0.00000000000E+00 -0.90924625801E+03  0.90924625801E+03  0.00000000000E+00 0.  1.
         23    2    1    2    0    0 -0.30261293341E+03  0.34710772149E+03 -0.55988980800E+03  0.73059154419E+03  0.90714108885E+02 0.  0.
        254    2    1    2    0    0  0.30261293341E+03 -0.34710772149E+03  0.70229341943E+03  0.12303045833E+04  0.89909674831E+03 0.  0.
        -24    2    4    4    0    0 -0.30518032677E+03 -0.67901480318E+02  0.32586474070E+03  0.45866267275E+03  0.80236994383E+02 0.  0.
         24    2    4    4    0    0  0.60779326017E+03 -0.27920624118E+03  0.37642867873E+03  0.77164191050E+03  0.79774154026E+02 0.  0.
         11    1    3    3    0    0 -0.19046636951E+03  0.27655933130E+03 -0.42300424088E+03  0.54008803860E+03  0.00000000000E+00 0. -1.
        -11    1    3    3    0    0 -0.11214656390E+03  0.70548390193E+02 -0.13688556713E+03  0.19050350559E+03  0.00000000000E+00 0.  1.
          4    1    6    6  502    0  0.12513011676E+03 -0.61330858202E+02  0.42914594869E+02  0.14581043426E+03  0.00000000000E+00 0. -1.
          1    1    5    5  503    0 -0.87681577941E+02 -0.13650257384E+02  0.45566380490E+02  0.99753113575E+02  0.00000000000E+00 0. -1.
         -4    1    5    5    0  503 -0.21749874883E+03 -0.54251222933E+02  0.28029836021E+03  0.35890955918E+03  0.00000000000E+00 0.  1.
         -3    1    6    6    0  502  0.48266314342E+03 -0.21787538297E+03  0.33351408386E+03  0.62583147624E+03  0.00000000000E+00 0.  1.
<mgrwt>
<rscale>  0 0.19557185E+04</rscale>
<asrwt>0</asrwt>
<pdfrwt beam="1">  1        1 0.16179229E+00 0.19557185E+04</pdfrwt>
<pdfrwt beam="2">  1       -1 0.13988404E+00 0.19557185E+04</pdfrwt>
<totfact> 0.53981763E+00</totfact>
</mgrwt>
</event>
<event>
12    1  0.2019083E-007  0.1195882E+04  0.7818608E-02  0.9116469E-01
          1   -1    0    0  501    0  0.00000000000E+00  0.00000000000E+00  0.89980044955E+03  0.89980044955E+03  0.00000000000E+00 0. -1.
         -1   -1    0    0    0  501 -0.00000000000E+00 -0.00000000000E+00 -0.39734721465E+03  0.39734721465E+03  0.00000000000E+00 0.  1.
         23    2    1    2    0    0  0.20760458704E+03  0.11029351111E+03  0.27274779460E+02  0.25312252694E+03  0.89792966849E+02 0.  0.
        254    2    1    2    0    0 -0.20760458704E+03 -0.11029351111E+03  0.47517845543E+03  0.10440251373E+04  0.89940513651E+03 0.  0.
        -24    2    4    4    0    0 -0.15067469522E+03  0.36163908440E+03  0.53720613241E+02  0.40351295713E+03  0.80318809366E+02 0.  0.
         24    2    4    4    0    0 -0.56929891819E+02 -0.47193259550E+03  0.42145784219E+03  0.64051218014E+03  0.81656309492E+02 0.  0.
         11    1    3    3    0    0  0.20725358939E+03  0.10789040364E+03  0.81002302106E+01  0.23379478874E+03  0.00000000000E+00 0.  1.
        -11    1    3    3    0    0  0.35099765015E+00  0.24031074664E+01  0.19174549249E+02  0.19327738195E+02  0.00000000000E+00 0. -1.
          4    1    6    6  502    0 -0.18128535810E+02 -0.29334641122E+03  0.30631548350E+03  0.42451140882E+03  0.00000000000E+00 0. -1.
          3    1    5    5  503    0 -0.23370770967E+02  0.10012740877E+02 -0.16282082122E+01  0.25477420934E+02  0.00000000000E+00 0. -1.
         -4    1    5    5    0  503 -0.12730392426E+03  0.35162634352E+03  0.55348821453E+02  0.37803553619E+03  0.00000000000E+00 0.  1.
         -3    1    6    6    0  502 -0.38801356009E+02 -0.17858618428E+03  0.11514235869E+03  0.21600077132E+03  0.00000000000E+00 0.  1.
<mgrwt>
<rscale>  0 0.11958816E+04</rscale>
<asrwt>0</asrwt>
<pdfrwt beam="1">  1        1 0.13843084E+00 0.11958816E+04</pdfrwt>
<pdfrwt beam="2">  1       -1 0.61130341E-01 0.11958816E+04</pdfrwt>
<totfact> 0.48914010E+01</totfact>
</mgrwt>
</event>
<event>
12    1  0.2019083E-007  0.2167789E+04  0.7818608E-02  0.8531956E-01
          1   -1    0    0  501    0  0.00000000000E+00  0.00000000000E+00  0.13684555705E+04  0.13684555705E+04  0.00000000000E+00 0. -1.
         -1   -1    0    0    0  501 -0.00000000000E+00 -0.00000000000E+00 -0.85850576032E+03  0.85850576032E+03  0.00000000000E+00 0.  1.
         23    2    1    2    0    0 -0.40633354838E+03  0.60486035127E+03  0.74234434100E+03  0.10441528413E+04  0.90647881067E+02 0.  0.
        254    2    1    2    0    0  0.40633354838E+03 -0.60486035127E+03 -0.23239453079E+03  0.11828084895E+04  0.90225589933E+03 0.  0.
        -24    2    4    4    0    0 -0.56231699537E+02 -0.16234916610E+03 -0.46116142554E+03  0.49826898187E+03  0.77992705600E+02 0.  0.
         24    2    4    4    0    0  0.46256524792E+03 -0.44251118518E+03  0.22876689475E+03  0.68453950765E+03  0.80481599259E+02 0.  0.
         13    1    3    3    0    0 -0.35257579245E+03  0.56234090643E+03  0.69386069858E+03  0.96019771584E+03  0.00000000000E+00 0. -1.
        -13    1    3    3    0    0 -0.53757755935E+02  0.42519444838E+02  0.48483642427E+02  0.83955125487E+02  0.00000000000E+00 0.  1.
          2    1    6    6  502    0  0.37896343107E+03 -0.32964641094E+03  0.20296844196E+03  0.54173446149E+03  0.00000000000E+00 0. -1.
          1    1    5    5  503    0 -0.68927268600E+01 -0.56775513788E+02 -0.71527033899E+02  0.91581030939E+02  0.00000000000E+00 0. -1.
         -4    1    5    5    0  503 -0.49338972677E+02 -0.10557365231E+03 -0.38963439164E+03  0.40668795094E+03  0.00000000000E+00 0.  1.
         -1    1    6    6    0  502  0.83601816850E+02 -0.11286477424E+03  0.25798452786E+02  0.14280504616E+03  0.00000000000E+00 0.  1.
<mgrwt>
<rscale>  0 0.21677887E+04</rscale>
<asrwt>0</asrwt>
<pdfrwt beam="1">  1        1 0.21053163E+00 0.21677887E+04</pdfrwt>
<pdfrwt beam="2">  1       -1 0.13207781E+00 0.21677887E+04</pdfrwt>
<totfact> 0.36018113E+00</totfact>
</mgrwt>
</event>
<event>
12    1  0.2019083E-007  0.1794681E+04  0.7818608E-02  0.8709133E-01
         -2   -1    0    0    0  501 -0.00000000000E+00  0.00000000000E+00  0.39281302382E+03  0.39281302382E+03  0.00000000000E+00 0.  1.
          2   -1    0    0  501    0  0.00000000000E+00 -0.00000000000E+00 -0.20498815235E+04  0.20498815235E+04  0.00000000000E+00 0. -1.
         23    2    1    2    0    0  0.62464224147E+03 -0.71106329757E+02 -0.96105527574E+03  0.11519866082E+04  0.90619327900E+02 0.  0.
        254    2    1    2    0    0 -0.62464224147E+03  0.71106329757E+02 -0.69601322390E+03  0.12907079390E+04  0.88671220589E+03 0.  0.
        -24    2    4    4    0    0 -0.29320413902E+03 -0.37831413550E+03 -0.15461332687E+03  0.50897890777E+03  0.77871660171E+02 0.  0.
         24    2    4    4    0    0 -0.33143810245E+03  0.44942046525E+03 -0.54139989703E+03  0.78172903126E+03  0.78463108926E+02 0.  0.
         13    1    3    3    0    0  0.54644491792E+03 -0.41557185919E+02 -0.78838835129E+03  0.96014855125E+03  0.00000000000E+00 0.  1.
        -13    1    3    3    0    0  0.78197323549E+02 -0.29549143838E+02 -0.17266692445E+03  0.19183805699E+03  0.00000000000E+00 0. -1.
          2    1    6    6  502    0 -0.17551423616E+03  0.30209765431E+03 -0.33721999448E+03  0.48557755767E+03  0.00000000000E+00 0. -1.
          3    1    5    5  503    0 -0.28147316663E+03 -0.35329145558E+03 -0.16280626805E+03  0.48015401388E+03  0.00000000000E+00 0. -1.
         -4    1    5    5    0  503 -0.11730972384E+02 -0.25022679912E+02  0.81929411788E+01  0.28824893898E+02  0.00000000000E+00 0.  1.
         -1    1    6    6    0  502 -0.15592386629E+03  0.14732281094E+03 -0.20417990255E+03  0.29615147359E+03  0.00000000000E+00 0.  1.
<mgrwt>
<rscale>  0 0.17946812E+04</rscale>
<asrwt>0</asrwt>
<pdfrwt beam="1">  1        2 0.31536639E+00 0.17946812E+04</pdfrwt>
<pdfrwt beam="2">  1       -2 0.60432773E-01 0.17946812E+04</pdfrwt>
<totfact> 0.15099139E+01</totfact>
</mgrwt>
</event>
<event>
12    1  0.2097444E-007  0.2612503E+04  0.7818608E-02  0.8363967E-01
         -2   -1    0    0    0  501 -0.00000000000E+00  0.00000000000E+00  0.73696190545E+03  0.73696190545E+03  0.00000000000E+00 0.  1.
          2   -1    0    0  501    0  0.00000000000E+00 -0.00000000000E+00 -0.23153067557E+04  0.23153067557E+04  0.00000000000E+00 0. -1.
         23    2    1    2    0    0 -0.92649297496E+03  0.54924373875E+02  0.94861249058E+02  0.93734871816E+03  0.90653424441E+02 0.  0.
        254    2    1    2    0    0  0.92649297496E+03 -0.54924373875E+02 -0.16732060993E+04  0.21149199430E+04  0.90103373691E+03 0.  0.
        -24    2    4    4    0    0 -0.19058143342E+01 -0.30845991904E+03 -0.31028250757E+03  0.44453724837E+03  0.78657338523E+02 0.  0.
         24    2    4    4    0    0  0.92839878929E+03  0.25353554517E+03 -0.13629235918E+04  0.16703826946E+04  0.80081489540E+02 0.  0.
         11    1    3    3    0    0 -0.59339540437E+03  0.55244091987E+02  0.99546151717E+02  0.60421805001E+03  0.00000000000E+00 0.  1.
        -11    1    3    3    0    0 -0.33309757058E+03 -0.31971811268E+00 -0.46849026594E+01  0.33313066815E+03  0.00000000000E+00 0. -1.
          4    1    6    6  502    0  0.14491051524E+03  0.42831575912E+02 -0.16691473885E+03  0.22515357285E+03  0.00000000000E+00 0. -1.
          3    1    5    5  503    0 -0.17316086972E+02 -0.16491817657E+02 -0.38679724159E+02  0.45474696026E+02  0.00000000000E+00 0. -1.
         -4    1    5    5    0  503  0.15410272638E+02 -0.29196810138E+03 -0.27160278341E+03  0.39906255234E+03  0.00000000000E+00 0.  1.
         -3    1    6    6    0  502  0.78348827405E+03  0.21070396926E+03 -0.11960088529E+04  0.14452291218E+04  0.00000000000E+00 0.  1.
<mgrwt>
<rscale>  0 0.26125029E+04</rscale>
<asrwt>0</asrwt>
<pdfrwt beam="1">  1        2 0.35620103E+00 0.26125029E+04</pdfrwt>
<pdfrwt beam="2">  1       -2 0.11337876E+00 0.26125029E+04</pdfrwt>
<totfact> 0.23966256E+00</totfact>
</mgrwt>
</event>
<event>
12    1  0.2019083E-007  0.1856461E+04  0.7818608E-02  0.8676837E-01
          1   -1    0    0  501    0  0.00000000000E+00  0.00000000000E+00  0.19747082749E+04  0.19747082749E+04  0.00000000000E+00 0. -1.
         -1   -1    0    0    0  501 -0.00000000000E+00 -0.00000000000E+00 -0.43632378383E+03  0.43632378383E+03  0.00000000000E+00 0.  1.
         23    2    1    2    0    0 -0.60370184798E+03  0.12138751379E+03  0.10722269119E+04  0.12397346212E+04  0.89891772747E+02 0.  0.
        254    2    1    2    0    0  0.60370184798E+03 -0.12138751379E+03  0.46615757924E+03  0.11712974375E+04  0.88059295292E+03 0.  0.
        -24    2    4    4    0    0  0.78418178458E+03 -0.10617963379E+03  0.16767874330E+03  0.81293964182E+03  0.80867264038E+02 0.  0.
         24    2    4    4    0    0 -0.18047993660E+03 -0.15207879997E+02  0.29847883594E+03  0.35835779571E+03  0.80786181457E+02 0.  0.
         13    1    3    3    0    0 -0.53428746994E+03  0.11567135350E+03  0.88796561693E+03  0.10427492025E+04  0.00000000000E+00 0.  1.
        -13    1    3    3    0    0 -0.69414378041E+02  0.57161602861E+01  0.18426129492E+03  0.19698541868E+03  0.00000000000E+00 0. -1.
          2    1    6    6  502    0 -0.64303852949E+02 -0.36949083297E+02  0.74582320751E+02  0.10517957420E+03  0.00000000000E+00 0. -1.
          1    1    5    5  503    0  0.17668190383E+03 -0.55735053650E+02  0.25757479507E+02  0.18704635547E+03  0.00000000000E+00 0. -1.
         -2    1    5    5    0  503  0.60749988075E+03 -0.50444580139E+02  0.14192126379E+03  0.62589328634E+03  0.00000000000E+00 0.  1.
         -1    1    6    6    0  502 -0.11617608365E+03  0.21741203301E+02  0.22389651519E+03  0.25317822151E+03  0.00000000000E+00 0.  1.
<mgrwt>
<rscale>  0 0.18564614E+04</rscale>
<asrwt>0</asrwt>
<pdfrwt beam="1">  1        1 0.30380127E+00 0.18564614E+04</pdfrwt>
<pdfrwt beam="2">  1       -1 0.67126737E-01 0.18564614E+04</pdfrwt>
<totfact> 0.65447995E+00</totfact>
</mgrwt>
</event>
<event>
12    1  0.2019083E-007  0.3086333E+04  0.7818608E-02  0.8219499E-01
         -2   -1    0    0    0  501 -0.00000000000E+00  0.00000000000E+00  0.64311149766E+03  0.64311149766E+03  0.00000000000E+00 0.  1.
          2   -1    0    0  501    0  0.00000000000E+00 -0.00000000000E+00 -0.37028773645E+04  0.37028773645E+04  0.00000000000E+00 0. -1.
         23    2    1    2    0    0  0.98137345345E+03  0.73538752953E+03 -0.42139220034E+03  0.12999258655E+04  0.91362987694E+02 0.  0.
        254    2    1    2    0    0 -0.98137345345E+03 -0.73538752953E+03 -0.26383736665E+04  0.30460629967E+04  0.90199528933E+03 0.  0.
        -24    2    4    4    0    0  0.65327468026E+02 -0.39507673758E+02  0.12329614479E+02  0.11142683795E+03  0.80220860492E+02 0.  0.
         24    2    4    4    0    0 -0.10467009215E+04 -0.69587985577E+03 -0.26507032810E+04  0.29346361587E+04  0.77652480189E+02 0.  0.
         13    1    3    3    0    0  0.70511298491E+03  0.57587398497E+03 -0.32523096787E+03  0.96674213237E+03  0.00000000000E+00 0.  1.
        -13    1    3    3    0    0  0.27626046854E+03  0.15951354456E+03 -0.96161232476E+02  0.33318373311E+03  0.00000000000E+00 0. -1.
          2    1    6    6  502    0 -0.78930776035E+03 -0.51599558914E+03 -0.19096039096E+04  0.21297523987E+04  0.00000000000E+00 0. -1.
          3    1    5    5  503    0  0.56294723553E+02 -0.11717595810E+02 -0.26101536214E+02  0.63148144424E+02  0.00000000000E+00 0. -1.
         -4    1    5    5    0  503  0.90327444728E+01 -0.27790077948E+02  0.38431150693E+02  0.48278693527E+02  0.00000000000E+00 0.  1.
         -1    1    6    6    0  502 -0.25739316112E+03 -0.17988426663E+03 -0.74109937143E+03  0.80488376000E+03  0.00000000000E+00 0.  1.
<mgrwt>
<rscale>  0 0.30863331E+04</rscale>
<asrwt>0</asrwt>
<pdfrwt beam="1">  1        2 0.56967344E+00 0.30863331E+04</pdfrwt>
<pdfrwt beam="2">  1       -2 0.98940231E-01 0.30863331E+04</pdfrwt>
<totfact> 0.41776322E-01</totfact>
</mgrwt>
</event>
<event>
12    1  0.2019083E-007  0.2213568E+04  0.7818608E-02  0.8512802E-01
         -2   -1    0    0    0  501 -0.00000000000E+00  0.00000000000E+00  0.90431314965E+03  0.90431314965E+03  0.00000000000E+00 0.  1.
          2   -1    0    0  501    0  0.00000000000E+00 -0.00000000000E+00 -0.13545870728E+04  0.13545870728E+04  0.00000000000E+00 0. -1.
         23    2    1    2    0    0  0.67007150796E+03 -0.57437210661E+03 -0.45319579750E+03  0.99646840124E+03  0.93079004965E+02 0.  0.
        254    2    1    2    0    0 -0.67007150796E+03  0.57437210661E+03  0.29218743546E+01  0.12624318212E+04  0.90267736384E+03 0.  0.
        -24    2    4    4    0    0 -0.18487804689E+03  0.72117403943E+03  0.24720464162E+02  0.74922857511E+03  0.80377043008E+02 0.  0.
         24    2    4    4    0    0 -0.48519346108E+03 -0.14680193282E+03 -0.21798589808E+02  0.51320324609E+03  0.77064201365E+02 0.  0.
         13    1    3    3    0    0  0.57058898376E+02 -0.38686089887E+02 -0.64251744845E+02  0.94237031736E+02  0.00000000000E+00 0. -1.
        -13    1    3    3    0    0  0.61301260959E+03 -0.53568601672E+03 -0.38894405266E+03  0.90223136951E+03  0.00000000000E+00 0.  1.
          4    1    6    6  502    0 -0.28171883264E+03 -0.11798935686E+03 -0.34123782975E+02  0.30732949999E+03  0.00000000000E+00 0. -1.
          1    1    5    5  503    0 -0.99911559798E+02  0.27629431782E+03  0.37108760052E+02  0.29613836279E+03  0.00000000000E+00 0. -1.
         -4    1    5    5    0  503 -0.84966487090E+02  0.44487972160E+03 -0.12388295890E+02  0.45309021232E+03  0.00000000000E+00 0.  1.
         -3    1    6    6    0  502 -0.20347462843E+03 -0.28812575965E+02  0.12325193167E+02  0.20587374611E+03  0.00000000000E+00 0.  1.
<mgrwt>
<rscale>  0 0.22135681E+04</rscale>
<asrwt>0</asrwt>
<pdfrwt beam="1">  1        2 0.20839801E+00 0.22135681E+04</pdfrwt>
<pdfrwt beam="2">  1       -2 0.13912510E+00 0.22135681E+04</pdfrwt>
<totfact> 0.51230938E+00</totfact>
</mgrwt>
</event>
<event>
12    1  0.2019083E-007  0.1730232E+04  0.7818608E-02  0.8744308E-01
          1   -1    0    0  501    0  0.00000000000E+00  0.00000000000E+00  0.22277149594E+04  0.22277149594E+04  0.00000000000E+00 0. -1.
         -1   -1    0    0    0  501 -0.00000000000E+00 -0.00000000000E+00 -0.33596100610E+03  0.33596100610E+03  0.00000000000E+00 0.  1.
         23    2    1    2    0    0  0.52154556911E+03 -0.15541780114E+03  0.11631380112E+04  0.12874324487E+04  0.91803067737E+02 0.  0.
        254    2    1    2    0    0 -0.52154556911E+03  0.15541780114E+03  0.72861594206E+03  0.12762435168E+04  0.89540596911E+03 0.  0.
        -24    2    4    4    0    0 -0.69533002108E+03 -0.12166158487E+03  0.49624817893E+03  0.86654006322E+03  0.79649523767E+02 0.  0.
         24    2    4    4    0    0  0.17378445197E+03  0.27707938602E+03  0.23236776313E+03  0.40970345355E+03  0.82994702289E+02 0.  0.
         11    1    3    3    0    0  0.39933644684E+03 -0.77053421874E+02  0.86203043910E+03  0.95315439753E+03  0.00000000000E+00 0. -1.
        -11    1    3    3    0    0  0.12220912227E+03 -0.78364379270E+02  0.30110757211E+03  0.33427805116E+03  0.00000000000E+00 0.  1.
          4    1    6    6  502    0  0.12084201150E+03  0.25064485800E+03  0.19076905849E+03  0.33736993088E+03  0.00000000000E+00 0. -1.
          3    1    5    5  503    0 -0.54068046761E+03 -0.66764945947E+02  0.35720034795E+03  0.65144839753E+03  0.00000000000E+00 0. -1.
         -4    1    5    5    0  503 -0.15464955347E+03 -0.54896638927E+02  0.13904783098E+03  0.21509166570E+03  0.00000000000E+00 0.  1.
         -1    1    6    6    0  502  0.52942440468E+02  0.26434528017E+02  0.41598704636E+02  0.72333522668E+02  0.00000000000E+00 0.  1.
<mgrwt>
<rscale>  0 0.17302316E+04</rscale>
<asrwt>0</asrwt>
<pdfrwt beam="1">  1        1 0.34272537E+00 0.17302316E+04</pdfrwt>
<pdfrwt beam="2">  1       -1 0.51686310E-01 0.17302316E+04</pdfrwt>
<totfact> 0.74624513E+00</totfact>
</mgrwt>
</event>
<event>
12    1  0.2019083E-007  0.2176911E+04  0.7818608E-02  0.8528100E-01
         -2   -1    0    0    0  501 -0.00000000000E+00  0.00000000000E+00  0.57990049724E+03  0.57990049724E+03  0.00000000000E+00 0. -1.
          2   -1    0    0  501    0  0.00000000000E+00 -0.00000000000E+00 -0.20429971474E+04  0.20429971474E+04  0.00000000000E+00 0.  1.
         23    2    1    2    0    0  0.46550568697E+03  0.63846704479E+03 -0.11272847908E+04  0.13797389641E+04  0.92589943263E+02 0.  0.
        254    2    1    2    0    0 -0.46550568697E+03 -0.63846704479E+03 -0.33581185936E+03  0.12431586805E+04  0.89907629723E+03 0.  0.
        -24    2    4    4    0    0  0.25900307950E+03 -0.16090869187E+03 -0.16283653989E+02  0.31499968987E+03  0.77365657227E+02 0.  0.
         24    2    4    4    0    0 -0.72450876647E+03 -0.47755835292E+03 -0.31952820537E+03  0.92815899068E+03  0.80036896577E+02 0.  0.
         13    1    3    3    0    0  0.96846048342E+02  0.16494156240E+03 -0.21498545325E+03  0.28775618359E+03  0.00000000000E+00 0. -1.
        -13    1    3    3    0    0  0.36865963863E+03  0.47352548239E+03 -0.91229933753E+03  0.10919827805E+04  0.00000000000E+00 0.  1.
          2    1    6    6  502    0 -0.22150503628E+03 -0.11511172436E+03 -0.64941639698E+02  0.25793915319E+03  0.00000000000E+00 0. -1.
          1    1    5    5  503    0  0.17742764036E+02 -0.24198789836E+02 -0.22697533913E+02  0.37623997009E+02  0.00000000000E+00 0. -1.
         -2    1    5    5    0  503  0.24126031546E+03 -0.13670990204E+03  0.64138799238E+01  0.27737569286E+03  0.00000000000E+00 0.  1.
         -1    1    6    6    0  502 -0.50300373019E+03 -0.36244662856E+03 -0.25458656568E+03  0.67021983749E+03  0.00000000000E+00 0.  1.
<mgrwt>
<rscale>  0 0.21769107E+04</rscale>
<asrwt>0</asrwt>
<pdfrwt beam="1">  1        2 0.31430726E+00 0.21769107E+04</pdfrwt>
<pdfrwt beam="2">  1       -2 0.89215460E-01 0.21769107E+04</pdfrwt>
<totfact> 0.62433310E+00</totfact>
</mgrwt>
</event>
<event>
12    1  0.2019083E-007  0.2362723E+04  0.7818608E-02  0.8453593E-01
         -2   -1    0    0    0  501 -0.00000000000E+00  0.00000000000E+00  0.15037791885E+04  0.15037791885E+04  0.00000000000E+00 0.  1.
          2   -1    0    0  501    0  0.00000000000E+00 -0.00000000000E+00 -0.92807196373E+03  0.92807196373E+03  0.00000000000E+00 0. -1.
         23    2    1    2    0    0  0.48004614096E+03  0.74891878149E+03 -0.23947010945E+03  0.92556498539E+03  0.89448142205E+02 0.  0.
        254    2    1    2    0    0 -0.48004614096E+03 -0.74891878149E+03  0.81517733421E+03  0.15062861668E+04  0.90169855907E+03 0.  0.
        -24    2    4    4    0    0 -0.62689596964E+03 -0.84138445514E+03  0.78500812807E+03  0.13125286896E+04  0.74615291370E+02 0.  0.
         24    2    4    4    0    0  0.14684982869E+03  0.92465673648E+02  0.30169206144E+02  0.19375747725E+03  0.80727975346E+02 0.  0.
         13    1    3    3    0    0  0.15451412273E+03  0.28321172249E+03 -0.12473884199E+03  0.34589488661E+03  0.00000000000E+00 0. -1.
        -13    1    3    3    0    0  0.32553201822E+03  0.46570705900E+03 -0.11473126747E+03  0.57967009878E+03  0.00000000000E+00 0.  1.
          2    1    6    6  502    0  0.70627401024E+01  0.15357873977E+02 -0.20215574882E+02  0.26351775247E+02  0.00000000000E+00 0. -1.
          1    1    5    5  503    0 -0.20332325550E+03 -0.24547486203E+03  0.27656279165E+03  0.42200145952E+03  0.00000000000E+00 0. -1.
         -2    1    5    5    0  503 -0.42357271415E+03 -0.59590959311E+03  0.50844533642E+03  0.89052723005E+03  0.00000000000E+00 0.  1.
         -1    1    6    6    0  502  0.13978708858E+03  0.77107799671E+02  0.50384781027E+02  0.16740570201E+03  0.00000000000E+00 0.  1.
<mgrwt>
<rscale>  0 0.23627233E+04</rscale>
<asrwt>0</asrwt>
<pdfrwt beam="1">  1        2 0.14278030E+00 0.23627233E+04</pdfrwt>
<pdfrwt beam="2">  1       -2 0.23135064E+00 0.23627233E+04</pdfrwt>
<totfact> 0.21228401E+00</totfact>
</mgrwt>
</event>
<event>
12    1  0.2019083E-007  0.3390657E+04  0.7818608E-02  0.8140203E-01
         -2   -1    0    0    0  501 -0.00000000000E+00  0.00000000000E+00  0.12324646469E+04  0.12324646469E+04  0.00000000000E+00 0.  1.
          2   -1    0    0  501    0  0.00000000000E+00 -0.00000000000E+00 -0.23320252161E+04  0.23320252161E+04  0.00000000000E+00 0. -1.
         23    2    1    2    0    0 -0.10511641323E+04  0.99078143820E+03 -0.11702815411E+04  0.18612598635E+04  0.90197022920E+02 0.  0.
        254    2    1    2    0    0  0.10511641323E+04 -0.99078143820E+03  0.70720971828E+02  0.17032299995E+04  0.89966498433E+03 0.  0.
        -24    2    4    4    0    0  0.12027776043E+04 -0.90873380984E+03  0.84464697113E+02  0.15124354475E+04  0.88631794744E+02 0.  0.
         24    2    4    4    0    0 -0.15161347202E+03 -0.82047628362E+02 -0.13743725285E+02  0.19079455205E+03  0.80592883606E+02 0.  0.
         11    1    3    3    0    0 -0.76889462253E+03  0.70440958053E+03 -0.89212860871E+03  0.13723284054E+04  0.00000000000E+00 0. -1.
        -11    1    3    3    0    0 -0.28226950979E+03  0.28637185767E+03 -0.27815293236E+03  0.48893145818E+03  0.00000000000E+00 0.  1.
          2    1    6    6  502    0 -0.25828134549E+02 -0.65524457704E+01 -0.33459761492E+02  0.42773621766E+02  0.00000000000E+00 0. -1.
          1    1    5    5  503    0  0.78160849230E+03 -0.54108567412E+03  0.69796583982E+02  0.95318261898E+03  0.00000000000E+00 0. -1.
         -2    1    5    5    0  503  0.42116911204E+03 -0.36764813571E+03  0.14668113130E+02  0.55925282849E+03  0.00000000000E+00 0.  1.
         -1    1    6    6    0  502 -0.12578533747E+03 -0.75495182592E+02  0.19716036207E+02  0.14802093028E+03  0.00000000000E+00 0.  1.
<mgrwt>
<rscale>  0 0.33906569E+04</rscale>
<asrwt>0</asrwt>
<pdfrwt beam="1">  1        2 0.35877311E+00 0.33906569E+04</pdfrwt>
<pdfrwt beam="2">  1       -2 0.18960995E+00 0.33906569E+04</pdfrwt>
<totfact> 0.56203482E-01</totfact>
</mgrwt>
</event>
<event>
12    1  0.2019083E-007  0.2032721E+04  0.7818608E-02  0.8591474E-01
          1   -1    0    0  501    0  0.00000000000E+00  0.00000000000E+00  0.13454605494E+04  0.13454605494E+04  0.00000000000E+00 0. -1.
         -1   -1    0    0    0  501 -0.00000000000E+00 -0.00000000000E+00 -0.76775812544E+03  0.76775812544E+03  0.00000000000E+00 0.  1.
         23    2    1    2    0    0  0.46921522708E+03 -0.62883619625E+03  0.45963492050E+03  0.91387417149E+03  0.91125463731E+02 0.  0.
        254    2    1    2    0    0 -0.46921522708E+03  0.62883619625E+03  0.11806750348E+03  0.11993445034E+04  0.89938279468E+03 0.  0.
        -24    2    4    4    0    0 -0.24445064421E+03  0.62099681426E+03  0.43677582127E+03  0.80137992556E+03  0.77739991435E+02 0.  0.
         24    2    4    4    0    0 -0.22476458286E+03  0.78393819830E+01 -0.31870831779E+03  0.39796457782E+03  0.78868496550E+02 0.  0.
         13    1    3    3    0    0  0.41701868970E+03 -0.51806703486E+03  0.41291246056E+03  0.78281207212E+03  0.00000000000E+00 0. -1.
        -13    1    3    3    0    0  0.52196537374E+02 -0.11076916138E+03  0.46722459934E+02  0.13106209936E+03  0.00000000000E+00 0.  1.
          2    1    6    6  502    0 -0.61911475221E+02  0.52836450955E+01 -0.15520485546E+03  0.16718102412E+03  0.00000000000E+00 0. -1.
          3    1    5    5  503    0 -0.14130838477E+03  0.25438444468E+03  0.18444573045E+03  0.34452827574E+03  0.00000000000E+00 0. -1.
         -4    1    5    5    0  503 -0.10314225944E+03  0.36661236958E+03  0.25233009082E+03  0.45685164982E+03  0.00000000000E+00 0.  1.
         -1    1    6    6    0  502 -0.16285310764E+03  0.25557368875E+01 -0.16350346233E+03  0.23078355369E+03  0.00000000000E+00 0.  1.
<mgrwt>
<rscale>  0 0.20327206E+04</rscale>
<asrwt>0</asrwt>
<pdfrwt beam="1">  1        1 0.20699393E+00 0.20327206E+04</pdfrwt>
<pdfrwt beam="2">  1       -1 0.11811663E+00 0.20327206E+04</pdfrwt>
<totfact> 0.49977058E+00</totfact>
</mgrwt>
</event>
<event>
12    1  0.2019083E-007  0.1502553E+04  0.7818608E-02  0.8882757E-01
          1   -1    0    0  501    0  0.00000000000E+00  0.00000000000E+00  0.22894944677E+04  0.22894944677E+04  0.00000000000E+00 0. -1.
         -1   -1    0    0    0  501 -0.00000000000E+00 -0.00000000000E+00 -0.24652452013E+03  0.24652452013E+03  0.00000000000E+00 0.  1.
         23    2    1    2    0    0  0.10822797468E+03  0.45749339278E+03  0.52869146264E+03  0.71356769889E+03  0.93009135503E+02 0.  0.
        254    2    1    2    0    0 -0.10822797468E+03 -0.45749339278E+03  0.15142784849E+04  0.18224512889E+04  0.89848532080E+03 0.  0.
        -24    2    4    4    0    0 -0.31387218341E+03 -0.32301177372E+03  0.14946092783E+04  0.15630144076E+04  0.79402708535E+02 0.  0.
         24    2    4    4    0    0  0.20564420873E+03 -0.13448161907E+03  0.19669206623E+02  0.25943688133E+03  0.80905940776E+02 0.  0.
         11    1    3    3    0    0  0.86981066111E+02  0.44297759821E+03  0.48296084515E+03  0.66109457442E+03  0.00000000000E+00 0. -1.
        -11    1    3    3    0    0  0.21246908573E+02  0.14515794577E+02  0.45730617487E+02  0.52473124472E+02  0.00000000000E+00 0.  1.
          2    1    6    6  502    0  0.65070886725E+02 -0.67458096829E+02 -0.25777292820E+02  0.97207427453E+02  0.00000000000E+00 0. -1.
          3    1    5    5  503    0 -0.32166525608E+02 -0.26643214502E+02  0.23551759349E+03  0.23919256488E+03  0.00000000000E+00 0. -1.
         -4    1    5    5    0  503 -0.28170565781E+03 -0.29636855922E+03  0.12590916848E+04  0.13238218427E+04  0.00000000000E+00 0.  1.
         -1    1    6    6    0  502  0.14057332200E+03 -0.67023522236E+02  0.45446499443E+02  0.16222945387E+03  0.00000000000E+00 0.  1.
<mgrwt>
<rscale>  0 0.15025532E+04</rscale>
<asrwt>0</asrwt>
<pdfrwt beam="1">  1        1 0.35222990E+00 0.15025532E+04</pdfrwt>
<pdfrwt beam="2">  1       -1 0.37926851E-01 0.15025532E+04</pdfrwt>
<totfact> 0.12303697E+01</totfact>
</mgrwt>
</event>
<event>
12    1  0.2019083E-007  0.5643238E+04  0.7818608E-02  0.7736281E-01
         -3   -1    0    0    0  501 -0.00000000000E+00  0.00000000000E+00  0.27076794145E+04  0.27076794145E+04  0.00000000000E+00 0.  1.
          3   -1    0    0  501    0  0.00000000000E+00 -0.00000000000E+00 -0.29403531735E+04  0.29403531735E+04  0.00000000000E+00 0. -1.
         23    2    1    2    0    0  0.24825943353E+04  0.11696132572E+04  0.55663017483E+02  0.27463848381E+04  0.90892807006E+02 0.  0.
        254    2    1    2    0    0 -0.24825943353E+04 -0.11696132572E+04 -0.28833677647E+03  0.29016477499E+04  0.89730249236E+03 0.  0.
        -24    2    4    4    0    0 -0.18200938740E+04 -0.57233335880E+03 -0.51490374416E+03  0.19780010717E+04  0.83995179649E+02 0.  0.
         24    2    4    4    0    0 -0.66250046137E+03 -0.59727989840E+03  0.22656696768E+03  0.92364667825E+03  0.78361068475E+02 0.  0.
         13    1    3    3    0    0  0.80618027964E+03  0.33485633219E+03  0.29420673253E+02  0.87345348044E+03  0.00000000000E+00 0.  1.
        -13    1    3    3    0    0  0.16764140557E+04  0.83475692501E+03  0.26242344230E+02  0.18729313577E+04  0.00000000000E+00 0. -1.
          4    1    6    6  502    0 -0.60542284106E+03 -0.53307428183E+03  0.18230623530E+03  0.82700699504E+03  0.00000000000E+00 0. -1.
          1    1    5    5  503    0 -0.13190936321E+04 -0.38751060612E+03 -0.39899819826E+03  0.14315627972E+04  0.00000000000E+00 0. -1.
         -2    1    5    5    0  503 -0.50100024186E+03 -0.18482275269E+03 -0.11590554590E+03  0.54643827449E+03  0.00000000000E+00 0.  1.
         -3    1    6    6    0  502 -0.57077620313E+02 -0.64205616568E+02  0.44260732378E+02  0.96639683206E+02  0.00000000000E+00 0.  1.
<mgrwt>
<rscale>  0 0.56432380E+04</rscale>
<asrwt>0</asrwt>
<pdfrwt beam="1">  1        3 0.45236202E+00 0.56432380E+04</pdfrwt>
<pdfrwt beam="2">  1       -3 0.41656607E+00 0.56432380E+04</pdfrwt>
<totfact> 0.90205955E-05</totfact>
</mgrwt>
</event>
<event>
12    1  0.2019083E-007  0.1520190E+04  0.7818608E-02  0.8871137E-01
          2   -1    0    0  501    0  0.00000000000E+00  0.00000000000E+00  0.14245946327E+04  0.14245946327E+04  0.00000000000E+00 0. -1.
         -2   -1    0    0    0  501 -0.00000000000E+00 -0.00000000000E+00 -0.40554985195E+03  0.40554985195E+03  0.00000000000E+00 0.  1.
         23    2    1    2    0    0 -0.45973683197E+03 -0.14546293581E+03  0.40959556181E+03  0.64006196512E+03  0.96919423117E+02 0.  0.
        254    2    1    2    0    0  0.45973683197E+03  0.14546293581E+03  0.60944921896E+03  0.11900825196E+04  0.90130496087E+03 0.  0.
        -24    2    4    4    0    0  0.63451236686E+03 -0.13704751181E+03  0.26712808860E+03  0.70664343589E+03  0.81237710322E+02 0.  0.
         24    2    4    4    0    0 -0.17477553489E+03  0.28251044762E+03  0.34232113036E+03  0.48343908366E+03  0.78555399013E+02 0.  0.
         11    1    3    3    0    0 -0.12869781502E+03 -0.24616787366E+02  0.61583997101E+02  0.14478156827E+03  0.00000000000E+00 0.  1.
        -11    1    3    3    0    0 -0.33103901695E+03 -0.12084614844E+03  0.34801156470E+03  0.49528039685E+03  0.00000000000E+00 0. -1.
          2    1    6    6  502    0 -0.15838394000E+03  0.22389171087E+03  0.24026235734E+03  0.36460796892E+03  0.00000000000E+00 0. -1.
          1    1    5    5  503    0  0.85377429872E+02 -0.10789367246E+00  0.58343346237E+02  0.10340823576E+03  0.00000000000E+00 0. -1.
         -2    1    5    5    0  503  0.54913493699E+03 -0.13693961814E+03  0.20878474237E+03  0.60323520013E+03  0.00000000000E+00 0.  1.
         -1    1    6    6    0  502 -0.16391594889E+02  0.58618736751E+02  0.10205877302E+03  0.11883111474E+03  0.00000000000E+00 0.  1.
<mgrwt>
<rscale>  0 0.15201896E+04</rscale>
<asrwt>0</asrwt>
<pdfrwt beam="1">  1        2 0.21916840E+00 0.15201896E+04</pdfrwt>
<pdfrwt beam="2">  1       -2 0.62392285E-01 0.15201896E+04</pdfrwt>
<totfact> 0.32209371E+01</totfact>
</mgrwt>
</event>
<event>
12    1  0.2019083E-007  0.1210085E+04  0.7818608E-02  0.9104075E-01
         -1   -1    0    0    0  501 -0.00000000000E+00  0.00000000000E+00  0.71115292964E+03  0.71115292964E+03  0.00000000000E+00 0.  1.
          1   -1    0    0  501    0  0.00000000000E+00 -0.00000000000E+00 -0.51476441374E+03  0.51476441374E+03  0.00000000000E+00 0. -1.
         23    2    1    2    0    0  0.18759463236E+03 -0.17303758891E+03  0.15937444072E+02  0.27296268070E+03  0.95503244250E+02 0.  0.
        254    2    1    2    0    0 -0.18759463236E+03  0.17303758891E+03  0.18045107182E+03  0.95295466268E+03  0.90023677249E+03 0.  0.
        -24    2    4    4    0    0 -0.25955209496E+03 -0.32656952040E+03  0.94442453222E+02  0.43485867652E+03  0.78535023534E+02 0.  0.
         24    2    4    4    0    0  0.71957462593E+02  0.49960710932E+03  0.86008618598E+02  0.51809598616E+03  0.78998913313E+02 0.  0.
         11    1    3    3    0    0  0.11007182876E+02 -0.20907569021E+02 -0.27086902959E+02  0.35944190479E+02  0.00000000000E+00 0. -1.
        -11    1    3    3    0    0  0.17658744949E+03 -0.15213001989E+03  0.43024347032E+02  0.23701849022E+03  0.00000000000E+00 0.  1.
          4    1    6    6  502    0  0.80515795239E+02  0.42664483020E+03  0.52453337878E+02  0.43733277613E+03  0.00000000000E+00 0. -1.
          1    1    5    5  503    0 -0.54952240770E+02 -0.59669078881E+02  0.50869080726E+02  0.95748687271E+02  0.00000000000E+00 0. -1.
         -2    1    5    5    0  503 -0.20459985418E+03 -0.26690044152E+03  0.43573372495E+02  0.33910998925E+03  0.00000000000E+00 0.  1.
         -3    1    6    6    0  502 -0.85583326463E+01  0.72962279115E+02  0.33555280721E+02  0.80763210038E+02  0.00000000000E+00 0.  1.
<mgrwt>
<rscale>  0 0.12100847E+04</rscale>
<asrwt>0</asrwt>
<pdfrwt beam="1">  1        1 0.79194526E-01 0.12100847E+04</pdfrwt>
<pdfrwt beam="2">  1       -1 0.10940814E+00 0.12100847E+04</pdfrwt>
<totfact> 0.32559020E+01</totfact>
</mgrwt>
</event>
<event>
12    1  0.2019083E-007  0.2515265E+04  0.7818608E-02  0.8397567E-01
          2   -1    0    0  501    0  0.00000000000E+00  0.00000000000E+00  0.15897964155E+04  0.15897964155E+04  0.00000000000E+00 0.  1.
         -2   -1    0    0    0  501 -0.00000000000E+00 -0.00000000000E+00 -0.99486952725E+03  0.99486952725E+03  0.00000000000E+00 0. -1.
         23    2    1    2    0    0  0.10558334417E+03 -0.10265563560E+04  0.63440283530E+03  0.12147546753E+04  0.90532695411E+02 0.  0.
        254    2    1    2    0    0 -0.10558334417E+03  0.10265563560E+04 -0.39475947096E+02  0.13699112674E+04  0.90007373898E+03 0.  0.
        -24    2    4    4    0    0  0.19338696776E+03  0.55624422322E+03 -0.38542017901E+03  0.70826147183E+03  0.79242936137E+02 0.  0.
         24    2    4    4    0    0 -0.29897031193E+03  0.47031213281E+03  0.34594423192E+03  0.66164979561E+03  0.86754197293E+02 0.  0.
         11    1    3    3    0    0  0.25611937799E+02 -0.64071317774E+03  0.41399860987E+03  0.76325893147E+03  0.00000000000E+00 0.  1.
        -11    1    3    3    0    0  0.79971406373E+02 -0.38584317829E+03  0.22040422543E+03  0.45149574379E+03  0.00000000000E+00 0. -1.
          2    1    6    6  502    0 -0.14615014484E+03  0.29481397126E+03  0.23145652169E+03  0.40230245328E+03  0.00000000000E+00 0. -1.
          1    1    5    5  503    0  0.16144872069E+03  0.52586427443E+03 -0.35897872216E+03  0.65685968631E+03  0.00000000000E+00 0. -1.
         -2    1    5    5    0  503  0.31938247073E+02  0.30379948787E+02 -0.26441456855E+02  0.51401785523E+02  0.00000000000E+00 0.  1.
         -1    1    6    6    0  502 -0.15282016709E+03  0.17549816155E+03  0.11448771023E+03  0.25934734233E+03  0.00000000000E+00 0.  1.
<mgrwt>
<rscale>  0 0.25152654E+04</rscale>
<asrwt>0</asrwt>
<pdfrwt beam="1">  1        2 0.24458407E+00 0.25152654E+04</pdfrwt>
<pdfrwt beam="2">  1       -2 0.15305685E+00 0.25152654E+04</pdfrwt>
<totfact> 0.28585284E+00</totfact>
</mgrwt>
</event>
<event>
12    1  0.2019083E-007  0.1922447E+04  0.7818608E-02  0.8643763E-01
          2   -1    0    0  501    0  0.00000000000E+00  0.00000000000E+00  0.30375510582E+04  0.30375510582E+04  0.00000000000E+00 0.  1.
         -2   -1    0    0    0  501 -0.00000000000E+00 -0.00000000000E+00 -0.30417622098E+03  0.30417622098E+03  0.00000000000E+00 0. -1.
         23    2    1    2    0    0  0.59882387314E+03  0.39028115380E+03  0.68582135121E+03  0.99483794354E+03  0.91881434953E+02 0.  0.
        254    2    1    2    0    0 -0.59882387314E+03 -0.39028115380E+03  0.20475534860E+04  0.23468893357E+04  0.89694195219E+03 0.  0.
        -24    2    4    4    0    0  0.12933234251E+03  0.15827407026E+03  0.26873037611E+03  0.34652067588E+03  0.77993766651E+02 0.  0.
         24    2    4    4    0    0 -0.72815621565E+03 -0.54855522405E+03  0.17788231099E+04  0.20003686598E+04  0.78350560735E+02 0.  0.
         11    1    3    3    0    0  0.25518652531E+03  0.11462578428E+03  0.25079436556E+03  0.37570872617E+03  0.00000000000E+00 0. -1.
        -11    1    3    3    0    0  0.34363734783E+03  0.27565536951E+03  0.43502698564E+03  0.61912921737E+03  0.00000000000E+00 0.  1.
          2    1    6    6  502    0 -0.28968527330E+02 -0.99712975042E+01  0.85903915955E+02  0.91203536806E+02  0.00000000000E+00 0. -1.
          3    1    5    5  503    0  0.41983730475E+02  0.21054511540E+02  0.10833929577E+03  0.11808187451E+03  0.00000000000E+00 0. -1.
         -4    1    5    5    0  503  0.87348612036E+02  0.13721955872E+03  0.16039108034E+03  0.22843880137E+03  0.00000000000E+00 0.  1.
         -1    1    6    6    0  502 -0.69918768832E+03 -0.53858392655E+03  0.16929191940E+04  0.19091651230E+04  0.00000000000E+00 0.  1.
<mgrwt>
<rscale>  0 0.19224472E+04</rscale>
<asrwt>0</asrwt>
<pdfrwt beam="1">  1        2 0.46731553E+00 0.19224472E+04</pdfrwt>
<pdfrwt beam="2">  1       -2 0.46796344E-01 0.19224472E+04</pdfrwt>
<totfact> 0.66938810E+00</totfact>
</mgrwt>
</event>
<event>
12    1  0.2019083E-007  0.1850635E+04  0.7818608E-02  0.8679826E-01
         -1   -1    0    0    0  501 -0.00000000000E+00  0.00000000000E+00  0.10486396468E+04  0.10486396468E+04  0.00000000000E+00 0.  1.
          1   -1    0    0  501    0  0.00000000000E+00 -0.00000000000E+00 -0.81649820807E+03  0.81649820807E+03  0.00000000000E+00 0. -1.
         23    2    1    2    0    0  0.56546296991E+03  0.29711192455E+03  0.38805119995E+03  0.75258698852E+03  0.88201901672E+02 0.  0.
        254    2    1    2    0    0 -0.56546296991E+03 -0.29711192455E+03 -0.15590976120E+03  0.11125508664E+04  0.89746181566E+03 0.  0.
        -24    2    4    4    0    0 -0.80039077392E+03 -0.21500079003E+03 -0.17866173984E+03  0.85126757420E+03  0.76718543466E+02 0.  0.
         24    2    4    4    0    0  0.23492780401E+03 -0.82111134516E+02  0.22751978637E+02  0.26128329217E+03  0.76275780727E+02 0.  0.
         13    1    3    3    0    0  0.16531627489E+03  0.62583980386E+02  0.14685221984E+03  0.22980818048E+03  0.00000000000E+00 0. -1.
        -13    1    3    3    0    0  0.40014669502E+03  0.23452794416E+03  0.24119898012E+03  0.52277880804E+03  0.00000000000E+00 0.  1.
          2    1    6    6  502    0  0.23410424561E+03 -0.88097083922E+02  0.13837781289E+02  0.25051422754E+03  0.00000000000E+00 0. -1.
          1    1    5    5  503    0 -0.55605165615E+03 -0.17798242087E+03 -0.10334347608E+03  0.59291741456E+03  0.00000000000E+00 0. -1.
         -2    1    5    5    0  503 -0.24433911778E+03 -0.37018369165E+02 -0.75318263763E+02  0.25835015964E+03  0.00000000000E+00 0.  1.
         -1    1    6    6    0  502  0.82355840488E+00  0.59859494053E+01  0.89141973478E+01  0.10769064634E+02  0.00000000000E+00 0.  1.
<mgrwt>
<rscale>  0 0.18506349E+04</rscale>
<asrwt>0</asrwt>
<pdfrwt beam="1">  1        1 0.12561511E+00 0.18506349E+04</pdfrwt>
<pdfrwt beam="2">  1       -1 0.16132918E+00 0.18506349E+04</pdfrwt>
<totfact> 0.57392858E+00</totfact>
</mgrwt>
</event>
<event>
12    1  0.2019083E-007  0.1533840E+04  0.7818608E-02  0.8862256E-01
          2   -1    0    0  501    0  0.00000000000E+00  0.00000000000E+00  0.87880187434E+03  0.87880187434E+03  0.00000000000E+00 0. -1.
         -2   -1    0    0    0  501 -0.00000000000E+00 -0.00000000000E+00 -0.66928232610E+03  0.66928232610E+03  0.00000000000E+00 0.  1.
         23    2    1    2    0    0 -0.37845279655E+03 -0.31874735091E+03  0.87737887748E+01  0.50271249997E+03  0.88410889214E+02 0.  0.
        254    2    1    2    0    0  0.37845279655E+03  0.31874735091E+03  0.20074575947E+03  0.10453717005E+04  0.89870837276E+03 0.  0.
        -24    2    4    4    0    0  0.14025136961E+02 -0.29593587137E+03  0.53177639124E+02  0.31135422833E+03  0.79616893724E+02 0.  0.
         24    2    4    4    0    0  0.36442765959E+03  0.61468322228E+03  0.14756812034E+03  0.73401747214E+03  0.79764129977E+02 0.  0.
         13    1    3    3    0    0 -0.56819506511E+02 -0.22705533199E+02 -0.20669628822E+02  0.64585068813E+02  0.00000000000E+00 0.  1.
        -13    1    3    3    0    0 -0.32163329004E+03 -0.29604181771E+03  0.29443417597E+02  0.43812743116E+03  0.00000000000E+00 0. -1.
          2    1    6    6  502    0  0.33539383720E+03  0.52063996902E+03  0.11199502696E+03  0.62936308235E+03  0.00000000000E+00 0. -1.
          1    1    5    5  503    0  0.15775718767E+02 -0.29344647714E+03  0.63448757951E+02  0.30064173552E+03  0.00000000000E+00 0. -1.
         -2    1    5    5    0  503 -0.17505818062E+01 -0.24893942275E+01 -0.10271118828E+02  0.10712492812E+02  0.00000000000E+00 0.  1.
         -1    1    6    6    0  502  0.29033822390E+02  0.94043253267E+02  0.35573093387E+02  0.10465438978E+03  0.00000000000E+00 0.  1.
<mgrwt>
<rscale>  0 0.15338404E+04</rscale>
<asrwt>0</asrwt>
<pdfrwt beam="1">  1        2 0.13520029E+00 0.15338404E+04</pdfrwt>
<pdfrwt beam="2">  1       -2 0.10296651E+00 0.15338404E+04</pdfrwt>
<totfact> 0.22510652E+01</totfact>
</mgrwt>
</event>
<event>
12    1  0.2019083E-007  0.1599866E+04  0.7818608E-02  0.8820630E-01
         -2   -1    0    0    0  501 -0.00000000000E+00  0.00000000000E+00  0.39491118693E+03  0.39491118693E+03  0.00000000000E+00 0.  1.
          2   -1    0    0  501    0  0.00000000000E+00 -0.00000000000E+00 -0.16203471058E+04  0.16203471058E+04  0.00000000000E+00 0. -1.
         23    2    1    2    0    0  0.29204918366E+03  0.25934114481E+03  0.51186850317E+02  0.40547765732E+03  0.96132626508E+02 0.  0.
        254    2    1    2    0    0 -0.29204918366E+03 -0.25934114481E+03 -0.12766227692E+04  0.16097806354E+04  0.89948732299E+03 0.  0.
        -24    2    4    4    0    0 -0.12561682879E+03 -0.33656646270E+03 -0.13482690832E+04  0.13975874783E+04  0.79778865660E+02 0.  0.
         24    2    4    4    0    0 -0.16643235486E+03  0.77225317890E+02  0.71646313999E+02  0.21219315707E+03  0.78925681059E+02 0.  0.
         13    1    3    3    0    0  0.16463442766E+03  0.19178142103E+03  0.63881957905E+02  0.26070196158E+03  0.00000000000E+00 0.  1.
        -13    1    3    3    0    0  0.12741475600E+03  0.67559723773E+02 -0.12695107588E+02  0.14477569575E+03  0.00000000000E+00 0. -1.
          2    1    6    6  502    0 -0.34954783397E+02  0.20374641685E+02 -0.16839911409E+02  0.43824029053E+02  0.00000000000E+00 0. -1.
          3    1    5    5  503    0 -0.98492716233E+01 -0.37847599424E+02 -0.74414270389E+02  0.84065049641E+02  0.00000000000E+00 0. -1.
         -4    1    5    5    0  503 -0.11576755717E+03 -0.29871886327E+03 -0.12738548128E+04  0.13135224287E+04  0.00000000000E+00 0.  1.
         -1    1    6    6    0  502 -0.13147757147E+03  0.56850676205E+02  0.88486225408E+02  0.16836912802E+03  0.00000000000E+00 0.  1.
<mgrwt>
<rscale>  0 0.15998665E+04</rscale>
<asrwt>0</asrwt>
<pdfrwt beam="1">  1        2 0.24928417E+00 0.15998665E+04</pdfrwt>
<pdfrwt beam="2">  1       -2 0.60755567E-01 0.15998665E+04</pdfrwt>
<totfact> 0.26270604E+01</totfact>
</mgrwt>
</event>
<event>
12    1  0.2019083E-007  0.1436206E+04  0.7818608E-02  0.8928020E-01
          2   -1    0    0  501    0  0.00000000000E+00  0.00000000000E+00  0.13174063981E+04  0.13174063981E+04  0.00000000000E+00 0. -1.
         -2   -1    0    0    0  501 -0.00000000000E+00 -0.00000000000E+00 -0.39142956615E+03  0.39142956615E+03  0.00000000000E+00 0.  1.
         23    2    1    2    0    0 -0.92590707440E+01 -0.37210669242E+03  0.54818744781E+03  0.66894978363E+03  0.91843421921E+02 0.  0.
        254    2    1    2    0    0  0.92590707440E+01  0.37210669242E+03  0.37778938419E+03  0.10398861807E+04  0.89447712603E+03 0.  0.
        -24    2    4    4    0    0  0.73106248982E+02  0.57404040632E+03 -0.18258951487E+02  0.58432591981E+03  0.78971384223E+02 0.  0.
         24    2    4    4    0    0 -0.63847178238E+02 -0.20193371390E+03  0.39604833568E+03  0.45556026085E+03  0.76335968565E+02 0.  0.
         11    1    3    3    0    0 -0.16653841836E+02 -0.30485678485E+03  0.50015486845E+03  0.58597773178E+03  0.00000000000E+00 0. -1.
        -11    1    3    3    0    0  0.73947710918E+01 -0.67249907569E+02  0.48032579369E+02  0.82972051851E+02  0.00000000000E+00 0.  1.
          4    1    6    6  502    0 -0.32918959557E+02 -0.51734601405E+02  0.18344211474E+03  0.19341958624E+03  0.00000000000E+00 0. -1.
          1    1    5    5  503    0 -0.11203060077E+01  0.19836231965E+03 -0.33048748438E+02  0.20109968850E+03  0.00000000000E+00 0. -1.
         -4    1    5    5    0  503  0.74226554990E+02  0.37567808667E+03  0.14789796951E+02  0.38322623131E+03  0.00000000000E+00 0.  1.
         -3    1    6    6    0  502 -0.30928218681E+02 -0.15019911249E+03  0.21260622093E+03  0.26214067461E+03  0.00000000000E+00 0.  1.
<mgrwt>
<rscale>  0 0.14362059E+04</rscale>
<asrwt>0</asrwt>
<pdfrwt beam="1">  1        2 0.20267791E+00 0.14362059E+04</pdfrwt>
<pdfrwt beam="2">  1       -2 0.60219934E-01 0.14362059E+04</pdfrwt>
<totfact> 0.40287416E+01</totfact>
</mgrwt>
</event>
<event>
12    1  0.2019083E-007  0.2087065E+04  0.7818608E-02  0.8566963E-01
         -2   -1    0    0    0  501 -0.00000000000E+00  0.00000000000E+00  0.11510194994E+04  0.11510194994E+04  0.00000000000E+00 0.  1.
          2   -1    0    0  501    0  0.00000000000E+00 -0.00000000000E+00 -0.94608311166E+03  0.94608311166E+03  0.00000000000E+00 0. -1.
         23    2    1    2    0    0 -0.55542355495E+01 -0.82625536363E+03  0.26775171905E+03  0.87334712259E+03  0.91189023561E+02 0.  0.
        254    2    1    2    0    0  0.55542355495E+01  0.82625536363E+03 -0.62815331271E+02  0.12237554885E+04  0.90050150158E+03 0.  0.
        -24    2    4    4    0    0 -0.35300447900E+03  0.70469068013E+03 -0.19415756362E+03  0.81497189893E+03  0.72669936543E+02 0.  0.
         24    2    4    4    0    0  0.35855871455E+03  0.12156468350E+03  0.13134223235E+03  0.40878358958E+03  0.80690253772E+02 0.  0.
         13    1    3    3    0    0  0.37200801246E+02 -0.27959674277E+03  0.11030588587E+03  0.30286238895E+03  0.00000000000E+00 0.  1.
        -13    1    3    3    0    0 -0.42755036795E+02 -0.54665862086E+03  0.15744583318E+03  0.57048473364E+03  0.00000000000E+00 0. -1.
          2    1    6    6  502    0  0.11187683790E+03  0.70495328278E+02  0.69520914858E+02  0.14939603666E+03  0.00000000000E+00 0. -1.
          3    1    5    5  503    0 -0.71207071572E+02  0.87246968113E+02 -0.33739919525E+02  0.11756216507E+03  0.00000000000E+00 0. -1.
         -4    1    5    5    0  503 -0.28179740743E+03  0.61744371201E+03 -0.16041764410E+03  0.69740973386E+03  0.00000000000E+00 0.  1.
         -1    1    6    6    0  502  0.24668187666E+03  0.51069355226E+02  0.61821317491E+02  0.25938755292E+03  0.00000000000E+00 0.  1.
<mgrwt>
<rscale>  0 0.20870650E+04</rscale>
<asrwt>0</asrwt>
<pdfrwt beam="1">  1        2 0.14555125E+00 0.20870650E+04</pdfrwt>
<pdfrwt beam="2">  1       -2 0.17707992E+00 0.20870650E+04</pdfrwt>
<totfact> 0.47858601E+00</totfact>
</mgrwt>
</event>
<event>
12    1  0.2019083E-007  0.1398818E+04  0.7818608E-02  0.8954674E-01
          2   -1    0    0  501    0  0.00000000000E+00  0.00000000000E+00  0.13640028607E+04  0.13640028607E+04  0.00000000000E+00 0. -1.
         -2   -1    0    0    0  501 -0.00000000000E+00 -0.00000000000E+00 -0.35863063094E+03  0.35863063094E+03  0.00000000000E+00 0.  1.
         23    2    1    2    0    0 -0.23639371455E+03  0.99879732671E+02  0.67905707074E+03  0.73040576042E+03  0.80722489194E+02 0.  0.
        254    2    1    2    0    0  0.23639371455E+03 -0.99879732671E+02  0.32631515901E+03  0.99222773121E+03  0.90120826578E+03 0.  0.
        -24    2    4    4    0    0  0.30004263626E+03  0.76427871463E+02  0.58281668048E+03  0.66603586808E+03  0.89786922243E+02 0.  0.
         24    2    4    4    0    0 -0.63648921717E+02 -0.17630760413E+03 -0.25650152147E+03  0.32619186313E+03  0.73976648646E+02 0.  0.
         11    1    3    3    0    0 -0.14781791197E+03  0.53655720519E+02  0.30394385360E+03  0.34221475361E+03  0.00000000000E+00 0.  1.
        -11    1    3    3    0    0 -0.88575802575E+02  0.46224012152E+02  0.37511321714E+03  0.38819100681E+03  0.00000000000E+00 0. -1.
          4    1    6    6  502    0 -0.14405954228E+02 -0.13839345161E+03 -0.17006929392E+03  0.21973584983E+03  0.00000000000E+00 0. -1.
          1    1    5    5  503    0  0.28982229297E+03  0.91459446379E+02  0.54290076366E+03  0.62217604504E+03  0.00000000000E+00 0. -1.
         -2    1    5    5    0  503  0.10220343292E+02 -0.15031574916E+02  0.39915916820E+02  0.43859823040E+02  0.00000000000E+00 0.  1.
         -3    1    6    6    0  502 -0.49242967489E+02 -0.37914152525E+02 -0.86432227554E+02  0.10645601330E+03  0.00000000000E+00 0.  1.
<mgrwt>
<rscale>  0 0.13988184E+04</rscale>
<asrwt>0</asrwt>
<pdfrwt beam="1">  1        2 0.20984659E+00 0.13988184E+04</pdfrwt>
<pdfrwt beam="2">  1       -2 0.55173944E-01 0.13988184E+04</pdfrwt>
<totfact> 0.45620425E+01</totfact>
</mgrwt>
</event>
<event>
12    1  0.2019083E-007  0.1235104E+04  0.7818608E-02  0.9082673E-01
          2   -1    0    0  501    0  0.00000000000E+00  0.00000000000E+00  0.36531791119E+03  0.36531791119E+03  0.00000000000E+00 0. -1.
         -2   -1    0    0    0  501 -0.00000000000E+00 -0.00000000000E+00 -0.10439412665E+04  0.10439412665E+04  0.00000000000E+00 0.  1.
         23    2    1    2    0    0  0.84535452339E+01 -0.24147253531E+03 -0.16165353759E+02  0.25854524000E+03  0.90575243456E+02 0.  0.
        254    2    1    2    0    0 -0.84535452339E+01  0.24147253531E+03 -0.66245800152E+03  0.11507139377E+04  0.90934675169E+03 0.  0.
        -24    2    4    4    0    0 -0.24572525698E+03  0.21677078069E+03 -0.79680766962E+03  0.86520238513E+03  0.79386595835E+02 0.  0.
         24    2    4    4    0    0  0.23727171175E+03  0.24701754621E+02  0.13434966810E+03  0.28551155252E+03  0.80987476990E+02 0.  0.
         11    1    3    3    0    0  0.25721755312E+02 -0.11449274328E+03 -0.47541961450E+02  0.12661135439E+03  0.00000000000E+00 0.  1.
        -11    1    3    3    0    0 -0.17268210078E+02 -0.12697979203E+03  0.31376607690E+02  0.13193388561E+03  0.00000000000E+00 0. -1.
          4    1    6    6  502    0  0.17170716003E+03 -0.19477351374E+02  0.95013368723E+02  0.19720612632E+03  0.00000000000E+00 0. -1.
          3    1    5    5  503    0 -0.13481605880E+03  0.16261594221E+03 -0.45066185194E+03  0.49771017587E+03  0.00000000000E+00 0. -1.
         -4    1    5    5    0  503 -0.11090919818E+03  0.54154838477E+02 -0.34614581768E+03  0.36749220927E+03  0.00000000000E+00 0.  1.
         -3    1    6    6    0  502  0.65564551720E+02  0.44179105995E+02  0.39336299377E+02  0.88305426206E+02  0.00000000000E+00 0.  1.
<mgrwt>
<rscale>  0 0.12351040E+04</rscale>
<asrwt>0</asrwt>
<pdfrwt beam="1">  1        2 0.56202756E-01 0.12351040E+04</pdfrwt>
<pdfrwt beam="2">  1       -2 0.16060635E+00 0.12351040E+04</pdfrwt>
<totfact> 0.21590560E+01</totfact>
</mgrwt>
</event>
<event>
12    1  0.2589193E-007  0.2834774E+04  0.7818608E-02  0.8292553E-01
         -1   -1    0    0    0  501 -0.00000000000E+00  0.00000000000E+00  0.75708708968E+03  0.75708708968E+03  0.00000000000E+00 0.  1.
          1   -1    0    0  501    0  0.00000000000E+00 -0.00000000000E+00 -0.26535728767E+04  0.26535728767E+04  0.00000000000E+00 0. -1.
         23    2    1    2    0    0  0.56903442713E+03  0.93625279262E+03 -0.73754140679E+02  0.11018292985E+04  0.90656819068E+02 0.  0.
        254    2    1    2    0    0 -0.56903442713E+03 -0.93625279262E+03 -0.18227316464E+04  0.23088306679E+04  0.89887648061E+03 0.  0.
        -24    2    4    4    0    0 -0.49135333843E+03 -0.64271011146E+03 -0.18215754309E+04  0.19947372127E+04  0.79593385108E+02 0.  0.
         24    2    4    4    0    0 -0.77681088692E+02 -0.29354268116E+03 -0.11562155138E+01  0.31409345517E+03  0.80322503357E+02 0.  0.
         11    1    3    3    0    0  0.10580128194E+03  0.24629822280E+03 -0.77032496297E+01  0.26817170967E+03  0.00000000000E+00 0.  1.
        -11    1    3    3    0    0  0.46323314519E+03  0.68995456982E+03 -0.66050891049E+02  0.83365758883E+03  0.00000000000E+00 0. -1.
          2    1    6    6  502    0  0.30675833490E+01 -0.65068732126E+02  0.26237499430E+02  0.70226464701E+02  0.00000000000E+00 0. -1.
          1    1    5    5  503    0 -0.22178838938E+03 -0.27907086716E+03 -0.70796154973E+03  0.79264127729E+03  0.00000000000E+00 0. -1.
         -2    1    5    5    0  503 -0.26956494906E+03 -0.36363924430E+03 -0.11136138811E+04  0.12020959354E+04  0.00000000000E+00 0.  1.
         -1    1    6    6    0  502 -0.80748672041E+02 -0.22847394903E+03 -0.27393714944E+02  0.24386699047E+03  0.00000000000E+00 0.  1.
<mgrwt>
<rscale>  0 0.28347739E+04</rscale>
<asrwt>0</asrwt>
<pdfrwt beam="1">  1        1 0.40824198E+00 0.28347739E+04</pdfrwt>
<pdfrwt beam="2">  1       -1 0.11647494E+00 0.28347739E+04</pdfrwt>
<totfact> 0.60768308E-01</totfact>
</mgrwt>
</event>
<event>
12    1  0.2019083E-007  0.1947836E+04  0.7818608E-02  0.8631405E-01
         -2   -1    0    0    0  501 -0.00000000000E+00  0.00000000000E+00  0.78757174466E+03  0.78757174466E+03  0.00000000000E+00 0.  1.
          2   -1    0    0  501    0  0.00000000000E+00 -0.00000000000E+00 -0.12043548173E+04  0.12043548173E+04  0.00000000000E+00 0. -1.
         23    2    1    2    0    0  0.12286062564E+03  0.61338020147E+03  0.28139951476E+03  0.69217012627E+03  0.92648755561E+02 0.  0.
        254    2    1    2    0    0 -0.12286062564E+03 -0.61338020147E+03 -0.69818258740E+03  0.12997564357E+04  0.90032097714E+03 0.  0.
        -24    2    4    4    0    0 -0.15925616899E+02  0.22874738031E+03 -0.13473740082E+03  0.27779276251E+03  0.80222580652E+02 0.  0.
         24    2    4    4    0    0 -0.10693500874E+03 -0.84212758178E+03 -0.56344518658E+03  0.10219636732E+04  0.79531823401E+02 0.  0.
         11    1    3    3    0    0  0.12172764172E+03  0.40489634299E+03  0.16908639352E+03  0.45535576838E+03  0.00000000000E+00 0.  1.
        -11    1    3    3    0    0  0.11329839170E+01  0.20848385848E+03  0.11231312124E+03  0.23681435789E+03  0.00000000000E+00 0. -1.
          4    1    6    6  502    0 -0.96517958394E+02 -0.81270255425E+03 -0.52453070607E+03  0.97207696176E+03  0.00000000000E+00 0. -1.
          3    1    5    5  503    0  0.16712329074E+02  0.13255434361E+03 -0.11045849479E+03  0.17335234358E+03  0.00000000000E+00 0. -1.
         -4    1    5    5    0  503 -0.32637945973E+02  0.96193036698E+02 -0.24278906030E+02  0.10444041892E+03  0.00000000000E+00 0.  1.
         -3    1    6    6    0  502 -0.10417050348E+02 -0.29425027529E+02 -0.38914480503E+02  0.49886711415E+02  0.00000000000E+00 0.  1.
<mgrwt>
<rscale>  0 0.19478355E+04</rscale>
<asrwt>0</asrwt>
<pdfrwt beam="1">  1        2 0.18528535E+00 0.19478355E+04</pdfrwt>
<pdfrwt beam="2">  1       -2 0.12116489E+00 0.19478355E+04</pdfrwt>
<totfact> 0.91070860E+00</totfact>
</mgrwt>
</event>
<event>
12    1  0.2019083E-007  0.1634399E+04  0.7818608E-02  0.8799690E-01
         -2   -1    0    0    0  501 -0.00000000000E+00  0.00000000000E+00  0.28211300525E+03  0.28211300525E+03  0.00000000000E+00 0.  1.
          2   -1    0    0  501    0  0.00000000000E+00 -0.00000000000E+00 -0.23671901401E+04  0.23671901401E+04  0.00000000000E+00 0. -1.
         23    2    1    2    0    0  0.18500063124E+02  0.40876597335E+03 -0.99448890634E+02  0.43096046619E+03  0.91678614017E+02 0.  0.
        254    2    1    2    0    0 -0.18500063124E+02 -0.40876597335E+03 -0.19856282442E+04  0.22183426792E+04  0.90049588818E+03 0.  0.
        -24    2    4    4    0    0 -0.12722065422E+03  0.24405710329E+03 -0.35187038129E+03  0.45383512607E+03  0.80028694194E+02 0.  0.
         24    2    4    4    0    0  0.10872059110E+03 -0.65282307664E+03 -0.16337578630E+04  0.17645075531E+04  0.79523668854E+02 0.  0.
         11    1    3    3    0    0 -0.18775455566E+02  0.30899014745E+03 -0.50160524999E+02  0.31359768370E+03  0.00000000000E+00 0.  1.
        -11    1    3    3    0    0  0.37275518689E+02  0.99775825896E+02 -0.49288365635E+02  0.11736278249E+03  0.00000000000E+00 0. -1.
          2    1    6    6  502    0  0.11151284871E+02 -0.10595315229E+03 -0.19451013952E+03  0.22177604923E+03  0.00000000000E+00 0. -1.
          1    1    5    5  503    0 -0.77964920971E+02  0.16897774050E+03 -0.29077348297E+03  0.34522633747E+03  0.00000000000E+00 0. -1.
         -2    1    5    5    0  503 -0.49255733253E+02  0.75079362793E+02 -0.61096898322E+02  0.10860878860E+03  0.00000000000E+00 0.  1.
         -1    1    6    6    0  502  0.97569306230E+02 -0.54686992435E+03 -0.14392477234E+04  0.15427315039E+04  0.00000000000E+00 0.  1.
<mgrwt>
<rscale>  0 0.16343991E+04</rscale>
<asrwt>0</asrwt>
<pdfrwt beam="1">  1        2 0.36418310E+00 0.16343991E+04</pdfrwt>
<pdfrwt beam="2">  1       -2 0.43402001E-01 0.16343991E+04</pdfrwt>
<totfact> 0.20011290E+01</totfact>
</mgrwt>
</event>
<event>
12    1  0.2019083E-007  0.2423875E+04  0.7818608E-02  0.8430619E-01
         -2   -1    0    0    0  501 -0.00000000000E+00  0.00000000000E+00  0.18840708159E+04  0.18840708159E+04  0.00000000000E+00 0. -1.
          2   -1    0    0  501    0  0.00000000000E+00 -0.00000000000E+00 -0.77958475198E+03  0.77958475198E+03  0.00000000000E+00 0.  1.
         23    2    1    2    0    0  0.63222974979E+03 -0.79335964494E+03  0.74573343075E+03  0.12623732383E+04  0.91289978869E+02 0.  0.
        254    2    1    2    0    0 -0.63222974979E+03  0.79335964494E+03  0.35875263320E+03  0.14012823296E+04  0.89763841983E+03 0.  0.
        -24    2    4    4    0    0 -0.29041860361E+03  0.21307647720E+03  0.58021232147E+03  0.68762171860E+03  0.80204360485E+02 0.  0.
         24    2    4    4    0    0 -0.34181114618E+03  0.58028316774E+03 -0.22145968827E+03  0.71366061102E+03  0.81875880366E+02 0.  0.
         11    1    3    3    0    0  0.78820172502E+02 -0.11763420556E+03  0.14246551565E+03  0.20086525100E+03  0.00000000000E+00 0. -1.
        -11    1    3    3    0    0  0.55340957729E+03 -0.67572543938E+03  0.60326791510E+03  0.10615079873E+04  0.00000000000E+00 0.  1.
          4    1    6    6  502    0 -0.34449198375E+03  0.58059468753E+03 -0.21833469611E+03  0.70953150570E+03  0.00000000000E+00 0. -1.
          3    1    5    5  503    0 -0.27893663055E+03  0.21074809987E+03  0.57828733179E+03  0.67574895010E+03  0.00000000000E+00 0. -1.
         -4    1    5    5    0  503 -0.11481973067E+02  0.23283773254E+01  0.19249896863E+01  0.11872768496E+02  0.00000000000E+00 0.  1.
         -3    1    6    6    0  502  0.26808375757E+01 -0.31151979742E+00 -0.31249921663E+01  0.41291053185E+01  0.00000000000E+00 0.  1.
<mgrwt>
<rscale>  0 0.24238753E+04</rscale>
<asrwt>0</asrwt>
<pdfrwt beam="1">  1        2 0.11993612E+00 0.24238753E+04</pdfrwt>
<pdfrwt beam="2">  1       -2 0.28985705E+00 0.24238753E+04</pdfrwt>
<totfact> 0.11731429E+00</totfact>
</mgrwt>
</event>
<event>
12    1  0.2019083E-007  0.1369843E+04  0.7818608E-02  0.8975942E-01
         -2   -1    0    0    0  501 -0.00000000000E+00  0.00000000000E+00  0.17628119126E+03  0.17628119126E+03  0.00000000000E+00 0.  1.
          2   -1    0    0  501    0  0.00000000000E+00 -0.00000000000E+00 -0.26611876297E+04  0.26611876297E+04  0.00000000000E+00 0. -1.
         23    2    1    2    0    0 -0.28223809125E+03  0.29627138844E+02 -0.20742647918E+03  0.36323089280E+03  0.91514095696E+02 0.  0.
        254    2    1    2    0    0  0.28223809125E+03 -0.29627138844E+02 -0.22774799593E+04  0.24742379282E+04  0.92433881926E+03 0.  0.
        -24    2    4    4    0    0 -0.19525455707E+03 -0.22738429538E+02 -0.84490646924E+02  0.22843313143E+03  0.80010298591E+02 0.  0.
         24    2    4    4    0    0  0.47749264832E+03 -0.68887093061E+01 -0.21929893123E+04  0.22458047967E+04  0.79939836583E+02 0.  0.
         11    1    3    3    0    0 -0.10458131096E+03  0.30107619277E+02 -0.31711103441E+02  0.11335481208E+03  0.00000000000E+00 0.  1.
        -11    1    3    3    0    0 -0.17765678029E+03 -0.48048043261E+00 -0.17571537574E+03  0.24987608072E+03  0.00000000000E+00 0. -1.
          2    1    6    6  502    0  0.23364086530E+03 -0.39999898737E+02 -0.10018908187E+04  0.10295500272E+04  0.00000000000E+00 0. -1.
          3    1    5    5  503    0 -0.16792997129E+03 -0.17435524676E+01 -0.40864239560E+02  0.17283923544E+03  0.00000000000E+00 0. -1.
         -4    1    5    5    0  503 -0.27324585780E+02 -0.20994877071E+02 -0.43626407364E+02  0.55593895985E+02  0.00000000000E+00 0.  1.
         -1    1    6    6    0  502  0.24385178302E+03  0.33111189431E+02 -0.11910984936E+04  0.12162547695E+04  0.00000000000E+00 0.  1.
<mgrwt>
<rscale>  0 0.13698428E+04</rscale>
<asrwt>0</asrwt>
<pdfrwt beam="1">  1        2 0.40941350E+00 0.13698428E+04</pdfrwt>
<pdfrwt beam="2">  1       -2 0.27120182E-01 0.13698428E+04</pdfrwt>
<totfact> 0.33960755E+01</totfact>
</mgrwt>
</event>
<event>
12    1  0.2209092E-007  0.2483943E+04  0.7818608E-02  0.8408728E-01
          2   -1    0    0  501    0  0.00000000000E+00  0.00000000000E+00  0.16724064345E+04  0.16724064345E+04  0.00000000000E+00 0. -1.
         -2   -1    0    0    0  501 -0.00000000000E+00 -0.00000000000E+00 -0.92231924067E+03  0.92231924067E+03  0.00000000000E+00 0.  1.
         23    2    1    2    0    0 -0.79602474376E+03 -0.31195251590E+03  0.10080376156E+04  0.13242214153E+04  0.80329056172E+02 0.  0.
        254    2    1    2    0    0  0.79602474376E+03  0.31195251590E+03 -0.25795042181E+03  0.12705042599E+04  0.90369955708E+03 0.  0.
        -24    2    4    4    0    0  0.71047531843E+03  0.41786264399E+03 -0.51006218174E+03  0.97290727874E+03  0.83670642657E+02 0.  0.
         24    2    4    4    0    0  0.85549425327E+02 -0.10591012809E+03  0.25211175992E+03  0.29759698117E+03  0.80423655112E+02 0.  0.
         11    1    3    3    0    0 -0.58192363195E+03 -0.26286616435E+03  0.72928872980E+03  0.96932749120E+03  0.00000000000E+00 0. -1.
        -11    1    3    3    0    0 -0.21410111180E+03 -0.49086351549E+02  0.27874888583E+03  0.35489392406E+03  0.00000000000E+00 0.  1.
          4    1    6    6  502    0  0.41887417879E+02 -0.21153459169E+02  0.29501568293E+02  0.55428937777E+02  0.00000000000E+00 0. -1.
          1    1    5    5  503    0  0.79264489651E+02  0.71574996810E+02 -0.45572083743E+02  0.11611483241E+03  0.00000000000E+00 0. -1.
         -2    1    5    5    0  503  0.63121082878E+03  0.34628764718E+03 -0.46449009799E+03  0.85679244633E+03  0.00000000000E+00 0.  1.
         -3    1    6    6    0  502  0.43662007448E+02 -0.84756668925E+02  0.22261019163E+03  0.24216804339E+03  0.00000000000E+00 0.  1.
<mgrwt>
<rscale>  0 0.24839425E+04</rscale>
<asrwt>0</asrwt>
<pdfrwt beam="1">  1        2 0.25729330E+00 0.24839425E+04</pdfrwt>
<pdfrwt beam="2">  1       -2 0.14189527E+00 0.24839425E+04</pdfrwt>
<totfact> 0.31471697E+00</totfact>
</mgrwt>
</event>
<event>
12    1  0.2019083E-007  0.2030396E+04  0.7818608E-02  0.8592540E-01
         -2   -1    0    0    0  501 -0.00000000000E+00  0.00000000000E+00  0.61130156688E+03  0.61130156688E+03  0.00000000000E+00 0. -1.
          2   -1    0    0  501    0  0.00000000000E+00 -0.00000000000E+00 -0.16859545223E+04  0.16859545223E+04  0.00000000000E+00 0.  1.
         23    2    1    2    0    0  0.64287660748E+03 -0.11888047749E+03  0.11457817257E+03  0.67001274244E+03  0.91465933744E+02 0.  0.
        254    2    1    2    0    0 -0.64287660748E+03  0.11888047749E+03 -0.11892311280E+04  0.16272433467E+04  0.89790162787E+03 0.  0.
        -24    2    4    4    0    0 -0.67210293203E+03  0.26736667812E+03 -0.42167812672E+03  0.84093223863E+03  0.78404691111E+02 0.  0.
         24    2    4    4    0    0  0.29226324557E+02 -0.14848620063E+03 -0.76755300124E+03  0.78631110808E+03  0.79026699048E+02 0.  0.
         13    1    3    3    0    0  0.35394662821E+03 -0.55238630021E+02  0.17581876966E+02  0.35866229836E+03  0.00000000000E+00 0.  1.
        -13    1    3    3    0    0  0.28892997926E+03 -0.63641847467E+02  0.96996295604E+02  0.31135044408E+03  0.00000000000E+00 0. -1.
          4    1    6    6  502    0 -0.14145380749E+02 -0.11326578674E+03 -0.54788880990E+03  0.55965290874E+03  0.00000000000E+00 0. -1.
          3    1    5    5  503    0 -0.60402491173E+03  0.24379888549E+03 -0.35061720701E+03  0.73974077649E+03  0.00000000000E+00 0. -1.
         -4    1    5    5    0  503 -0.68078020301E+02  0.23567792636E+02 -0.71060919718E+02  0.10119146213E+03  0.00000000000E+00 0.  1.
         -3    1    6    6    0  502  0.43371705306E+02 -0.35220413889E+02 -0.21966419133E+03  0.22665819934E+03  0.00000000000E+00 0.  1.
<mgrwt>
<rscale>  0 0.20303957E+04</rscale>
<asrwt>0</asrwt>
<pdfrwt beam="1">  1        2 0.25937761E+00 0.20303957E+04</pdfrwt>
<pdfrwt beam="2">  1       -2 0.94046397E-01 0.20303957E+04</pdfrwt>
<totfact> 0.88306779E+00</totfact>
</mgrwt>
</event>
<event>
12    1  0.2019083E-007  0.1846212E+04  0.7818608E-02  0.8682103E-01
         -3   -1    0    0    0  501 -0.00000000000E+00  0.00000000000E+00  0.67511132045E+03  0.67511132045E+03  0.00000000000E+00 0.  1.
          3   -1    0    0  501    0  0.00000000000E+00 -0.00000000000E+00 -0.12621984736E+04  0.12621984736E+04  0.00000000000E+00 0. -1.
         23    2    1    2    0    0  0.32934097644E+03  0.61450220177E+03 -0.13752524552E+03  0.71592697631E+03  0.86947153549E+02 0.  0.
        254    2    1    2    0    0 -0.32934097644E+03 -0.61450220177E+03 -0.44956190758E+03  0.12213828177E+04  0.89643273250E+03 0.  0.
        -24    2    4    4    0    0 -0.23260640317E+03 -0.25440706741E+03  0.24428845162E+03  0.42963503086E+03  0.77978954864E+02 0.  0.
         24    2    4    4    0    0 -0.96734573266E+02 -0.36009513436E+03 -0.69385035920E+03  0.79174778684E+03  0.80063434568E+02 0.  0.
         13    1    3    3    0    0  0.17904433573E+03  0.33530011591E+03 -0.11899939653E+03  0.39830126570E+03  0.00000000000E+00 0. -1.
        -13    1    3    3    0    0  0.15029664070E+03  0.27920208586E+03 -0.18525848989E+02  0.31762571060E+03  0.00000000000E+00 0.  1.
          4    1    6    6  502    0 -0.10906395365E+03 -0.29780855085E+03 -0.55915495308E+03  0.64283679150E+03  0.00000000000E+00 0. -1.
          1    1    5    5  503    0 -0.86173685198E+02 -0.81857688751E+02  0.12986387269E+03  0.17604320680E+03  0.00000000000E+00 0. -1.
         -2    1    5    5    0  503 -0.14643271797E+03 -0.17254937866E+03  0.11442457893E+03  0.25359182406E+03  0.00000000000E+00 0.  1.
         -3    1    6    6    0  502  0.12329380383E+02 -0.62286583504E+02 -0.13469540612E+03  0.14891099535E+03  0.00000000000E+00 0.  1.
<mgrwt>
<rscale>  0 0.18462118E+04</rscale>
<asrwt>0</asrwt>
<pdfrwt beam="1">  1        3 0.19418438E+00 0.18462118E+04</pdfrwt>
<pdfrwt beam="2">  1       -3 0.10386328E+00 0.18462118E+04</pdfrwt>
<totfact> 0.31534004E-01</totfact>
</mgrwt>
</event>
<event>
12    1  0.2019083E-007  0.1500287E+04  0.7818608E-02  0.8884262E-01
         -2   -1    0    0    0  501 -0.00000000000E+00  0.00000000000E+00  0.60342733124E+03  0.60342733124E+03  0.00000000000E+00 0.  1.
          2   -1    0    0  501    0  0.00000000000E+00 -0.00000000000E+00 -0.93253213633E+03  0.93253213633E+03  0.00000000000E+00 0. -1.
         23    2    1    2    0    0  0.35123922434E+03  0.10236526475E+03 -0.41956042079E+03  0.56419015328E+03  0.91825607667E+02 0.  0.
        254    2    1    2    0    0 -0.35123922434E+03 -0.10236526475E+03  0.90455615702E+02  0.97176931429E+03  0.89571521236E+03 0.  0.
        -24    2    4    4    0    0 -0.43155981431E+03 -0.34718929217E+03  0.29559181630E+03  0.63284801838E+03  0.79610392419E+02 0.  0.
         24    2    4    4    0    0  0.80320589968E+02  0.24482402742E+03 -0.20513620060E+03  0.33892129592E+03  0.79978637500E+02 0.  0.
         13    1    3    3    0    0  0.10850274871E+03  0.48581801983E+02 -0.79813866871E+02  0.14318970391E+03  0.00000000000E+00 0.  1.
        -13    1    3    3    0    0  0.24273647562E+03  0.53783462768E+02 -0.33974655392E+03  0.42100044936E+03  0.00000000000E+00 0. -1.
          4    1    6    6  502    0  0.91428462534E+02  0.24113510086E+03 -0.19342508383E+03  0.32236402355E+03  0.00000000000E+00 0. -1.
          1    1    5    5  503    0 -0.34346754502E+03 -0.29473566978E+03  0.20843062407E+03  0.49827943423E+03  0.00000000000E+00 0. -1.
         -2    1    5    5    0  503 -0.88092269289E+02 -0.52453622386E+02  0.87161192229E+02  0.13456858415E+03  0.00000000000E+00 0.  1.
         -3    1    6    6    0  502 -0.11107872566E+02  0.36889265568E+01 -0.11711116769E+02  0.16557272362E+02  0.00000000000E+00 0.  1.
<mgrwt>
<rscale>  0 0.15002871E+04</rscale>
<asrwt>0</asrwt>
<pdfrwt beam="1">  1        2 0.14346648E+00 0.15002871E+04</pdfrwt>
<pdfrwt beam="2">  1       -2 0.92834974E-01 0.15002871E+04</pdfrwt>
<totfact> 0.26502073E+01</totfact>
</mgrwt>
</event>
<event>
12    1  0.2019083E-007  0.1867577E+04  0.7818608E-02  0.8671166E-01
         -2   -1    0    0    0  501 -0.00000000000E+00  0.00000000000E+00  0.35736290449E+03  0.35736290449E+03  0.00000000000E+00 0.  1.
          2   -1    0    0  501    0  0.00000000000E+00 -0.00000000000E+00 -0.24399868383E+04  0.24399868383E+04  0.00000000000E+00 0. -1.
         23    2    1    2    0    0  0.30562674760E+03 -0.58868346105E+03 -0.11928573429E+04  0.13680010215E+04  0.92532308474E+02 0.  0.
        254    2    1    2    0    0 -0.30562674760E+03  0.58868346105E+03 -0.88976659092E+03  0.14293487213E+04  0.90077591812E+03 0.  0.
        -24    2    4    4    0    0 -0.41556017728E+02  0.30896005942E+03 -0.97536777136E+03  0.10271702620E+04  0.80952064593E+02 0.  0.
         24    2    4    4    0    0 -0.26407072987E+03  0.27972340163E+03  0.85601180439E+02  0.40217845934E+03  0.80258452978E+02 0.  0.
         11    1    3    3    0    0  0.61296993867E+02 -0.11949040857E+03 -0.17195131002E+03  0.21818004541E+03  0.00000000000E+00 0.  1.
        -11    1    3    3    0    0  0.24432975373E+03 -0.46919305248E+03 -0.10209060329E+04  0.11498209760E+04  0.00000000000E+00 0. -1.
          4    1    6    6  502    0 -0.15824947299E+03  0.11565200756E+03  0.24089953299E+02  0.19748065324E+03  0.00000000000E+00 0. -1.
          1    1    5    5  503    0  0.17262149680E+02  0.90737565528E+02 -0.21696687798E+03  0.23580906206E+03  0.00000000000E+00 0. -1.
         -2    1    5    5    0  503 -0.58818167408E+02  0.21822249389E+03 -0.75840089338E+03  0.79136119992E+03  0.00000000000E+00 0.  1.
         -3    1    6    6    0  502 -0.10582125688E+03  0.16407139406E+03  0.61511227140E+02  0.20469780610E+03  0.00000000000E+00 0.  1.
<mgrwt>
<rscale>  0 0.18675768E+04</rscale>
<asrwt>0</asrwt>
<pdfrwt beam="1">  1        2 0.37538259E+00 0.18675768E+04</pdfrwt>
<pdfrwt beam="2">  1       -2 0.54978909E-01 0.18675768E+04</pdfrwt>
<totfact> 0.11024401E+01</totfact>
</mgrwt>
</event>
<event>
12    1  0.2019083E-007  0.2673415E+04  0.7818608E-02  0.8343683E-01
         -1   -1    0    0    0  501 -0.00000000000E+00  0.00000000000E+00  0.90065900316E+03  0.90065900316E+03  0.00000000000E+00 0.  1.
          1   -1    0    0  501    0  0.00000000000E+00 -0.00000000000E+00 -0.19838667701E+04  0.19838667701E+04  0.00000000000E+00 0. -1.
         23    2    1    2    0    0  0.81549193514E+03  0.60516477070E+03  0.17499512007E+03  0.10344144084E+04  0.90212971372E+02 0.  0.
        254    2    1    2    0    0 -0.81549193514E+03 -0.60516477070E+03 -0.12582028870E+04  0.18501113649E+04  0.89921413561E+03 0.  0.
        -24    2    4    4    0    0  0.16925537884E+03 -0.16909706272E+03 -0.11370543916E+03  0.27654700787E+03  0.79423678990E+02 0.  0.
         24    2    4    4    0    0 -0.98474731397E+03 -0.43606770798E+03 -0.11444974479E+04  0.15735643570E+04  0.79674708864E+02 0.  0.
         11    1    3    3    0    0  0.72602039077E+03  0.55157141485E+03  0.18245587808E+03  0.92985309643E+03  0.00000000000E+00 0. -1.
        -11    1    3    3    0    0  0.89471544368E+02  0.53593355849E+02 -0.74607580055E+01  0.10456131193E+03  0.00000000000E+00 0.  1.
          2    1    6    6  502    0 -0.20415435784E+03 -0.66986905190E+02 -0.19475774783E+03  0.28999453035E+03  0.00000000000E+00 0. -1.
          3    1    5    5  503    0  0.11662807277E+03 -0.12128927466E+03 -0.11768415627E+03  0.20533571570E+03  0.00000000000E+00 0. -1.
         -4    1    5    5    0  503  0.52627306064E+02 -0.47807788056E+02  0.39787171142E+01  0.71211292168E+02  0.00000000000E+00 0.  1.
         -1    1    6    6    0  502 -0.78059295614E+03 -0.36908080279E+03 -0.94973970004E+03  0.12835698267E+04  0.00000000000E+00 0.  1.
<mgrwt>
<rscale>  0 0.26734154E+04</rscale>
<asrwt>0</asrwt>
<pdfrwt beam="1">  1        1 0.30521027E+00 0.26734154E+04</pdfrwt>
<pdfrwt beam="2">  1       -1 0.13856293E+00 0.26734154E+04</pdfrwt>
<totfact> 0.11515585E+00</totfact>
</mgrwt>
</event>
<event>
12    1  0.2019083E-007  0.2027353E+04  0.7818608E-02  0.8593938E-01
          2   -1    0    0  501    0  0.00000000000E+00  0.00000000000E+00  0.10790126430E+04  0.10790126430E+04  0.00000000000E+00 0. -1.
         -2   -1    0    0    0  501 -0.00000000000E+00 -0.00000000000E+00 -0.95229625936E+03  0.95229625936E+03  0.00000000000E+00 0.  1.
         23    2    1    2    0    0  0.64049905214E+03 -0.30091386032E+03  0.44568557412E+03  0.84131313597E+03  0.91564046792E+02 0.  0.
        254    2    1    2    0    0 -0.64049905214E+03  0.30091386032E+03 -0.31896919046E+03  0.11899957664E+04  0.90197582700E+03 0.  0.
        -24    2    4    4    0    0  0.17841211130E+03  0.15061989904E+03  0.85105413071E+02  0.26115806365E+03  0.80270588802E+02 0.  0.
         24    2    4    4    0    0 -0.81891116344E+03  0.15029396128E+03 -0.40407460353E+03  0.92883770276E+03  0.79116524513E+02 0.  0.
         11    1    3    3    0    0  0.14580000366E+03 -0.29971796409E+02  0.10821645618E+03  0.18402921245E+03  0.00000000000E+00 0. -1.
        -11    1    3    3    0    0  0.49469904848E+03 -0.27094206391E+03  0.33746911794E+03  0.65728392352E+03  0.00000000000E+00 0.  1.
          2    1    6    6  502    0 -0.71804172722E+03  0.11496830317E+03 -0.37444254825E+03  0.81792961476E+03  0.00000000000E+00 0. -1.
          1    1    5    5  503    0  0.16593725683E+03  0.13338869673E+03  0.99970641334E+02  0.23520596665E+03  0.00000000000E+00 0. -1.
         -2    1    5    5    0  503  0.12474854480E+02  0.17231202313E+02 -0.14865228263E+02  0.25952097001E+02  0.00000000000E+00 0.  1.
         -1    1    6    6    0  502 -0.10086943622E+03  0.35325658106E+02 -0.29632055280E+02  0.11090808800E+03  0.00000000000E+00 0.  1.
<mgrwt>
<rscale>  0 0.20273527E+04</rscale>
<asrwt>0</asrwt>
<pdfrwt beam="1">  1        2 0.16600195E+00 0.20273527E+04</pdfrwt>
<pdfrwt beam="2">  1       -2 0.14650712E+00 0.20273527E+04</pdfrwt>
<totfact> 0.66360510E+00</totfact>
</mgrwt>
</event>
<event>
12    1  0.2019083E-007  0.1692300E+04  0.7818608E-02  0.8765768E-01
         -2   -1    0    0    0  501 -0.00000000000E+00  0.00000000000E+00  0.29675442611E+03  0.29675442611E+03  0.00000000000E+00 0. -1.
          2   -1    0    0  501    0  0.00000000000E+00 -0.00000000000E+00 -0.24126667705E+04  0.24126667705E+04  0.00000000000E+00 0.  1.
         23    2    1    2    0    0 -0.31009139991E+03 -0.49207612072E+03 -0.50954699582E+03  0.77842197781E+03  0.89482119478E+02 0.  0.
        254    2    1    2    0    0  0.31009139991E+03  0.49207612072E+03 -0.16063653486E+04  0.19309992188E+04  0.90002931344E+03 0.  0.
        -24    2    4    4    0    0  0.84478060299E+02 -0.16466885204E+03 -0.95196070655E+03  0.97315690440E+03  0.80949368553E+02 0.  0.
         24    2    4    4    0    0  0.22561333961E+03  0.65674497276E+03 -0.65440464207E+03  0.95784231444E+03  0.83672728591E+02 0.  0.
         13    1    3    3    0    0 -0.20839549536E+03 -0.36873163591E+03 -0.32239139275E+03  0.53228555488E+03  0.00000000000E+00 0. -1.
        -13    1    3    3    0    0 -0.10169590455E+03 -0.12334448481E+03 -0.18715560307E+03  0.24613642294E+03  0.00000000000E+00 0.  1.
          2    1    6    6  502    0  0.23172306192E+02  0.13378175779E+03 -0.16372990903E+03  0.21270166338E+03  0.00000000000E+00 0. -1.
          3    1    5    5  503    0  0.70997898545E+02 -0.81697681308E+02 -0.38226222999E+03  0.39729035378E+03  0.00000000000E+00 0. -1.
         -4    1    5    5    0  503  0.13480161754E+02 -0.82971170732E+02 -0.56969847656E+03  0.57586655062E+03  0.00000000000E+00 0.  1.
         -1    1    6    6    0  502  0.20244103342E+03  0.52296321497E+03 -0.49067473304E+03  0.74514065106E+03  0.00000000000E+00 0.  1.
<mgrwt>
<rscale>  0 0.16922997E+04</rscale>
<asrwt>0</asrwt>
<pdfrwt beam="1">  1        2 0.37117951E+00 0.16922997E+04</pdfrwt>
<pdfrwt beam="2">  1       -2 0.45654526E-01 0.16922997E+04</pdfrwt>
<totfact> 0.16956373E+01</totfact>
</mgrwt>
</event>
<event>
12    1  0.2019083E-007  0.1971193E+04  0.7818608E-02  0.8620209E-01
         -2   -1    0    0    0  501 -0.00000000000E+00  0.00000000000E+00  0.51733821389E+03  0.51733821389E+03  0.00000000000E+00 0.  1.
          2   -1    0    0  501    0  0.00000000000E+00 -0.00000000000E+00 -0.18776886131E+04  0.18776886131E+04  0.00000000000E+00 0. -1.
         23    2    1    2    0    0  0.36852836594E+03  0.68080742824E+03 -0.47689074101E+03  0.91372388619E+03  0.90303103409E+02 0.  0.
        254    2    1    2    0    0 -0.36852836594E+03 -0.68080742824E+03 -0.88345965819E+03  0.14813029408E+04  0.90246635610E+03 0.  0.
        -24    2    4    4    0    0 -0.36970193174E+03 -0.59484367442E+03 -0.12758833174E+03  0.71638849475E+03  0.80094804336E+02 0.  0.
         24    2    4    4    0    0  0.11735657957E+01 -0.85963753820E+02 -0.75587132646E+03  0.76491444605E+03  0.79759033235E+02 0.  0.
         11    1    3    3    0    0  0.11616488290E+03  0.13526194714E+03 -0.10669285171E+03  0.20778219117E+03  0.00000000000E+00 0. -1.
        -11    1    3    3    0    0  0.25236348304E+03  0.54554548110E+03 -0.37019788930E+03  0.70594169502E+03  0.00000000000E+00 0.  1.
          4    1    6    6  502    0 -0.27870371361E+02 -0.25927203596E+02 -0.46222364887E+03  0.46378839901E+03  0.00000000000E+00 0. -1.
          1    1    5    5  503    0 -0.16981591307E+03 -0.33039633819E+03 -0.40746905545E+02  0.37371044263E+03  0.00000000000E+00 0. -1.
         -2    1    5    5    0  503 -0.19988601866E+03 -0.26444733623E+03 -0.86841426193E+02  0.34267805212E+03  0.00000000000E+00 0.  1.
         -3    1    6    6    0  502  0.29043937157E+02 -0.60036550224E+02 -0.29364767759E+03  0.30112604703E+03  0.00000000000E+00 0.  1.
<mgrwt>
<rscale>  0 0.19711926E+04</rscale>
<asrwt>0</asrwt>
<pdfrwt beam="1">  1        2 0.28887518E+00 0.19711926E+04</pdfrwt>
<pdfrwt beam="2">  1       -2 0.79590493E-01 0.19711926E+04</pdfrwt>
<totfact> 0.10173232E+01</totfact>
</mgrwt>
</event>
<event>
12    1  0.2019083E-007  0.4136470E+04  0.7818608E-02  0.7977568E-01
          1   -1    0    0  501    0  0.00000000000E+00  0.00000000000E+00  0.29196716571E+04  0.29196716571E+04  0.00000000000E+00 0. -1.
         -1   -1    0    0    0  501 -0.00000000000E+00 -0.00000000000E+00 -0.14650951351E+04  0.14650951351E+04  0.00000000000E+00 0.  1.
         23    2    1    2    0    0  0.34866316818E+03 -0.16489798325E+04  0.17726235341E+04  0.24477709682E+04  0.93209581552E+02 0.  0.
        254    2    1    2    0    0 -0.34866316818E+03  0.16489798325E+04 -0.31804701210E+03  0.19369958241E+04  0.90005468047E+03 0.  0.
        -24    2    4    4    0    0  0.22044224736E+03  0.45519375205E+03 -0.33512170985E+03  0.61195981741E+03  0.79950743522E+02 0.  0.
         24    2    4    4    0    0 -0.56910541553E+03  0.11937860804E+04  0.17074697753E+02  0.13250360067E+04  0.80141711035E+02 0.  0.
         13    1    3    3    0    0  0.25365311102E+03 -0.10871691710E+04  0.11186728899E+04  0.15804131554E+04  0.00000000000E+00 0. -1.
        -13    1    3    3    0    0  0.95010057154E+02 -0.56181066143E+03  0.65395064423E+03  0.86735781275E+03  0.00000000000E+00 0.  1.
          4    1    6    6  502    0 -0.38771313150E+03  0.87905667324E+03 -0.94657627142E+01  0.96080784123E+03  0.00000000000E+00 0. -1.
          3    1    5    5  503    0  0.15560385284E+03  0.25546037665E+03 -0.22874504460E+03  0.37655923636E+03  0.00000000000E+00 0. -1.
         -4    1    5    5    0  503  0.64838394518E+02  0.19973337539E+03 -0.10637666525E+03  0.23540058105E+03  0.00000000000E+00 0.  1.
         -3    1    6    6    0  502 -0.18139228403E+03  0.31472940718E+03  0.26540460467E+02  0.36422816542E+03  0.00000000000E+00 0.  1.
<mgrwt>
<rscale>  0 0.41364704E+04</rscale>
<asrwt>0</asrwt>
<pdfrwt beam="1">  1        1 0.44918025E+00 0.41364704E+04</pdfrwt>
<pdfrwt beam="2">  1       -1 0.22539925E+00 0.41364704E+04</pdfrwt>
<totfact> 0.53579416E-02</totfact>
</mgrwt>
</event>
<event>
12    1  0.2019083E-007  0.3437275E+04  0.7818608E-02  0.8128818E-01
         -1   -1    0    0    0  501 -0.00000000000E+00  0.00000000000E+00  0.12387633540E+04  0.12387633540E+04  0.00000000000E+00 0.  1.
          1   -1    0    0  501    0  0.00000000000E+00 -0.00000000000E+00 -0.23844065817E+04  0.23844065817E+04  0.00000000000E+00 0. -1.
         23    2    1    2    0    0 -0.63793725445E+03  0.14487869097E+04 -0.72624582210E+03  0.17440400523E+04  0.91078315285E+02 0.  0.
        254    2    1    2    0    0  0.63793725445E+03 -0.14487869097E+04 -0.41939740561E+03  0.18791298834E+04  0.92156794894E+03 0.  0.
        -24    2    4    4    0    0  0.57615452014E+03 -0.34150114938E+03 -0.36365386883E+03  0.76575880638E+03  0.74601254245E+02 0.  0.
         24    2    4    4    0    0  0.61782734305E+02 -0.11072857603E+04 -0.55743536785E+02  0.11133710770E+04  0.81172359762E+02 0.  0.
         13    1    3    3    0    0 -0.18774433347E+03  0.52828208009E+03 -0.27278118539E+03  0.62348974811E+03  0.00000000000E+00 0. -1.
        -13    1    3    3    0    0 -0.45019292098E+03  0.92050482957E+03 -0.45346463671E+03  0.11205503041E+04  0.00000000000E+00 0.  1.
          4    1    6    6  502    0  0.61624462716E+02 -0.59215406538E+03 -0.58623263639E+02  0.59823130861E+03  0.00000000000E+00 0. -1.
          1    1    5    5  503    0  0.98911426030E+02 -0.28986887295E+02 -0.64904489124E+02  0.12180436176E+03  0.00000000000E+00 0. -1.
         -2    1    5    5    0  503  0.47724309411E+03 -0.31251426208E+03 -0.29874937970E+03  0.64395444463E+03  0.00000000000E+00 0.  1.
         -3    1    6    6    0  502  0.15827158972E+00 -0.51513169490E+03  0.28797268543E+01  0.51513976838E+03  0.00000000000E+00 0.  1.
<mgrwt>
<rscale>  0 0.34372754E+04</rscale>
<asrwt>0</asrwt>
<pdfrwt beam="1">  1        1 0.36683178E+00 0.34372754E+04</pdfrwt>
<pdfrwt beam="2">  1       -1 0.19057898E+00 0.34372754E+04</pdfrwt>
<totfact> 0.23377563E-01</totfact>
</mgrwt>
</event>
<event>
12    1  0.2019083E-007  0.1429503E+04  0.7818608E-02  0.8932736E-01
         -2   -1    0    0    0  501 -0.00000000000E+00  0.00000000000E+00  0.39800153758E+03  0.39800153758E+03  0.00000000000E+00 0. -1.
          2   -1    0    0  501    0  0.00000000000E+00 -0.00000000000E+00 -0.12835866811E+04  0.12835866811E+04  0.00000000000E+00 0.  1.
         23    2    1    2    0    0  0.39377945617E+03  0.62109024457E+02 -0.96364465997E+02  0.42007111610E+03  0.90850653570E+02 0.  0.
        254    2    1    2    0    0 -0.39377945617E+03 -0.62109024457E+02 -0.78922067753E+03  0.12615171026E+04  0.89979793914E+03 0.  0.
        -24    2    4    4    0    0  0.10194727956E+01  0.27996184034E+03 -0.65423151394E+03  0.71608636463E+03  0.79882015589E+02 0.  0.
         24    2    4    4    0    0 -0.39479892896E+03 -0.34207086480E+03 -0.13498916359E+03  0.54543073796E+03  0.79962145831E+02 0.  0.
         13    1    3    3    0    0  0.36591055438E+03  0.79625655467E+02 -0.78478811763E+02  0.38260907296E+03  0.00000000000E+00 0. -1.
        -13    1    3    3    0    0  0.27868901792E+02 -0.17516631010E+02 -0.17885654234E+02  0.37462043143E+02  0.00000000000E+00 0.  1.
          2    1    6    6  502    0 -0.23335583117E+03 -0.24107294343E+03 -0.60387605020E+02  0.34090727601E+03  0.00000000000E+00 0. -1.
          3    1    5    5  503    0 -0.29952994860E+02  0.44513881887E+02 -0.11858942212E+03  0.13016189389E+03  0.00000000000E+00 0. -1.
         -4    1    5    5    0  503  0.30972467656E+02  0.23544795846E+03 -0.53564209182E+03  0.58592447075E+03  0.00000000000E+00 0.  1.
         -1    1    6    6    0  502 -0.16144309779E+03 -0.10099792137E+03 -0.74601558572E+02  0.20452346195E+03  0.00000000000E+00 0.  1.
<mgrwt>
<rscale>  0 0.14295027E+04</rscale>
<asrwt>0</asrwt>
<pdfrwt beam="1">  1        2 0.19747487E+00 0.14295027E+04</pdfrwt>
<pdfrwt beam="2">  1       -2 0.61231007E-01 0.14295027E+04</pdfrwt>
<totfact> 0.40718665E+01</totfact>
</mgrwt>
</event>
<event>
12    1  0.2019083E-007  0.2684091E+04  0.7818608E-02  0.8340185E-01
          2   -1    0    0  501    0  0.00000000000E+00  0.00000000000E+00  0.14529212543E+04  0.14529212543E+04  0.00000000000E+00 0. -1.
         -2   -1    0    0    0  501 -0.00000000000E+00 -0.00000000000E+00 -0.12396307635E+04  0.12396307635E+04  0.00000000000E+00 0.  1.
         23    2    1    2    0    0 -0.10438190403E+04 -0.42438752568E+03  0.47708642238E+03  0.12269724728E+04  0.90482229469E+02 0.  0.
        254    2    1    2    0    0  0.10438190403E+04  0.42438752568E+03 -0.26379593162E+03  0.14655795450E+04  0.89926200203E+03 0.  0.
        -24    2    4    4    0    0  0.31467499963E+02 -0.36785813402E+02 -0.33559691850E+03  0.34794574059E+03  0.78086791896E+02 0.  0.
         24    2    4    4    0    0  0.10123515403E+04  0.46117333909E+03  0.71800986880E+02  0.11176338044E+04  0.80084012866E+02 0.  0.
         13    1    3    3    0    0 -0.20005447818E+03 -0.85072339399E+02  0.54326201105E+02  0.22407684685E+03  0.00000000000E+00 0.  1.
        -13    1    3    3    0    0 -0.84376456210E+03 -0.33931518628E+03  0.42276022127E+03  0.10028956260E+04  0.00000000000E+00 0. -1.
          2    1    6    6  502    0  0.35443452895E+03  0.15776296826E+03  0.63200813736E+02  0.39307420715E+03  0.00000000000E+00 0. -1.
          3    1    5    5  503    0  0.57465951069E+02 -0.22248377716E+02 -0.24205210439E+03  0.24977299110E+03  0.00000000000E+00 0. -1.
         -4    1    5    5    0  503 -0.25998451106E+02 -0.14537435686E+02 -0.93544814111E+02  0.98172749494E+02  0.00000000000E+00 0.  1.
         -1    1    6    6    0  502  0.65791701136E+03  0.30341037083E+03  0.86001731438E+01  0.72455959723E+03  0.00000000000E+00 0.  1.
<mgrwt>
<rscale>  0 0.26840908E+04</rscale>
<asrwt>0</asrwt>
<pdfrwt beam="1">  1        2 0.22352635E+00 0.26840908E+04</pdfrwt>
<pdfrwt beam="2">  1       -2 0.19071243E+00 0.26840908E+04</pdfrwt>
<totfact> 0.18180098E+00</totfact>
</mgrwt>
</event>
<event>
12    1  0.2853340E-007  0.2384218E+04  0.7818608E-02  0.8445436E-01
         -2   -1    0    0    0  501 -0.00000000000E+00  0.00000000000E+00  0.66447180237E+03  0.66447180237E+03  0.00000000000E+00 0. -1.
          2   -1    0    0  501    0  0.00000000000E+00 -0.00000000000E+00 -0.21387270786E+04  0.21387270786E+04  0.00000000000E+00 0.  1.
         23    2    1    2    0    0  0.44020647646E+03 -0.88368922160E+03 -0.92930168195E+03  0.13587804838E+04  0.89411435369E+02 0.  0.
        254    2    1    2    0    0 -0.44020647646E+03  0.88368922160E+03 -0.54495359424E+03  0.14444183971E+04  0.90259719909E+03 0.  0.
        -24    2    4    4    0    0  0.11993258332E+03 -0.10273701437E+03  0.13738907028E+02  0.17742297535E+03  0.79695896702E+02 0.  0.
         24    2    4    4    0    0 -0.56013905978E+03  0.98642623597E+03 -0.55869250127E+03  0.12669954218E+04  0.79671842923E+02 0.  0.
         11    1    3    3    0    0  0.14380847009E+03 -0.38745803665E+03 -0.38491301351E+03  0.56476777016E+03  0.00000000000E+00 0.  1.
        -11    1    3    3    0    0  0.29639800637E+03 -0.49623118495E+03 -0.54438866844E+03  0.79401271364E+03  0.00000000000E+00 0. -1.
          4    1    6    6  502    0 -0.20003627960E+03  0.41492671298E+03 -0.19994612223E+03  0.50215250880E+03  0.00000000000E+00 0. -1.
          3    1    5    5  503    0  0.53013763677E+02 -0.87711907752E+02 -0.14001964715E+02  0.10344028672E+03  0.00000000000E+00 0. -1.
         -4    1    5    5    0  503  0.66918819644E+02 -0.15025106615E+02  0.27740871743E+02  0.73982688627E+02  0.00000000000E+00 0.  1.
         -3    1    6    6    0  502 -0.36010278019E+03  0.57149952299E+03 -0.35874637904E+03  0.76484291299E+03  0.00000000000E+00 0.  1.
<mgrwt>
<rscale>  0 0.23842180E+04</rscale>
<asrwt>0</asrwt>
<pdfrwt beam="1">  1        2 0.32903492E+00 0.23842180E+04</pdfrwt>
<pdfrwt beam="2">  1       -2 0.10222643E+00 0.23842180E+04</pdfrwt>
<totfact> 0.39443075E+00</totfact>
</mgrwt>
</event>
<event>
12    1  0.2019083E-007  0.3313320E+04  0.7818608E-02  0.8159514E-01
          1   -1    0    0  501    0  0.00000000000E+00  0.00000000000E+00  0.54726586491E+04  0.54726586491E+04  0.00000000000E+00 0. -1.
         -1   -1    0    0    0  501 -0.00000000000E+00 -0.00000000000E+00 -0.50149714899E+03  0.50149714899E+03  0.00000000000E+00 0.  1.
         23    2    1    2    0    0 -0.13880815367E+03  0.77298416974E+03  0.46782565850E+04  0.47446208069E+04  0.92572652497E+02 0.  0.
        254    2    1    2    0    0  0.13880815367E+03 -0.77298416974E+03  0.29290491511E+03  0.12295349912E+04  0.89955031826E+03 0.  0.
        -24    2    4    4    0    0  0.69368507247E+02  0.42927257748E+02 -0.22949988427E+03  0.25501153693E+03  0.75537724566E+02 0.  0.
         24    2    4    4    0    0  0.69439646425E+02 -0.81591142748E+03  0.52240479938E+03  0.97452345426E+03  0.79094035718E+02 0.  0.
         13    1    3    3    0    0 -0.12427608573E+03  0.65543602033E+03  0.37552206572E+04  0.38140166631E+04  0.00000000000E+00 0.  1.
        -13    1    3    3    0    0 -0.14532067947E+02  0.11754814940E+03  0.92303592784E+03  0.93060414383E+03  0.00000000000E+00 0. -1.
          2    1    6    6  502    0 -0.47868654340E+01 -0.12517269627E+03  0.10941773400E+03  0.16632305458E+03  0.00000000000E+00 0. -1.
          1    1    5    5  503    0  0.35286418641E+01 -0.18332384083E+02 -0.21948808480E+02  0.28814541698E+02  0.00000000000E+00 0. -1.
         -2    1    5    5    0  503  0.65839865383E+02  0.61259641832E+02 -0.20755107579E+03  0.22619699523E+03  0.00000000000E+00 0.  1.
         -1    1    6    6    0  502  0.74226511859E+02 -0.69073873121E+03  0.41298706539E+03  0.80820039968E+03  0.00000000000E+00 0.  1.
<mgrwt>
<rscale>  0 0.33133202E+04</rscale>
<asrwt>0</asrwt>
<pdfrwt beam="1">  1        1 0.84194744E+00 0.33133202E+04</pdfrwt>
<pdfrwt beam="2">  1       -1 0.77153412E-01 0.33133202E+04</pdfrwt>
<totfact> 0.23564013E-03</totfact>
</mgrwt>
</event>
<event>
12    1  0.2019083E-007  0.2176536E+04  0.7818608E-02  0.8528258E-01
          2   -1    0    0  501    0  0.00000000000E+00  0.00000000000E+00  0.66593568249E+03  0.66593568249E+03  0.00000000000E+00 0. -1.
         -2   -1    0    0    0  501 -0.00000000000E+00 -0.00000000000E+00 -0.17784416059E+04  0.17784416059E+04  0.00000000000E+00 0.  1.
         23    2    1    2    0    0 -0.52613105825E+02  0.80105609964E+03 -0.18493606915E+02  0.80806599174E+03  0.90385949345E+02 0.  0.
        254    2    1    2    0    0  0.52613105825E+02 -0.80105609964E+03 -0.10940123165E+04  0.16363112966E+04  0.91443572613E+03 0.  0.
        -24    2    4    4    0    0  0.80568108235E+02 -0.81632995610E+03 -0.36365119976E+03  0.90082181562E+03  0.79699003300E+02 0.  0.
         24    2    4    4    0    0 -0.27955002411E+02  0.15273856457E+02 -0.73036111672E+03  0.73548948102E+03  0.80638967172E+02 0.  0.
         11    1    3    3    0    0 -0.60140114038E+02  0.78435759173E+03 -0.74842727165E+01  0.78669541715E+03  0.00000000000E+00 0.  1.
        -11    1    3    3    0    0  0.75270082134E+01  0.16698507909E+02 -0.11009334198E+02  0.21370574595E+02  0.00000000000E+00 0. -1.
          4    1    6    6  502    0  0.21415098263E+02 -0.79457593275E+01 -0.91689583160E+02  0.94491910685E+02  0.00000000000E+00 0. -1.
          3    1    5    5  503    0  0.70817648886E+02 -0.32709032107E+03 -0.13917909643E+03  0.36245556750E+03  0.00000000000E+00 0. -1.
         -4    1    5    5    0  503  0.97504593493E+01 -0.48923963503E+03 -0.22447210334E+03  0.53836624812E+03  0.00000000000E+00 0.  1.
         -3    1    6    6    0  502 -0.49370100673E+02  0.23219615784E+02 -0.63867153356E+03  0.64099757033E+03  0.00000000000E+00 0.  1.
<mgrwt>
<rscale>  0 0.21765364E+04</rscale>
<asrwt>0</asrwt>
<pdfrwt beam="1">  1        2 0.10245164E+00 0.21765364E+04</pdfrwt>
<pdfrwt beam="2">  1       -2 0.27360640E+00 0.21765364E+04</pdfrwt>
<totfact> 0.18409445E+00</totfact>
</mgrwt>
</event>
<event>
12    1  0.2019083E-007  0.1242486E+04  0.7818608E-02  0.9076460E-01
         -2   -1    0    0    0  501 -0.00000000000E+00  0.00000000000E+00  0.39701965978E+03  0.39701965978E+03  0.00000000000E+00 0. -1.
          2   -1    0    0  501    0  0.00000000000E+00 -0.00000000000E+00 -0.97210077259E+03  0.97210077259E+03  0.00000000000E+00 0.  1.
         23    2    1    2    0    0 -0.20017474292E+03 -0.33937694275E+02 -0.35633204571E+03  0.42044768299E+03  0.92639260204E+02 0.  0.
        254    2    1    2    0    0  0.20017474292E+03  0.33937694275E+02 -0.21874906710E+03  0.94867274938E+03  0.90050382357E+03 0.  0.
        -24    2    4    4    0    0  0.96407191883E+02  0.26478769122E+03  0.26687287645E+03  0.39530530590E+03  0.75088511910E+02 0.  0.
         24    2    4    4    0    0  0.10376755104E+03 -0.23084999695E+03 -0.48562194355E+03  0.55336744348E+03  0.79545142579E+02 0.  0.
         13    1    3    3    0    0 -0.42089545917E+02  0.30258385823E+02 -0.97795990388E+02  0.11068493811E+03  0.00000000000E+00 0.  1.
        -13    1    3    3    0    0 -0.15808519700E+03 -0.64196080098E+02 -0.25853605532E+03  0.30976274488E+03  0.00000000000E+00 0. -1.
          4    1    6    6  502    0 -0.63374837414E+01 -0.16490058707E+02 -0.76802245649E+02  0.78807808452E+02  0.00000000000E+00 0. -1.
          1    1    5    5  503    0 -0.89375213124E+01  0.42003239040E+02  0.23505801723E+02  0.48955838177E+02  0.00000000000E+00 0. -1.
         -2    1    5    5    0  503  0.10534471320E+03  0.22278445218E+03  0.24336707473E+03  0.34634946773E+03  0.00000000000E+00 0.  1.
         -3    1    6    6    0  502  0.11010503478E+03 -0.21435993824E+03 -0.40881969790E+03  0.47455963503E+03  0.00000000000E+00 0.  1.
<mgrwt>
<rscale>  0 0.12424864E+04</rscale>
<asrwt>0</asrwt>
<pdfrwt beam="1">  1        2 0.14955396E+00 0.12424864E+04</pdfrwt>
<pdfrwt beam="2">  1       -2 0.61079948E-01 0.12424864E+04</pdfrwt>
<totfact> 0.64446260E+01</totfact>
</mgrwt>
</event>
<event>
12    1  0.2019083E-007  0.2007412E+04  0.7818608E-02  0.8603163E-01
          1   -1    0    0  501    0  0.00000000000E+00  0.00000000000E+00  0.43860730390E+04  0.43860730390E+04  0.00000000000E+00 0.  1.
         -1   -1    0    0    0  501 -0.00000000000E+00 -0.00000000000E+00 -0.22968732057E+03  0.22968732057E+03  0.00000000000E+00 0. -1.
         23    2    1    2    0    0  0.29259874620E+03  0.70697857522E+03  0.21945822340E+04  0.23259048557E+04  0.90606202650E+02 0.  0.
        254    2    1    2    0    0 -0.29259874620E+03 -0.70697857522E+03  0.19618034844E+04  0.22898555038E+04  0.89962913743E+03 0.  0.
        -24    2    4    4    0    0  0.25646388831E+03 -0.13165377687E+03  0.21604091896E+03  0.36985013288E+03  0.83719765615E+02 0.  0.
         24    2    4    4    0    0 -0.54906263451E+03 -0.57532479835E+03  0.17457625655E+04  0.19200053710E+04  0.79153580978E+02 0.  0.
         11    1    3    3    0    0  0.63010317650E+02  0.12427766842E+03  0.30724387947E+03  0.33736336563E+03  0.00000000000E+00 0. -1.
        -11    1    3    3    0    0  0.22958842855E+03  0.58270090679E+03  0.18873383545E+04  0.19885414901E+04  0.00000000000E+00 0.  1.
          2    1    6    6  502    0 -0.12589141662E+03 -0.18301979625E+03  0.49265051389E+03  0.54041597259E+03  0.00000000000E+00 0. -1.
          1    1    5    5  503    0  0.68633094079E+02 -0.19167630225E+02  0.97850393009E+02  0.12104792052E+03  0.00000000000E+00 0. -1.
         -2    1    5    5    0  503  0.18783079423E+03 -0.11248614664E+03  0.11819052595E+03  0.24880221235E+03  0.00000000000E+00 0.  1.
         -1    1    6    6    0  502 -0.42317121789E+03 -0.39230500209E+03  0.12531120516E+04  0.13795893984E+04  0.00000000000E+00 0.  1.
<mgrwt>
<rscale>  0 0.20074116E+04</rscale>
<asrwt>0</asrwt>
<pdfrwt beam="1">  1        1 0.67478040E+00 0.20074116E+04</pdfrwt>
<pdfrwt beam="2">  1       -1 0.35336514E-01 0.20074116E+04</pdfrwt>
<totfact> 0.30029261E-01</totfact>
</mgrwt>
</event>
<event>
12    1  0.2019083E-007  0.1215852E+04  0.7818608E-02  0.9099093E-01
         -2   -1    0    0    0  501 -0.00000000000E+00  0.00000000000E+00  0.17635569376E+03  0.17635569376E+03  0.00000000000E+00 0.  1.
          2   -1    0    0  501    0  0.00000000000E+00 -0.00000000000E+00 -0.20956175501E+04  0.20956175501E+04  0.00000000000E+00 0. -1.
         23    2    1    2    0    0 -0.20145192367E+03 -0.15872043566E+03 -0.47839782202E+03  0.55439881314E+03  0.11277638784E+03 0.  0.
        254    2    1    2    0    0  0.20145192367E+03  0.15872043566E+03 -0.14408640344E+04  0.17175744308E+04  0.89899816766E+03 0.  0.
        -24    2    4    4    0    0  0.65305029373E+02  0.31737281092E+03 -0.87602496249E+02  0.34565684453E+03  0.82548221317E+02 0.  0.
         24    2    4    4    0    0  0.13614689429E+03 -0.15865237526E+03 -0.13532615381E+04  0.13719175862E+04  0.84466087273E+02 0.  0.
         13    1    3    3    0    0  0.14600185290E+02 -0.72871542594E+01 -0.26720266665E+02  0.31308795543E+02  0.00000000000E+00 0. -1.
        -13    1    3    3    0    0 -0.21605210896E+03 -0.15143328140E+03 -0.45167755535E+03  0.52309001760E+03  0.00000000000E+00 0.  1.
          2    1    6    6  502    0  0.18365202281E+02 -0.19089486324E+02 -0.56991564654E+02  0.62846858193E+02  0.00000000000E+00 0. -1.
          3    1    5    5  503    0  0.30659576426E+02  0.10279464795E+03 -0.68912345896E+02  0.12749768896E+03  0.00000000000E+00 0. -1.
         -4    1    5    5    0  503  0.34645452947E+02  0.21457816298E+03 -0.18690150353E+02  0.21815915557E+03  0.00000000000E+00 0.  1.
         -1    1    6    6    0  502  0.11778169201E+03 -0.13956288894E+03 -0.12962699735E+04  0.13090707280E+04  0.00000000000E+00 0.  1.
<mgrwt>
<rscale>  0 0.12158521E+04</rscale>
<asrwt>0</asrwt>
<pdfrwt beam="1">  1        2 0.32240270E+00 0.12158521E+04</pdfrwt>
<pdfrwt beam="2">  1       -2 0.27131645E-01 0.12158521E+04</pdfrwt>
<totfact> 0.72100309E+01</totfact>
</mgrwt>
</event>
<event>
12    1  0.2561211E-007  0.2261567E+04  0.7818608E-02  0.8493231E-01
         -2   -1    0    0    0  501 -0.00000000000E+00  0.00000000000E+00  0.95953108551E+03  0.95953108551E+03  0.00000000000E+00 0.  1.
          2   -1    0    0  501    0  0.00000000000E+00 -0.00000000000E+00 -0.13325997081E+04  0.13325997081E+04  0.00000000000E+00 0. -1.
         23    2    1    2    0    0 -0.58855205326E+03  0.17720125259E+03  0.57998449787E+03  0.84925250322E+03  0.83988053492E+02 0.  0.
        254    2    1    2    0    0  0.58855205326E+03 -0.17720125259E+03 -0.95305312050E+03  0.14428782904E+04  0.89207270286E+03 0.  0.
        -24    2    4    4    0    0  0.55272307937E+03  0.27339755374E+03 -0.59749150920E+03  0.86225496588E+03  0.78984161482E+02 0.  0.
         24    2    4    4    0    0  0.35828973896E+02 -0.45059880633E+03 -0.35556161130E+03  0.58062332456E+03  0.79852275815E+02 0.  0.
         13    1    3    3    0    0 -0.26062189675E+03  0.11456675604E+03  0.23475369598E+03  0.36899676480E+03  0.00000000000E+00 0. -1.
        -13    1    3    3    0    0 -0.32793015651E+03  0.62634496546E+02  0.34523080190E+03  0.48025573842E+03  0.00000000000E+00 0.  1.
          2    1    6    6  502    0 -0.58934066203E+01 -0.98592413372E+01 -0.26906337360E+02  0.29255561377E+02  0.00000000000E+00 0. -1.
          3    1    5    5  503    0  0.13698191898E+01  0.64663617620E+01 -0.93195245988E-01  0.66105161980E+01  0.00000000000E+00 0. -1.
         -4    1    5    5    0  503  0.55135326018E+03  0.26693119197E+03 -0.59739831395E+03  0.85564444968E+03  0.00000000000E+00 0.  1.
         -1    1    6    6    0  502  0.41722380516E+02 -0.44073956499E+03 -0.32865527394E+03  0.55136776318E+03  0.00000000000E+00 0.  1.
<mgrwt>
<rscale>  0 0.22615666E+04</rscale>
<asrwt>0</asrwt>
<pdfrwt beam="1">  1        2 0.20501534E+00 0.22615666E+04</pdfrwt>
<pdfrwt beam="2">  1       -2 0.14762017E+00 0.22615666E+04</pdfrwt>
<totfact> 0.44992809E+00</totfact>
</mgrwt>
</event>
<event>
12    1  0.2019083E-007  0.1722933E+04  0.7818608E-02  0.8748392E-01
          1   -1    0    0  501    0  0.00000000000E+00  0.00000000000E+00  0.17924163552E+04  0.17924163552E+04  0.00000000000E+00 0. -1.
         -1   -1    0    0    0  501 -0.00000000000E+00 -0.00000000000E+00 -0.41403571344E+03  0.41403571344E+03  0.00000000000E+00 0.  1.
         23    2    1    2    0    0  0.19699873608E+03 -0.18615810695E+03  0.12169768065E+04  0.12502365470E+04  0.92712097886E+02 0.  0.
        254    2    1    2    0    0 -0.19699873608E+03  0.18615810695E+03  0.16140383529E+03  0.95621552167E+03  0.90268132972E+03 0.  0.
        -24    2    4    4    0    0  0.33025212293E+03 -0.75953858255E+02  0.68438057776E+02  0.35475246998E+03  0.79561887333E+02 0.  0.
         24    2    4    4    0    0 -0.52725085901E+03  0.26211196521E+03  0.92965777512E+02  0.60146305169E+03  0.80118762667E+02 0.  0.
         13    1    3    3    0    0  0.15576442194E+03 -0.14007154907E+03  0.73369858001E+03  0.76301782437E+03  0.00000000000E+00 0.  1.
        -13    1    3    3    0    0  0.41234314133E+02 -0.46086557884E+02  0.48327822645E+03  0.48721872259E+03  0.00000000000E+00 0. -1.
          2    1    6    6  502    0 -0.37447961275E+03  0.18051644181E+03  0.28624734057E+02  0.41670198167E+03  0.00000000000E+00 0. -1.
          3    1    5    5  503    0  0.24688689291E+03 -0.25595887498E+02  0.68002506811E+02  0.25735700550E+03  0.00000000000E+00 0. -1.
         -4    1    5    5    0  503  0.83365230021E+02 -0.50357970757E+02  0.43555096453E+00  0.97395464473E+02  0.00000000000E+00 0.  1.
         -1    1    6    6    0  502 -0.15277124626E+03  0.81595523397E+02  0.64341043455E+02  0.18476107002E+03  0.00000000000E+00 0.  1.
<mgrwt>
<rscale>  0 0.17229328E+04</rscale>
<asrwt>0</asrwt>
<pdfrwt beam="1">  1        1 0.27575636E+00 0.17229328E+04</pdfrwt>
<pdfrwt beam="2">  1       -1 0.63697803E-01 0.17229328E+04</pdfrwt>
<totfact> 0.97876089E+00</totfact>
</mgrwt>
</event>
<event>
12    1  0.2019083E-007  0.2611060E+04  0.7818608E-02  0.8364454E-01
         -2   -1    0    0    0  501 -0.00000000000E+00  0.00000000000E+00  0.20421396788E+04  0.20421396788E+04  0.00000000000E+00 0.  1.
          2   -1    0    0  501    0  0.00000000000E+00 -0.00000000000E+00 -0.83461908208E+03  0.83461908208E+03  0.00000000000E+00 0. -1.
         23    2    1    2    0    0 -0.88229011629E+03  0.16735076962E+03  0.13280422751E+04  0.16060102395E+04  0.95553522014E+02 0.  0.
        254    2    1    2    0    0  0.88229011629E+03 -0.16735076962E+03 -0.12052167833E+03  0.12707485214E+04  0.89097373717E+03 0.  0.
        -24    2    4    4    0    0  0.86656312708E+03  0.67376184349E+01  0.20367222193E+03  0.89409156592E+03  0.83308496285E+02 0.  0.
         24    2    4    4    0    0  0.15726989209E+02 -0.17408838806E+03 -0.32419390026E+03  0.37665695549E+03  0.78833191673E+02 0.  0.
         13    1    3    3    0    0 -0.99163800268E+02  0.34546983514E+01  0.19708811621E+03  0.22065611203E+03  0.00000000000E+00 0.  1.
        -13    1    3    3    0    0 -0.78312631602E+03  0.16389607127E+03  0.11309541589E+04  0.13853541275E+04  0.00000000000E+00 0. -1.
          2    1    6    6  502    0 -0.19355740258E+02 -0.51367399798E+02 -0.50173134486E+02  0.74367989533E+02  0.00000000000E+00 0. -1.
          3    1    5    5  503    0  0.61822963411E+03  0.11542800560E+02  0.10681941905E+03  0.62749621913E+03  0.00000000000E+00 0. -1.
         -4    1    5    5    0  503  0.24833349297E+03 -0.48051821252E+01  0.96852802882E+02  0.26659534679E+03  0.00000000000E+00 0.  1.
         -1    1    6    6    0  502  0.35082729467E+02 -0.12272098826E+03 -0.27402076577E+03  0.30228896596E+03  0.00000000000E+00 0.  1.
<mgrwt>
<rscale>  0 0.26110601E+04</rscale>
<asrwt>0</asrwt>
<pdfrwt beam="1">  1        2 0.12840294E+00 0.26110601E+04</pdfrwt>
<pdfrwt beam="2">  1       -2 0.31417533E+00 0.26110601E+04</pdfrwt>
<totfact> 0.74804280E-01</totfact>
</mgrwt>
</event>
<event>
12    1  0.2019083E-007  0.1668228E+04  0.7818608E-02  0.8779695E-01
          2   -1    0    0  501    0  0.00000000000E+00  0.00000000000E+00  0.15865650180E+04  0.15865650180E+04  0.00000000000E+00 0.  1.
         -2   -1    0    0    0  501 -0.00000000000E+00 -0.00000000000E+00 -0.43852352657E+03  0.43852352657E+03  0.00000000000E+00 0. -1.
         23    2    1    2    0    0 -0.38758930615E+03  0.43550317550E+03  0.32855382620E+03  0.67576912261E+03  0.93956395408E+02 0.  0.
        254    2    1    2    0    0  0.38758930615E+03 -0.43550317550E+03  0.81948766525E+03  0.13493194220E+04  0.89956344018E+03 0.  0.
        -24    2    4    4    0    0 -0.28111821307E+03 -0.12700512722E+03  0.15621960636E+03  0.35504004900E+03  0.80567480556E+02 0.  0.
         24    2    4    4    0    0  0.66870751922E+03 -0.30849804828E+03  0.66326805890E+03  0.99427937298E+03  0.79537170739E+02 0.  0.
         13    1    3    3    0    0 -0.28289395840E+03  0.35069897413E+03  0.21351297172E+03  0.49860460412E+03  0.00000000000E+00 0. -1.
        -13    1    3    3    0    0 -0.10469534776E+03  0.84804201378E+02  0.11504085448E+03  0.17716451849E+03  0.00000000000E+00 0.  1.
          2    1    6    6  502    0  0.52778476471E+03 -0.26909561888E+03  0.55972942226E+03  0.81502529783E+03  0.00000000000E+00 0. -1.
          3    1    5    5  503    0 -0.22356714119E+03 -0.13306860804E+03  0.11794400606E+03  0.28565767910E+03  0.00000000000E+00 0. -1.
         -4    1    5    5    0  503 -0.57551071876E+02  0.60634808187E+01  0.38275600301E+02  0.69382369894E+02  0.00000000000E+00 0.  1.
         -3    1    6    6    0  502  0.14092275452E+03 -0.39402429403E+02  0.10353863664E+03  0.17925407516E+03  0.00000000000E+00 0.  1.
<mgrwt>
<rscale>  0 0.16682279E+04</rscale>
<asrwt>0</asrwt>
<pdfrwt beam="1">  1        2 0.24408692E+00 0.16682279E+04</pdfrwt>
<pdfrwt beam="2">  1       -2 0.67465159E-01 0.16682279E+04</pdfrwt>
<totfact> 0.21801624E+01</totfact>
</mgrwt>
</event>
<event>
12    1  0.2019083E-007  0.1856654E+04  0.7818608E-02  0.8676738E-01
         -1   -1    0    0    0  501 -0.00000000000E+00  0.00000000000E+00  0.43645525177E+03  0.43645525177E+03  0.00000000000E+00 0.  1.
          1   -1    0    0  501    0  0.00000000000E+00 -0.00000000000E+00 -0.19745237423E+04  0.19745237423E+04  0.00000000000E+00 0. -1.
         23    2    1    2    0    0  0.17669332600E+03  0.14740832026E+03  0.27715687551E+03  0.37198059649E+03  0.92757135513E+02 0.  0.
        254    2    1    2    0    0 -0.17669332600E+03 -0.14740832026E+03 -0.18152253660E+04  0.20389983975E+04  0.89973417822E+03 0.  0.
        -24    2    4    4    0    0  0.14531749705E+03 -0.45075553036E+03 -0.93833859857E+03  0.10536979789E+04  0.74178042687E+02 0.  0.
         24    2    4    4    0    0 -0.32201082305E+03  0.30334721010E+03 -0.87688676742E+03  0.98530041866E+03  0.78587607760E+02 0.  0.
         11    1    3    3    0    0  0.18696415385E+03  0.12981553157E+03  0.25740227528E+03  0.34360383930E+03  0.00000000000E+00 0. -1.
        -11    1    3    3    0    0 -0.10270827849E+02  0.17592788685E+02  0.19754600225E+02  0.28376757188E+02  0.00000000000E+00 0.  1.
          2    1    6    6  502    0 -0.16067361770E+03  0.14490373910E+03 -0.51458695706E+03  0.55822293164E+03  0.00000000000E+00 0. -1.
          1    1    5    5  503    0  0.12779962422E+03 -0.28343660856E+03 -0.59334880745E+03  0.66987451237E+03  0.00000000000E+00 0. -1.
         -2    1    5    5    0  503  0.17517872832E+02 -0.16731892179E+03 -0.34498979112E+03  0.38382346650E+03  0.00000000000E+00 0.  1.
         -3    1    6    6    0  502 -0.16133720534E+03  0.15844347100E+03 -0.36229981036E+03  0.42707748702E+03  0.00000000000E+00 0.  1.
<mgrwt>
<rscale>  0 0.18566543E+04</rscale>
<asrwt>0</asrwt>
<pdfrwt beam="1">  1        1 0.30377288E+00 0.18566543E+04</pdfrwt>
<pdfrwt beam="2">  1       -1 0.67146962E-01 0.18566543E+04</pdfrwt>
<totfact> 0.65425642E+00</totfact>
</mgrwt>
</event>
<event>
12    1  0.2019083E-007  0.3365844E+04  0.7818608E-02  0.8146341E-01
         -1   -1    0    0    0  501 -0.00000000000E+00  0.00000000000E+00  0.13163610430E+04  0.13163610430E+04  0.00000000000E+00 0.  1.
          1   -1    0    0  501    0  0.00000000000E+00 -0.00000000000E+00 -0.21515570699E+04  0.21515570699E+04  0.00000000000E+00 0. -1.
         23    2    1    2    0    0 -0.15913232484E+03 -0.75776377537E+03  0.10090304245E+04  0.12750393739E+04  0.89743921283E+02 0.  0.
        254    2    1    2    0    0  0.15913232484E+03  0.75776377537E+03 -0.18442264514E+04  0.21928787389E+04  0.89889761569E+03 0.  0.
        -24    2    4    4    0    0 -0.20610510720E+03  0.17394265412E+03 -0.72141994707E+02  0.29020424139E+03  0.79238072821E+02 0.  0.
         24    2    4    4    0    0  0.36523743204E+03  0.58382112125E+03 -0.17720844567E+04  0.19026744975E+04  0.75109510051E+02 0.  0.
         11    1    3    3    0    0 -0.12882350680E+03 -0.55166209374E+03  0.79674859955E+03  0.97761694566E+03  0.00000000000E+00 0.  1.
        -11    1    3    3    0    0 -0.30308818036E+02 -0.20610168163E+03  0.21228182493E+03  0.29742242824E+03  0.00000000000E+00 0. -1.
          4    1    6    6  502    0  0.11891560978E+02  0.29043578820E+01 -0.22542506366E+02  0.25651688257E+02  0.00000000000E+00 0. -1.
          3    1    5    5  503    0 -0.27477831058E+02  0.62631712106E+02 -0.33722368172E+02  0.76255889453E+02  0.00000000000E+00 0. -1.
         -4    1    5    5    0  503 -0.17862727614E+03  0.11131094202E+03 -0.38419626535E+02  0.21394835194E+03  0.00000000000E+00 0.  1.
         -3    1    6    6    0  502  0.35334587106E+03  0.58091676337E+03 -0.17495419503E+04  0.18770228093E+04  0.00000000000E+00 0.  1.
<mgrwt>
<rscale>  0 0.33658437E+04</rscale>
<asrwt>0</asrwt>
<pdfrwt beam="1">  1        1 0.33100878E+00 0.33658437E+04</pdfrwt>
<pdfrwt beam="2">  1       -1 0.20251709E+00 0.33658437E+04</pdfrwt>
<totfact> 0.28047136E-01</totfact>
</mgrwt>
</event>
<event>
12    1  0.2019083E-007  0.1660943E+04  0.7818608E-02  0.8783959E-01
         -2   -1    0    0    0  501 -0.00000000000E+00  0.00000000000E+00  0.20477172321E+03  0.20477172321E+03  0.00000000000E+00 0.  1.
          2   -1    0    0  501    0  0.00000000000E+00 -0.00000000000E+00 -0.33680589813E+04  0.33680589813E+04  0.00000000000E+00 0. -1.
         23    2    1    2    0    0 -0.48824981291E+03  0.31119012435E+03 -0.10346351790E+04  0.11891887179E+04  0.92047161033E+02 0.  0.
        254    2    1    2    0    0  0.48824981291E+03 -0.31119012435E+03 -0.21286520791E+04  0.23836419866E+04  0.90297412654E+03 0.  0.
        -24    2    4    4    0    0  0.43503977424E+03  0.21060121250E+03 -0.65979218839E+03  0.82180210085E+03  0.80127930351E+02 0.  0.
         24    2    4    4    0    0  0.53210038672E+02 -0.52179133686E+03 -0.14688598907E+04  0.15618398857E+04  0.81834850768E+02 0.  0.
         13    1    3    3    0    0 -0.69377321712E+02  0.52062973797E+02 -0.22948618632E+03  0.24533176664E+03  0.00000000000E+00 0.  1.
        -13    1    3    3    0    0 -0.41887249120E+03  0.25912715056E+03 -0.80514899271E+03  0.94385695129E+03  0.00000000000E+00 0. -1.
          4    1    6    6  502    0  0.36236819081E+02 -0.18378778725E+03 -0.63077593957E+03  0.65800406058E+03  0.00000000000E+00 0. -1.
          3    1    5    5  503    0  0.98176586061E+02  0.83972137082E+02 -0.15331022959E+03  0.20048438432E+03  0.00000000000E+00 0. -1.
         -4    1    5    5    0  503  0.33686318818E+03  0.12662907542E+03 -0.50648195880E+03  0.62131771653E+03  0.00000000000E+00 0.  1.
         -3    1    6    6    0  502  0.16973219591E+02 -0.33800354961E+03 -0.83808395110E+03  0.90383582515E+03  0.00000000000E+00 0.  1.
<mgrwt>
<rscale>  0 0.16609434E+04</rscale>
<asrwt>0</asrwt>
<pdfrwt beam="1">  1        2 0.51816291E+00 0.16609434E+04</pdfrwt>
<pdfrwt beam="2">  1       -2 0.31503342E-01 0.16609434E+04</pdfrwt>
<totfact> 0.90321487E+00</totfact>
</mgrwt>
</event>
<event>
12    1  0.2019083E-007  0.2893906E+04  0.7818608E-02  0.8274693E-01
         -2   -1    0    0    0  501 -0.00000000000E+00  0.00000000000E+00  0.10942834562E+04  0.10942834562E+04  0.00000000000E+00 0.  1.
          2   -1    0    0  501    0  0.00000000000E+00 -0.00000000000E+00 -0.19132819231E+04  0.19132819231E+04  0.00000000000E+00 0. -1.
         23    2    1    2    0    0  0.69155498258E+03 -0.67972567172E+03  0.54042520522E+03  0.11137233569E+04  0.89694094083E+02 0.  0.
        254    2    1    2    0    0 -0.69155498258E+03  0.67972567172E+03 -0.13594236720E+04  0.18938420224E+04  0.89349292275E+03 0.  0.
        -24    2    4    4    0    0 -0.20448022289E+03 -0.17026607760E+03 -0.97390994216E+02  0.29412984181E+03  0.78896510376E+02 0.  0.
         24    2    4    4    0    0 -0.48707475969E+03  0.84999174933E+03 -0.12620326778E+04  0.15997121806E+04  0.81392784883E+02 0.  0.
         13    1    3    3    0    0  0.23521367726E+03 -0.19964831551E+03  0.21258285011E+03  0.37466837606E+03  0.00000000000E+00 0. -1.
        -13    1    3    3    0    0  0.45634130532E+03 -0.48007735621E+03  0.32784235511E+03  0.73905498083E+03  0.00000000000E+00 0.  1.
          4    1    6    6  502    0 -0.62783221706E+02  0.16172286537E+03 -0.25145600771E+03  0.30549327640E+03  0.00000000000E+00 0. -1.
          1    1    5    5  503    0 -0.87261141912E+01  0.16838744650E+01  0.90429014448E+01  0.12678902501E+02  0.00000000000E+00 0. -1.
         -2    1    5    5    0  503 -0.19575410870E+03 -0.17194995207E+03 -0.10643389566E+03  0.28145093930E+03  0.00000000000E+00 0.  1.
         -3    1    6    6    0  502 -0.42429153798E+03  0.68826888395E+03 -0.10105766701E+04  0.12942189042E+04  0.00000000000E+00 0.  1.
<mgrwt>
<rscale>  0 0.28939058E+04</rscale>
<asrwt>0</asrwt>
<pdfrwt beam="1">  1        2 0.29435107E+00 0.28939058E+04</pdfrwt>
<pdfrwt beam="2">  1       -2 0.16835130E+00 0.28939058E+04</pdfrwt>
<totfact> 0.14118813E+00</totfact>
</mgrwt>
</event>
<event>
12    1  0.2019083E-007  0.4403862E+04  0.7818608E-02  0.7927687E-01
         -2   -1    0    0    0  501 -0.00000000000E+00  0.00000000000E+00  0.16125438340E+04  0.16125438340E+04  0.00000000000E+00 0.  1.
          2   -1    0    0  501    0  0.00000000000E+00 -0.00000000000E+00 -0.30067406834E+04  0.30067406834E+04  0.00000000000E+00 0. -1.
         23    2    1    2    0    0  0.17349458329E+04  0.10927167155E+04 -0.14893358505E+03  0.20573391732E+04  0.79977480424E+02 0.  0.
        254    2    1    2    0    0 -0.17349458329E+04 -0.10927167155E+04 -0.12452632643E+04  0.25619453442E+04  0.89934225187E+03 0.  0.
        -24    2    4    4    0    0 -0.11126213686E+04 -0.99268533260E+03 -0.12155659887E+04  0.19253761082E+04  0.78243246356E+02 0.  0.
         24    2    4    4    0    0 -0.62232446428E+03 -0.10003138292E+03 -0.29697275615E+02  0.63656923607E+03  0.83931208242E+02 0.  0.
         13    1    3    3    0    0  0.10868711912E+04  0.71315527539E+03 -0.64326088569E+02  0.13015441901E+04  0.00000000000E+00 0.  1.
        -13    1    3    3    0    0  0.64807464165E+03  0.37956144013E+03 -0.84607496483E+02  0.75579498307E+03  0.00000000000E+00 0. -1.
          2    1    6    6  502    0 -0.51426260010E+03 -0.62671718833E+02  0.14334005614E+01  0.51806932050E+03  0.00000000000E+00 0. -1.
          1    1    5    5  503    0 -0.69433172477E+03 -0.64158684522E+03 -0.81383245604E+03  0.12474187310E+04  0.00000000000E+00 0. -1.
         -4    1    5    5    0  503 -0.41828964382E+03 -0.35109848737E+03 -0.40173353266E+03  0.67795737715E+03  0.00000000000E+00 0.  1.
         -1    1    6    6    0  502 -0.10806186418E+03 -0.37359664087E+02 -0.31130676177E+02  0.11849991557E+03  0.00000000000E+00 0.  1.
<mgrwt>
<rscale>  0 0.44038625E+04</rscale>
<asrwt>0</asrwt>
<pdfrwt beam="1">  1        2 0.46257549E+00 0.44038625E+04</pdfrwt>
<pdfrwt beam="2">  1       -2 0.24808367E+00 0.44038625E+04</pdfrwt>
<totfact> 0.86894112E-02</totfact>
</mgrwt>
</event>
<event>
12    1  0.2019083E-007  0.1873372E+04  0.7818608E-02  0.8668225E-01
         -2   -1    0    0    0  501 -0.00000000000E+00  0.00000000000E+00  0.93980924308E+03  0.93980924308E+03  0.00000000000E+00 0.  1.
          2   -1    0    0  501    0  0.00000000000E+00 -0.00000000000E+00 -0.93357354483E+03  0.93357354483E+03  0.00000000000E+00 0. -1.
         23    2    1    2    0    0 -0.28772061594E+03  0.41401337749E+02  0.65932278602E+03  0.72640097073E+03  0.91948956018E+02 0.  0.
        254    2    1    2    0    0  0.28772061594E+03 -0.41401337749E+02 -0.65308708777E+03  0.11469818172E+04  0.89696561870E+03 0.  0.
        -24    2    4    4    0    0  0.84180015891E+01  0.32960415639E+03 -0.57874448906E+03  0.67078276663E+03  0.79338349730E+02 0.  0.
         24    2    4    4    0    0  0.27930261436E+03 -0.37100549413E+03 -0.74342598707E+02  0.47619905054E+03  0.74724070374E+02 0.  0.
         13    1    3    3    0    0 -0.18207183233E+02  0.89608258104E+01  0.12953965951E+03  0.13111949247E+03  0.00000000000E+00 0.  1.
        -13    1    3    3    0    0 -0.26951343271E+03  0.32440511939E+02  0.52978312651E+03  0.59528147826E+03  0.00000000000E+00 0. -1.
          4    1    6    6  502    0  0.76852421713E+02 -0.14603535145E+03 -0.20595587760E+01  0.16503593663E+03  0.00000000000E+00 0. -1.
          1    1    5    5  503    0  0.36913957078E+02  0.20081692525E+03 -0.30672247624E+03  0.36846811955E+03  0.00000000000E+00 0. -1.
         -2    1    5    5    0  503 -0.28495955489E+02  0.12878723114E+03 -0.27202201282E+03  0.30231464708E+03  0.00000000000E+00 0.  1.
         -1    1    6    6    0  502  0.20245019264E+03 -0.22497014268E+03 -0.72283039931E+02  0.31116311391E+03  0.00000000000E+00 0.  1.
<mgrwt>
<rscale>  0 0.18733724E+04</rscale>
<asrwt>0</asrwt>
<pdfrwt beam="1">  1        2 0.14362670E+00 0.18733724E+04</pdfrwt>
<pdfrwt beam="2">  1       -2 0.14458604E+00 0.18733724E+04</pdfrwt>
<totfact> 0.86247847E+00</totfact>
</mgrwt>
</event>
<event>
12    1  0.2019083E-007  0.2211548E+04  0.7818608E-02  0.8513637E-01
         -1   -1    0    0    0  501 -0.00000000000E+00  0.00000000000E+00  0.76194955001E+03  0.76194955001E+03  0.00000000000E+00 0.  1.
          1   -1    0    0  501    0  0.00000000000E+00 -0.00000000000E+00 -0.16047472537E+04  0.16047472537E+04  0.00000000000E+00 0. -1.
         23    2    1    2    0    0  0.84014093643E+03 -0.37168848196E+03 -0.38679912799E+03  0.10013347240E+04  0.95228899842E+02 0.  0.
        254    2    1    2    0    0 -0.84014093643E+03  0.37168848196E+03 -0.45599857565E+03  0.13653620797E+04  0.90127120609E+03 0.  0.
        -24    2    4    4    0    0 -0.90387697503E+03  0.47481584422E+03 -0.57829019913E+03  0.11759247092E+04  0.77043463723E+02 0.  0.
         24    2    4    4    0    0  0.63736038594E+02 -0.10312736226E+03  0.12229162348E+03  0.18943737051E+03  0.78954041770E+02 0.  0.
         11    1    3    3    0    0  0.24939839860E+03 -0.63736220425E+02 -0.10938593497E+03  0.27969116859E+03  0.00000000000E+00 0. -1.
        -11    1    3    3    0    0  0.59074253783E+03 -0.30795226153E+03 -0.27741319301E+03  0.72164355540E+03  0.00000000000E+00 0.  1.
          4    1    6    6  502    0 -0.12054044402E+02 -0.60438800982E+00 -0.95960663317E+00  0.12107275342E+02  0.00000000000E+00 0. -1.
          1    1    5    5  503    0 -0.10504367970E+03  0.57468621107E+02 -0.97547624721E+02  0.15444208023E+03  0.00000000000E+00 0. -1.
         -2    1    5    5    0  503 -0.79883329532E+03  0.41734722311E+03 -0.48074257441E+03  0.10214826289E+04  0.00000000000E+00 0.  1.
         -3    1    6    6    0  502  0.75790082996E+02 -0.10252297425E+03  0.12325123011E+03  0.17733009517E+03  0.00000000000E+00 0.  1.
<mgrwt>
<rscale>  0 0.22115483E+04</rscale>
<asrwt>0</asrwt>
<pdfrwt beam="1">  1        1 0.24688419E+00 0.22115483E+04</pdfrwt>
<pdfrwt beam="2">  1       -1 0.11722301E+00 0.22115483E+04</pdfrwt>
<totfact> 0.33061402E+00</totfact>
</mgrwt>
</event>
<event>
12    1  0.2019083E-007  0.1429625E+04  0.7818608E-02  0.8932649E-01
         -2   -1    0    0    0  501 -0.00000000000E+00  0.00000000000E+00  0.35881807507E+03  0.35881807507E+03  0.00000000000E+00 0.  1.
          2   -1    0    0  501    0  0.00000000000E+00 -0.00000000000E+00 -0.14240000802E+04  0.14240000802E+04  0.00000000000E+00 0. -1.
         23    2    1    2    0    0 -0.34019027476E+03 -0.25139655893E+03 -0.27689068403E+03  0.51393261863E+03  0.92350596668E+02 0.  0.
        254    2    1    2    0    0  0.34019027476E+03  0.25139655893E+03 -0.78829132106E+03  0.12688855366E+04  0.89985423556E+03 0.  0.
        -24    2    4    4    0    0  0.38091654032E+03 -0.15813823994E+03 -0.73440267701E+03  0.84613385794E+03  0.80561156479E+02 0.  0.
         24    2    4    4    0    0 -0.40726265562E+02  0.40953479887E+03 -0.53888644057E+02  0.42275167866E+03  0.80234753439E+02 0.  0.
         13    1    3    3    0    0 -0.11314789496E+03 -0.91874736462E+02 -0.14888052313E+03  0.20834784256E+03  0.00000000000E+00 0. -1.
        -13    1    3    3    0    0 -0.22704237980E+03 -0.15952182247E+03 -0.12801016091E+03  0.30558477607E+03  0.00000000000E+00 0.  1.
          2    1    6    6  502    0 -0.12094840417E+02  0.28577266053E+03 -0.33818335379E+01  0.28604848447E+03  0.00000000000E+00 0. -1.
          3    1    5    5  503    0  0.92839249280E+02 -0.54425478671E+02 -0.26137296519E+03  0.28266072573E+03  0.00000000000E+00 0. -1.
         -4    1    5    5    0  503  0.28807729104E+03 -0.10371276127E+03 -0.47302971181E+03  0.56347313221E+03  0.00000000000E+00 0.  1.
         -1    1    6    6    0  502 -0.28631425145E+02  0.12376213835E+03 -0.50506810519E+02  0.13670319419E+03  0.00000000000E+00 0.  1.
<mgrwt>
<rscale>  0 0.14296251E+04</rscale>
<asrwt>0</asrwt>
<pdfrwt beam="1">  1        2 0.21907693E+00 0.14296251E+04</pdfrwt>
<pdfrwt beam="2">  1       -2 0.55202782E-01 0.14296251E+04</pdfrwt>
<totfact> 0.42004536E+01</totfact>
</mgrwt>
</event>
<event>
12    1  0.2019083E-007  0.1973590E+04  0.7818608E-02  0.8619069E-01
          1   -1    0    0  501    0  0.00000000000E+00  0.00000000000E+00  0.38150883496E+03  0.38150883496E+03  0.00000000000E+00 0. -1.
         -1   -1    0    0    0  501 -0.00000000000E+00 -0.00000000000E+00 -0.25524031108E+04  0.25524031108E+04  0.00000000000E+00 0.  1.
         23    2    1    2    0    0  0.55908088238E+03  0.29220011193E+02 -0.16668520381E+04  0.17606291853E+04  0.89410117617E+02 0.  0.
        254    2    1    2    0    0 -0.55908088238E+03 -0.29220011193E+02 -0.50404223775E+03  0.11732827605E+04  0.89950465061E+03 0.  0.
        -24    2    4    4    0    0 -0.14911921187E+03 -0.39505642065E+02 -0.69348358578E+03  0.71495910066E+03  0.80310626742E+02 0.  0.
         24    2    4    4    0    0 -0.40996167051E+03  0.10285630872E+02  0.18944134803E+03  0.45832365980E+03  0.77447965146E+02 0.  0.
         11    1    3    3    0    0  0.17646735945E+03  0.26593592921E+02 -0.41866263555E+03  0.45511136059E+03  0.00000000000E+00 0. -1.
        -11    1    3    3    0    0  0.38261352293E+03  0.26264182725E+01 -0.12481894025E+04  0.13055178247E+04  0.00000000000E+00 0.  1.
          4    1    6    6  502    0 -0.40384779640E+03  0.15193402250E+01  0.19224636024E+03  0.44727398099E+03  0.00000000000E+00 0. -1.
          3    1    5    5  503    0 -0.54010528922E+02 -0.36797992899E+02 -0.42756309895E+03  0.43252911243E+03  0.00000000000E+00 0. -1.
         -4    1    5    5    0  503 -0.95108682950E+02 -0.27076491662E+01 -0.26592048683E+03  0.28242998824E+03  0.00000000000E+00 0.  1.
         -3    1    6    6    0  502 -0.61138741129E+01  0.87662906466E+01 -0.28050122082E+01  0.11049678812E+02  0.00000000000E+00 0.  1.
<mgrwt>
<rscale>  0 0.19735900E+04</rscale>
<asrwt>0</asrwt>
<pdfrwt beam="1">  1        1 0.58693669E-01 0.19735900E+04</pdfrwt>
<pdfrwt beam="2">  1       -1 0.39267739E+00 0.19735900E+04</pdfrwt>
<totfact> 0.47779821E-01</totfact>
</mgrwt>
</event>
<event>
12    1  0.2019083E-007  0.2975443E+04  0.7818608E-02  0.8250778E-01
         -2   -1    0    0    0  501 -0.00000000000E+00  0.00000000000E+00  0.10014774913E+04  0.10014774913E+04  0.00000000000E+00 0. -1.
          2   -1    0    0  501    0  0.00000000000E+00 -0.00000000000E+00 -0.22100505945E+04  0.22100505945E+04  0.00000000000E+00 0.  1.
         23    2    1    2    0    0 -0.12234884474E+04  0.49823075096E+02  0.63869516496E+02  0.12295576834E+04  0.91249449584E+02 0.  0.
        254    2    1    2    0    0  0.12234884474E+04 -0.49823075096E+02 -0.12724426198E+04  0.19819704024E+04  0.89982783666E+03 0.  0.
        -24    2    4    4    0    0  0.87196271482E+03  0.29490546053E+02 -0.13449422872E+04  0.16051457317E+04  0.80214685877E+02 0.  0.
         24    2    4    4    0    0  0.35152573255E+03 -0.79313621149E+02  0.72499667418E+02  0.37682467066E+03  0.82943592270E+02 0.  0.
         11    1    3    3    0    0 -0.30358225780E+03 -0.25165152188E+02  0.37955004453E+01  0.30464713680E+03  0.00000000000E+00 0. -1.
        -11    1    3    3    0    0 -0.91990618956E+03  0.74988227283E+02  0.60074016051E+02  0.92491054661E+03  0.00000000000E+00 0.  1.
          2    1    6    6  502    0  0.30382815518E+03 -0.94582856913E+02  0.74075030029E+02  0.32671788254E+03  0.00000000000E+00 0. -1.
          1    1    5    5  503    0  0.59125200357E+03  0.25422405480E+02 -0.84226900283E+03  0.10293892867E+04  0.00000000000E+00 0. -1.
         -2    1    5    5    0  503  0.28071071125E+03  0.40681405731E+01 -0.50267328436E+03  0.57575644503E+03  0.00000000000E+00 0.  1.
         -1    1    6    6    0  502  0.47697577374E+02  0.15269235765E+02 -0.15753626106E+01  0.50106788119E+02  0.00000000000E+00 0.  1.
<mgrwt>
<rscale>  0 0.29754434E+04</rscale>
<asrwt>0</asrwt>
<pdfrwt beam="1">  1        2 0.34000778E+00 0.29754434E+04</pdfrwt>
<pdfrwt beam="2">  1       -2 0.15407346E+00 0.29754434E+04</pdfrwt>
<totfact> 0.12195884E+00</totfact>
</mgrwt>
</event>
<event>
12    1  0.2019083E-007  0.2409550E+04  0.7818608E-02  0.8435937E-01
          1   -1    0    0  501    0  0.00000000000E+00  0.00000000000E+00  0.60533295621E+03  0.60533295621E+03  0.00000000000E+00 0. -1.
         -1   -1    0    0    0  501 -0.00000000000E+00 -0.00000000000E+00 -0.23978263020E+04  0.23978263020E+04  0.00000000000E+00 0.  1.
         23    2    1    2    0    0  0.80460859162E+03 -0.50622997408E+03 -0.12826242336E+04  0.15991548496E+04  0.92236305278E+02 0.  0.
        254    2    1    2    0    0 -0.80460859162E+03  0.50622997408E+03 -0.50986911217E+03  0.14040044086E+04  0.89866461788E+03 0.  0.
        -24    2    4    4    0    0  0.11249680463E+03 -0.73442049727E+02 -0.23464929820E+03  0.28186605325E+03  0.79617291517E+02 0.  0.
         24    2    4    4    0    0 -0.91710539625E+03  0.57967202380E+03 -0.27521981397E+03  0.11221383553E+04  0.79665422253E+02 0.  0.
         13    1    3    3    0    0  0.22308928688E+03 -0.14968605410E+03 -0.29659063642E+03  0.40017589923E+03  0.00000000000E+00 0. -1.
        -13    1    3    3    0    0  0.58151930473E+03 -0.35654391998E+03 -0.98603359716E+03  0.11989789504E+04  0.00000000000E+00 0.  1.
          2    1    6    6  502    0 -0.75165237752E+03  0.49970243421E+03 -0.25052205278E+03  0.93672040563E+03  0.00000000000E+00 0. -1.
          3    1    5    5  503    0  0.72954473296E+02 -0.85160679069E+02 -0.14601335775E+03  0.18410485348E+03  0.00000000000E+00 0. -1.
         -4    1    5    5    0  503  0.39542331335E+02  0.11718629342E+02 -0.88635940447E+02  0.97761199768E+02  0.00000000000E+00 0.  1.
         -1    1    6    6    0  502 -0.16545301873E+03  0.79969589594E+02 -0.24697761186E+02  0.18541794971E+03  0.00000000000E+00 0.  1.
<mgrwt>
<rscale>  0 0.24095504E+04</rscale>
<asrwt>0</asrwt>
<pdfrwt beam="1">  1        1 0.93128148E-01 0.24095504E+04</pdfrwt>
<pdfrwt beam="2">  1       -1 0.36889635E+00 0.24095504E+04</pdfrwt>
<totfact> 0.35203366E-01</totfact>
</mgrwt>
</event>
<event>
12    1  0.2019083E-007  0.3713033E+04  0.7818608E-02  0.8065080E-01
          2   -1    0    0  501    0  0.00000000000E+00  0.00000000000E+00  0.18603782267E+04  0.18603782267E+04  0.00000000000E+00 0. -1.
         -2   -1    0    0    0  501 -0.00000000000E+00 -0.00000000000E+00 -0.18526630905E+04  0.18526630905E+04  0.00000000000E+00 0.  1.
         23    2    1    2    0    0 -0.13069122397E+03 -0.69162093665E+03 -0.15983719524E+04  0.17487516019E+04  0.88991858790E+02 0.  0.
        254    2    1    2    0    0  0.13069122397E+03  0.69162093665E+03  0.16060870885E+04  0.19642897154E+04  0.88515458191E+03 0.  0.
        -24    2    4    4    0    0  0.21356932306E+03  0.35762283642E+02  0.11110609991E+04  0.11349000834E+04  0.81552798100E+02 0.  0.
         24    2    4    4    0    0 -0.82878099093E+02  0.65585865301E+03  0.49502608938E+03  0.82938963191E+03  0.76269130913E+02 0.  0.
         11    1    3    3    0    0 -0.65071165996E+02 -0.19503464484E+03 -0.39540993339E+03  0.44567004022E+03  0.00000000000E+00 0. -1.
        -11    1    3    3    0    0 -0.65620057970E+02 -0.49658629181E+03 -0.12029620190E+04  0.13030815616E+04  0.00000000000E+00 0.  1.
          2    1    6    6  502    0  0.12000755912E+02  0.28713860539E+02  0.20887421773E+02  0.37480505837E+02  0.00000000000E+00 0. -1.
          3    1    5    5  503    0  0.13305574483E+03  0.51859185947E+02  0.56850453721E+03  0.58616603043E+03  0.00000000000E+00 0. -1.
         -4    1    5    5    0  503  0.80513578231E+02 -0.16096902305E+02  0.54255646193E+03  0.54873405301E+03  0.00000000000E+00 0.  1.
         -1    1    6    6    0  502 -0.94878855005E+02  0.62714479247E+03  0.47413866761E+03  0.79190912608E+03  0.00000000000E+00 0.  1.
<mgrwt>
<rscale>  0 0.37130333E+04</rscale>
<asrwt>0</asrwt>
<pdfrwt beam="1">  1        2 0.28621204E+00 0.37130333E+04</pdfrwt>
<pdfrwt beam="2">  1       -2 0.28502509E+00 0.37130333E+04</pdfrwt>
<totfact> 0.25313567E-01</totfact>
</mgrwt>
</event>
<event>
12    1  0.2019083E-007  0.1205911E+04  0.7818608E-02  0.9107699E-01
          1   -1    0    0  501    0  0.00000000000E+00  0.00000000000E+00  0.89386057553E+03  0.89386057553E+03  0.00000000000E+00 0. -1.
         -1   -1    0    0    0  501 -0.00000000000E+00 -0.00000000000E+00 -0.40672464882E+03  0.40672464882E+03  0.00000000000E+00 0.  1.
         23    2    1    2    0    0  0.18456118486E+03  0.17156309907E+03  0.11166910766E+03  0.29164055434E+03  0.95328355761E+02 0.  0.
        254    2    1    2    0    0 -0.18456118486E+03 -0.17156309907E+03  0.37546681906E+03  0.10089446700E+04  0.90194084451E+03 0.  0.
        -24    2    4    4    0    0  0.92158661576E+02  0.72814561681E+01  0.59334726690E+03  0.60583290118E+03  0.80164122328E+02 0.  0.
         24    2    4    4    0    0 -0.27671984644E+03 -0.17884455524E+03 -0.21788044784E+03  0.40311176882E+03  0.80423630005E+02 0.  0.
         11    1    3    3    0    0  0.51630071304E+02  0.93203316156E+02  0.82135799374E+02  0.13453182502E+03  0.00000000000E+00 0. -1.
        -11    1    3    3    0    0  0.13293111356E+03  0.78359782912E+02  0.29533308281E+02  0.15710872932E+03  0.00000000000E+00 0.  1.
          4    1    6    6  502    0 -0.41691431034E+02 -0.55520735157E+02 -0.72916910541E+02  0.10068566580E+03  0.00000000000E+00 0. -1.
          3    1    5    5  503    0 -0.93981577785E+01 -0.12342130065E+02  0.40031867360E+02  0.42932551153E+02  0.00000000000E+00 0. -1.
         -4    1    5    5    0  503  0.10155681935E+03  0.19623586233E+02  0.55331539954E+03  0.56290035003E+03  0.00000000000E+00 0.  1.
         -3    1    6    6    0  502 -0.23502841540E+03 -0.12332382008E+03 -0.14496353730E+03  0.30242610303E+03  0.00000000000E+00 0.  1.
<mgrwt>
<rscale>  0 0.12059107E+04</rscale>
<asrwt>0</asrwt>
<pdfrwt beam="1">  1        1 0.13751701E+00 0.12059107E+04</pdfrwt>
<pdfrwt beam="2">  1       -1 0.62573023E-01 0.12059107E+04</pdfrwt>
<totfact> 0.47185061E+01</totfact>
</mgrwt>
</event>
<event>
12    1  0.2019083E-007  0.1661794E+04  0.7818608E-02  0.8783460E-01
         -1   -1    0    0    0  501 -0.00000000000E+00  0.00000000000E+00  0.24564319048E+03  0.24564319048E+03  0.00000000000E+00 0.  1.
          1   -1    0    0  501    0  0.00000000000E+00 -0.00000000000E+00 -0.28105391199E+04  0.28105391199E+04  0.00000000000E+00 0. -1.
         23    2    1    2    0    0  0.45349598149E+03  0.33238139665E+03 -0.62388944060E+03  0.84479830645E+03  0.91160004554E+02 0.  0.
        254    2    1    2    0    0 -0.45349598149E+03 -0.33238139665E+03 -0.19410064888E+04  0.22113840039E+04  0.89809633401E+03 0.  0.
        -24    2    4    4    0    0 -0.11922260170E+02 -0.27061048665E+03 -0.16488573746E+04  0.16726352225E+04  0.74871689694E+02 0.  0.
         24    2    4    4    0    0 -0.44157372132E+03 -0.61770909994E+02 -0.29214911422E+03  0.53874878146E+03  0.78077832375E+02 0.  0.
         11    1    3    3    0    0  0.25590775795E+03  0.23752742183E+03 -0.41043481005E+03  0.53885507328E+03  0.00000000000E+00 0. -1.
        -11    1    3    3    0    0  0.19758822354E+03  0.94853974811E+02 -0.21345463055E+03  0.30594323317E+03  0.00000000000E+00 0.  1.
          4    1    6    6  502    0 -0.67464739619E+02 -0.29703771317E+02 -0.24650722658E+02  0.77726850250E+02  0.00000000000E+00 0. -1.
          1    1    5    5  503    0 -0.17857406936E+02 -0.91751458782E+02 -0.77690282158E+03  0.78250572608E+03  0.00000000000E+00 0. -1.
         -2    1    5    5    0  503  0.59351467665E+01 -0.17885902787E+03 -0.87195455302E+03  0.89012949639E+03  0.00000000000E+00 0.  1.
         -3    1    6    6    0  502 -0.37410898170E+03 -0.32067138677E+02 -0.26749839156E+03  0.46102193121E+03  0.00000000000E+00 0.  1.
<mgrwt>
<rscale>  0 0.16617940E+04</rscale>
<asrwt>0</asrwt>
<pdfrwt beam="1">  1        1 0.43239066E+00 0.16617940E+04</pdfrwt>
<pdfrwt beam="2">  1       -1 0.37791258E-01 0.16617940E+04</pdfrwt>
<totfact> 0.52996036E+00</totfact>
</mgrwt>
</event>
<event>
12    1  0.2019083E-007  0.3285477E+04  0.7818608E-02  0.8166601E-01
          1   -1    0    0  501    0  0.00000000000E+00  0.00000000000E+00  0.18408133014E+04  0.18408133014E+04  0.00000000000E+00 0. -1.
         -1   -1    0    0    0  501 -0.00000000000E+00 -0.00000000000E+00 -0.14659769951E+04  0.14659769951E+04  0.00000000000E+00 0.  1.
         23    2    1    2    0    0  0.49630398615E+02 -0.13947366391E+04 -0.42785408429E+03  0.14631223178E+04  0.99570731197E+02 0.  0.
        254    2    1    2    0    0 -0.49630398615E+02  0.13947366391E+04  0.80269039054E+03  0.18436679787E+04  0.89835754782E+03 0.  0.
        -24    2    4    4    0    0 -0.33864049180E+03  0.50598636096E+03  0.63889912103E+01  0.61329381238E+03  0.73409133866E+02 0.  0.
         24    2    4    4    0    0  0.28901009318E+03  0.88875027815E+03  0.79630139933E+03  0.12303741663E+04  0.79503331542E+02 0.  0.
         11    1    3    3    0    0  0.28686416031E+00 -0.83971452677E+03 -0.21651522836E+03  0.86717899702E+03  0.00000000000E+00 0. -1.
        -11    1    3    3    0    0  0.49343534455E+02 -0.55502211234E+03 -0.21133885593E+03  0.59594332080E+03  0.00000000000E+00 0.  1.
          4    1    6    6  502    0  0.16480542608E+01  0.41248478115E+02  0.20863017713E+02  0.46253848896E+02  0.00000000000E+00 0. -1.
          3    1    5    5  503    0 -0.14439476440E+03  0.23611060182E+03 -0.31849836850E+02  0.27859015845E+03  0.00000000000E+00 0. -1.
         -4    1    5    5    0  503 -0.19424572740E+03  0.26987575914E+03  0.38238828060E+02  0.33470365393E+03  0.00000000000E+00 0.  1.
         -3    1    6    6    0  502  0.28736203892E+03  0.84750180004E+03  0.77543838162E+03  0.11841203174E+04  0.00000000000E+00 0.  1.
<mgrwt>
<rscale>  0 0.32854771E+04</rscale>
<asrwt>0</asrwt>
<pdfrwt beam="1">  1        1 0.28320205E+00 0.32854771E+04</pdfrwt>
<pdfrwt beam="2">  1       -1 0.22553492E+00 0.32854771E+04</pdfrwt>
<totfact> 0.32087126E-01</totfact>
</mgrwt>
</event>
<event>
12    1  0.2019083E-007  0.3516416E+04  0.7818608E-02  0.8109911E-01
         -2   -1    0    0    0  501 -0.00000000000E+00  0.00000000000E+00  0.14209917463E+04  0.14209917463E+04  0.00000000000E+00 0. -1.
          2   -1    0    0  501    0  0.00000000000E+00 -0.00000000000E+00 -0.21754489045E+04  0.21754489045E+04  0.00000000000E+00 0.  1.
         23    2    1    2    0    0  0.11942027763E+04  0.55563677898E+03  0.65278050934E+03  0.14728937689E+04  0.91875785904E+02 0.  0.
        254    2    1    2    0    0 -0.11942027763E+04 -0.55563677898E+03 -0.14072376675E+04  0.21235468819E+04  0.89122444183E+03 0.  0.
        -24    2    4    4    0    0 -0.10454578222E+04 -0.69174898758E+03 -0.14318301300E+04  0.19047372765E+04  0.79924035879E+02 0.  0.
         24    2    4    4    0    0 -0.14874495411E+03  0.13611220860E+03  0.24592462498E+02  0.21880960540E+03  0.81371122013E+02 0.  0.
         13    1    3    3    0    0  0.18105336470E+03  0.11974256092E+03  0.95233010525E+02  0.23703992925E+03  0.00000000000E+00 0. -1.
        -13    1    3    3    0    0  0.10131494116E+04  0.43589421806E+03  0.55754749882E+03  0.12358538396E+04  0.00000000000E+00 0.  1.
          2    1    6    6  502    0 -0.14280855700E+03  0.10917348834E+03 -0.30132992861E+01  0.17978379927E+03  0.00000000000E+00 0. -1.
          1    1    5    5  503    0 -0.21009056059E+03 -0.17340477624E+03 -0.28653982000E+03  0.39536353969E+03  0.00000000000E+00 0. -1.
         -2    1    5    5    0  503 -0.83536726157E+03 -0.51834421135E+03 -0.11452903101E+04  0.15093737368E+04  0.00000000000E+00 0.  1.
         -1    1    6    6    0  502 -0.59363971169E+01  0.26938720269E+02  0.27605761784E+02  0.39025806130E+02  0.00000000000E+00 0.  1.
<mgrwt>
<rscale>  0 0.35164158E+04</rscale>
<asrwt>0</asrwt>
<pdfrwt beam="1">  1        2 0.33468445E+00 0.35164158E+04</pdfrwt>
<pdfrwt beam="2">  1       -2 0.21861412E+00 0.35164158E+04</pdfrwt>
<totfact> 0.44120800E-01</totfact>
</mgrwt>
</event>
<event>
12    1  0.2019083E-007  0.1726354E+04  0.7818608E-02  0.8746475E-01
         -2   -1    0    0    0  501 -0.00000000000E+00  0.00000000000E+00  0.67416381838E+03  0.67416381838E+03  0.00000000000E+00 0.  1.
          2   -1    0    0  501    0  0.00000000000E+00 -0.00000000000E+00 -0.11051836152E+04  0.11051836152E+04  0.00000000000E+00 0. -1.
         23    2    1    2    0    0  0.44652303782E+03  0.43560206097E+03 -0.15898240053E+03  0.65082243532E+03  0.95720738626E+02 0.  0.
        254    2    1    2    0    0 -0.44652303782E+03 -0.43560206097E+03 -0.27203739629E+03  0.11285249983E+04  0.90024016123E+03 0.  0.
        -24    2    4    4    0    0 -0.70358833661E+03 -0.20068008381E+03 -0.21618539899E+03  0.76698483175E+03  0.78870539198E+02 0.  0.
         24    2    4    4    0    0  0.25706529878E+03 -0.23492197716E+03 -0.55851997297E+02  0.36154016651E+03  0.79504359666E+02 0.  0.
         13    1    3    3    0    0  0.37832291441E+03  0.32263632617E+03 -0.14611890560E+03  0.51824044719E+03  0.00000000000E+00 0. -1.
        -13    1    3    3    0    0  0.68200123413E+02  0.11296573481E+03 -0.12863494932E+02  0.13258198813E+03  0.00000000000E+00 0.  1.
          2    1    6    6  502    0  0.24783249829E+03 -0.19565398464E+03 -0.58442386274E+02  0.32111826704E+03  0.00000000000E+00 0. -1.
          1    1    5    5  503    0 -0.55273621781E+03 -0.16779199913E+03 -0.20197891427E+03  0.61193705826E+03  0.00000000000E+00 0. -1.
         -2    1    5    5    0  503 -0.15085211879E+03 -0.32888084680E+02 -0.14206484719E+02  0.15504777350E+03  0.00000000000E+00 0.  1.
         -1    1    6    6    0  502  0.92328004913E+01 -0.39267992518E+02  0.25903889769E+01  0.40421899465E+02  0.00000000000E+00 0.  1.
<mgrwt>
<rscale>  0 0.17263543E+04</rscale>
<asrwt>0</asrwt>
<pdfrwt beam="1">  1        2 0.17002824E+00 0.17263543E+04</pdfrwt>
<pdfrwt beam="2">  1       -2 0.10371751E+00 0.17263543E+04</pdfrwt>
<totfact> 0.15550190E+01</totfact>
</mgrwt>
</event>
<event>
12    1  0.2019083E-007  0.2101382E+04  0.7818608E-02  0.8560635E-01
          1   -1    0    0  501    0  0.00000000000E+00  0.00000000000E+00  0.75141538291E+03  0.75141538291E+03  0.00000000000E+00 0. -1.
         -1   -1    0    0    0  501 -0.00000000000E+00 -0.00000000000E+00 -0.14691625886E+04  0.14691625886E+04  0.00000000000E+00 0.  1.
         23    2    1    2    0    0 -0.49345462859E+03 -0.34736443963E+03 -0.93412654381E+03  0.11159615435E+04  0.92834488818E+02 0.  0.
        254    2    1    2    0    0  0.49345462859E+03  0.34736443963E+03  0.21637933815E+03  0.11046164280E+04  0.89955428441E+03 0.  0.
        -24    2    4    4    0    0  0.26215764203E+03  0.16243069074E+02 -0.32383539434E+03  0.42429881884E+03  0.78547173564E+02 0.  0.
         24    2    4    4    0    0  0.23129698656E+03  0.33112137055E+03  0.54021473249E+03  0.68031760915E+03  0.88659089127E+02 0.  0.
         11    1    3    3    0    0 -0.61659455978E+02 -0.17365741405E+02 -0.67722525374E+02  0.93219085648E+02  0.00000000000E+00 0. -1.
        -11    1    3    3    0    0 -0.43179517261E+03 -0.32999869822E+03 -0.86640401844E+03  0.10227424578E+04  0.00000000000E+00 0.  1.
          2    1    6    6  502    0  0.17879537414E+03  0.28679208688E+03  0.39627539473E+03  0.52081827481E+03  0.00000000000E+00 0. -1.
          3    1    5    5  503    0  0.32330550369E+02 -0.24393421952E+02 -0.54677120960E+02  0.68043302963E+02  0.00000000000E+00 0. -1.
         -4    1    5    5    0  503  0.22982709166E+03  0.40636491026E+02 -0.26915827338E+03  0.35625551588E+03  0.00000000000E+00 0.  1.
         -1    1    6    6    0  502  0.52501612424E+02  0.44329283674E+02  0.14393933776E+03  0.15949933433E+03  0.00000000000E+00 0.  1.
<mgrwt>
<rscale>  0 0.21013818E+04</rscale>
<asrwt>0</asrwt>
<pdfrwt beam="1">  1        1 0.11560237E+00 0.21013818E+04</pdfrwt>
<pdfrwt beam="2">  1       -1 0.22602501E+00 0.21013818E+04</pdfrwt>
<totfact> 0.22523526E+00</totfact>
</mgrwt>
</event>
<event>
12    1  0.2019083E-007  0.3180268E+04  0.7818608E-02  0.8194048E-01
         -2   -1    0    0    0  501 -0.00000000000E+00  0.00000000000E+00  0.16599769234E+04  0.16599769234E+04  0.00000000000E+00 0.  1.
          2   -1    0    0  501    0  0.00000000000E+00 -0.00000000000E+00 -0.15232300301E+04  0.15232300301E+04  0.00000000000E+00 0. -1.
         23    2    1    2    0    0  0.13927694370E+04 -0.37777122983E+03 -0.17831882129E+03  0.14574282169E+04  0.98901965014E+02 0.  0.
        254    2    1    2    0    0 -0.13927694370E+04  0.37777122983E+03  0.31506571466E+03  0.17257787366E+04  0.89248419399E+03 0.  0.
        -24    2    4    4    0    0 -0.11273747826E+04  0.39973108099E+02 -0.83795599313E+02  0.11339931959E+04  0.79668790279E+02 0.  0.
         24    2    4    4    0    0 -0.26539465444E+03  0.33779812174E+03  0.39886131397E+03  0.59178554074E+03  0.81104160150E+02 0.  0.
         11    1    3    3    0    0  0.39407869476E+03 -0.14075051119E+03 -0.82687524646E+02  0.42655122881E+03  0.00000000000E+00 0. -1.
        -11    1    3    3    0    0  0.99869074223E+03 -0.23702071865E+03 -0.95631296646E+02  0.10308769881E+04  0.00000000000E+00 0.  1.
          2    1    6    6  502    0 -0.90938415237E+02  0.13172350307E+03  0.20151222081E+03  0.25734811396E+03  0.00000000000E+00 0. -1.
          1    1    5    5  503    0 -0.10465097994E+04  0.31473052633E+02 -0.97588266375E+02  0.10515211758E+04  0.00000000000E+00 0. -1.
         -2    1    5    5    0  503 -0.80864983122E+02  0.85000554666E+01  0.13792667062E+02  0.82472020122E+02  0.00000000000E+00 0.  1.
         -1    1    6    6    0  502 -0.17445623921E+03  0.20607461867E+03  0.19734909316E+03  0.33443742678E+03  0.00000000000E+00 0.  1.
<mgrwt>
<rscale>  0 0.31802684E+04</rscale>
<asrwt>0</asrwt>
<pdfrwt beam="1">  1        2 0.23434308E+00 0.31802684E+04</pdfrwt>
<pdfrwt beam="2">  1       -2 0.25538107E+00 0.31802684E+04</pdfrwt>
<totfact> 0.61861233E-01</totfact>
</mgrwt>
</event>
<event>
12    1  0.2019083E-007  0.1942725E+04  0.7818608E-02  0.8633877E-01
         -3   -1    0    0    0  501 -0.00000000000E+00  0.00000000000E+00  0.23414027861E+04  0.23414027861E+04  0.00000000000E+00 0.  1.
          3   -1    0    0  501    0  0.00000000000E+00 -0.00000000000E+00 -0.40298297784E+03  0.40298297784E+03  0.00000000000E+00 0. -1.
         23    2    1    2    0    0 -0.26095827563E+03 -0.57284627831E+03  0.16272300755E+03  0.65632572952E+03  0.89624805997E+02 0.  0.
        254    2    1    2    0    0  0.26095827563E+03  0.57284627831E+03  0.17756968007E+04  0.20880600344E+04  0.90035742851E+03 0.  0.
        -24    2    4    4    0    0  0.17744830234E+03 -0.11645511791E+03  0.58326340671E+02  0.23406789900E+03  0.79599779124E+02 0.  0.
         24    2    4    4    0    0  0.83509973298E+02  0.68930139622E+03  0.17173704600E+04  0.18539921354E+04  0.76257528896E+02 0.  0.
         13    1    3    3    0    0 -0.10519401015E+03 -0.31783031723E+03  0.11332502777E+03  0.35344653378E+03  0.00000000000E+00 0.  1.
        -13    1    3    3    0    0 -0.15576426548E+03 -0.25501596108E+03  0.49397979787E+02  0.30287919575E+03  0.00000000000E+00 0. -1.
          2    1    6    6  502    0  0.92739325114E+02  0.61272021476E+03  0.14835521700E+04  0.16077791158E+04  0.00000000000E+00 0. -1.
          1    1    5    5  503    0  0.16726173454E+03 -0.74864593522E+02  0.53931974323E+02  0.19102317414E+03  0.00000000000E+00 0. -1.
         -2    1    5    5    0  503  0.10186567793E+02 -0.41590524389E+02  0.43943663484E+01  0.43044724857E+02  0.00000000000E+00 0.  1.
         -1    1    6    6    0  502 -0.92293518162E+01  0.76581181464E+02  0.23381828997E+03  0.24621301959E+03  0.00000000000E+00 0.  1.
<mgrwt>
<rscale>  0 0.19427254E+04</rscale>
<asrwt>0</asrwt>
<pdfrwt beam="1">  1        3 0.61997382E-01 0.19427254E+04</pdfrwt>
<pdfrwt beam="2">  1       -3 0.36021581E+00 0.19427254E+04</pdfrwt>
<totfact> 0.10888421E-01</totfact>
</mgrwt>
</event>
<event>
12    1  0.2019083E-007  0.3733844E+04  0.7818608E-02  0.8060503E-01
          2   -1    0    0  501    0  0.00000000000E+00  0.00000000000E+00  0.43898979041E+04  0.43898979041E+04  0.00000000000E+00 0. -1.
         -2   -1    0    0    0  501 -0.00000000000E+00 -0.00000000000E+00 -0.79395861513E+03  0.79395861513E+03  0.00000000000E+00 0.  1.
         23    2    1    2    0    0  0.55327069926E+03 -0.16333253239E+04  0.12271345167E+04  0.21185219765E+04  0.91739645248E+02 0.  0.
        254    2    1    2    0    0 -0.55327069926E+03  0.16333253239E+04  0.23688047723E+04  0.30653345428E+04  0.90065516692E+03 0.  0.
        -24    2    4    4    0    0 -0.48254494410E+03  0.16193173177E+04  0.24144691820E+04  0.29480436647E+04  0.79131658467E+02 0.  0.
         24    2    4    4    0    0 -0.70725755159E+02  0.14008006161E+02 -0.45664409704E+02  0.11729087813E+03  0.80458406026E+02 0.  0.
         11    1    3    3    0    0  0.25534896766E+03 -0.73070827016E+03  0.49572117467E+03  0.91917199391E+03  0.00000000000E+00 0.  1.
        -11    1    3    3    0    0  0.29792173160E+03 -0.90261705369E+03  0.73141334201E+03  0.11993499825E+04  0.00000000000E+00 0. -1.
          2    1    6    6  502    0  0.17671124056E+01  0.83904646141E+00 -0.43536957489E+02  0.43580882880E+02  0.00000000000E+00 0. -1.
          3    1    5    5  503    0 -0.45597153385E+03  0.14533451638E+04  0.21588367916E+04  0.26421011520E+04  0.00000000000E+00 0. -1.
         -4    1    5    5    0  503 -0.26573410251E+02  0.16597215392E+03  0.25563239044E+03  0.30594251266E+03  0.00000000000E+00 0.  1.
         -1    1    6    6    0  502 -0.72492867564E+02  0.13168959700E+02 -0.21274522150E+01  0.73709995253E+02  0.00000000000E+00 0.  1.
<mgrwt>
<rscale>  0 0.37338437E+04</rscale>
<asrwt>0</asrwt>
<pdfrwt beam="1">  1        2 0.67536890E+00 0.37338437E+04</pdfrwt>
<pdfrwt beam="2">  1       -2 0.12214748E+00 0.37338437E+04</pdfrwt>
<totfact> 0.63902515E-02</totfact>
</mgrwt>
</event>
<event>
12    1  0.2019083E-007  0.1644387E+04  0.7818608E-02  0.8793734E-01
         -1   -1    0    0    0  501 -0.00000000000E+00  0.00000000000E+00  0.24201419069E+04  0.24201419069E+04  0.00000000000E+00 0.  1.
          1   -1    0    0  501    0  0.00000000000E+00 -0.00000000000E+00 -0.27932340165E+03  0.27932340165E+03  0.00000000000E+00 0. -1.
         23    2    1    2    0    0  0.12083364183E+03 -0.42554411018E+02 -0.16017523306E+03  0.22405683525E+03  0.90187101283E+02 0.  0.
        254    2    1    2    0    0 -0.12083364183E+03  0.42554411018E+02  0.23009937383E+04  0.24754084733E+04  0.90369423981E+03 0.  0.
        -24    2    4    4    0    0 -0.19290709265E+03  0.32169312627E+03  0.20478790163E+04  0.20834309733E+04  0.78590974689E+02 0.  0.
         24    2    4    4    0    0  0.72073450815E+02 -0.27913871525E+03  0.25311472203E+03  0.39197750000E+03  0.80413265942E+02 0.  0.
         11    1    3    3    0    0 -0.23905188047E+01 -0.16331381225E+02  0.41266715679E+01  0.17013465582E+02  0.00000000000E+00 0.  1.
        -11    1    3    3    0    0  0.12322416064E+03 -0.26223029792E+02 -0.16430190463E+03  0.20704336966E+03  0.00000000000E+00 0. -1.
          4    1    6    6  502    0 -0.48869900675E+01 -0.14002423601E+03  0.12582085123E+03  0.18831238925E+03  0.00000000000E+00 0. -1.
          3    1    5    5  503    0 -0.40635598683E+02  0.14023890635E+03  0.82501393616E+03  0.83783423038E+03  0.00000000000E+00 0. -1.
         -4    1    5    5    0  503 -0.15227149396E+03  0.18145421991E+03  0.12228650801E+04  0.12455967429E+04  0.00000000000E+00 0.  1.
         -3    1    6    6    0  502  0.76960440882E+02 -0.13911447924E+03  0.12729387080E+03  0.20366511075E+03  0.00000000000E+00 0.  1.
<mgrwt>
<rscale>  0 0.16443871E+04</rscale>
<asrwt>0</asrwt>
<pdfrwt beam="1">  1        1 0.42972833E-01 0.16443871E+04</pdfrwt>
<pdfrwt beam="2">  1       -1 0.37232951E+00 0.16443871E+04</pdfrwt>
<totfact> 0.10184475E+00</totfact>
</mgrwt>
</event>
<event>
12    1  0.2019083E-007  0.1663789E+04  0.7818608E-02  0.8782291E-01
          1   -1    0    0  501    0  0.00000000000E+00  0.00000000000E+00  0.11611007258E+04  0.11611007258E+04  0.00000000000E+00 0. -1.
         -1   -1    0    0    0  501 -0.00000000000E+00 -0.00000000000E+00 -0.59602785225E+03  0.59602785225E+03  0.00000000000E+00 0.  1.
         23    2    1    2    0    0  0.27329959903E+03 -0.30783013735E+03  0.67027278759E+03  0.79191123072E+03  0.91682731542E+02 0.  0.
        254    2    1    2    0    0 -0.27329959903E+03  0.30783013735E+03 -0.10519991408E+03  0.96521734729E+03  0.86667493404E+03 0.  0.
        -24    2    4    4    0    0 -0.10017491247E+03  0.51624473608E+03  0.18239951524E+03  0.56251661069E+03  0.81312443863E+02 0.  0.
         24    2    4    4    0    0 -0.17312468657E+03 -0.20841459873E+03 -0.28759942932E+03  0.40270073660E+03  0.77753774499E+02 0.  0.
         11    1    3    3    0    0  0.26173357213E+03 -0.30102394286E+03  0.60088027689E+03  0.72123296106E+03  0.00000000000E+00 0. -1.
        -11    1    3    3    0    0  0.11566026899E+02 -0.68061944933E+01  0.69392510698E+02  0.70678269664E+02  0.00000000000E+00 0.  1.
          2    1    6    6  502    0 -0.11028356171E+03 -0.17707641069E+03 -0.23934635329E+03  0.31749834021E+03  0.00000000000E+00 0. -1.
          3    1    5    5  503    0 -0.96691254874E+02  0.34034402772E+03  0.96528920649E+02  0.36674390042E+03  0.00000000000E+00 0. -1.
         -4    1    5    5    0  503 -0.34836575938E+01  0.17590070836E+03  0.85870594594E+02  0.19577271027E+03  0.00000000000E+00 0.  1.
         -1    1    6    6    0  502 -0.62841124860E+02 -0.31338188045E+02 -0.48253076028E+02  0.85202396385E+02  0.00000000000E+00 0.  1.
<mgrwt>
<rscale>  0 0.16637889E+04</rscale>
<asrwt>0</asrwt>
<pdfrwt beam="1">  1        1 0.17863088E+00 0.16637889E+04</pdfrwt>
<pdfrwt beam="2">  1       -1 0.91696593E-01 0.16637889E+04</pdfrwt>
<totfact> 0.12627919E+01</totfact>
</mgrwt>
</event>
<event>
12    1  0.2019083E-007  0.1612845E+04  0.7818608E-02  0.8812696E-01
          1   -1    0    0  501    0  0.00000000000E+00  0.00000000000E+00  0.47667805888E+03  0.47667805888E+03  0.00000000000E+00 0. -1.
         -1   -1    0    0    0  501 -0.00000000000E+00 -0.00000000000E+00 -0.13642690190E+04  0.13642690190E+04  0.00000000000E+00 0.  1.
         23    2    1    2    0    0  0.10835610327E+03  0.30692992545E+03 -0.81309947501E+03  0.88063607986E+03  0.91881035277E+02 0.  0.
        254    2    1    2    0    0 -0.10835610327E+03 -0.30692992545E+03 -0.74491485107E+02  0.96031099800E+03  0.90038947533E+03 0.  0.
        -24    2    4    4    0    0 -0.18687241111E+03  0.20326556585E+03 -0.27783193947E+03  0.39968870422E+03  0.79512800210E+02 0.  0.
         24    2    4    4    0    0  0.78516307844E+02 -0.51019549130E+03  0.20334045436E+03  0.56062229378E+03  0.80534253343E+02 0.  0.
         13    1    3    3    0    0  0.10774700024E+03  0.17391213682E+03 -0.51827311413E+03  0.55719105182E+03  0.00000000000E+00 0.  1.
        -13    1    3    3    0    0  0.60910302862E+00  0.13301778863E+03 -0.29482636088E+03  0.32344502804E+03  0.00000000000E+00 0. -1.
          4    1    6    6  502    0  0.74364109441E+02 -0.32434070175E+03  0.16237908512E+03  0.37026190578E+03  0.00000000000E+00 0. -1.
          1    1    5    5  503    0 -0.11178772590E+03  0.10505652515E+03 -0.20555130248E+03  0.25648529605E+03  0.00000000000E+00 0. -1.
         -2    1    5    5    0  503 -0.75084685217E+02  0.98209040698E+02 -0.72280636994E+02  0.14320340818E+03  0.00000000000E+00 0.  1.
         -3    1    6    6    0  502  0.41521984030E+01 -0.18585478955E+03  0.40961369241E+02  0.19036038800E+03  0.00000000000E+00 0.  1.
<mgrwt>
<rscale>  0 0.16128448E+04</rscale>
<asrwt>0</asrwt>
<pdfrwt beam="1">  1        1 0.73335086E-01 0.16128448E+04</pdfrwt>
<pdfrwt beam="2">  1       -1 0.20988754E+00 0.16128448E+04</pdfrwt>
<totfact> 0.58424129E+00</totfact>
</mgrwt>
</event>
<event>
12    1  0.2019083E-007  0.2041410E+04  0.7818608E-02  0.8587501E-01
          1   -1    0    0  501    0  0.00000000000E+00  0.00000000000E+00  0.12475837708E+04  0.12475837708E+04  0.00000000000E+00 0. -1.
         -1   -1    0    0    0  501 -0.00000000000E+00 -0.00000000000E+00 -0.83508547179E+03  0.83508547179E+03  0.00000000000E+00 0.  1.
         23    2    1    2    0    0  0.18082423520E+03 -0.38492059894E+03 -0.54856688507E+03  0.69997561708E+03  0.90437633700E+02 0.  0.
        254    2    1    2    0    0 -0.18082423520E+03  0.38492059894E+03  0.96106518405E+03  0.13826936255E+04  0.89851772515E+03 0.  0.
        -24    2    4    4    0    0 -0.18034011079E+03  0.64718148095E+03  0.48199906385E+03  0.83067396118E+03  0.79559458198E+02 0.  0.
         24    2    4    4    0    0 -0.48412441005E+00 -0.26226088201E+03  0.47906612021E+03  0.55201966430E+03  0.80251838807E+02 0.  0.
         13    1    3    3    0    0  0.84904635084E+02 -0.25912615042E+03 -0.39105895960E+03  0.47674130173E+03  0.00000000000E+00 0.  1.
        -13    1    3    3    0    0  0.95919600121E+02 -0.12579444853E+03 -0.15750792547E+03  0.22323431536E+03  0.00000000000E+00 0. -1.
          4    1    6    6  502    0 -0.63216250648E+01 -0.91379106408E+02  0.24945444668E+03  0.26573976933E+03  0.00000000000E+00 0. -1.
          3    1    5    5  503    0 -0.11128542751E+03  0.33149454528E+03  0.20701943614E+03  0.40636206377E+03  0.00000000000E+00 0. -1.
         -4    1    5    5    0  503 -0.69054683281E+02  0.31568693567E+03  0.27497962770E+03  0.42431189742E+03  0.00000000000E+00 0.  1.
         -3    1    6    6    0  502  0.58375006547E+01 -0.17088177560E+03  0.22961167353E+03  0.28627989497E+03  0.00000000000E+00 0.  1.
<mgrwt>
<rscale>  0 0.20414104E+04</rscale>
<asrwt>0</asrwt>
<pdfrwt beam="1">  1        1 0.19193596E+00 0.20414104E+04</pdfrwt>
<pdfrwt beam="2">  1       -1 0.12847469E+00 0.20414104E+04</pdfrwt>
<totfact> 0.47654122E+00</totfact>
</mgrwt>
</event>
<event>
12    1  0.2019083E-007  0.1455172E+04  0.7818608E-02  0.8914822E-01
          1   -1    0    0  501    0  0.00000000000E+00  0.00000000000E+00  0.11679417192E+04  0.11679417192E+04  0.00000000000E+00 0. -1.
         -1   -1    0    0    0  501 -0.00000000000E+00 -0.00000000000E+00 -0.45326034563E+03  0.45326034563E+03  0.00000000000E+00 0.  1.
         23    2    1    2    0    0  0.32771962006E+03  0.26440673024E+03  0.67921916689E+02  0.43630039246E+03  0.91834510555E+02 0.  0.
        254    2    1    2    0    0 -0.32771962006E+03 -0.26440673024E+03  0.64675945688E+03  0.11849016724E+04  0.89910127893E+03 0.  0.
        -24    2    4    4    0    0  0.22379752615E+03 -0.19883101728E+03 -0.23822997352E+02  0.31059345937E+03  0.79256896574E+02 0.  0.
         24    2    4    4    0    0 -0.55151714621E+03 -0.65575712959E+02  0.67058245423E+03  0.87430821301E+03  0.79137138707E+02 0.  0.
         13    1    3    3    0    0  0.20570948938E+02  0.32053593643E+02 -0.17329234519E+02  0.41843747139E+02  0.00000000000E+00 0.  1.
        -13    1    3    3    0    0  0.30714867112E+03  0.23235313660E+03  0.85251151208E+02  0.39445664532E+03  0.00000000000E+00 0. -1.
          4    1    6    6  502    0 -0.23362209183E+03 -0.66704040859E+02  0.30074215500E+03  0.38661939249E+03  0.00000000000E+00 0. -1.
          1    1    5    5  503    0  0.18006894355E+03 -0.11155200043E+03 -0.21928580326E+02  0.21295430464E+03  0.00000000000E+00 0. -1.
         -2    1    5    5    0  503  0.43728582598E+02 -0.87279016854E+02 -0.18944170263E+01  0.97639154722E+02  0.00000000000E+00 0.  1.
         -3    1    6    6    0  502 -0.31789505437E+03  0.11283278997E+01  0.36984029923E+03  0.48768882051E+03  0.00000000000E+00 0.  1.
<mgrwt>
<rscale>  0 0.14551724E+04</rscale>
<asrwt>0</asrwt>
<pdfrwt beam="1">  1        1 0.17968334E+00 0.14551724E+04</pdfrwt>
<pdfrwt beam="2">  1       -1 0.69732361E-01 0.14551724E+04</pdfrwt>
<totfact> 0.22778307E+01</totfact>
</mgrwt>
</event>
<event>
12    1  0.2019083E-007  0.1791104E+04  0.7818608E-02  0.8711044E-01
         -2   -1    0    0    0  501 -0.00000000000E+00  0.00000000000E+00  0.77059147624E+03  0.77059147624E+03  0.00000000000E+00 0.  1.
          2   -1    0    0  501    0  0.00000000000E+00 -0.00000000000E+00 -0.10407766119E+04  0.10407766119E+04  0.00000000000E+00 0. -1.
         23    2    1    2    0    0  0.33934072308E+03  0.39359254261E+03 -0.52023627508E+03  0.74058701912E+03  0.88068922067E+02 0.  0.
        254    2    1    2    0    0 -0.33934072308E+03 -0.39359254261E+03  0.25005113947E+03  0.10707810690E+04  0.90220801891E+03 0.  0.
        -24    2    4    4    0    0 -0.31577802387E+03 -0.65494091271E+03  0.30273756939E+03  0.79151898448E+03  0.78669608899E+02 0.  0.
         24    2    4    4    0    0 -0.23562699204E+02  0.26134837010E+03 -0.52686429923E+02  0.27926208450E+03  0.79707468873E+02 0.  0.
         11    1    3    3    0    0  0.19485833091E+03  0.19416624315E+03 -0.32861691541E+03  0.42855498620E+03  0.00000000000E+00 0.  1.
        -11    1    3    3    0    0  0.14448239217E+03  0.19942629947E+03 -0.19161935967E+03  0.31203203292E+03  0.00000000000E+00 0. -1.
          2    1    6    6  502    0 -0.42604148738E+02  0.19036967936E+03 -0.12440767973E+02  0.19547506495E+03  0.00000000000E+00 0. -1.
          1    1    5    5  503    0 -0.37640543352E+02 -0.10394068030E+03  0.18851758017E+02  0.11214216114E+03  0.00000000000E+00 0. -1.
         -2    1    5    5    0  503 -0.27813748052E+03 -0.55100023241E+03  0.28388581137E+03  0.67937682334E+03  0.00000000000E+00 0.  1.
         -1    1    6    6    0  502  0.19041449535E+02  0.70978690741E+02 -0.40245661949E+02  0.83787019553E+02  0.00000000000E+00 0.  1.
<mgrwt>
<rscale>  0 0.17911042E+04</rscale>
<asrwt>0</asrwt>
<pdfrwt beam="1">  1        2 0.16011948E+00 0.17911042E+04</pdfrwt>
<pdfrwt beam="2">  1       -2 0.11855254E+00 0.17911042E+04</pdfrwt>
<totfact> 0.12266871E+01</totfact>
</mgrwt>
</event>
<event>
12    1  0.2019083E-007  0.2308525E+04  0.7818608E-02  0.8474567E-01
          2   -1    0    0  501    0  0.00000000000E+00  0.00000000000E+00  0.13892615238E+04  0.13892615238E+04  0.00000000000E+00 0. -1.
         -2   -1    0    0    0  501 -0.00000000000E+00 -0.00000000000E+00 -0.95901485020E+03  0.95901485020E+03  0.00000000000E+00 0.  1.
         23    2    1    2    0    0  0.70241434532E+03 -0.32466167100E+03  0.78690359569E+03  0.11081497060E+04  0.99936923960E+02 0.  0.
        254    2    1    2    0    0 -0.70241434532E+03  0.32466167100E+03 -0.35665692209E+03  0.12401266680E+04  0.90106541360E+03 0.  0.
        -24    2    4    4    0    0 -0.42629086772E+02  0.49029643384E+03 -0.10210028515E+03  0.50945045475E+03  0.83111163732E+02 0.  0.
         24    2    4    4    0    0 -0.65978525855E+03 -0.16563476284E+03 -0.25455663694E+03  0.73067621330E+03  0.79606439447E+02 0.  0.
         13    1    3    3    0    0  0.19677407102E+03 -0.10688806311E+03  0.29104558312E+03  0.36722285401E+03  0.00000000000E+00 0. -1.
        -13    1    3    3    0    0  0.50564027431E+03 -0.21777360789E+03  0.49585801257E+03  0.74092685194E+03  0.00000000000E+00 0.  1.
          2    1    6    6  502    0 -0.10738889476E+03 -0.53405260748E+02 -0.61996673415E+02  0.13501142214E+03  0.00000000000E+00 0. -1.
          1    1    5    5  503    0 -0.49598103181E+02  0.14930121960E+03 -0.19530833566E+02  0.15853163556E+03  0.00000000000E+00 0. -1.
         -2    1    5    5    0  503  0.69690164086E+01  0.34099521424E+03 -0.82569451582E+02  0.35091881918E+03  0.00000000000E+00 0.  1.
         -1    1    6    6    0  502 -0.55239636379E+03 -0.11222950210E+03 -0.19255996353E+03  0.59566479116E+03  0.00000000000E+00 0.  1.
<mgrwt>
<rscale>  0 0.23085254E+04</rscale>
<asrwt>0</asrwt>
<pdfrwt beam="1">  1        2 0.21373254E+00 0.23085254E+04</pdfrwt>
<pdfrwt beam="2">  1       -2 0.14754075E+00 0.23085254E+04</pdfrwt>
<totfact> 0.41630421E+00</totfact>
</mgrwt>
</event>
<event>
12    1  0.2019083E-007  0.1148819E+04  0.7818608E-02  0.9158874E-01
         -2   -1    0    0    0  501 -0.00000000000E+00  0.00000000000E+00  0.12098389884E+04  0.12098389884E+04  0.00000000000E+00 0.  1.
          2   -1    0    0  501    0  0.00000000000E+00 -0.00000000000E+00 -0.27271897260E+03  0.27271897260E+03  0.00000000000E+00 0. -1.
         23    2    1    2    0    0  0.15315796526E+03  0.10796611912E+03  0.71158055609E+02  0.21909748773E+03  0.88465784645E+02 0.  0.
        254    2    1    2    0    0 -0.15315796526E+03 -0.10796611912E+03  0.86596196016E+03  0.12634604732E+04  0.90073758985E+03 0.  0.
        -24    2    4    4    0    0 -0.24822962749E+03 -0.38769447504E+03  0.15913670596E+03  0.49331463522E+03  0.78165748213E+02 0.  0.
         24    2    4    4    0    0  0.95071662235E+02  0.27972835592E+03  0.70682525421E+03  0.77014583801E+03  0.78968967025E+02 0.  0.
         11    1    3    3    0    0  0.99368038214E+02  0.57540298250E+02  0.86534063701E+02  0.14378121269E+03  0.00000000000E+00 0.  1.
        -11    1    3    3    0    0  0.53789927046E+02  0.50425820872E+02 -0.15376008092E+02  0.75316275047E+02  0.00000000000E+00 0. -1.
          4    1    6    6  502    0  0.10524170531E+03  0.21130404787E+03  0.56572021624E+03  0.61299639496E+03  0.00000000000E+00 0. -1.
          3    1    5    5  503    0 -0.21622034391E+03 -0.28003325198E+03  0.13322208006E+03  0.37804494700E+03  0.00000000000E+00 0. -1.
         -4    1    5    5    0  503 -0.32009283581E+02 -0.10766122307E+03  0.25914625899E+02  0.11526968822E+03  0.00000000000E+00 0.  1.
         -3    1    6    6    0  502 -0.10170043073E+02  0.68424308055E+02  0.14110503797E+03  0.15714944305E+03  0.00000000000E+00 0.  1.
<mgrwt>
<rscale>  0 0.11488186E+04</rscale>
<asrwt>0</asrwt>
<pdfrwt beam="1">  1        2 0.41956766E-01 0.11488186E+04</pdfrwt>
<pdfrwt beam="2">  1       -2 0.18612907E+00 0.11488186E+04</pdfrwt>
<totfact> 0.19883680E+01</totfact>
</mgrwt>
</event>
<event>
12    1  0.3587182E-007  0.2094842E+04  0.7818608E-02  0.8563519E-01
         -2   -1    0    0    0  501 -0.00000000000E+00  0.00000000000E+00  0.53851242347E+03  0.53851242347E+03  0.00000000000E+00 0.  1.
          2   -1    0    0  501    0  0.00000000000E+00 -0.00000000000E+00 -0.20372620562E+04  0.20372620562E+04  0.00000000000E+00 0. -1.
         23    2    1    2    0    0  0.25322762997E+03 -0.79612976456E+03 -0.81305052239E+03  0.11692901433E+04  0.90782447435E+02 0.  0.
        254    2    1    2    0    0 -0.25322762997E+03  0.79612976456E+03 -0.68569911035E+03  0.14064843363E+04  0.90003782356E+03 0.  0.
        -24    2    4    4    0    0 -0.27536520206E+03  0.54455316471E+03 -0.88308791579E+03  0.10763997683E+04  0.80175123822E+02 0.  0.
         24    2    4    4    0    0  0.22137572089E+02  0.25157659985E+03  0.19738880544E+03  0.33008456804E+03  0.78820199534E+02 0.  0.
         13    1    3    3    0    0  0.16638262303E+03 -0.38334918462E+03 -0.42732850002E+03  0.59770345618E+03  0.00000000000E+00 0. -1.
        -13    1    3    3    0    0  0.86845006939E+02 -0.41278057994E+03 -0.38572202237E+03  0.57158668717E+03  0.00000000000E+00 0.  1.
          2    1    6    6  502    0  0.32130247025E+02  0.24139301388E+03  0.20054776953E+03  0.31547162755E+03  0.00000000000E+00 0. -1.
          1    1    5    5  503    0 -0.26801190118E+03  0.52287023551E+03 -0.87060477092E+03  0.10503220123E+04  0.00000000000E+00 0. -1.
         -2    1    5    5    0  503 -0.73533008765E+01  0.21682929202E+02 -0.12483144870E+02  0.26077756008E+02  0.00000000000E+00 0.  1.
         -1    1    6    6    0  502 -0.99926749362E+01  0.10183585966E+02 -0.31589640941E+01  0.14612940486E+02  0.00000000000E+00 0.  1.
<mgrwt>
<rscale>  0 0.20948422E+04</rscale>
<asrwt>0</asrwt>
<pdfrwt beam="1">  1        2 0.31342493E+00 0.20948422E+04</pdfrwt>
<pdfrwt beam="2">  1       -2 0.82848065E-01 0.20948422E+04</pdfrwt>
<totfact> 0.74994489E+00</totfact>
</mgrwt>
</event>
<event>
12    1  0.2019083E-007  0.1448659E+04  0.7818608E-02  0.8919331E-01
          1   -1    0    0  501    0  0.00000000000E+00  0.00000000000E+00  0.31853725348E+04  0.31853725348E+04  0.00000000000E+00 0. -1.
         -1   -1    0    0    0  501 -0.00000000000E+00 -0.00000000000E+00 -0.16470697201E+03  0.16470697201E+03  0.00000000000E+00 0.  1.
         23    2    1    2    0    0 -0.26975400024E+03 -0.18501112753E+03  0.16175941284E+04  0.16527216208E+04  0.88778677833E+02 0.  0.
        254    2    1    2    0    0  0.26975400024E+03  0.18501112753E+03  0.14030714344E+04  0.16973578860E+04  0.89745083722E+03 0.  0.
        -24    2    4    4    0    0  0.79937276664E+02  0.50002739582E+03  0.11032295427E+04  0.12161913494E+04  0.74757004804E+02 0.  0.
         24    2    4    4    0    0  0.18981672358E+03 -0.31501626829E+03  0.29984189167E+03  0.48116653656E+03  0.79689635900E+02 0.  0.
         11    1    3    3    0    0 -0.34074932451E+02 -0.40693341295E+02  0.14472721851E+03  0.15415257645E+03  0.00000000000E+00 0.  1.
        -11    1    3    3    0    0 -0.23567906779E+03 -0.14431778623E+03  0.14728669099E+04  0.14985690444E+04  0.00000000000E+00 0. -1.
          2    1    6    6  502    0  0.32678994659E+02 -0.26577162371E+02  0.10440624787E+02  0.43396646156E+02  0.00000000000E+00 0. -1.
          3    1    5    5  503    0  0.56981564667E+02  0.15470904675E+03  0.32267826919E+03  0.36235763172E+03  0.00000000000E+00 0. -1.
         -4    1    5    5    0  503  0.22955711996E+02  0.34531834907E+03  0.78055127350E+03  0.85383371770E+03  0.00000000000E+00 0.  1.
         -1    1    6    6    0  502  0.15713772892E+03 -0.28843910592E+03  0.28940126688E+03  0.43776989040E+03  0.00000000000E+00 0.  1.
<mgrwt>
<rscale>  0 0.14486588E+04</rscale>
<asrwt>0</asrwt>
<pdfrwt beam="1">  1        1 0.49005727E+00 0.14486588E+04</pdfrwt>
<pdfrwt beam="2">  1       -1 0.25339536E-01 0.14486588E+04</pdfrwt>
<totfact> 0.58479861E+00</totfact>
</mgrwt>
</event>
<event>
12    1  0.2019083E-007  0.2344472E+04  0.7818608E-02  0.8460590E-01
         -2   -1    0    0    0  501 -0.00000000000E+00  0.00000000000E+00  0.46319261356E+03  0.46319261356E+03  0.00000000000E+00 0.  1.
          2   -1    0    0  501    0  0.00000000000E+00 -0.00000000000E+00 -0.29666647851E+04  0.29666647851E+04  0.00000000000E+00 0. -1.
         23    2    1    2    0    0 -0.45029940246E+03 -0.39832635463E+03 -0.22292682970E+04  0.23107639182E+04  0.92516533416E+02 0.  0.
        254    2    1    2    0    0  0.45029940246E+03  0.39832635463E+03 -0.27420387448E+03  0.11190934804E+04  0.90318825085E+03 0.  0.
        -24    2    4    4    0    0  0.51543569784E+03  0.10667422460E+03 -0.50436346642E+03  0.73357572442E+03  0.81838184215E+02 0.  0.
         24    2    4    4    0    0 -0.65136295382E+02  0.29165213003E+03  0.23015959194E+03  0.38551775600E+03  0.79666809275E+02 0.  0.
         13    1    3    3    0    0 -0.19110544474E+03 -0.12417086013E+03 -0.95492866251E+03  0.98174764782E+03  0.00000000000E+00 0. -1.
        -13    1    3    3    0    0 -0.25919395771E+03 -0.27415549449E+03 -0.12743396345E+04  0.13290162704E+04  0.00000000000E+00 0.  1.
          4    1    6    6  502    0 -0.79235073557E+02  0.19163781720E+03  0.14075563704E+03  0.25063000463E+03  0.00000000000E+00 0. -1.
          3    1    5    5  503    0  0.24982704414E+03  0.66680954154E+02 -0.19488601345E+03  0.32379076557E+03  0.00000000000E+00 0. -1.
         -4    1    5    5    0  503  0.26560865370E+03  0.39993270445E+02 -0.30947745297E+03  0.40978495885E+03  0.00000000000E+00 0.  1.
         -3    1    6    6    0  502  0.14098778176E+02  0.10001431283E+03  0.89403954897E+02  0.13488775136E+03  0.00000000000E+00 0.  1.
<mgrwt>
<rscale>  0 0.23444720E+04</rscale>
<asrwt>0</asrwt>
<pdfrwt beam="1">  1        2 0.45640995E+00 0.23444720E+04</pdfrwt>
<pdfrwt beam="2">  1       -2 0.71260405E-01 0.23444720E+04</pdfrwt>
<totfact> 0.29516133E+00</totfact>
</mgrwt>
</event>
<event>
12    1  0.2019083E-007  0.1366573E+04  0.7818608E-02  0.8978377E-01
          2   -1    0    0  501    0  0.00000000000E+00  0.00000000000E+00  0.21675038694E+04  0.21675038694E+04  0.00000000000E+00 0. -1.
         -2   -1    0    0    0  501 -0.00000000000E+00 -0.00000000000E+00 -0.21540003090E+03  0.21540003090E+03  0.00000000000E+00 0.  1.
         23    2    1    2    0    0  0.37364562239E+03 -0.30411612166E+02  0.64907009062E+03  0.75545571193E+03  0.94262574032E+02 0.  0.
        254    2    1    2    0    0 -0.37364562239E+03  0.30411612166E+02  0.13030337479E+04  0.16274481884E+04  0.90008596281E+03 0.  0.
        -24    2    4    4    0    0 -0.36729039690E+02  0.21213093383E+03 -0.36888340715E+02  0.23163476057E+03  0.77106142277E+02 0.  0.
         24    2    4    4    0    0 -0.33691658270E+03 -0.18171932167E+03  0.13399220886E+04  0.13958134278E+04  0.79807431760E+02 0.  0.
         11    1    3    3    0    0  0.28370522296E+03  0.18097143006E+02  0.48419564835E+03  0.56148159899E+03  0.00000000000E+00 0.  1.
        -11    1    3    3    0    0  0.89940399429E+02 -0.48508755171E+02  0.16487444227E+03  0.19397411294E+03  0.00000000000E+00 0. -1.
          2    1    6    6  502    0 -0.23652279923E+03 -0.88986884648E+02  0.92913972514E+03  0.96289268822E+03  0.00000000000E+00 0. -1.
          1    1    5    5  503    0 -0.14753908217E+02  0.48049234544E+01 -0.15699398418E+02  0.22073427639E+02  0.00000000000E+00 0. -1.
         -2    1    5    5    0  503 -0.21975131473E+02  0.20732601038E+03 -0.21188942297E+02  0.20956133293E+03  0.00000000000E+00 0.  1.
         -1    1    6    6    0  502 -0.10039378347E+03 -0.92732437021E+02  0.41078236348E+03  0.43292073960E+03  0.00000000000E+00 0.  1.
<mgrwt>
<rscale>  0 0.13665729E+04</rscale>
<asrwt>0</asrwt>
<pdfrwt beam="1">  1        2 0.33346212E+00 0.13665729E+04</pdfrwt>
<pdfrwt beam="2">  1       -2 0.33138468E-01 0.13665729E+04</pdfrwt>
<totfact> 0.44743639E+01</totfact>
</mgrwt>
</event>
<event>
12    1  0.2019083E-007  0.3276291E+04  0.7818608E-02  0.8168954E-01
         -2   -1    0    0    0  501 -0.00000000000E+00  0.00000000000E+00  0.88948628128E+03  0.88948628128E+03  0.00000000000E+00 0. -1.
          2   -1    0    0  501    0  0.00000000000E+00 -0.00000000000E+00 -0.30169332828E+04  0.30169332828E+04  0.00000000000E+00 0.  1.
         23    2    1    2    0    0 -0.47652880765E+03 -0.96634296053E+03 -0.22511055477E+04  0.24973149090E+04  0.90593299628E+02 0.  0.
        254    2    1    2    0    0  0.47652880765E+03  0.96634296053E+03  0.12365854612E+03  0.14091046551E+04  0.89965886381E+03 0.  0.
        -24    2    4    4    0    0  0.14676374037E+03  0.97347838610E+03  0.29224450799E+03  0.10299664355E+04  0.78893865659E+02 0.  0.
         24    2    4    4    0    0  0.32976506728E+03 -0.71354255668E+01 -0.16858596188E+03  0.37913821968E+03  0.80800056825E+02 0.  0.
         11    1    3    3    0    0 -0.13876014528E+03 -0.20004214767E+03 -0.48067701715E+03  0.53881502724E+03  0.00000000000E+00 0. -1.
        -11    1    3    3    0    0 -0.33776866237E+03 -0.76630081287E+03 -0.17704285305E+04  0.19584998817E+04  0.00000000000E+00 0.  1.
          4    1    6    6  502    0  0.10160628762E+03 -0.11297181226E+02 -0.94495073957E+02  0.13921488063E+03  0.00000000000E+00 0. -1.
          3    1    5    5  503    0  0.12289294285E+03  0.64704727445E+03  0.22366181629E+03  0.69555550378E+03  0.00000000000E+00 0. -1.
         -4    1    5    5    0  503  0.23870797519E+02  0.32643111165E+03  0.68582691706E+02  0.33441093168E+03  0.00000000000E+00 0.  1.
         -3    1    6    6    0  502  0.22815877966E+03  0.41617556592E+01 -0.74090887922E+02  0.23992333905E+03  0.00000000000E+00 0.  1.
<mgrwt>
<rscale>  0 0.32762911E+04</rscale>
<asrwt>0</asrwt>
<pdfrwt beam="1">  1        2 0.46414359E+00 0.32762911E+04</pdfrwt>
<pdfrwt beam="2">  1       -2 0.13684404E+00 0.32762911E+04</pdfrwt>
<totfact> 0.54133275E-01</totfact>
</mgrwt>
</event>
<event>
12    1  0.2019083E-007  0.2451627E+04  0.7818608E-02  0.8420424E-01
          2   -1    0    0  501    0  0.00000000000E+00  0.00000000000E+00  0.29065707979E+04  0.29065707979E+04  0.00000000000E+00 0. -1.
         -2   -1    0    0    0  501 -0.00000000000E+00 -0.00000000000E+00 -0.51697314847E+03  0.51697314847E+03  0.00000000000E+00 0.  1.
         23    2    1    2    0    0  0.38269841784E+03  0.98201723301E+03  0.92261817094E+03  0.14034727424E+04  0.87724137097E+02 0.  0.
        254    2    1    2    0    0 -0.38269841784E+03 -0.98201723301E+03  0.14669794785E+04  0.20200712041E+04  0.90434670017E+03 0.  0.
        -24    2    4    4    0    0 -0.51066952635E+03 -0.26592550124E+03  0.33104432884E+03  0.66900935443E+03  0.80519757242E+02 0.  0.
         24    2    4    4    0    0  0.12797110851E+03 -0.71609173177E+03  0.11359351497E+04  0.13510618496E+04  0.76521136210E+02 0.  0.
         11    1    3    3    0    0  0.92573428670E+02  0.26335019600E+03  0.19583523755E+03  0.34099062406E+03  0.00000000000E+00 0.  1.
        -11    1    3    3    0    0  0.29012498917E+03  0.71866703701E+03  0.72678293340E+03  0.10624821183E+04  0.00000000000E+00 0. -1.
          2    1    6    6  502    0 -0.60457766516E+01 -0.11772930370E+03  0.19956571717E+03  0.23178269097E+03  0.00000000000E+00 0. -1.
          3    1    5    5  503    0 -0.16719472094E+03 -0.72761893070E+02  0.65160168792E+02  0.19363423094E+03  0.00000000000E+00 0. -1.
         -4    1    5    5    0  503 -0.34347480541E+03 -0.19316360817E+03  0.26588416004E+03  0.47537512349E+03  0.00000000000E+00 0.  1.
         -1    1    6    6    0  502  0.13401688517E+03 -0.59836242807E+03  0.93636943253E+03  0.11192791587E+04  0.00000000000E+00 0.  1.
<mgrwt>
<rscale>  0 0.24516273E+04</rscale>
<asrwt>0</asrwt>
<pdfrwt beam="1">  1        2 0.44716473E+00 0.24516273E+04</pdfrwt>
<pdfrwt beam="2">  1       -2 0.79534332E-01 0.24516273E+04</pdfrwt>
<totfact> 0.24966216E+00</totfact>
</mgrwt>
</event>
<event>
12    1  0.2019083E-007  0.1627347E+04  0.7818608E-02  0.8803922E-01
         -1   -1    0    0    0  501 -0.00000000000E+00  0.00000000000E+00  0.72811803062E+03  0.72811803062E+03  0.00000000000E+00 0.  1.
          1   -1    0    0  501    0  0.00000000000E+00 -0.00000000000E+00 -0.90928200127E+03  0.90928200127E+03  0.00000000000E+00 0. -1.
         23    2    1    2    0    0  0.44863255183E+03  0.32162792504E+03 -0.15443377479E+03  0.58069349856E+03  0.92948694186E+02 0.  0.
        254    2    1    2    0    0 -0.44863255183E+03 -0.32162792504E+03 -0.26730195863E+02  0.10567065333E+04  0.90066559025E+03 0.  0.
        -24    2    4    4    0    0 -0.70055248347E+03 -0.27746415384E+03  0.92779055936E+02  0.76330117123E+03  0.79123865007E+02 0.  0.
         24    2    4    4    0    0  0.25191993164E+03 -0.44163771201E+02 -0.11950925180E+03  0.29340536209E+03  0.79938442535E+02 0.  0.
         11    1    3    3    0    0  0.33976787393E+03  0.19285255830E+03 -0.96888084468E+02  0.40251909061E+03  0.00000000000E+00 0. -1.
        -11    1    3    3    0    0  0.10886467790E+03  0.12877536674E+03 -0.57545690319E+02  0.17817440795E+03  0.00000000000E+00 0.  1.
          4    1    6    6  502    0  0.39718269736E+02  0.70206616710E+01 -0.50163511465E+02  0.64367759971E+02  0.00000000000E+00 0. -1.
          1    1    5    5  503    0 -0.55898704689E+02 -0.37636333612E+01  0.18606454761E+02  0.59034145041E+02  0.00000000000E+00 0. -1.
         -2    1    5    5    0  503 -0.64465377878E+03 -0.27370052048E+03  0.74172601174E+02  0.70426702619E+03  0.00000000000E+00 0.  1.
         -3    1    6    6    0  502  0.21220166191E+03 -0.51184432872E+02 -0.69345740333E+02  0.22903760212E+03  0.00000000000E+00 0.  1.
<mgrwt>
<rscale>  0 0.16273471E+04</rscale>
<asrwt>0</asrwt>
<pdfrwt beam="1">  1        1 0.13988954E+00 0.16273471E+04</pdfrwt>
<pdfrwt beam="2">  1       -1 0.11201816E+00 0.16273471E+04</pdfrwt>
<totfact> 0.12515656E+01</totfact>
</mgrwt>
</event>
<event>
12    1  0.2019083E-007  0.2833319E+04  0.7818608E-02  0.8292998E-01
         -1   -1    0    0    0  501 -0.00000000000E+00  0.00000000000E+00  0.15558040233E+04  0.15558040233E+04  0.00000000000E+00 0.  1.
          1   -1    0    0  501    0  0.00000000000E+00 -0.00000000000E+00 -0.12899591130E+04  0.12899591130E+04  0.00000000000E+00 0. -1.
         23    2    1    2    0    0 -0.27550690225E+02 -0.11907774922E+04  0.57885351077E+03  0.13274882178E+04  0.91888545964E+02 0.  0.
        254    2    1    2    0    0  0.27550690225E+02  0.11907774922E+04 -0.31300860043E+03  0.15182749185E+04  0.88796073553E+03 0.  0.
        -24    2    4    4    0    0  0.14876223023E+03 -0.12115275954E+02  0.14461811108E+03  0.22357520518E+03  0.82428716233E+02 0.  0.
         24    2    4    4    0    0 -0.12121154001E+03  0.12028927682E+04 -0.45762671152E+03  0.12946997134E+04  0.71985356634E+02 0.  0.
         13    1    3    3    0    0  0.30432838824E+02 -0.53344743937E+03  0.27688943306E+03  0.60179737984E+03  0.00000000000E+00 0. -1.
        -13    1    3    3    0    0 -0.57983529049E+02 -0.65733005283E+03  0.30196407771E+03  0.72569083791E+03  0.00000000000E+00 0.  1.
          2    1    6    6  502    0 -0.98799476103E+00  0.29859863755E+03 -0.10102390640E+03  0.31522682650E+03  0.00000000000E+00 0. -1.
          3    1    5    5  503    0  0.64122904123E+02 -0.38791967452E+02  0.97879214728E+02  0.12327572449E+03  0.00000000000E+00 0. -1.
         -4    1    5    5    0  503  0.84639326111E+02  0.26676691498E+02  0.46738896357E+02  0.10029948069E+03  0.00000000000E+00 0.  1.
         -1    1    6    6    0  502 -0.12022354525E+03  0.90429413060E+03 -0.35660280511E+03  0.97947288686E+03  0.00000000000E+00 0.  1.
<mgrwt>
<rscale>  0 0.28333186E+04</rscale>
<asrwt>0</asrwt>
<pdfrwt beam="1">  1        1 0.19845525E+00 0.28333186E+04</pdfrwt>
<pdfrwt beam="2">  1       -1 0.23935446E+00 0.28333186E+04</pdfrwt>
<totfact> 0.64997721E-01</totfact>
</mgrwt>
</event>
<event>
12    1  0.2019083E-007  0.2007428E+04  0.7818608E-02  0.8603156E-01
         -2   -1    0    0    0  501 -0.00000000000E+00  0.00000000000E+00  0.29821183681E+03  0.29821183681E+03  0.00000000000E+00 0.  1.
          2   -1    0    0  501    0  0.00000000000E+00 -0.00000000000E+00 -0.33782761086E+04  0.33782761086E+04  0.00000000000E+00 0. -1.
         23    2    1    2    0    0 -0.10005059243E+03 -0.66083821968E+03 -0.20354267123E+04  0.21442911192E+04  0.91133029051E+02 0.  0.
        254    2    1    2    0    0  0.10005059243E+03  0.66083821968E+03 -0.10446375594E+04  0.15321968262E+04  0.89980120580E+03 0.  0.
        -24    2    4    4    0    0  0.36563599778E+03  0.74209540946E+03 -0.76753659277E+03  0.11313225920E+04  0.79894344485E+02 0.  0.
         24    2    4    4    0    0 -0.26558540535E+03 -0.81257189784E+02 -0.27710096668E+03  0.40087423421E+03  0.82321731589E+02 0.  0.
         11    1    3    3    0    0 -0.21182398971E+02 -0.38167658787E+03 -0.10705982518E+04  0.11367965202E+04  0.00000000000E+00 0.  1.
        -11    1    3    3    0    0 -0.78868193459E+02 -0.27916163181E+03 -0.96482846057E+03  0.10074945990E+04  0.00000000000E+00 0. -1.
          4    1    6    6  502    0 -0.22380112266E+03 -0.57687776218E+02 -0.26455139452E+03  0.35128658154E+03  0.00000000000E+00 0. -1.
          1    1    5    5  503    0  0.13735170518E+03  0.30793589413E+03 -0.26277941192E+03  0.42748453204E+03  0.00000000000E+00 0. -1.
         -2    1    5    5    0  503  0.22828429260E+03  0.43415951534E+03 -0.50475718086E+03  0.70383805995E+03  0.00000000000E+00 0.  1.
         -3    1    6    6    0  502 -0.41784282690E+02 -0.23569413566E+02 -0.12549572160E+02  0.49587652669E+02  0.00000000000E+00 0.  1.
<mgrwt>
<rscale>  0 0.20074281E+04</rscale>
<asrwt>0</asrwt>
<pdfrwt beam="1">  1        2 0.51973474E+00 0.20074281E+04</pdfrwt>
<pdfrwt beam="2">  1       -2 0.45878748E-01 0.20074281E+04</pdfrwt>
<totfact> 0.41454464E+00</totfact>
</mgrwt>
</event>
<event>
12    1  0.2019083E-007  0.2547706E+04  0.7818608E-02  0.8386184E-01
          1   -1    0    0  501    0  0.00000000000E+00  0.00000000000E+00  0.51070125650E+03  0.51070125650E+03  0.00000000000E+00 0. -1.
         -1   -1    0    0    0  501 -0.00000000000E+00 -0.00000000000E+00 -0.31773984421E+04  0.31773984421E+04  0.00000000000E+00 0.  1.
         23    2    1    2    0    0 -0.52406551189E+03  0.93937965368E+03 -0.15781083399E+04  0.19119392028E+04  0.89480657665E+02 0.  0.
        254    2    1    2    0    0  0.52406551189E+03 -0.93937965368E+03 -0.10885888456E+04  0.17761604958E+04  0.90146638174E+03 0.  0.
        -24    2    4    4    0    0  0.17570979462E+02 -0.85204986768E+03 -0.84270837640E+03  0.12012998582E+04  0.81646954676E+02 0.  0.
         24    2    4    4    0    0  0.50649453243E+03 -0.87329785994E+02 -0.24588046922E+03  0.57486063761E+03  0.76448313443E+02 0.  0.
         13    1    3    3    0    0 -0.61530177948E+02  0.98526855692E+02 -0.22284581306E+03  0.25130411952E+03  0.00000000000E+00 0.  1.
        -13    1    3    3    0    0 -0.46253533394E+03  0.84085279799E+03 -0.13552625269E+04  0.16606350833E+04  0.00000000000E+00 0. -1.
          4    1    6    6  502    0  0.16469508881E+02  0.15116474794E+01  0.49270867426E+01  0.17257056083E+02  0.00000000000E+00 0. -1.
          3    1    5    5  503    0  0.11208431193E+02 -0.43798801443E+02 -0.25565761328E+02  0.51938156397E+02  0.00000000000E+00 0. -1.
         -4    1    5    5    0  503  0.63625482695E+01 -0.80825106624E+03 -0.81714261507E+03  0.11493617018E+04  0.00000000000E+00 0.  1.
         -3    1    6    6    0  502  0.49002502354E+03 -0.88841433473E+02 -0.25080755596E+03  0.55760358152E+03  0.00000000000E+00 0.  1.
<mgrwt>
<rscale>  0 0.25477059E+04</rscale>
<asrwt>0</asrwt>
<pdfrwt beam="1">  1        1 0.78569425E-01 0.25477059E+04</pdfrwt>
<pdfrwt beam="2">  1       -1 0.48883053E+00 0.25477059E+04</pdfrwt>
<totfact> 0.66948218E-02</totfact>
</mgrwt>
</event>
<event>
12    1  0.2019083E-007  0.1269464E+04  0.7818608E-02  0.9054137E-01
         -2   -1    0    0    0  501 -0.00000000000E+00  0.00000000000E+00  0.63325862456E+03  0.63325862456E+03  0.00000000000E+00 0.  1.
          2   -1    0    0  501    0  0.00000000000E+00 -0.00000000000E+00 -0.63620889455E+03  0.63620889455E+03  0.00000000000E+00 0. -1.
         23    2    1    2    0    0 -0.29522719273E+03  0.63186034349E+02  0.23709070080E+02  0.31890863582E+03  0.99945123626E+02 0.  0.
        254    2    1    2    0    0  0.29522719273E+03 -0.63186034349E+02 -0.26659340066E+02  0.95055888329E+03  0.90094389389E+03 0.  0.
        -24    2    4    4    0    0  0.35721860666E+03 -0.39918269999E+03  0.14390997978E+03  0.56017140079E+03  0.78294029546E+02 0.  0.
         24    2    4    4    0    0 -0.61991413938E+02  0.33599666565E+03 -0.17056931984E+03  0.39038748250E+03  0.81066632430E+02 0.  0.
         13    1    3    3    0    0 -0.12779320195E+03  0.85557733437E+01  0.56112234098E+02  0.13983163639E+03  0.00000000000E+00 0.  1.
        -13    1    3    3    0    0 -0.16743399078E+03  0.54630261005E+02 -0.32403164018E+02  0.17907699943E+03  0.00000000000E+00 0. -1.
          4    1    6    6  502    0 -0.20114454922E+02  0.24923818297E+03 -0.93287037326E+02  0.26688337243E+03  0.00000000000E+00 0. -1.
          3    1    5    5  503    0  0.27126823726E+03 -0.30426897253E+03  0.74047545917E+02  0.41430556748E+03  0.00000000000E+00 0. -1.
         -4    1    5    5    0  503  0.85950369407E+02 -0.94913727465E+02  0.69862433861E+02  0.14586583331E+03  0.00000000000E+00 0.  1.
         -3    1    6    6    0  502 -0.41876959015E+02  0.86758482673E+02 -0.77282282519E+02  0.12350411007E+03  0.00000000000E+00 0.  1.
<mgrwt>
<rscale>  0 0.12694641E+04</rscale>
<asrwt>0</asrwt>
<pdfrwt beam="1">  1        2 0.97878291E-01 0.12694641E+04</pdfrwt>
<pdfrwt beam="2">  1       -2 0.97424404E-01 0.12694641E+04</pdfrwt>
<totfact> 0.39850429E+01</totfact>
</mgrwt>
</event>
<event>
12    1  0.2019083E-007  0.2492708E+04  0.7818608E-02  0.8405588E-01
          1   -1    0    0  501    0  0.00000000000E+00  0.00000000000E+00  0.18448234147E+04  0.18448234147E+04  0.00000000000E+00 0. -1.
         -1   -1    0    0    0  501 -0.00000000000E+00 -0.00000000000E+00 -0.84203097547E+03  0.84203097547E+03  0.00000000000E+00 0.  1.
         23    2    1    2    0    0 -0.83515173644E+03 -0.40471230982E+03 -0.15795058408E+03  0.94775799956E+03  0.10966477154E+03 0.  0.
        254    2    1    2    0    0  0.83515173644E+03  0.40471230982E+03  0.11607430233E+04  0.17390963906E+04  0.90325047079E+03 0.  0.
        -24    2    4    4    0    0  0.38102397368E+03  0.25930137002E+03  0.11653288103E+04  0.12556802869E+04  0.79531614400E+02 0.  0.
         24    2    4    4    0    0  0.45412776276E+03  0.14541093981E+03 -0.45857870547E+01  0.48341610368E+03  0.79333054404E+02 0.  0.
         11    1    3    3    0    0 -0.26048265638E+03 -0.18154129626E+03 -0.38772597835E+02  0.31986211227E+03  0.00000000000E+00 0. -1.
        -11    1    3    3    0    0 -0.57466908006E+03 -0.22317101357E+03 -0.11917798625E+03  0.62789588729E+03  0.00000000000E+00 0.  1.
          4    1    6    6  502    0  0.90073173714E+02 -0.17140539254E+01  0.88775485411E+01  0.90525827651E+02  0.00000000000E+00 0. -1.
          1    1    5    5  503    0  0.79503208141E+02  0.91084072745E+02  0.25958132579E+03  0.28635560604E+03  0.00000000000E+00 0. -1.
         -2    1    5    5    0  503  0.30152076554E+03  0.16821729727E+03  0.90574748454E+03  0.96932468084E+03  0.00000000000E+00 0.  1.
         -3    1    6    6    0  502  0.36405458905E+03  0.14712499373E+03 -0.13463335596E+02  0.39289027602E+03  0.00000000000E+00 0.  1.
<mgrwt>
<rscale>  0 0.24927081E+04</rscale>
<asrwt>0</asrwt>
<pdfrwt beam="1">  1        1 0.28381899E+00 0.24927081E+04</pdfrwt>
<pdfrwt beam="2">  1       -1 0.12954323E+00 0.24927081E+04</pdfrwt>
<totfact> 0.17274097E+00</totfact>
</mgrwt>
</event>
<event>
12    1  0.2019083E-007  0.2764093E+04  0.7818608E-02  0.8314503E-01
          2   -1    0    0  501    0  0.00000000000E+00  0.00000000000E+00  0.60188854008E+03  0.60188854008E+03  0.00000000000E+00 0. -1.
         -2   -1    0    0    0  501 -0.00000000000E+00 -0.00000000000E+00 -0.31734325770E+04  0.31734325770E+04  0.00000000000E+00 0.  1.
         23    2    1    2    0    0  0.12267495119E+04 -0.54631588742E+02 -0.98556454612E+03  0.15769477844E+04  0.86763267799E+02 0.  0.
        254    2    1    2    0    0 -0.12267495119E+04  0.54631588742E+02 -0.15859794908E+04  0.21983733327E+04  0.89978630202E+03 0.  0.
        -24    2    4    4    0    0  0.22448710352E+02 -0.13610350522E+03  0.88905293349E+01  0.16205405256E+03  0.84583483665E+02 0.  0.
         24    2    4    4    0    0 -0.12491982222E+04  0.19073509396E+03 -0.15948700202E+04  0.20363192802E+04  0.78164922109E+02 0.  0.
         13    1    3    3    0    0  0.84648126934E+03 -0.59298809190E+02 -0.63657719530E+03  0.10607909378E+04  0.00000000000E+00 0. -1.
        -13    1    3    3    0    0  0.38026824255E+03  0.46672204474E+01 -0.34898735082E+03  0.51615684658E+03  0.00000000000E+00 0.  1.
          4    1    6    6  502    0 -0.54606585332E+03  0.10571819695E+03 -0.75309869378E+03  0.93622748085E+03  0.00000000000E+00 0. -1.
          1    1    5    5  503    0 -0.25232042978E+02 -0.10939450365E+02  0.56537617368E+01  0.28076548736E+02  0.00000000000E+00 0. -1.
         -2    1    5    5    0  503  0.47680753330E+02 -0.12516405485E+03  0.32367675981E+01  0.13397750382E+03  0.00000000000E+00 0.  1.
         -3    1    6    6    0  502 -0.70313236893E+03  0.85016897016E+02 -0.84177132638E+03  0.11000917993E+04  0.00000000000E+00 0.  1.
<mgrwt>
<rscale>  0 0.27640931E+04</rscale>
<asrwt>0</asrwt>
<pdfrwt beam="1">  1        2 0.92598237E-01 0.27640931E+04</pdfrwt>
<pdfrwt beam="2">  1       -2 0.48822039E+00 0.27640931E+04</pdfrwt>
<totfact> 0.84093238E-02</totfact>
</mgrwt>
</event>
<event>
12    1  0.2019083E-007  0.4293356E+04  0.7818608E-02  0.7947848E-01
         -1   -1    0    0    0  501 -0.00000000000E+00  0.00000000000E+00  0.11611560589E+04  0.11611560589E+04  0.00000000000E+00 0.  1.
          1   -1    0    0  501    0  0.00000000000E+00 -0.00000000000E+00 -0.39686547176E+04  0.39686547176E+04  0.00000000000E+00 0. -1.
         23    2    1    2    0    0  0.18047827706E+04  0.86390388304E+03 -0.18869754038E+04  0.27518936047E+04  0.93120719868E+02 0.  0.
        254    2    1    2    0    0 -0.18047827706E+04 -0.86390388304E+03 -0.92052325494E+03  0.23779171719E+04  0.89641298804E+03 0.  0.
        -24    2    4    4    0    0 -0.13018437201E+04 -0.75844712845E+03 -0.25001633990E+03  0.15293095697E+04  0.78996654356E+02 0.  0.
         24    2    4    4    0    0 -0.50293905051E+03 -0.10545675459E+03 -0.67050691504E+03  0.84860760221E+03  0.80538958219E+02 0.  0.
         11    1    3    3    0    0  0.43844334707E+03  0.25371704701E+03 -0.46550773058E+03  0.68796973463E+03  0.00000000000E+00 0. -1.
        -11    1    3    3    0    0  0.13663394235E+04  0.61018683603E+03 -0.14214676732E+04  0.20639238700E+04  0.00000000000E+00 0.  1.
          4    1    6    6  502    0 -0.75225246416E+02 -0.44931341799E+02 -0.12818960421E+03  0.15527471720E+03  0.00000000000E+00 0. -1.
          1    1    5    5  503    0 -0.52129465826E+03 -0.27169230035E+03 -0.12470259383E+03  0.60092891735E+03  0.00000000000E+00 0. -1.
         -2    1    5    5    0  503 -0.78054906184E+03 -0.48675482809E+03 -0.12531374607E+03  0.92838065230E+03  0.00000000000E+00 0.  1.
         -3    1    6    6    0  502 -0.42771380409E+03 -0.60525412795E+02 -0.54231731083E+03  0.69333288500E+03  0.00000000000E+00 0.  1.
<mgrwt>
<rscale>  0 0.42933565E+04</rscale>
<asrwt>0</asrwt>
<pdfrwt beam="1">  1        1 0.61056227E+00 0.42933565E+04</pdfrwt>
<pdfrwt beam="2">  1       -1 0.17863939E+00 0.42933565E+04</pdfrwt>
<totfact> 0.16573016E-02</totfact>
</mgrwt>
</event>
<event>
12    1  0.2019083E-007  0.1361937E+04  0.7818608E-02  0.8981841E-01
         -2   -1    0    0    0  501 -0.00000000000E+00  0.00000000000E+00  0.18922406953E+03  0.18922406953E+03  0.00000000000E+00 0.  1.
          2   -1    0    0  501    0  0.00000000000E+00 -0.00000000000E+00 -0.24506309298E+04  0.24506309298E+04  0.00000000000E+00 0. -1.
         23    2    1    2    0    0  0.35899861994E+03 -0.86787466893E+00 -0.85507253008E+03  0.93176651948E+03  0.90327475267E+02 0.  0.
        254    2    1    2    0    0 -0.35899861994E+03  0.86787466893E+00 -0.14063343302E+04  0.17080884799E+04  0.90050499411E+03 0.  0.
        -24    2    4    4    0    0  0.27825622648E+03  0.70121658102E+02 -0.64092122509E+03  0.70653584699E+03  0.77905787945E+02 0.  0.
         24    2    4    4    0    0 -0.63725484642E+03 -0.69253783433E+02 -0.76541310513E+03  0.10015526329E+04  0.79753552554E+02 0.  0.
         11    1    3    3    0    0  0.31632443245E+03 -0.14843640840E+02 -0.80193973976E+03  0.86219999214E+03  0.00000000000E+00 0. -1.
        -11    1    3    3    0    0  0.42674187495E+02  0.13975766171E+02 -0.53132790322E+02  0.69566527338E+02  0.00000000000E+00 0.  1.
          4    1    6    6  502    0 -0.41986107651E+03 -0.22257889353E+02 -0.54599258023E+03  0.68912018899E+03  0.00000000000E+00 0. -1.
          3    1    5    5  503    0  0.10631991027E+03 -0.11542855762E+02 -0.22416268859E+03  0.24836680897E+03  0.00000000000E+00 0. -1.
         -4    1    5    5    0  503  0.17193631621E+03  0.81664513863E+02 -0.41675853650E+03  0.45816903802E+03  0.00000000000E+00 0.  1.
         -3    1    6    6    0  502 -0.21739376991E+03 -0.46995894080E+02 -0.21942052489E+03  0.31243244390E+03  0.00000000000E+00 0.  1.
<mgrwt>
<rscale>  0 0.13619374E+04</rscale>
<asrwt>0</asrwt>
<pdfrwt beam="1">  1        2 0.37702013E+00 0.13619374E+04</pdfrwt>
<pdfrwt beam="2">  1       -2 0.29111396E-01 0.13619374E+04</pdfrwt>
<totfact> 0.39493533E+01</totfact>
</mgrwt>
</event>
<event>
12    1  0.2019083E-007  0.3626179E+04  0.7818608E-02  0.8084521E-01
         -1   -1    0    0    0  501 -0.00000000000E+00  0.00000000000E+00  0.17684071024E+04  0.17684071024E+04  0.00000000000E+00 0.  1.
          1   -1    0    0  501    0  0.00000000000E+00 -0.00000000000E+00 -0.18589011858E+04  0.18589011858E+04  0.00000000000E+00 0. -1.
         23    2    1    2    0    0  0.11305331074E+04 -0.81531191797E+03 -0.10146240346E+04  0.17271288235E+04  0.10331220244E+03 0.  0.
        254    2    1    2    0    0 -0.11305331074E+04  0.81531191797E+03  0.92412995117E+03  0.19001794647E+04  0.90212371702E+03 0.  0.
        -24    2    4    4    0    0 -0.49502798256E+03  0.54701063036E+03  0.95019791945E+03  0.12056987860E+04  0.80994710739E+02 0.  0.
         24    2    4    4    0    0 -0.63550512481E+03  0.26830128760E+03 -0.26067968280E+02  0.69448067866E+03  0.75970582946E+02 0.  0.
         13    1    3    3    0    0  0.30943300890E+03 -0.28144517062E+03 -0.30470092285E+03  0.51749668931E+03  0.00000000000E+00 0.  1.
        -13    1    3    3    0    0  0.82110009847E+03 -0.53386674735E+03 -0.70992311170E+03  0.12096321342E+04  0.00000000000E+00 0. -1.
          4    1    6    6  502    0 -0.96832952358E+02  0.54894290583E+02 -0.29163080580E+02  0.11506732408E+03  0.00000000000E+00 0. -1.
          3    1    5    5  503    0 -0.30912663459E+03  0.29398260097E+03  0.50785567598E+03  0.66325141049E+03  0.00000000000E+00 0. -1.
         -4    1    5    5    0  503 -0.18590134797E+03  0.25302802939E+03  0.44234224347E+03  0.54244737550E+03  0.00000000000E+00 0.  1.
         -3    1    6    6    0  502 -0.53867217245E+03  0.21340699702E+03  0.30951123001E+01  0.57941335459E+03  0.00000000000E+00 0.  1.
<mgrwt>
<rscale>  0 0.36261793E+04</rscale>
<asrwt>0</asrwt>
<pdfrwt beam="1">  1        1 0.28598480E+00 0.36261793E+04</pdfrwt>
<pdfrwt beam="2">  1       -1 0.27206263E+00 0.36261793E+04</pdfrwt>
<totfact> 0.15027377E-01</totfact>
</mgrwt>
</event>
<event>
12    1  0.2019083E-007  0.1852342E+04  0.7818608E-02  0.8678949E-01
         -1   -1    0    0    0  501 -0.00000000000E+00  0.00000000000E+00  0.12524917637E+04  0.12524917637E+04  0.00000000000E+00 0.  1.
          1   -1    0    0  501    0  0.00000000000E+00 -0.00000000000E+00 -0.68486915865E+03  0.68486915865E+03  0.00000000000E+00 0. -1.
         23    2    1    2    0    0  0.38108663954E+03 -0.56227446550E+03  0.39938687150E+03  0.79416674329E+03  0.99052216728E+02 0.  0.
        254    2    1    2    0    0 -0.38108663954E+03  0.56227446550E+03  0.16823573353E+03  0.11431941790E+04  0.90399671878E+03 0.  0.
        -24    2    4    4    0    0 -0.23747815175E+03  0.80091422601E+03  0.96824743482E+02  0.84507171673E+03  0.83136667588E+02 0.  0.
         24    2    4    4    0    0 -0.14360848779E+03 -0.23863976051E+03  0.71410990047E+02  0.29812246231E+03  0.78772710838E+02 0.  0.
         13    1    3    3    0    0  0.10161141302E+03 -0.84296279786E+02  0.62799995212E+02  0.14620048372E+03  0.00000000000E+00 0.  1.
        -13    1    3    3    0    0  0.27947522652E+03 -0.47797818571E+03  0.33658687629E+03  0.64796625958E+03  0.00000000000E+00 0. -1.
          4    1    6    6  502    0  0.70759636257E+01 -0.36953254060E+02  0.11310749733E+02  0.39287979159E+02  0.00000000000E+00 0. -1.
          1    1    5    5  503    0 -0.20888983599E+03  0.60861018561E+03  0.96484696875E+02  0.65065399280E+03  0.00000000000E+00 0. -1.
         -2    1    5    5    0  503 -0.28588315761E+02  0.19230404039E+03  0.34004660629E+00  0.19441772394E+03  0.00000000000E+00 0.  1.
         -3    1    6    6    0  502 -0.15068445142E+03 -0.20168650645E+03  0.60100240315E+02  0.25883448315E+03  0.00000000000E+00 0.  1.
<mgrwt>
<rscale>  0 0.18523423E+04</rscale>
<asrwt>0</asrwt>
<pdfrwt beam="1">  1        1 0.10536449E+00 0.18523423E+04</pdfrwt>
<pdfrwt beam="2">  1       -1 0.19269104E+00 0.18523423E+04</pdfrwt>
<totfact> 0.44754155E+00</totfact>
</mgrwt>
</event>
<event>
12    1  0.2793308E-007  0.2214917E+04  0.7818608E-02  0.8512245E-01
          1   -1    0    0  501    0  0.00000000000E+00  0.00000000000E+00  0.27829838061E+04  0.27829838061E+04  0.00000000000E+00 0.  1.
         -1   -1    0    0    0  501 -0.00000000000E+00 -0.00000000000E+00 -0.44070137573E+03  0.44070137573E+03  0.00000000000E+00 0. -1.
         23    2    1    2    0    0  0.66430089663E+03 -0.25574973510E+03  0.18352314507E+04  0.19704844975E+04  0.89616230812E+02 0.  0.
        254    2    1    2    0    0 -0.66430089663E+03  0.25574973510E+03  0.50705097964E+03  0.12532006844E+04  0.89816905482E+03 0.  0.
        -24    2    4    4    0    0  0.17247430840E+03 -0.34827924299E+02  0.27223608727E+03  0.33326599161E+03  0.77416810769E+02 0.  0.
         24    2    4    4    0    0 -0.83677520503E+03  0.29057765940E+03  0.23481489238E+03  0.91993469274E+03  0.80707405673E+02 0.  0.
         11    1    3    3    0    0  0.27545332213E+03 -0.15184294792E+03  0.83888969081E+03  0.89591669638E+03  0.00000000000E+00 0. -1.
        -11    1    3    3    0    0  0.38884757450E+03 -0.10390678718E+03  0.99634175992E+03  0.10745678011E+04  0.00000000000E+00 0.  1.
          4    1    6    6  502    0 -0.81099735897E+03  0.29219595556E+03  0.21817683973E+03  0.88921106949E+03  0.00000000000E+00 0. -1.
          1    1    5    5  503    0  0.15209220097E+03 -0.51654407605E+02  0.25608710645E+03  0.30229260909E+03  0.00000000000E+00 0. -1.
         -2    1    5    5    0  503  0.20382107425E+02  0.16826483306E+02  0.16148980813E+02  0.30973382522E+02  0.00000000000E+00 0.  1.
         -1    1    6    6    0  502 -0.25777846056E+02 -0.16182961604E+01  0.16638052648E+02  0.30723623251E+02  0.00000000000E+00 0.  1.
<mgrwt>
<rscale>  0 0.22149174E+04</rscale>
<asrwt>0</asrwt>
<pdfrwt beam="1">  1        1 0.42815135E+00 0.22149174E+04</pdfrwt>
<pdfrwt beam="2">  1       -1 0.67800213E-01 0.22149174E+04</pdfrwt>
<totfact> 0.17195270E+00</totfact>
</mgrwt>
</event>
<event>
12    1  0.2019083E-007  0.4307491E+04  0.7818608E-02  0.7945234E-01
          1   -1    0    0  501    0  0.00000000000E+00  0.00000000000E+00  0.41563806423E+04  0.41563806423E+04  0.00000000000E+00 0. -1.
         -1   -1    0    0    0  501 -0.00000000000E+00 -0.00000000000E+00 -0.11160237008E+04  0.11160237008E+04  0.00000000000E+00 0.  1.
         23    2    1    2    0    0  0.29226192238E+02 -0.20581796009E+04  0.14087597132E+04  0.24960458965E+04  0.93186630131E+02 0.  0.
        254    2    1    2    0    0 -0.29226192238E+02  0.20581796009E+04  0.16315972284E+04  0.27763584467E+04  0.89949945472E+03 0.  0.
        -24    2    4    4    0    0  0.23734299472E+03  0.22321514349E+03  0.50286995201E+03  0.60414079286E+03  0.77144095980E+02 0.  0.
         24    2    4    4    0    0 -0.26656918696E+03  0.18349644574E+04  0.11287272763E+04  0.21722176538E+04  0.79690525442E+02 0.  0.
         11    1    3    3    0    0  0.32142171571E+02 -0.25518088687E+03  0.19003585817E+03  0.31978747882E+03  0.00000000000E+00 0.  1.
        -11    1    3    3    0    0 -0.29159793325E+01 -0.18029987140E+04  0.12187238550E+04  0.21762584177E+04  0.00000000000E+00 0. -1.
          2    1    6    6  502    0 -0.24088284126E+03  0.17116633742E+04  0.10295827966E+04  0.20119286232E+04  0.00000000000E+00 0. -1.
          1    1    5    5  503    0  0.19932886755E+03  0.21920639043E+03  0.45341902725E+03  0.54163848951E+03  0.00000000000E+00 0. -1.
         -2    1    5    5    0  503  0.38014127163E+02  0.40087530587E+01  0.49450924760E+02  0.62502303355E+02  0.00000000000E+00 0.  1.
         -1    1    6    6    0  502 -0.25686345691E+02  0.12330108323E+03  0.99144479769E+02  0.16028903065E+03  0.00000000000E+00 0.  1.
<mgrwt>
<rscale>  0 0.43074908E+04</rscale>
<asrwt>0</asrwt>
<pdfrwt beam="1">  1        1 0.63944317E+00 0.43074908E+04</pdfrwt>
<pdfrwt beam="2">  1       -1 0.17169596E+00 0.43074908E+04</pdfrwt>
<totfact> 0.12612701E-02</totfact>
</mgrwt>
</event>
<event>
12    1  0.2019083E-007  0.3339432E+04  0.7818608E-02  0.8152934E-01
         -1   -1    0    0    0  501 -0.00000000000E+00  0.00000000000E+00  0.16157900868E+04  0.16157900868E+04  0.00000000000E+00 0.  1.
          1   -1    0    0  501    0  0.00000000000E+00 -0.00000000000E+00 -0.17254417856E+04  0.17254417856E+04  0.00000000000E+00 0. -1.
         23    2    1    2    0    0 -0.43873080526E+02  0.14707087497E+04 -0.52834994528E+03  0.15657448939E+04  0.86569824754E+02 0.  0.
        254    2    1    2    0    0  0.43873080526E+02 -0.14707087497E+04  0.41869824645E+03  0.17754869785E+04  0.90118628257E+03 0.  0.
        -24    2    4    4    0    0 -0.20580477799E+03 -0.28681929646E+03 -0.20041263566E+03  0.41407607212E+03  0.81687535792E+02 0.  0.
         24    2    4    4    0    0  0.24967785851E+03 -0.11838894532E+04  0.61911088211E+03  0.13614109064E+04  0.78791505653E+02 0.  0.
         11    1    3    3    0    0 -0.55672188056E+02  0.53158026338E+03 -0.20457422155E+03  0.57230025429E+03  0.00000000000E+00 0.  1.
        -11    1    3    3    0    0  0.11799107530E+02  0.93912848628E+03 -0.32377572373E+03  0.99344463960E+03  0.00000000000E+00 0. -1.
          2    1    6    6  502    0  0.25013170009E+03 -0.11676570992E+04  0.61927148096E+03  0.13451714150E+04  0.00000000000E+00 0. -1.
          1    1    5    5  503    0 -0.78387698788E+02 -0.48777332444E+02 -0.53051089921E+02  0.10648134871E+03  0.00000000000E+00 0. -1.
         -2    1    5    5    0  503 -0.12741707920E+03 -0.23804196402E+03 -0.14736154574E+03  0.30759472341E+03  0.00000000000E+00 0.  1.
         -1    1    6    6    0  502 -0.45384158013E+00 -0.16232354004E+02 -0.16059885243E+00  0.16239491393E+02  0.00000000000E+00 0.  1.
<mgrwt>
<rscale>  0 0.33394321E+04</rscale>
<asrwt>0</asrwt>
<pdfrwt beam="1">  1        1 0.26545258E+00 0.33394321E+04</pdfrwt>
<pdfrwt beam="2">  1       -1 0.24858309E+00 0.33394321E+04</pdfrwt>
<totfact> 0.26969299E-01</totfact>
</mgrwt>
</event>
<event>
12    1  0.2019083E-007  0.2719983E+04  0.7818608E-02  0.8328550E-01
          2   -1    0    0  501    0  0.00000000000E+00  0.00000000000E+00  0.68830982553E+03  0.68830982553E+03  0.00000000000E+00 0.  1.
         -2   -1    0    0    0  501 -0.00000000000E+00 -0.00000000000E+00 -0.26871279922E+04  0.26871279922E+04  0.00000000000E+00 0. -1.
         23    2    1    2    0    0 -0.69898548570E+03 -0.83336085308E+03 -0.15475106114E+04  0.18937745117E+04  0.92313532090E+02 0.  0.
        254    2    1    2    0    0  0.69898548570E+03  0.83336085308E+03 -0.45130755534E+03  0.14816633061E+04  0.89920888696E+03 0.  0.
        -24    2    4    4    0    0 -0.19681053523E+03  0.24518213359E+03 -0.24365709151E+02  0.32546742939E+03  0.80540017373E+02 0.  0.
         24    2    4    4    0    0  0.89579602093E+03  0.58817871949E+03 -0.42694184619E+03  0.11561958767E+04  0.78133527065E+02 0.  0.
         11    1    3    3    0    0 -0.46176142899E+03 -0.48276519892E+03 -0.92770910833E+03  0.11432104112E+04  0.00000000000E+00 0. -1.
        -11    1    3    3    0    0 -0.23722405671E+03 -0.35059565415E+03 -0.61980150303E+03  0.75056410050E+03  0.00000000000E+00 0.  1.
          4    1    6    6  502    0  0.76478290120E+03  0.51541053512E+03 -0.39325029014E+03  0.10025899942E+04  0.00000000000E+00 0. -1.
          3    1    5    5  503    0 -0.17191899674E+03  0.23240138728E+03 -0.42409473249E+02  0.29217308170E+03  0.00000000000E+00 0. -1.
         -4    1    5    5    0  503 -0.24891538496E+02  0.12780746306E+02  0.18043764098E+02  0.33294347683E+02  0.00000000000E+00 0.  1.
         -3    1    6    6    0  502  0.13101311974E+03  0.72768184367E+02 -0.33691556047E+02  0.15360588253E+03  0.00000000000E+00 0.  1.
<mgrwt>
<rscale>  0 0.27199828E+04</rscale>
<asrwt>0</asrwt>
<pdfrwt beam="1">  1        2 0.10589382E+00 0.27199828E+04</pdfrwt>
<pdfrwt beam="2">  1       -2 0.41340431E+00 0.27199828E+04</pdfrwt>
<totfact> 0.22208239E-01</totfact>
</mgrwt>
</event>
<event>
12    1  0.2019083E-007  0.1777238E+04  0.7818608E-02  0.8718499E-01
          2   -1    0    0  501    0  0.00000000000E+00  0.00000000000E+00  0.68671667751E+03  0.68671667751E+03  0.00000000000E+00 0. -1.
         -2   -1    0    0    0  501 -0.00000000000E+00 -0.00000000000E+00 -0.11498822740E+04  0.11498822740E+04  0.00000000000E+00 0.  1.
         23    2    1    2    0    0  0.38074356763E+03  0.25829960106E+03  0.31202946538E+03  0.56338079299E+03  0.91384804218E+02 0.  0.
        254    2    1    2    0    0 -0.38074356763E+03 -0.25829960106E+03 -0.77519506182E+03  0.12732181585E+04  0.89915112579E+03 0.  0.
        -24    2    4    4    0    0 -0.24947401722E+03 -0.88567473212E+02 -0.94741819748E+03  0.98687053408E+03  0.78934957653E+02 0.  0.
         24    2    4    4    0    0 -0.13126955041E+03 -0.16973212785E+03  0.17222313566E+03  0.28634762440E+03  0.79331352287E+02 0.  0.
         11    1    3    3    0    0  0.47352866026E+01  0.10416368391E+02 -0.51370145918E+01  0.12542431526E+02  0.00000000000E+00 0.  1.
        -11    1    3    3    0    0  0.37600828103E+03  0.24788323267E+03  0.31716647997E+03  0.55083836146E+03  0.00000000000E+00 0. -1.
          2    1    6    6  502    0 -0.86805922578E+02 -0.54401623723E+02  0.56332072419E+02  0.11691068061E+03  0.00000000000E+00 0. -1.
          3    1    5    5  503    0 -0.91008991359E+02 -0.56935057003E+02 -0.49368108119E+03  0.50521801942E+03  0.00000000000E+00 0. -1.
         -4    1    5    5    0  503 -0.15846502587E+03 -0.31632416209E+02 -0.45373711629E+03  0.48165251466E+03  0.00000000000E+00 0.  1.
         -1    1    6    6    0  502 -0.44463627832E+02 -0.11533050413E+03  0.11589106324E+03  0.16943694379E+03  0.00000000000E+00 0.  1.
<mgrwt>
<rscale>  0 0.17772376E+04</rscale>
<asrwt>0</asrwt>
<pdfrwt beam="1">  1        2 0.10564872E+00 0.17772376E+04</pdfrwt>
<pdfrwt beam="2">  1       -2 0.17690496E+00 0.17772376E+04</pdfrwt>
<totfact> 0.75589195E+00</totfact>
</mgrwt>
</event>
<event>
12    1  0.2019083E-007  0.3760116E+04  0.7818608E-02  0.8054768E-01
          2   -1    0    0  501    0  0.00000000000E+00  0.00000000000E+00  0.25933481798E+04  0.25933481798E+04  0.00000000000E+00 0. -1.
         -2   -1    0    0    0  501 -0.00000000000E+00 -0.00000000000E+00 -0.13629555882E+04  0.13629555882E+04  0.00000000000E+00 0.  1.
         23    2    1    2    0    0  0.43437866129E+02  0.16830180871E+04  0.16748388489E+01  0.16860006572E+04  0.90325419220E+02 0.  0.
        254    2    1    2    0    0 -0.43437866129E+02 -0.16830180871E+04  0.12287177528E+04  0.22703031108E+04  0.90005120367E+03 0.  0.
        -24    2    4    4    0    0 -0.10966158842E+03 -0.95645175885E+03  0.11936896234E+04  0.15356100921E+04  0.79861172114E+02 0.  0.
         24    2    4    4    0    0  0.66223722290E+02 -0.72656632826E+03  0.35028129324E+02  0.73469301873E+03  0.79136914069E+02 0.  0.
         11    1    3    3    0    0  0.49733655891E+02  0.86614199228E+03 -0.35036171967E+02  0.86827583213E+03  0.00000000000E+00 0.  1.
        -11    1    3    3    0    0 -0.62957897613E+01  0.81687609483E+03  0.36711010816E+02  0.81772482510E+03  0.00000000000E+00 0. -1.
          4    1    6    6  502    0 -0.16330883381E+02 -0.18185790605E+03  0.18384258641E+02  0.18351287887E+03  0.00000000000E+00 0. -1.
          1    1    5    5  503    0 -0.36341007643E+02 -0.37314619203E+03  0.40462330003E+03  0.55161468834E+03  0.00000000000E+00 0. -1.
         -2    1    5    5    0  503 -0.73320580776E+02 -0.58330556682E+03  0.78906632340E+03  0.98399540373E+03  0.00000000000E+00 0.  1.
         -3    1    6    6    0  502  0.82554605670E+02 -0.54470842221E+03  0.16643870683E+02  0.55118013986E+03  0.00000000000E+00 0.  1.
<mgrwt>
<rscale>  0 0.37601162E+04</rscale>
<asrwt>0</asrwt>
<pdfrwt beam="1">  1        2 0.39897664E+00 0.37601162E+04</pdfrwt>
<pdfrwt beam="2">  1       -2 0.20968548E+00 0.37601162E+04</pdfrwt>
<totfact> 0.28415072E-01</totfact>
</mgrwt>
</event>
<event>
12    1  0.2161196E-007  0.3147793E+04  0.7818608E-02  0.8202743E-01
          2   -1    0    0  501    0  0.00000000000E+00  0.00000000000E+00  0.18094740627E+04  0.18094740627E+04  0.00000000000E+00 0. -1.
         -2   -1    0    0    0  501 -0.00000000000E+00 -0.00000000000E+00 -0.13689891054E+04  0.13689891054E+04  0.00000000000E+00 0.  1.
         23    2    1    2    0    0  0.13581910446E+04 -0.48947747695E+03  0.22132465452E+03  0.14633637036E+04  0.90430152005E+02 0.  0.
        254    2    1    2    0    0 -0.13581910446E+04  0.48947747695E+03  0.21916030270E+03  0.17150994645E+04  0.89959091864E+03 0.  0.
        -24    2    4    4    0    0 -0.99727064056E+03  0.54078431106E+03  0.50535589717E+03  0.12444599428E+04  0.79369798578E+02 0.  0.
         24    2    4    4    0    0 -0.36092040399E+03 -0.51306834106E+02 -0.28619559447E+03  0.47063952166E+03  0.81839549160E+02 0.  0.
         11    1    3    3    0    0  0.31296775458E+03 -0.77969924035E+02  0.68164267515E+02  0.32965814388E+03  0.00000000000E+00 0. -1.
        -11    1    3    3    0    0  0.10452232900E+04 -0.41150755292E+03  0.15316038701E+03  0.11337055597E+04  0.00000000000E+00 0.  1.
          2    1    6    6  502    0 -0.21472272847E+03  0.10278983527E+02 -0.16266116538E+03  0.26957403871E+03  0.00000000000E+00 0. -1.
          3    1    5    5  503    0 -0.52420796644E+03  0.27521816758E+03  0.30616780140E+03  0.66654163746E+03  0.00000000000E+00 0. -1.
         -4    1    5    5    0  503 -0.47306267412E+03  0.26556614347E+03  0.19918809577E+03  0.57791830539E+03  0.00000000000E+00 0.  1.
         -3    1    6    6    0  502 -0.14619767552E+03 -0.61585817633E+02 -0.12353442909E+03  0.20106548295E+03  0.00000000000E+00 0.  1.
<mgrwt>
<rscale>  0 0.31477931E+04</rscale>
<asrwt>0</asrwt>
<pdfrwt beam="1">  1        2 0.27838063E+00 0.31477931E+04</pdfrwt>
<pdfrwt beam="2">  1       -2 0.21061371E+00 0.31477931E+04</pdfrwt>
<totfact> 0.81814507E-01</totfact>
</mgrwt>
</event>
<event>
12    1  0.2019083E-007  0.2107560E+04  0.7818608E-02  0.8557920E-01
         -2   -1    0    0    0  501 -0.00000000000E+00  0.00000000000E+00  0.13811677832E+04  0.13811677832E+04  0.00000000000E+00 0.  1.
          2   -1    0    0  501    0  0.00000000000E+00 -0.00000000000E+00 -0.80399509928E+03  0.80399509928E+03  0.00000000000E+00 0. -1.
         23    2    1    2    0    0 -0.53836657990E+03  0.62043279069E+03  0.49917057219E+03  0.96556146749E+03  0.91445422164E+02 0.  0.
        254    2    1    2    0    0  0.53836657990E+03 -0.62043279069E+03  0.78002111709E+02  0.12196014150E+04  0.89809123138E+03 0.  0.
        -24    2    4    4    0    0  0.12929450338E+03 -0.73022973293E+03  0.19851487426E+03  0.77182586791E+03  0.79715015017E+02 0.  0.
         24    2    4    4    0    0  0.40907207652E+03  0.10979694224E+03 -0.12051276255E+03  0.44777554707E+03  0.81143590654E+02 0.  0.
         11    1    3    3    0    0 -0.34462129425E+03  0.36111691877E+03  0.25803414548E+03  0.56191715199E+03  0.00000000000E+00 0. -1.
        -11    1    3    3    0    0 -0.19374528565E+03  0.25931587192E+03  0.24113642671E+03  0.40364431550E+03  0.00000000000E+00 0.  1.
          2    1    6    6  502    0  0.33132222756E+03  0.11194581807E+03 -0.75055087156E+02  0.35768638605E+03  0.00000000000E+00 0. -1.
          1    1    5    5  503    0  0.23949500799E+02 -0.36380652319E+03  0.97347235678E+02  0.37736620039E+03  0.00000000000E+00 0. -1.
         -2    1    5    5    0  503  0.10534500258E+03 -0.36642320974E+03  0.10116763858E+03  0.39445966752E+03  0.00000000000E+00 0.  1.
         -1    1    6    6    0  502  0.77749848959E+02 -0.21488758351E+01 -0.45457675397E+02  0.90089161018E+02  0.00000000000E+00 0.  1.
<mgrwt>
<rscale>  0 0.21075598E+04</rscale>
<asrwt>0</asrwt>
<pdfrwt beam="1">  1        2 0.12369155E+00 0.21075598E+04</pdfrwt>
<pdfrwt beam="2">  1       -2 0.21248735E+00 0.21075598E+04</pdfrwt>
<totfact> 0.34765359E+00</totfact>
</mgrwt>
</event>
<event>
12    1  0.2019083E-007  0.1485107E+04  0.7818608E-02  0.8894418E-01
         -4   -1    0    0    0  501 -0.00000000000E+00  0.00000000000E+00  0.92505785251E+03  0.92505785251E+03  0.00000000000E+00 0.  1.
          4   -1    0    0  501    0  0.00000000000E+00 -0.00000000000E+00 -0.59605520856E+03  0.59605520856E+03  0.00000000000E+00 0. -1.
         23    2    1    2    0    0 -0.14825478148E+03  0.41861924169E+03 -0.30551319912E+02  0.45434010157E+03  0.90939512861E+02 0.  0.
        254    2    1    2    0    0  0.14825478148E+03 -0.41861924169E+03  0.35955396386E+03  0.10667729595E+04  0.90083513722E+03 0.  0.
        -24    2    4    4    0    0  0.36594605539E+03  0.97031166221E+02 -0.17433640952E+02  0.38732376244E+03  0.79901204287E+02 0.  0.
         24    2    4    4    0    0 -0.21769127391E+03 -0.51565040791E+03  0.37698760481E+03  0.67944919706E+03  0.79036215042E+02 0.  0.
         11    1    3    3    0    0 -0.39941836809E+02  0.24695755807E+03 -0.23027104365E+02  0.25122426904E+03  0.00000000000E+00 0.  1.
        -11    1    3    3    0    0 -0.10831294467E+03  0.17166168362E+03 -0.75242155462E+01  0.20311583253E+03  0.00000000000E+00 0. -1.
          4    1    6    6  502    0 -0.96992554133E+02 -0.32893596396E+03  0.22751625216E+03  0.41154594997E+03  0.00000000000E+00 0. -1.
          1    1    5    5  503    0  0.29864758686E+03  0.10523245033E+03 -0.31082325882E+02  0.31816718990E+03  0.00000000000E+00 0. -1.
         -2    1    5    5    0  503  0.67298468521E+02 -0.82012841140E+01  0.13648684930E+02  0.69156572549E+02  0.00000000000E+00 0.  1.
         -3    1    6    6    0  502 -0.12069871977E+03 -0.18671444395E+03  0.14947135265E+03  0.26790324709E+03  0.00000000000E+00 0.  1.
<mgrwt>
<rscale>  0 0.14851068E+04</rscale>
<asrwt>0</asrwt>
<pdfrwt beam="1">  1        4 0.91700801E-01 0.14851068E+04</pdfrwt>
<pdfrwt beam="2">  1       -4 0.14231659E+00 0.14851068E+04</pdfrwt>
<totfact> 0.67069008E-01</totfact>
</mgrwt>
</event>
<event>
12    1  0.2019083E-007  0.1620853E+04  0.7818608E-02  0.8807838E-01
         -2   -1    0    0    0  501 -0.00000000000E+00  0.00000000000E+00  0.42934263600E+03  0.42934263600E+03  0.00000000000E+00 0.  1.
          2   -1    0    0  501    0  0.00000000000E+00 -0.00000000000E+00 -0.15297606564E+04  0.15297606564E+04  0.00000000000E+00 0. -1.
         23    2    1    2    0    0  0.18793313988E+03 -0.51075098305E+03 -0.25322888578E+03  0.60692516566E+03  0.89709845409E+02 0.  0.
        254    2    1    2    0    0 -0.18793313988E+03  0.51075098305E+03 -0.84718913460E+03  0.13521781267E+04  0.90248037368E+03 0.  0.
        -24    2    4    4    0    0  0.11620956876E+03 -0.70336773239E+02 -0.64213015509E+03  0.66025124958E+03  0.71754100631E+02 0.  0.
         24    2    4    4    0    0 -0.30414270864E+03  0.58108775629E+03 -0.20505897950E+03  0.69192687715E+03  0.80918789642E+02 0.  0.
         11    1    3    3    0    0  0.92967608089E+02 -0.30132438646E+03 -0.10087551383E+03  0.33108191029E+03  0.00000000000E+00 0.  1.
        -11    1    3    3    0    0  0.94965531788E+02 -0.20942659658E+03 -0.15235337195E+03  0.27584325536E+03  0.00000000000E+00 0. -1.
          4    1    6    6  502    0 -0.17384409764E+03  0.28914609077E+03 -0.68413593398E+02  0.34424940357E+03  0.00000000000E+00 0. -1.
          1    1    5    5  503    0  0.79114872911E+01  0.12618760421E+02 -0.10581554975E+03  0.10685857623E+03  0.00000000000E+00 0. -1.
         -2    1    5    5    0  503  0.10829808147E+03 -0.82955533660E+02 -0.53631460534E+03  0.55339267335E+03  0.00000000000E+00 0.  1.
         -3    1    6    6    0  502 -0.13029861100E+03  0.29194166551E+03 -0.13664538610E+03  0.34767747358E+03  0.00000000000E+00 0.  1.
<mgrwt>
<rscale>  0 0.16208534E+04</rscale>
<asrwt>0</asrwt>
<pdfrwt beam="1">  1        2 0.23534779E+00 0.16208534E+04</pdfrwt>
<pdfrwt beam="2">  1       -2 0.66052714E-01 0.16208534E+04</pdfrwt>
<totfact> 0.24654127E+01</totfact>
</mgrwt>
</event>
<event>
12    1  0.2019083E-007  0.1554469E+04  0.7818608E-02  0.8849018E-01
          1   -1    0    0  501    0  0.00000000000E+00  0.00000000000E+00  0.41510503649E+03  0.41510503649E+03  0.00000000000E+00 0. -1.
         -1   -1    0    0    0  501 -0.00000000000E+00 -0.00000000000E+00 -0.14552785219E+04  0.14552785219E+04  0.00000000000E+00 0.  1.
         23    2    1    2    0    0 -0.20048890391E+03 -0.40409927178E+03 -0.56152862363E+02  0.46370907169E+03  0.91547458581E+02 0.  0.
        254    2    1    2    0    0  0.20048890391E+03  0.40409927178E+03 -0.98402062306E+03  0.14066744867E+04  0.89830089775E+03 0.  0.
        -24    2    4    4    0    0 -0.60553848185E+02 -0.23321079557E+03 -0.76221364072E+02  0.26451419876E+03  0.78128236267E+02 0.  0.
         24    2    4    4    0    0  0.26104275210E+03  0.63731006735E+03 -0.90779925899E+03  0.11421602880E+04  0.78250804334E+02 0.  0.
         11    1    3    3    0    0 -0.14876486461E+03 -0.36528713375E+03 -0.59868119084E+02  0.39893591805E+03  0.00000000000E+00 0. -1.
        -11    1    3    3    0    0 -0.51724039302E+02 -0.38812138021E+02  0.37152567210E+01  0.64773153637E+02  0.00000000000E+00 0.  1.
          4    1    6    6  502    0  0.12035454838E+03  0.19787584435E+03 -0.31353294989E+03  0.38979863745E+03  0.00000000000E+00 0. -1.
          3    1    5    5  503    0 -0.71408026726E+02 -0.21671242733E+03 -0.84201070952E+02  0.24321431453E+03  0.00000000000E+00 0. -1.
         -4    1    5    5    0  503  0.10854178541E+02 -0.16498368241E+02  0.79797068803E+01  0.21299884232E+02  0.00000000000E+00 0.  1.
         -3    1    6    6    0  502  0.14068820372E+03  0.43943422300E+03 -0.59426630910E+03  0.75236165050E+03  0.00000000000E+00 0.  1.
<mgrwt>
<rscale>  0 0.15544690E+04</rscale>
<asrwt>0</asrwt>
<pdfrwt beam="1">  1        1 0.63862313E-01 0.15544690E+04</pdfrwt>
<pdfrwt beam="2">  1       -1 0.22388901E+00 0.15544690E+04</pdfrwt>
<totfact> 0.56995204E+00</totfact>
</mgrwt>
</event>
<event>
12    1  0.2019083E-007  0.1416723E+04  0.7818608E-02  0.8941802E-01
          1   -1    0    0  501    0  0.00000000000E+00  0.00000000000E+00  0.22405099561E+04  0.22405099561E+04  0.00000000000E+00 0. -1.
         -1   -1    0    0    0  501 -0.00000000000E+00 -0.00000000000E+00 -0.22395609752E+03  0.22395609752E+03  0.00000000000E+00 0.  1.
         23    2    1    2    0    0 -0.26460077362E+03  0.28612209559E+03  0.36558821559E+03  0.54260895494E+03  0.94288449011E+02 0.  0.
        254    2    1    2    0    0  0.26460077362E+03 -0.28612209559E+03  0.16509656430E+04  0.19218570987E+04  0.90330932157E+03 0.  0.
        -24    2    4    4    0    0 -0.30710863334E+03  0.38348847957E+02  0.48454226678E+03  0.58057692997E+03  0.80635082348E+02 0.  0.
         24    2    4    4    0    0  0.57170940696E+03 -0.32447094355E+03  0.11664233762E+04  0.13412801687E+04  0.79724269818E+02 0.  0.
         11    1    3    3    0    0  0.49396913151E+00  0.27874763082E+02  0.45185790763E+02  0.53094275673E+02  0.00000000000E+00 0. -1.
        -11    1    3    3    0    0 -0.26509474275E+03  0.25824733251E+03  0.32040242482E+03  0.48951467927E+03  0.00000000000E+00 0.  1.
          2    1    6    6  502    0  0.48912244136E+03 -0.28945167746E+03  0.10538173109E+04  0.11973111379E+04  0.00000000000E+00 0. -1.
          1    1    5    5  503    0 -0.21948830057E+03  0.28574851470E+02  0.40640573156E+03  0.46277127706E+03  0.00000000000E+00 0. -1.
         -2    1    5    5    0  503 -0.87620332766E+02  0.97739964872E+01  0.78136535212E+02  0.11780565290E+03  0.00000000000E+00 0.  1.
         -1    1    6    6    0  502  0.82586965599E+02 -0.35019266089E+02  0.11260606533E+03  0.14396903082E+03  0.00000000000E+00 0.  1.
<mgrwt>
<rscale>  0 0.14167228E+04</rscale>
<asrwt>0</asrwt>
<pdfrwt beam="1">  1        1 0.34469382E+00 0.14167228E+04</pdfrwt>
<pdfrwt beam="2">  1       -1 0.34454786E-01 0.14167228E+04</pdfrwt>
<totfact> 0.15916666E+01</totfact>
</mgrwt>
</event>
<event>
12    1  0.2019083E-007  0.1101762E+04  0.7818608E-02  0.9203477E-01
         -1   -1    0    0    0  501 -0.00000000000E+00  0.00000000000E+00  0.12937538200E+04  0.12937538200E+04  0.00000000000E+00 0.  1.
          1   -1    0    0  501    0  0.00000000000E+00 -0.00000000000E+00 -0.23456523464E+03  0.23456523464E+03  0.00000000000E+00 0. -1.
         23    2    1    2    0    0 -0.24218651557E+01  0.16709421266E+02  0.40521550729E+03  0.41611797294E+03  0.93110095399E+02 0.  0.
        254    2    1    2    0    0  0.24218651557E+01 -0.16709421266E+02  0.65397307805E+03  0.11122010817E+04  0.89945838653E+03 0.  0.
        -24    2    4    4    0    0  0.17714779768E+02 -0.20647324594E+03 -0.15925222322E+03  0.27329135069E+03  0.79886651268E+02 0.  0.
         24    2    4    4    0    0 -0.15292914612E+02  0.18976382467E+03  0.81322530127E+03  0.83890973100E+03  0.78676322728E+02 0.  0.
         11    1    3    3    0    0  0.41230545323E+02 -0.10830474563E+02  0.16477340501E+03  0.17019850777E+03  0.00000000000E+00 0. -1.
        -11    1    3    3    0    0 -0.43652410479E+02  0.27539895829E+02  0.24044210228E+03  0.24591946517E+03  0.00000000000E+00 0.  1.
          4    1    6    6  502    0  0.13462585515E+02  0.61095537959E+02  0.40819764152E+03  0.41296394577E+03  0.00000000000E+00 0. -1.
          3    1    5    5  503    0  0.27995422737E+02 -0.10647904472E+03 -0.12620062837E+03  0.16747575722E+03  0.00000000000E+00 0. -1.
         -4    1    5    5    0  503 -0.10280642969E+02 -0.99994201220E+02 -0.33051594851E+02  0.10581559346E+03  0.00000000000E+00 0.  1.
         -3    1    6    6    0  502 -0.28755500127E+02  0.12866828671E+03  0.40502765975E+03  0.42594578523E+03  0.00000000000E+00 0.  1.
<mgrwt>
<rscale>  0 0.11017616E+04</rscale>
<asrwt>0</asrwt>
<pdfrwt beam="1">  1        1 0.36086960E-01 0.11017616E+04</pdfrwt>
<pdfrwt beam="2">  1       -1 0.19903905E+00 0.11017616E+04</pdfrwt>
<totfact> 0.18415152E+01</totfact>
</mgrwt>
</event>
<event>
12    1  0.2019083E-007  0.3170706E+04  0.7818608E-02  0.8196597E-01
         -2   -1    0    0    0  501 -0.00000000000E+00  0.00000000000E+00  0.13443362455E+04  0.13443362455E+04  0.00000000000E+00 0.  1.
          2   -1    0    0  501    0  0.00000000000E+00 -0.00000000000E+00 -0.18695802612E+04  0.18695802612E+04  0.00000000000E+00 0. -1.
         23    2    1    2    0    0  0.82182063737E+02  0.10324206733E+04  0.79521237991E+03  0.13087909414E+04  0.89020564551E+02 0.  0.
        254    2    1    2    0    0 -0.82182063737E+02 -0.10324206733E+04 -0.13204563956E+04  0.19051255653E+04  0.90180485062E+03 0.  0.
        -24    2    4    4    0    0 -0.15742698665E+03 -0.62761865082E+03 -0.16066740462E+03  0.67165040669E+03  0.81313141136E+02 0.  0.
         24    2    4    4    0    0  0.75244922908E+02 -0.40480202250E+03 -0.11597889910E+04  0.12334751586E+04  0.82607429901E+02 0.  0.
         13    1    3    3    0    0  0.40136846782E+02  0.88515479748E+03  0.68883404235E+03  0.11223200612E+04  0.00000000000E+00 0.  1.
        -13    1    3    3    0    0  0.42045216955E+02  0.14726587584E+03  0.10637833755E+03  0.18647088018E+03  0.00000000000E+00 0. -1.
          4    1    6    6  502    0  0.63826522870E+02 -0.14236247482E+03 -0.47878580478E+03  0.50356404371E+03  0.00000000000E+00 0. -1.
          1    1    5    5  503    0 -0.85019857391E+02 -0.43965132296E+03 -0.81139646707E+02  0.45508823782E+03  0.00000000000E+00 0. -1.
         -4    1    5    5    0  503 -0.72407129254E+02 -0.18796732785E+03 -0.79527757908E+02  0.21656216887E+03  0.00000000000E+00 0.  1.
         -3    1    6    6    0  502  0.11418400038E+02 -0.26243954767E+03 -0.68100318621E+03  0.72991111491E+03  0.00000000000E+00 0.  1.
<mgrwt>
<rscale>  0 0.31707062E+04</rscale>
<asrwt>0</asrwt>
<pdfrwt beam="1">  1        2 0.28762773E+00 0.31707062E+04</pdfrwt>
<pdfrwt beam="2">  1       -2 0.20682096E+00 0.31707062E+04</pdfrwt>
<totfact> 0.80005416E-01</totfact>
</mgrwt>
</event>
<event>
12    1  0.2019083E-007  0.2430892E+04  0.7818608E-02  0.8428028E-01
          2   -1    0    0  501    0  0.00000000000E+00  0.00000000000E+00  0.34299407207E+04  0.34299407207E+04  0.00000000000E+00 0. -1.
         -2   -1    0    0    0  501 -0.00000000000E+00 -0.00000000000E+00 -0.43070978541E+03  0.43070978541E+03  0.00000000000E+00 0.  1.
         23    2    1    2    0    0 -0.82082482075E+03 -0.46185998830E+03  0.56967341887E+03  0.11045432625E+04  0.91760445642E+02 0.  0.
        254    2    1    2    0    0  0.82082482075E+03  0.46185998830E+03  0.24295575164E+04  0.27561072436E+04  0.89794731337E+03 0.  0.
        -24    2    4    4    0    0  0.64364485225E+03  0.17482303179E+03  0.62453544025E+03  0.91811037794E+03  0.89668063892E+02 0.  0.
         24    2    4    4    0    0  0.17717996851E+03  0.28703695651E+03  0.18050220761E+04  0.18379968656E+04  0.79654423423E+02 0.  0.
         13    1    3    3    0    0 -0.62458999696E+03 -0.34264314239E+03  0.47467536871E+03  0.85605706177E+03  0.00000000000E+00 0. -1.
        -13    1    3    3    0    0 -0.19623482379E+03 -0.11921684591E+03  0.94998050157E+02  0.24848620073E+03  0.00000000000E+00 0.  1.
          4    1    6    6  502    0  0.10282370653E+03  0.22261294423E+03  0.11722743776E+04  0.11976462140E+04  0.00000000000E+00 0. -1.
          1    1    5    5  503    0  0.49853583089E+03  0.98428695459E+02  0.45235959527E+03  0.68033476040E+03  0.00000000000E+00 0. -1.
         -2    1    5    5    0  503  0.14510902135E+03  0.76394336333E+02  0.17217584498E+03  0.23777561754E+03  0.00000000000E+00 0.  1.
         -3    1    6    6    0  502  0.74356261977E+02  0.64424012285E+02  0.63274769854E+03  0.64035065165E+03  0.00000000000E+00 0.  1.
<mgrwt>
<rscale>  0 0.24308920E+04</rscale>
<asrwt>0</asrwt>
<pdfrwt beam="1">  1        2 0.52768317E+00 0.24308920E+04</pdfrwt>
<pdfrwt beam="2">  1       -2 0.66263046E-01 0.24308920E+04</pdfrwt>
<totfact> 0.17108583E+00</totfact>
</mgrwt>
</event>
<event>
12    1  0.2019083E-007  0.1470924E+04  0.7818608E-02  0.8904021E-01
          2   -1    0    0  501    0  0.00000000000E+00  0.00000000000E+00  0.14588913497E+04  0.14588913497E+04  0.00000000000E+00 0. -1.
         -2   -1    0    0    0  501 -0.00000000000E+00 -0.00000000000E+00 -0.37076411527E+03  0.37076411527E+03  0.00000000000E+00 0.  1.
         23    2    1    2    0    0  0.65833183109E+02 -0.40608233333E+03  0.10461706641E+03  0.43427996953E+03  0.91746890470E+02 0.  0.
        254    2    1    2    0    0 -0.65833183109E+02  0.40608233333E+03  0.98351016807E+03  0.13953754955E+04  0.90030197892E+03 0.  0.
        -24    2    4    4    0    0 -0.41572285914E+03  0.15196124729E+03  0.19021078134E+03  0.48833720848E+03  0.79845923866E+02 0.  0.
         24    2    4    4    0    0  0.34988967603E+03  0.25412108604E+03  0.79329938673E+03  0.90703828700E+03  0.79963900236E+02 0.  0.
         13    1    3    3    0    0  0.39586691943E+01 -0.11899305110E+03  0.71147921340E+02  0.13869767115E+03  0.00000000000E+00 0. -1.
        -13    1    3    3    0    0  0.61874513915E+02 -0.28708928223E+03  0.33469145066E+02  0.29558229838E+03  0.00000000000E+00 0.  1.
          2    1    6    6  502    0  0.28153450783E+03  0.16193384805E+03  0.57342524747E+03  0.65901499579E+03  0.00000000000E+00 0. -1.
          3    1    5    5  503    0 -0.10162994620E+03  0.75137000318E+02  0.50958552678E+02  0.13627541551E+03  0.00000000000E+00 0. -1.
         -4    1    5    5    0  503 -0.31409291293E+03  0.76824246973E+02  0.13925222866E+03  0.35206179296E+03  0.00000000000E+00 0.  1.
         -1    1    6    6    0  502  0.68355168204E+02  0.92187237991E+02  0.21987413926E+03  0.24802329121E+03  0.00000000000E+00 0.  1.
<mgrwt>
<rscale>  0 0.14709243E+04</rscale>
<asrwt>0</asrwt>
<pdfrwt beam="1">  1        2 0.22444482E+00 0.14709243E+04</pdfrwt>
<pdfrwt beam="2">  1       -2 0.57040634E-01 0.14709243E+04</pdfrwt>
<totfact> 0.37358402E+01</totfact>
</mgrwt>
</event>
<event>
12    1  0.2019083E-007  0.1925923E+04  0.7818608E-02  0.8642060E-01
          2   -1    0    0  501    0  0.00000000000E+00  0.00000000000E+00  0.26207643410E+04  0.26207643410E+04  0.00000000000E+00 0.  1.
         -2   -1    0    0    0  501 -0.00000000000E+00 -0.00000000000E+00 -0.35382593439E+03  0.35382593439E+03  0.00000000000E+00 0. -1.
         23    2    1    2    0    0  0.12589077733E+03  0.70790491309E+03  0.12173892938E+04  0.14168857079E+04  0.92469252999E+02 0.  0.
        254    2    1    2    0    0 -0.12589077733E+03 -0.70790491309E+03  0.10495491129E+04  0.15577045676E+04  0.89883943266E+03 0.  0.
        -24    2    4    4    0    0 -0.21015854569E+03 -0.89649019828E+03  0.78337929708E+03  0.12114046534E+04  0.77180446268E+02 0.  0.
         24    2    4    4    0    0  0.84267768357E+02  0.18858528519E+03  0.26616981578E+03  0.34629991415E+03  0.80073673162E+02 0.  0.
         13    1    3    3    0    0  0.43257040028E+02  0.39604040350E+03  0.59888206071E+03  0.71929055002E+03  0.00000000000E+00 0. -1.
        -13    1    3    3    0    0  0.82633737301E+02  0.31186450959E+03  0.61850723306E+03  0.69759515783E+03  0.00000000000E+00 0.  1.
          4    1    6    6  502    0  0.79751317026E+00 -0.54663143034E+01 -0.10966007206E+01  0.56319758931E+01  0.00000000000E+00 0. -1.
          3    1    5    5  503    0 -0.18837253873E+02 -0.18624354963E+03  0.18505879102E+03  0.26322662868E+03  0.00000000000E+00 0. -1.
         -4    1    5    5    0  503 -0.19132129181E+03 -0.71024664865E+03  0.59832050606E+03  0.94817802473E+03  0.00000000000E+00 0.  1.
         -3    1    6    6    0  502  0.83470255187E+02  0.19405159949E+03  0.26726641651E+03  0.34066793826E+03  0.00000000000E+00 0.  1.
<mgrwt>
<rscale>  0 0.19259225E+04</rscale>
<asrwt>0</asrwt>
<pdfrwt beam="1">  1        2 0.40319450E+00 0.19259225E+04</pdfrwt>
<pdfrwt beam="2">  1       -2 0.54434761E-01 0.19259225E+04</pdfrwt>
<totfact> 0.87941658E+00</totfact>
</mgrwt>
</event>
<event>
12    1  0.2019083E-007  0.2102282E+04  0.7818608E-02  0.8560239E-01
          2   -1    0    0  501    0  0.00000000000E+00  0.00000000000E+00  0.68424222929E+03  0.68424222929E+03  0.00000000000E+00 0. -1.
         -2   -1    0    0    0  501 -0.00000000000E+00 -0.00000000000E+00 -0.16147750846E+04  0.16147750846E+04  0.00000000000E+00 0.  1.
         23    2    1    2    0    0  0.26315506145E+03 -0.10064873826E+03 -0.12627325824E+04  0.12969387108E+04  0.90419522137E+02 0.  0.
        254    2    1    2    0    0 -0.26315506145E+03  0.10064873826E+03  0.33219972709E+03  0.10020786031E+04  0.90245449372E+03 0.  0.
        -24    2    4    4    0    0 -0.47943769331E+03 -0.22982425310E+03  0.24475041052E+03  0.59013580607E+03  0.75351291139E+02 0.  0.
         24    2    4    4    0    0  0.21628263186E+03  0.33047299136E+03  0.87449316566E+02  0.41194279703E+03  0.77839001759E+02 0.  0.
         11    1    3    3    0    0  0.24077400651E+01 -0.23803326573E+02 -0.91779084366E+02  0.94846169639E+02  0.00000000000E+00 0. -1.
        -11    1    3    3    0    0  0.26074732139E+03 -0.76845411684E+02 -0.11709534980E+04  0.12020925411E+04  0.00000000000E+00 0.  1.
          4    1    6    6  502    0  0.11156491299E+03  0.11302890185E+03  0.12865530836E+02  0.15933544598E+03  0.00000000000E+00 0. -1.
          3    1    5    5  503    0 -0.17687974500E+03 -0.79087617052E+02  0.12929475059E+03  0.23293438539E+03  0.00000000000E+00 0. -1.
         -4    1    5    5    0  503 -0.30255794831E+03 -0.15073663605E+03  0.11545565993E+03  0.35720142069E+03  0.00000000000E+00 0.  1.
         -3    1    6    6    0  502  0.10471771887E+03  0.21744408951E+03  0.74583785731E+02  0.25260735105E+03  0.00000000000E+00 0.  1.
<mgrwt>
<rscale>  0 0.21022819E+04</rscale>
<asrwt>0</asrwt>
<pdfrwt beam="1">  1        2 0.10526804E+00 0.21022819E+04</pdfrwt>
<pdfrwt beam="2">  1       -2 0.24842694E+00 0.21022819E+04</pdfrwt>
<totfact> 0.25525692E+00</totfact>
</mgrwt>
</event>
<event>
12    1  0.2019083E-007  0.1513219E+04  0.7818608E-02  0.8875709E-01
          2   -1    0    0  501    0  0.00000000000E+00  0.00000000000E+00  0.57404804313E+03  0.57404804313E+03  0.00000000000E+00 0. -1.
         -2   -1    0    0    0  501 -0.00000000000E+00 -0.00000000000E+00 -0.99723048767E+03  0.99723048767E+03  0.00000000000E+00 0.  1.
         23    2    1    2    0    0  0.16635299666E+03  0.31096889844E+03  0.20409506213E+03  0.41944729211E+03  0.99530202350E+02 0.  0.
        254    2    1    2    0    0 -0.16635299666E+03 -0.31096889844E+03 -0.62727750666E+03  0.11518312387E+04  0.89936819866E+03 0.  0.
        -24    2    4    4    0    0 -0.95664545612E+02 -0.46792749159E+03 -0.77328055656E+03  0.91231322149E+03  0.79023745062E+02 0.  0.
         24    2    4    4    0    0 -0.70688451045E+02  0.15695859314E+03  0.14600304990E+03  0.23951801720E+03  0.80119491448E+02 0.  0.
         11    1    3    3    0    0  0.15059318906E+03  0.20310049103E+03  0.17203477399E+03  0.30581707197E+03  0.00000000000E+00 0.  1.
        -11    1    3    3    0    0  0.15759807594E+02  0.10786840742E+03  0.32060288140E+02  0.11363022014E+03  0.00000000000E+00 0. -1.
          2    1    6    6  502    0 -0.16942498577E+02 -0.16852611783E+01  0.33987659311E+02  0.38013804712E+02  0.00000000000E+00 0. -1.
          1    1    5    5  503    0 -0.20273268534E+02 -0.26932346461E+03 -0.46912443705E+03  0.54131679398E+03  0.00000000000E+00 0. -1.
         -2    1    5    5    0  503 -0.75391277078E+02 -0.19860402698E+03 -0.30415611951E+03  0.37099642751E+03  0.00000000000E+00 0.  1.
         -1    1    6    6    0  502 -0.53745952469E+02  0.15864385432E+03  0.11201539059E+03  0.20150421249E+03  0.00000000000E+00 0.  1.
<mgrwt>
<rscale>  0 0.15132194E+04</rscale>
<asrwt>0</asrwt>
<pdfrwt beam="1">  1        2 0.88315084E-01 0.15132194E+04</pdfrwt>
<pdfrwt beam="2">  1       -2 0.15342007E+00 0.15132194E+04</pdfrwt>
<totfact> 0.14235483E+01</totfact>
</mgrwt>
</event>
<event>
12    1  0.2019083E-007  0.1733771E+04  0.7818608E-02  0.8742334E-01
          1   -1    0    0  501    0  0.00000000000E+00  0.00000000000E+00  0.36940941410E+03  0.36940941410E+03  0.00000000000E+00 0. -1.
         -1   -1    0    0    0  501 -0.00000000000E+00 -0.00000000000E+00 -0.20343026633E+04  0.20343026633E+04  0.00000000000E+00 0.  1.
         23    2    1    2    0    0 -0.34542617064E+03 -0.33610229388E+03 -0.48995873139E+02  0.49282242363E+03  0.90495051417E+02 0.  0.
        254    2    1    2    0    0  0.34542617064E+03  0.33610229388E+03 -0.16158973761E+04  0.19108896538E+04  0.89893878969E+03 0.  0.
        -24    2    4    4    0    0  0.49034264277E+03  0.91888875105E+02 -0.36049772668E+03  0.62071158131E+03  0.80279409273E+02 0.  0.
         24    2    4    4    0    0 -0.14491647213E+03  0.24421341877E+03 -0.12553996494E+04  0.12901780725E+04  0.88826804337E+02 0.  0.
         13    1    3    3    0    0 -0.11993078720E+03 -0.17348737786E+03 -0.39983490906E+02  0.21466239433E+03  0.00000000000E+00 0. -1.
        -13    1    3    3    0    0 -0.22549538344E+03 -0.16261491602E+03 -0.90123822327E+01  0.27816002930E+03  0.00000000000E+00 0.  1.
          4    1    6    6  502    0 -0.14378249689E+03  0.21604280030E+03 -0.12030189790E+04  0.12306919037E+04  0.00000000000E+00 0. -1.
          1    1    5    5  503    0  0.43997879018E+03  0.93911714213E+02 -0.34801630919E+03  0.56878475484E+03  0.00000000000E+00 0. -1.
         -2    1    5    5    0  503  0.50363852582E+02 -0.20228391083E+01 -0.12481417490E+02  0.51926826472E+02  0.00000000000E+00 0.  1.
         -3    1    6    6    0  502 -0.11339752343E+01  0.28170618470E+02 -0.52380670418E+02  0.59486168798E+02  0.00000000000E+00 0.  1.
<mgrwt>
<rscale>  0 0.17337711E+04</rscale>
<asrwt>0</asrwt>
<pdfrwt beam="1">  1        1 0.56832217E-01 0.17337711E+04</pdfrwt>
<pdfrwt beam="2">  1       -1 0.31296964E+00 0.17337711E+04</pdfrwt>
<totfact> 0.17243150E+00</totfact>
</mgrwt>
</event>
<event>
12    1  0.2164812E-007  0.2219761E+04  0.7818608E-02  0.8510248E-01
          1   -1    0    0  501    0  0.00000000000E+00  0.00000000000E+00  0.24954454773E+04  0.24954454773E+04  0.00000000000E+00 0. -1.
         -1   -1    0    0    0  501 -0.00000000000E+00 -0.00000000000E+00 -0.49363307487E+03  0.49363307487E+03  0.00000000000E+00 0.  1.
         23    2    1    2    0    0 -0.85553492333E+03  0.30645975457E+03  0.10658572376E+04  0.14036791259E+04  0.91683430440E+02 0.  0.
        254    2    1    2    0    0  0.85553492333E+03 -0.30645975457E+03  0.93595516489E+03  0.15853994263E+04  0.90090048506E+03 0.  0.
        -24    2    4    4    0    0  0.44180537501E+03  0.82039167422E+02 -0.35418054957E+02  0.45757618894E+03  0.78734463116E+02 0.  0.
         24    2    4    4    0    0  0.41372954832E+03 -0.38849892199E+03  0.97137321984E+03  0.11278232373E+04  0.79471824779E+02 0.  0.
         11    1    3    3    0    0 -0.52800175423E+03  0.15526540843E+03  0.69173101187E+03  0.88395983637E+03  0.00000000000E+00 0.  1.
        -11    1    3    3    0    0 -0.32753316910E+03  0.15119434613E+03  0.37412622571E+03  0.51971928954E+03  0.00000000000E+00 0. -1.
          2    1    6    6  502    0  0.37729484683E+03 -0.36978962021E+03  0.86172124593E+03  0.10107716213E+04  0.00000000000E+00 0. -1.
          1    1    5    5  503    0  0.44278583870E+03  0.80433402659E+02 -0.40797240004E+02  0.45187746792E+03  0.00000000000E+00 0. -1.
         -2    1    5    5    0  503 -0.98046368657E+00  0.16057647626E+01  0.53791850469E+01  0.56987210217E+01  0.00000000000E+00 0.  1.
         -1    1    6    6    0  502  0.36434701489E+02 -0.18709301783E+02  0.10965197391E+03  0.11705161608E+03  0.00000000000E+00 0.  1.
<mgrwt>
<rscale>  0 0.22197607E+04</rscale>
<asrwt>0</asrwt>
<pdfrwt beam="1">  1        1 0.38391468E+00 0.22197607E+04</pdfrwt>
<pdfrwt beam="2">  1       -1 0.75943552E-01 0.22197607E+04</pdfrwt>
<totfact> 0.21631004E+00</totfact>
</mgrwt>
</event>
<event>
12    1  0.2019083E-007  0.2381281E+04  0.7818608E-02  0.8446545E-01
          1   -1    0    0  501    0  0.00000000000E+00  0.00000000000E+00  0.29995198250E+04  0.29995198250E+04  0.00000000000E+00 0. -1.
         -1   -1    0    0    0  501 -0.00000000000E+00 -0.00000000000E+00 -0.47261735705E+03  0.47261735705E+03  0.00000000000E+00 0.  1.
         23    2    1    2    0    0 -0.70436681409E+03  0.37410368757E+03  0.20083011299E+04  0.21627585365E+04  0.90359731351E+02 0.  0.
        254    2    1    2    0    0  0.70436681409E+03 -0.37410368757E+03  0.51860133808E+03  0.13093786456E+04  0.89968823032E+03 0.  0.
        -24    2    4    4    0    0  0.59171904390E+03 -0.59354929182E+03  0.60434987112E+03  0.10365527808E+04  0.82284336005E+02 0.  0.
         24    2    4    4    0    0  0.11264777019E+03  0.21944560426E+03 -0.85748533049E+02  0.27282586475E+03  0.78963587821E+02 0.  0.
         11    1    3    3    0    0 -0.41992422238E+03  0.19214791561E+03  0.10636320623E+04  0.11595560952E+04  0.00000000000E+00 0.  1.
        -11    1    3    3    0    0 -0.28444259171E+03  0.18195577196E+03  0.94466906757E+03  0.10032024413E+04  0.00000000000E+00 0. -1.
          2    1    6    6  502    0  0.60644741930E+02  0.63318237799E+02 -0.60056456747E+02  0.10627211280E+03  0.00000000000E+00 0. -1.
          3    1    5    5  503    0  0.30574824023E+03 -0.31405044014E+03  0.36608083153E+03  0.57107341084E+03  0.00000000000E+00 0. -1.
         -4    1    5    5    0  503  0.28597080367E+03 -0.27949885168E+03  0.23826903960E+03  0.46547936998E+03  0.00000000000E+00 0.  1.
         -1    1    6    6    0  502  0.52003028261E+02  0.15612736646E+03 -0.25692076301E+02  0.16655375195E+03  0.00000000000E+00 0.  1.
<mgrwt>
<rscale>  0 0.23812813E+04</rscale>
<asrwt>0</asrwt>
<pdfrwt beam="1">  1        1 0.46146458E+00 0.23812813E+04</pdfrwt>
<pdfrwt beam="2">  1       -1 0.72710364E-01 0.23812813E+04</pdfrwt>
<totfact> 0.10244809E+00</totfact>
</mgrwt>
</event>
<event>
12    1  0.2019083E-007  0.1310011E+04  0.7818608E-02  0.9021664E-01
         -2   -1    0    0    0  501 -0.00000000000E+00  0.00000000000E+00  0.41671833069E+03  0.41671833069E+03  0.00000000000E+00 0.  1.
          2   -1    0    0  501    0  0.00000000000E+00 -0.00000000000E+00 -0.10295497738E+04  0.10295497738E+04  0.00000000000E+00 0. -1.
         23    2    1    2    0    0 -0.51891062003E+02 -0.20207061525E+03 -0.44702856983E+03  0.50132460166E+03  0.89255801597E+02 0.  0.
        254    2    1    2    0    0  0.51891062003E+02  0.20207061525E+03 -0.16580287333E+03  0.94494350288E+03  0.90658833821E+03 0.  0.
        -24    2    4    4    0    0  0.54446791905E+02 -0.25229015986E+03 -0.35460636709E+03  0.44643565985E+03  0.83332736045E+02 0.  0.
         24    2    4    4    0    0 -0.25557299014E+01  0.45436077511E+03  0.18880349376E+03  0.49850784303E+03  0.80081612074E+02 0.  0.
         11    1    3    3    0    0 -0.34593366276E+02 -0.29218390095E+02 -0.15554535668E+03  0.16200238669E+03  0.00000000000E+00 0. -1.
        -11    1    3    3    0    0 -0.17297695727E+02 -0.17285222516E+03 -0.29148321315E+03  0.33932221496E+03  0.00000000000E+00 0.  1.
          2    1    6    6  502    0 -0.99539694869E+01  0.35723749586E+03  0.18151498657E+03  0.40083088741E+03  0.00000000000E+00 0. -1.
          3    1    5    5  503    0  0.62701455241E+02 -0.12797919183E+03 -0.22751794317E+03  0.26846705663E+03  0.00000000000E+00 0. -1.
         -4    1    5    5    0  503 -0.82546633365E+01 -0.12431096803E+03 -0.12708842393E+03  0.17796860323E+03  0.00000000000E+00 0.  1.
         -1    1    6    6    0  502  0.73982395855E+01  0.97123279253E+02  0.72885071942E+01  0.97676955619E+02  0.00000000000E+00 0.  1.
<mgrwt>
<rscale>  0 0.13100111E+04</rscale>
<asrwt>0</asrwt>
<pdfrwt beam="1">  1        2 0.15839227E+00 0.13100111E+04</pdfrwt>
<pdfrwt beam="2">  1       -2 0.64110513E-01 0.13100111E+04</pdfrwt>
<totfact> 0.53128521E+01</totfact>
</mgrwt>
</event>
<event>
12    1  0.2019083E-007  0.1513251E+04  0.7818608E-02  0.8875689E-01
         -2   -1    0    0    0  501 -0.00000000000E+00  0.00000000000E+00  0.49690407295E+03  0.49690407295E+03  0.00000000000E+00 0.  1.
          2   -1    0    0  501    0  0.00000000000E+00 -0.00000000000E+00 -0.11520971952E+04  0.11520971952E+04  0.00000000000E+00 0. -1.
         23    2    1    2    0    0 -0.41049103505E+02  0.46804317142E+03 -0.33515547405E+03  0.58434176353E+03  0.91524125872E+02 0.  0.
        254    2    1    2    0    0  0.41049103505E+02 -0.46804317142E+03 -0.32003764825E+03  0.10646595047E+04  0.90018127361E+03 0.  0.
        -24    2    4    4    0    0 -0.21561327797E+02 -0.46768643053E+02  0.29671869818E+03  0.31074023932E+03  0.76585335773E+02 0.  0.
         24    2    4    4    0    0  0.62610431303E+02 -0.42127452837E+03 -0.61675634643E+03  0.75391926534E+03  0.81323879808E+02 0.  0.
         11    1    3    3    0    0 -0.37796805725E+01  0.35822978470E+03 -0.21730715502E+03  0.41900508858E+03  0.00000000000E+00 0.  1.
        -11    1    3    3    0    0 -0.37269422933E+02  0.10981338672E+03 -0.11784831902E+03  0.16533667496E+03  0.00000000000E+00 0. -1.
          2    1    6    6  502    0  0.10703853335E+02 -0.62965886426E+02 -0.15134071736E+03  0.16426590657E+03  0.00000000000E+00 0. -1.
          1    1    5    5  503    0  0.12466405700E+02 -0.34499521596E+02  0.53632318766E+02  0.64977333569E+02  0.00000000000E+00 0. -1.
         -2    1    5    5    0  503 -0.34027733497E+02 -0.12269121457E+02  0.24308637941E+03  0.24576290576E+03  0.00000000000E+00 0.  1.
         -1    1    6    6    0  502  0.51906577968E+02 -0.35830864194E+03 -0.46541562907E+03  0.58965335877E+03  0.00000000000E+00 0.  1.
<mgrwt>
<rscale>  0 0.15132505E+04</rscale>
<asrwt>0</asrwt>
<pdfrwt beam="1">  1        2 0.17724572E+00 0.15132505E+04</pdfrwt>
<pdfrwt beam="2">  1       -2 0.76446780E-01 0.15132505E+04</pdfrwt>
<totfact> 0.29906706E+01</totfact>
</mgrwt>
</event>
<event>
12    1  0.2019083E-007  0.2537771E+04  0.7818608E-02  0.8389652E-01
         -1   -1    0    0    0  501 -0.00000000000E+00  0.00000000000E+00  0.12504377486E+04  0.12504377486E+04  0.00000000000E+00 0.  1.
          1   -1    0    0  501    0  0.00000000000E+00 -0.00000000000E+00 -0.12876051252E+04  0.12876051252E+04  0.00000000000E+00 0. -1.
         23    2    1    2    0    0 -0.67524447532E+03  0.75869518245E+03 -0.45582738740E+03  0.11175541258E+04  0.97852622095E+02 0.  0.
        254    2    1    2    0    0  0.67524447532E+03 -0.75869518245E+03  0.41866001077E+03  0.14204887480E+04  0.90052129194E+03 0.  0.
        -24    2    4    4    0    0 -0.95636592359E+02 -0.21229775149E+03 -0.17445176237E+03  0.30207586403E+03  0.81238643189E+02 0.  0.
         24    2    4    4    0    0  0.77088106768E+03 -0.54639743096E+03  0.59311177314E+03  0.11184128840E+04  0.79107714745E+02 0.  0.
         11    1    3    3    0    0 -0.60639587975E+03  0.67511711654E+03 -0.37261361778E+03  0.98098929259E+03  0.00000000000E+00 0.  1.
        -11    1    3    3    0    0 -0.68848595566E+02  0.83578065909E+02 -0.83213769618E+02  0.13656483320E+03  0.00000000000E+00 0. -1.
          4    1    6    6  502    0  0.48502042334E+03 -0.29632190507E+03  0.35347518252E+03  0.66932517294E+03  0.00000000000E+00 0. -1.
          3    1    5    5  503    0 -0.95334282282E+02 -0.13234328624E+03 -0.92174841216E+02  0.18734879809E+03  0.00000000000E+00 0. -1.
         -4    1    5    5    0  503 -0.30231007766E+00 -0.79954465255E+02 -0.82276921151E+02  0.11472706594E+03  0.00000000000E+00 0.  1.
         -3    1    6    6    0  502  0.28586064434E+03 -0.25007552589E+03  0.23963659062E+03  0.44908771103E+03  0.00000000000E+00 0.  1.
<mgrwt>
<rscale>  0 0.25377707E+04</rscale>
<asrwt>0</asrwt>
<pdfrwt beam="1">  1        1 0.19809310E+00 0.25377707E+04</pdfrwt>
<pdfrwt beam="2">  1       -1 0.19237504E+00 0.25377707E+04</pdfrwt>
<totfact> 0.13903081E+00</totfact>
</mgrwt>
</event>
<event>
12    1  0.2019083E-007  0.1486986E+04  0.7818608E-02  0.8893154E-01
         -2   -1    0    0    0  501 -0.00000000000E+00  0.00000000000E+00  0.27040780013E+03  0.27040780013E+03  0.00000000000E+00 0.  1.
          2   -1    0    0  501    0  0.00000000000E+00 -0.00000000000E+00 -0.20442512405E+04  0.20442512405E+04  0.00000000000E+00 0. -1.
         23    2    1    2    0    0  0.41431071963E+03 -0.16351443930E+03 -0.35869244184E+03  0.57929281241E+03  0.92355565188E+02 0.  0.
        254    2    1    2    0    0 -0.41431071963E+03  0.16351443930E+03 -0.14151509985E+04  0.17353662282E+04  0.90025177209E+03 0.  0.
        -24    2    4    4    0    0 -0.31588071300E+03 -0.34725906079E+03 -0.72535470015E+03  0.86751072993E+03  0.77884179243E+02 0.  0.
         24    2    4    4    0    0 -0.98430006624E+02  0.51077350009E+03 -0.68979629834E+03  0.86785549825E+03  0.82317665452E+02 0.  0.
         11    1    3    3    0    0  0.10490254486E+03 -0.34867439033E+02 -0.14316294315E+03  0.18087540052E+03  0.00000000000E+00 0. -1.
        -11    1    3    3    0    0  0.30940817477E+03 -0.12864700027E+03 -0.21552949869E+03  0.39841741189E+03  0.00000000000E+00 0.  1.
          4    1    6    6  502    0 -0.81349132191E+02  0.23681732791E+03 -0.36454648206E+03  0.44226040484E+03  0.00000000000E+00 0. -1.
          3    1    5    5  503    0 -0.58781548597E+02 -0.10083184737E+03 -0.13925976831E+03  0.18170199495E+03  0.00000000000E+00 0. -1.
         -4    1    5    5    0  503 -0.25709916440E+03 -0.24642721341E+03 -0.58609493184E+03  0.68580873498E+03  0.00000000000E+00 0.  1.
         -3    1    6    6    0  502 -0.17080874432E+02  0.27395617218E+03 -0.32524981627E+03  0.42559509341E+03  0.00000000000E+00 0.  1.
<mgrwt>
<rscale>  0 0.14869855E+04</rscale>
<asrwt>0</asrwt>
<pdfrwt beam="1">  1        2 0.31450019E+00 0.14869855E+04</pdfrwt>
<pdfrwt beam="2">  1       -2 0.41601200E-01 0.14869855E+04</pdfrwt>
<totfact> 0.33441574E+01</totfact>
</mgrwt>
</event>
<event>
12    1  0.2019083E-007  0.1311254E+04  0.7818608E-02  0.9020688E-01
          1   -1    0    0  501    0  0.00000000000E+00  0.00000000000E+00  0.62419347567E+03  0.62419347567E+03  0.00000000000E+00 0. -1.
         -1   -1    0    0    0  501 -0.00000000000E+00 -0.00000000000E+00 -0.68864376584E+03  0.68864376584E+03  0.00000000000E+00 0.  1.
         23    2    1    2    0    0  0.29075684780E+02 -0.20074341895E+03  0.24767693297E+03  0.33368661799E+03  0.94125343027E+02 0.  0.
        254    2    1    2    0    0 -0.29075684780E+02  0.20074341895E+03 -0.31212722314E+03  0.97915062352E+03  0.90563194755E+03 0.  0.
        -24    2    4    4    0    0  0.15346892460E+03 -0.29153385382E+03  0.41190465447E+02  0.34085457517E+03  0.77074562799E+02 0.  0.
         24    2    4    4    0    0 -0.18254460938E+03  0.49227727277E+03 -0.35331768859E+03  0.63829604835E+03  0.83240666607E+02 0.  0.
         13    1    3    3    0    0  0.22183301533E+02 -0.15739698367E+03  0.24185276238E+03  0.28941089821E+03  0.00000000000E+00 0. -1.
        -13    1    3    3    0    0  0.68923832478E+01 -0.43346435283E+02  0.58241705970E+01  0.44275719777E+02  0.00000000000E+00 0.  1.
          4    1    6    6  502    0 -0.15234243249E+03  0.46898008336E+03 -0.32181627724E+03  0.58882616418E+03  0.00000000000E+00 0. -1.
          1    1    5    5  503    0  0.13573882802E+03 -0.27276939715E+03  0.57862836174E+02  0.31012300989E+03  0.00000000000E+00 0. -1.
         -2    1    5    5    0  503  0.17730096581E+02 -0.18764456666E+02 -0.16672370727E+02  0.30731565277E+02  0.00000000000E+00 0.  1.
         -3    1    6    6    0  502 -0.30202176891E+02  0.23297189406E+02 -0.31501411353E+02  0.49469884176E+02  0.00000000000E+00 0.  1.
<mgrwt>
<rscale>  0 0.13112543E+04</rscale>
<asrwt>0</asrwt>
<pdfrwt beam="1">  1        1 0.96029766E-01 0.13112543E+04</pdfrwt>
<pdfrwt beam="2">  1       -1 0.10594519E+00 0.13112543E+04</pdfrwt>
<totfact> 0.26475436E+01</totfact>
</mgrwt>
</event>
<event>
12    1  0.2019083E-007  0.1777647E+04  0.7818608E-02  0.8718278E-01
         -1   -1    0    0    0  501 -0.00000000000E+00  0.00000000000E+00  0.90876796914E+03  0.90876796914E+03  0.00000000000E+00 0.  1.
          1   -1    0    0  501    0  0.00000000000E+00 -0.00000000000E+00 -0.86931635814E+03  0.86931635814E+03  0.00000000000E+00 0. -1.
         23    2    1    2    0    0  0.29220914008E+03 -0.39459878623E+03 -0.42410663978E+03  0.65525630225E+03  0.91651492603E+02 0.  0.
        254    2    1    2    0    0 -0.29220914008E+03  0.39459878623E+03  0.46355825078E+03  0.11228280250E+04  0.89708535730E+03 0.  0.
        -24    2    4    4    0    0 -0.48591891211E+03  0.40806794870E+03  0.59630608827E+03  0.87456647804E+03  0.81540993965E+02 0.  0.
         24    2    4    4    0    0  0.19370977204E+03 -0.13469162476E+02 -0.13274783749E+03  0.24826154699E+03  0.79416076668E+02 0.  0.
         13    1    3    3    0    0  0.12205508812E+03 -0.20498170620E+03 -0.15400462050E+03  0.28395839052E+03  0.00000000000E+00 0.  1.
        -13    1    3    3    0    0  0.17015405195E+03 -0.18961708003E+03 -0.27010201927E+03  0.37129791172E+03  0.00000000000E+00 0. -1.
          4    1    6    6  502    0  0.77176510120E+02 -0.13633934249E+02 -0.99997074265E+01  0.79006911254E+02  0.00000000000E+00 0. -1.
          3    1    5    5  503    0 -0.39893194710E+03  0.37173640856E+03  0.51605146961E+03  0.75076212954E+03  0.00000000000E+00 0. -1.
         -4    1    5    5    0  503 -0.86986965013E+02  0.36331540146E+02  0.80254618657E+02  0.12380434850E+03  0.00000000000E+00 0.  1.
         -3    1    6    6    0  502  0.11653326192E+03  0.16477177305E+00 -0.12274813006E+03  0.16925463573E+03  0.00000000000E+00 0.  1.
<mgrwt>
<rscale>  0 0.17776466E+04</rscale>
<asrwt>0</asrwt>
<pdfrwt beam="1">  1        1 0.13374098E+00 0.17776466E+04</pdfrwt>
<pdfrwt beam="2">  1       -1 0.13981046E+00 0.17776466E+04</pdfrwt>
<totfact> 0.76735994E+00</totfact>
</mgrwt>
</event>
<event>
12    1  0.2019083E-007  0.1825666E+04  0.7818608E-02  0.8692768E-01
          1   -1    0    0  501    0  0.00000000000E+00  0.00000000000E+00  0.24743655618E+04  0.24743655618E+04  0.00000000000E+00 0. -1.
         -1   -1    0    0    0  501 -0.00000000000E+00 -0.00000000000E+00 -0.33675865817E+03  0.33675865817E+03  0.00000000000E+00 0.  1.
         23    2    1    2    0    0 -0.50080999059E+03  0.18952792250E+03  0.14725580974E+04  0.15694644607E+04  0.89776739247E+02 0.  0.
        254    2    1    2    0    0  0.50080999059E+03 -0.18952792250E+03  0.66504880617E+03  0.12416597593E+04  0.90149740053E+03 0.  0.
        -24    2    4    4    0    0  0.57581777158E+02  0.27397197153E+03 -0.32483608314E+02  0.29075229146E+03  0.71452137401E+02 0.  0.
         24    2    4    4    0    0  0.44322821343E+03 -0.46349989403E+03  0.69753241448E+03  0.95090746782E+03  0.79938364719E+02 0.  0.
         13    1    3    3    0    0 -0.29141211133E+03  0.13305547680E+03  0.98661083757E+03  0.10373165974E+04  0.00000000000E+00 0. -1.
        -13    1    3    3    0    0 -0.20939787925E+03  0.56472445698E+02  0.48594725987E+03  0.53214786323E+03  0.00000000000E+00 0.  1.
          2    1    6    6  502    0  0.40517238458E+03 -0.41096545654E+03  0.58999310536E+03  0.82531759466E+03  0.00000000000E+00 0. -1.
          3    1    5    5  503    0  0.36993762146E+02  0.26231576233E+03 -0.25784086690E+02  0.26616332717E+03  0.00000000000E+00 0. -1.
         -4    1    5    5    0  503  0.20588015012E+02  0.11656209198E+02 -0.66995216235E+01  0.24588964293E+02  0.00000000000E+00 0.  1.
         -1    1    6    6    0  502  0.38055828852E+02 -0.52534437492E+02  0.10753930912E+03  0.12558987315E+03  0.00000000000E+00 0.  1.
<mgrwt>
<rscale>  0 0.18256659E+04</rscale>
<asrwt>0</asrwt>
<pdfrwt beam="1">  1        1 0.38067161E+00 0.18256659E+04</pdfrwt>
<pdfrwt beam="2">  1       -1 0.51809026E-01 0.18256659E+04</pdfrwt>
<totfact> 0.49878007E+00</totfact>
</mgrwt>
</event>
<event>
12    1  0.2019083E-007  0.1669647E+04  0.7818608E-02  0.8778868E-01
         -2   -1    0    0    0  501 -0.00000000000E+00  0.00000000000E+00  0.22363134713E+03  0.22363134713E+03  0.00000000000E+00 0.  1.
          2   -1    0    0  501    0  0.00000000000E+00 -0.00000000000E+00 -0.31164243542E+04  0.31164243542E+04  0.00000000000E+00 0. -1.
         23    2    1    2    0    0 -0.49245853618E+03 -0.70598899515E+02 -0.16589119539E+04  0.17340909979E+04  0.87081019367E+02 0.  0.
        254    2    1    2    0    0  0.49245853618E+03  0.70598899515E+02 -0.12338810532E+04  0.16059647034E+04  0.89953352394E+03 0.  0.
        -24    2    4    4    0    0  0.35257920244E+03  0.25812005124E+03 -0.12796996111E+04  0.13542924466E+04  0.74423661445E+02 0.  0.
         24    2    4    4    0    0  0.13987933374E+03 -0.18752115173E+03  0.45818557867E+02  0.25167225686E+03  0.80679453859E+02 0.  0.
         13    1    3    3    0    0 -0.28462310336E+03 -0.49816390077E+02 -0.11034712653E+04  0.11406755967E+04  0.00000000000E+00 0. -1.
        -13    1    3    3    0    0 -0.20783543282E+03 -0.20782509438E+02 -0.55544068862E+03  0.59341540122E+03  0.00000000000E+00 0.  1.
          4    1    6    6  502    0  0.13670538829E+03 -0.14566077805E+03  0.57904836943E+02  0.20798652743E+03  0.00000000000E+00 0. -1.
          3    1    5    5  503    0  0.28647826235E+03  0.20546198406E+03 -0.11112674450E+04  0.11658472267E+04  0.00000000000E+00 0. -1.
         -4    1    5    5    0  503  0.66100940095E+02  0.52658067179E+02 -0.16843216612E+03  0.18844521990E+03  0.00000000000E+00 0.  1.
         -3    1    6    6    0  502  0.31739454476E+01 -0.41860373675E+02 -0.12086279076E+02  0.43685729430E+02  0.00000000000E+00 0.  1.
<mgrwt>
<rscale>  0 0.16696469E+04</rscale>
<asrwt>0</asrwt>
<pdfrwt beam="1">  1        2 0.47944985E+00 0.16696469E+04</pdfrwt>
<pdfrwt beam="2">  1       -2 0.34404826E-01 0.16696469E+04</pdfrwt>
<totfact> 0.11159862E+01</totfact>
</mgrwt>
</event>
<event>
12    1  0.2019083E-007  0.2072679E+04  0.7818608E-02  0.8573375E-01
          2   -1    0    0  501    0  0.00000000000E+00  0.00000000000E+00  0.61602380183E+03  0.61602380183E+03  0.00000000000E+00 0. -1.
         -2   -1    0    0    0  501 -0.00000000000E+00 -0.00000000000E+00 -0.17434384748E+04  0.17434384748E+04  0.00000000000E+00 0.  1.
         23    2    1    2    0    0 -0.22666948672E+03 -0.74207030480E+03 -0.98892788654E+02  0.78690183715E+03  0.85949544436E+02 0.  0.
        254    2    1    2    0    0  0.22666948672E+03  0.74207030480E+03 -0.10285218843E+04  0.15725604394E+04  0.90168823649E+03 0.  0.
        -24    2    4    4    0    0  0.27256778012E+03  0.69131165172E+03 -0.25186824826E+03  0.78874957206E+03  0.80518807567E+02 0.  0.
         24    2    4    4    0    0 -0.45898293395E+02  0.50758653073E+02 -0.77665363601E+03  0.78381086739E+03  0.80532672319E+02 0.  0.
         13    1    3    3    0    0 -0.13808117574E+03 -0.44102484892E+03 -0.16379476358E+02  0.46242579481E+03  0.00000000000E+00 0. -1.
        -13    1    3    3    0    0 -0.88588310977E+02 -0.30104545587E+03 -0.82513312296E+02  0.32447604234E+03  0.00000000000E+00 0.  1.
          2    1    6    6  502    0 -0.13304916732E+02  0.19864297723E+02 -0.46581707482E+02  0.52359016465E+02  0.00000000000E+00 0. -1.
          3    1    5    5  503    0  0.64615359331E+02  0.12773608553E+03 -0.18693255955E+02  0.14436443477E+03  0.00000000000E+00 0. -1.
         -4    1    5    5    0  503  0.20795242078E+03  0.56357556619E+03 -0.23317499231E+03  0.64438513729E+03  0.00000000000E+00 0.  1.
         -1    1    6    6    0  502 -0.32593376664E+02  0.30894355350E+02 -0.73007192853E+03  0.73145185093E+03  0.00000000000E+00 0.  1.
<mgrwt>
<rscale>  0 0.20726790E+04</rscale>
<asrwt>0</asrwt>
<pdfrwt beam="1">  1        2 0.94772892E-01 0.20726790E+04</pdfrwt>
<pdfrwt beam="2">  1       -2 0.26822131E+00 0.20726790E+04</pdfrwt>
<totfact> 0.22048230E+00</totfact>
</mgrwt>
</event>
<event>
12    1  0.2019083E-007  0.1461835E+04  0.7818608E-02  0.8910236E-01
         -1   -1    0    0    0  501 -0.00000000000E+00  0.00000000000E+00  0.39470347129E+03  0.39470347129E+03  0.00000000000E+00 0.  1.
          1   -1    0    0  501    0  0.00000000000E+00 -0.00000000000E+00 -0.13535238486E+04  0.13535238486E+04  0.00000000000E+00 0. -1.
         23    2    1    2    0    0 -0.22628720370E+03  0.10327546551E+02  0.16654458802E+03  0.29504586175E+03  0.89456156620E+02 0.  0.
        254    2    1    2    0    0  0.22628720370E+03 -0.10327546551E+02 -0.11253649654E+04  0.14531814582E+04  0.89105414443E+03 0.  0.
        -24    2    4    4    0    0  0.95274064650E+02 -0.29091743637E+03 -0.10855758685E+04  0.11308017994E+04  0.80793818436E+02 0.  0.
         24    2    4    4    0    0  0.13101313905E+03  0.28058988981E+03 -0.39789096880E+02  0.32237965877E+03  0.80314029220E+02 0.  0.
         13    1    3    3    0    0 -0.16910605393E+03 -0.23511479689E+02  0.14828891269E+03  0.22613988764E+03  0.00000000000E+00 0.  1.
        -13    1    3    3    0    0 -0.57181149777E+02  0.33839026240E+02  0.18255675328E+02  0.68905974112E+02  0.00000000000E+00 0. -1.
          2    1    6    6  502    0  0.37574291725E+02  0.54773326779E+02  0.22591000514E+02  0.70159090853E+02  0.00000000000E+00 0. -1.
          3    1    5    5  503    0 -0.72865294961E+01 -0.89108329298E+00 -0.12443335110E+02  0.14447287988E+02  0.00000000000E+00 0. -1.
         -4    1    5    5    0  503  0.10256059415E+03 -0.29002635307E+03 -0.10731325334E+04  0.11163545114E+04  0.00000000000E+00 0.  1.
         -1    1    6    6    0  502  0.93438847328E+02  0.22581656304E+03 -0.62380097394E+02  0.25222056792E+03  0.00000000000E+00 0.  1.
<mgrwt>
<rscale>  0 0.14618352E+04</rscale>
<asrwt>0</asrwt>
<pdfrwt beam="1">  1        1 0.20823444E+00 0.14618352E+04</pdfrwt>
<pdfrwt beam="2">  1       -1 0.60723611E-01 0.14618352E+04</pdfrwt>
<totfact> 0.22110312E+01</totfact>
</mgrwt>
</event>
<event>
12    1  0.2019083E-007  0.1646006E+04  0.7818608E-02  0.8792773E-01
         -2   -1    0    0    0  501 -0.00000000000E+00  0.00000000000E+00  0.29238581677E+03  0.29238581677E+03  0.00000000000E+00 0.  1.
          2   -1    0    0  501    0  0.00000000000E+00 -0.00000000000E+00 -0.23165747014E+04  0.23165747014E+04  0.00000000000E+00 0. -1.
         23    2    1    2    0    0 -0.45919464863E+03  0.33249311969E+03 -0.82340130712E+03  0.10039681856E+04  0.92471644910E+02 0.  0.
        254    2    1    2    0    0  0.45919464863E+03 -0.33249311969E+03 -0.12007875775E+04  0.16049923326E+04  0.90149774345E+03 0.  0.
        -24    2    4    4    0    0  0.14205137190E+03 -0.75838068002E+02 -0.11748256267E+04  0.11885385065E+04  0.80489275031E+02 0.  0.
         24    2    4    4    0    0  0.31714327673E+03 -0.25665505169E+03 -0.25961950811E+02  0.41645382613E+03  0.79423503316E+02 0.  0.
         13    1    3    3    0    0 -0.17740203670E+03  0.83965657753E+02 -0.32738351047E+03  0.38170889069E+03  0.00000000000E+00 0. -1.
        -13    1    3    3    0    0 -0.28179261194E+03  0.24852746194E+03 -0.49601779665E+03  0.62225929489E+03  0.00000000000E+00 0.  1.
          4    1    6    6  502    0  0.30602891515E+03 -0.22311548932E+03 -0.13433574473E+02  0.37896527468E+03  0.00000000000E+00 0. -1.
          3    1    5    5  503    0  0.10958919787E+03 -0.75783167323E+02 -0.10825623104E+04  0.10907309644E+04  0.00000000000E+00 0. -1.
         -4    1    5    5    0  503  0.32462174028E+02 -0.54900678823E-01 -0.92263316289E+02  0.97807542088E+02  0.00000000000E+00 0.  1.
         -3    1    6    6    0  502  0.11114361577E+02 -0.33539562362E+02 -0.12528376338E+02  0.37488551457E+02  0.00000000000E+00 0.  1.
<mgrwt>
<rscale>  0 0.16460056E+04</rscale>
<asrwt>0</asrwt>
<pdfrwt beam="1">  1        2 0.35639611E+00 0.16460056E+04</pdfrwt>
<pdfrwt beam="2">  1       -2 0.44982433E-01 0.16460056E+04</pdfrwt>
<totfact> 0.19889351E+01</totfact>
</mgrwt>
</event>
<event>
12    1  0.2019083E-007  0.1507482E+04  0.7818608E-02  0.8879492E-01
          2   -1    0    0  501    0  0.00000000000E+00  0.00000000000E+00  0.15432808984E+04  0.15432808984E+04  0.00000000000E+00 0. -1.
         -2   -1    0    0    0  501 -0.00000000000E+00 -0.00000000000E+00 -0.36812854687E+03  0.36812854687E+03  0.00000000000E+00 0.  1.
         23    2    1    2    0    0 -0.29621772694E+03  0.10428403806E+03  0.84027097950E+03  0.90160032219E+03  0.90596465907E+02 0.  0.
        254    2    1    2    0    0  0.29621772694E+03 -0.10428403806E+03  0.33488137202E+03  0.10098091231E+04  0.89941582672E+03 0.  0.
        -24    2    4    4    0    0 -0.17563439173E+02  0.35218600688E+03  0.25934165113E+03  0.44496148823E+03  0.79932322362E+02 0.  0.
         24    2    4    4    0    0  0.31378116611E+03 -0.45647004493E+03  0.75539720886E+02  0.56484763484E+03  0.80765580694E+02 0.  0.
         11    1    3    3    0    0 -0.27458030697E+03  0.75191463779E+02  0.78911733761E+03  0.83890063400E+03  0.00000000000E+00 0. -1.
        -11    1    3    3    0    0 -0.21637419969E+02  0.29092574277E+02  0.51153641892E+02  0.62699688196E+02  0.00000000000E+00 0.  1.
          4    1    6    6  502    0  0.11332554985E+03 -0.21308176036E+03  0.32877189414E+01  0.24136554423E+03  0.00000000000E+00 0. -1.
          3    1    5    5  503    0  0.15700340558E+02  0.29244964732E+03  0.21750985177E+03  0.36480656864E+03  0.00000000000E+00 0. -1.
         -4    1    5    5    0  503 -0.33263779731E+02  0.59736359556E+02  0.41831799369E+02  0.80154919583E+02  0.00000000000E+00 0.  1.
         -3    1    6    6    0  502  0.20045561626E+03 -0.24338828457E+03  0.72252001945E+02  0.32348209061E+03  0.00000000000E+00 0.  1.
<mgrwt>
<rscale>  0 0.15074823E+04</rscale>
<asrwt>0</asrwt>
<pdfrwt beam="1">  1        2 0.23742783E+00 0.15074823E+04</pdfrwt>
<pdfrwt beam="2">  1       -2 0.56635162E-01 0.15074823E+04</pdfrwt>
<totfact> 0.33883696E+01</totfact>
</mgrwt>
</event>
<event>
12    1  0.2019083E-007  0.2682319E+04  0.7818608E-02  0.8340765E-01
          2   -1    0    0  501    0  0.00000000000E+00  0.00000000000E+00  0.17784313614E+04  0.17784313614E+04  0.00000000000E+00 0. -1.
         -2   -1    0    0    0  501 -0.00000000000E+00 -0.00000000000E+00 -0.10114018532E+04  0.10114018532E+04  0.00000000000E+00 0.  1.
         23    2    1    2    0    0  0.91974949010E+03 -0.72721046444E+03  0.54370373135E+03  0.12958127202E+04  0.93502268171E+02 0.  0.
        254    2    1    2    0    0 -0.91974949010E+03  0.72721046444E+03  0.22332577693E+03  0.14940204944E+04  0.89858146595E+03 0.  0.
        -24    2    4    4    0    0 -0.55771555958E+03  0.88782769189E+03  0.43316238769E+02  0.10523167453E+04  0.78800888389E+02 0.  0.
         24    2    4    4    0    0 -0.36203393053E+03 -0.16061722745E+03  0.18000953816E+03  0.44170374911E+03  0.76369545939E+02 0.  0.
         11    1    3    3    0    0  0.70910082441E+03 -0.60784558278E+03  0.42358170104E+03  0.10255348308E+04  0.00000000000E+00 0.  1.
        -11    1    3    3    0    0  0.21064866569E+03 -0.11936488166E+03  0.12012203031E+03  0.27027788940E+03  0.00000000000E+00 0. -1.
          4    1    6    6  502    0 -0.18222013874E+03 -0.11752656356E+03  0.11681976433E+03  0.24629967406E+03  0.00000000000E+00 0. -1.
          3    1    5    5  503    0 -0.31435080323E+03  0.42881078320E+03  0.11828641327E+02  0.53182236887E+03  0.00000000000E+00 0. -1.
         -4    1    5    5    0  503 -0.24336475635E+03  0.45901690869E+03  0.31487597442E+02  0.52049437643E+03  0.00000000000E+00 0.  1.
         -3    1    6    6    0  502 -0.17981379179E+03 -0.43090663893E+02  0.63189773834E+02  0.19540407506E+03  0.00000000000E+00 0.  1.
<mgrwt>
<rscale>  0 0.26823190E+04</rscale>
<asrwt>0</asrwt>
<pdfrwt beam="1">  1        2 0.27360482E+00 0.26823190E+04</pdfrwt>
<pdfrwt beam="2">  1       -2 0.15560029E+00 0.26823190E+04</pdfrwt>
<totfact> 0.21175046E+00</totfact>
</mgrwt>
</event>
<event>
12    1  0.2019083E-007  0.2298201E+04  0.7818608E-02  0.8478631E-01
          2   -1    0    0  501    0  0.00000000000E+00  0.00000000000E+00  0.19273187758E+04  0.19273187758E+04  0.00000000000E+00 0. -1.
         -2   -1    0    0    0  501 -0.00000000000E+00 -0.00000000000E+00 -0.68511314867E+03  0.68511314867E+03  0.00000000000E+00 0.  1.
         23    2    1    2    0    0  0.51917851572E+03  0.80792752641E+03  0.68780679784E+03  0.11846716223E+04  0.89863466023E+02 0.  0.
        254    2    1    2    0    0 -0.51917851572E+03 -0.80792752641E+03  0.55439882931E+03  0.14277603021E+04  0.89935988310E+03 0.  0.
        -24    2    4    4    0    0 -0.56593821207E+03 -0.57823504736E+03  0.75461798284E+03  0.11094110102E+04  0.81869771925E+02 0.  0.
         24    2    4    4    0    0  0.46759696346E+02 -0.22969247905E+03 -0.20021915353E+03  0.31834929199E+03  0.79457272396E+02 0.  0.
         11    1    3    3    0    0  0.35619156850E+03  0.59232268780E+03  0.53622482985E+03  0.87478892775E+03  0.00000000000E+00 0. -1.
        -11    1    3    3    0    0  0.16298694722E+03  0.21560483861E+03  0.15158196799E+03  0.30988269460E+03  0.00000000000E+00 0.  1.
          2    1    6    6  502    0  0.19929864520E+02 -0.12540724291E+03 -0.57057662987E+02  0.13921118123E+03  0.00000000000E+00 0. -1.
          3    1    5    5  503    0 -0.35327746453E+02 -0.43748417335E+02  0.83312150879E+02  0.10051312438E+03  0.00000000000E+00 0. -1.
         -4    1    5    5    0  503 -0.53061046561E+03 -0.53448663002E+03  0.67130583196E+03  0.10088978858E+04  0.00000000000E+00 0.  1.
         -1    1    6    6    0  502  0.26829831826E+02 -0.10428523614E+03 -0.14316149054E+03  0.17913811076E+03  0.00000000000E+00 0.  1.
<mgrwt>
<rscale>  0 0.22982005E+04</rscale>
<asrwt>0</asrwt>
<pdfrwt beam="1">  1        2 0.29651058E+00 0.22982005E+04</pdfrwt>
<pdfrwt beam="2">  1       -2 0.10540202E+00 0.22982005E+04</pdfrwt>
<totfact> 0.48427335E+00</totfact>
</mgrwt>
</event>
<event>
12    1  0.2019083E-007  0.1067178E+04  0.7818608E-02  0.9237786E-01
          1   -1    0    0  501    0  0.00000000000E+00  0.00000000000E+00  0.63769494020E+03  0.63769494020E+03  0.00000000000E+00 0. -1.
         -1   -1    0    0    0  501 -0.00000000000E+00 -0.00000000000E+00 -0.44647896388E+03  0.44647896388E+03  0.00000000000E+00 0.  1.
         23    2    1    2    0    0  0.46559408071E+02  0.16002886571E+02  0.15115944169E+03  0.18316292088E+03  0.90970368333E+02 0.  0.
        254    2    1    2    0    0 -0.46559408071E+02 -0.16002886571E+02  0.40056534637E+02  0.90101098320E+03  0.89877271600E+03 0.  0.
        -24    2    4    4    0    0 -0.18051760415E+03 -0.40511929069E+03 -0.95377741057E+02  0.46037038052E+03  0.78330892185E+02 0.  0.
         24    2    4    4    0    0  0.13395819608E+03  0.38911640412E+03  0.13543427569E+03  0.44064060268E+03  0.80407235003E+02 0.  0.
         11    1    3    3    0    0  0.36271535511E+02  0.24387439802E+02  0.16088032819E+03  0.16671188172E+03  0.00000000000E+00 0. -1.
        -11    1    3    3    0    0  0.10287872560E+02 -0.83845532310E+01 -0.97208865075E+01  0.16451039152E+02  0.00000000000E+00 0.  1.
          4    1    6    6  502    0  0.99746916137E+02  0.17015253008E+03  0.74042552113E+02  0.21067422788E+03  0.00000000000E+00 0. -1.
          1    1    5    5  503    0 -0.11633513637E+03 -0.17537693666E+03 -0.62751576516E+02  0.21961032358E+03  0.00000000000E+00 0. -1.
         -2    1    5    5    0  503 -0.64182467787E+02 -0.22974235403E+03 -0.32626164541E+02  0.24076005694E+03  0.00000000000E+00 0.  1.
         -3    1    6    6    0  502  0.34211279945E+02  0.21896387404E+03  0.61391723580E+02  0.22996637479E+03  0.00000000000E+00 0.  1.
<mgrwt>
<rscale>  0 0.10671783E+04</rscale>
<asrwt>0</asrwt>
<pdfrwt beam="1">  1        1 0.98106914E-01 0.10671783E+04</pdfrwt>
<pdfrwt beam="2">  1       -1 0.68689071E-01 0.10671783E+04</pdfrwt>
<totfact> 0.67128980E+01</totfact>
</mgrwt>
</event>
<event>
12    1  0.2019083E-007  0.1681714E+04  0.7818608E-02  0.8771863E-01
          1   -1    0    0  501    0  0.00000000000E+00  0.00000000000E+00  0.88168974268E+03  0.88168974268E+03  0.00000000000E+00 0. -1.
         -1   -1    0    0    0  501 -0.00000000000E+00 -0.00000000000E+00 -0.80191502681E+03  0.80191502681E+03  0.00000000000E+00 0.  1.
         23    2    1    2    0    0  0.55173203164E+03 -0.21476821383E+03  0.76717920110E+02  0.60418093269E+03  0.92818854521E+02 0.  0.
        254    2    1    2    0    0 -0.55173203164E+03  0.21476821383E+03  0.30567957577E+01  0.10794238368E+04  0.90255905903E+03 0.  0.
        -24    2    4    4    0    0 -0.38460989195E+03  0.56168043670E+03  0.18404440757E+02  0.68594845484E+03  0.82321791219E+02 0.  0.
         24    2    4    4    0    0 -0.16712213969E+03 -0.34691222287E+03 -0.15347644999E+02  0.39347538196E+03  0.79431895678E+02 0.  0.
         11    1    3    3    0    0  0.60295148949E+02 -0.13333340897E+02 -0.18783139424E+02  0.64545249964E+02  0.00000000000E+00 0.  1.
        -11    1    3    3    0    0  0.49143688269E+03 -0.20143487293E+03  0.95501059534E+02  0.53963568273E+03  0.00000000000E+00 0. -1.
          4    1    6    6  502    0 -0.51878741006E+02 -0.19648582917E+03  0.15624013739E+01  0.20322530829E+03  0.00000000000E+00 0. -1.
          3    1    5    5  503    0 -0.12897072811E+03  0.16066092632E+03  0.40072817912E+02  0.20988380760E+03  0.00000000000E+00 0. -1.
         -4    1    5    5    0  503 -0.25563916384E+03  0.40101951037E+03 -0.21668377155E+02  0.47606464724E+03  0.00000000000E+00 0.  1.
         -3    1    6    6    0  502 -0.11524339868E+03 -0.15042639370E+03 -0.16910046373E+02  0.19025007366E+03  0.00000000000E+00 0.  1.
<mgrwt>
<rscale>  0 0.16817137E+04</rscale>
<asrwt>0</asrwt>
<pdfrwt beam="1">  1        1 0.13564458E+00 0.16817137E+04</pdfrwt>
<pdfrwt beam="2">  1       -1 0.12337154E+00 0.16817137E+04</pdfrwt>
<totfact> 0.10384387E+01</totfact>
</mgrwt>
</event>
<event>
12    1  0.2019083E-007  0.1835435E+04  0.7818608E-02  0.8687679E-01
         -1   -1    0    0    0  501 -0.00000000000E+00  0.00000000000E+00  0.65649724821E+03  0.65649724821E+03  0.00000000000E+00 0.  1.
          1   -1    0    0  501    0  0.00000000000E+00 -0.00000000000E+00 -0.12828767053E+04  0.12828767053E+04  0.00000000000E+00 0. -1.
         23    2    1    2    0    0  0.45738519676E+03  0.49406741643E+03 -0.41652821431E+03  0.79686820106E+03  0.90550242130E+02 0.  0.
        254    2    1    2    0    0 -0.45738519676E+03 -0.49406741643E+03 -0.20985124281E+03  0.11425057525E+04  0.89887597596E+03 0.  0.
        -24    2    4    4    0    0  0.19556605508E+03 -0.38015141339E+03 -0.18936698158E+03  0.47450543780E+03  0.80835498319E+02 0.  0.
         24    2    4    4    0    0 -0.65295125183E+03 -0.11391600305E+03 -0.20484261235E+02  0.66800031469E+03  0.80514734360E+02 0.  0.
         11    1    3    3    0    0  0.25845308218E+03  0.29195318163E+03 -0.18912401259E+03  0.43336191352E+03  0.00000000000E+00 0.  1.
        -11    1    3    3    0    0  0.19893211458E+03  0.20211423480E+03 -0.22740420172E+03  0.36350628754E+03  0.00000000000E+00 0. -1.
          2    1    6    6  502    0 -0.67103765325E+02  0.89634300480E+01  0.10951783172E+02  0.68579880093E+02  0.00000000000E+00 0. -1.
          1    1    5    5  503    0  0.41990448578E+01 -0.60239053454E+02 -0.42476777461E+02  0.73828532169E+02  0.00000000000E+00 0. -1.
         -2    1    5    5    0  503  0.19136701022E+03 -0.31991235993E+03 -0.14689020411E+03  0.40067690563E+03  0.00000000000E+00 0.  1.
         -1    1    6    6    0  502 -0.58584748651E+03 -0.12287943309E+03 -0.31436044407E+02  0.59942043460E+03  0.00000000000E+00 0.  1.
<mgrwt>
<rscale>  0 0.18354346E+04</rscale>
<asrwt>0</asrwt>
<pdfrwt beam="1">  1        1 0.19736565E+00 0.18354346E+04</pdfrwt>
<pdfrwt beam="2">  1       -1 0.10099958E+00 0.18354346E+04</pdfrwt>
<totfact> 0.81553135E+00</totfact>
</mgrwt>
</event>
<event>
12    1  0.2019083E-007  0.1561118E+04  0.7818608E-02  0.8844797E-01
         -1   -1    0    0    0  501 -0.00000000000E+00  0.00000000000E+00  0.83090243168E+03  0.83090243168E+03  0.00000000000E+00 0.  1.
          1   -1    0    0  501    0  0.00000000000E+00 -0.00000000000E+00 -0.73326603977E+03  0.73326603977E+03  0.00000000000E+00 0. -1.
         23    2    1    2    0    0 -0.32967561647E+03  0.35527461070E+03  0.20247912912E+03  0.53611281738E+03  0.10729908728E+03 0.  0.
        254    2    1    2    0    0  0.32967561647E+03 -0.35527461070E+03 -0.10484273721E+03  0.10280556541E+04  0.90055558808E+03 0.  0.
        -24    2    4    4    0    0  0.42250985097E+02 -0.61844645033E+03 -0.71365419393E+02  0.62917269194E+03  0.80647972933E+02 0.  0.
         24    2    4    4    0    0  0.28742463137E+03  0.26317183963E+03 -0.33477317816E+02  0.39888296213E+03  0.78195593081E+02 0.  0.
         13    1    3    3    0    0 -0.73475149511E+02  0.14836197589E+03  0.87778378788E+02  0.18738974697E+03  0.00000000000E+00 0.  1.
        -13    1    3    3    0    0 -0.25620046696E+03  0.20691263481E+03  0.11470075034E+03  0.34872307041E+03  0.00000000000E+00 0. -1.
          4    1    6    6  502    0  0.24685992111E+03  0.23928562097E+03 -0.49407124281E+01  0.34383402928E+03  0.00000000000E+00 0. -1.
          1    1    5    5  503    0  0.32035326211E+02 -0.53932498457E+03 -0.88765542064E+02  0.54751897005E+03  0.00000000000E+00 0. -1.
         -2    1    5    5    0  503  0.10215658886E+02 -0.79121465759E+02  0.17400122671E+02  0.81653721895E+02  0.00000000000E+00 0.  1.
         -3    1    6    6    0  502  0.40564710263E+02  0.23886218651E+02 -0.28536605388E+02  0.55048932843E+02  0.00000000000E+00 0.  1.
<mgrwt>
<rscale>  0 0.15611182E+04</rscale>
<asrwt>0</asrwt>
<pdfrwt beam="1">  1        1 0.11281016E+00 0.15611182E+04</pdfrwt>
<pdfrwt beam="2">  1       -1 0.12783114E+00 0.15611182E+04</pdfrwt>
<totfact> 0.12923769E+01</totfact>
</mgrwt>
</event>
<event>
12    1  0.2019083E-007  0.2270318E+04  0.7818608E-02  0.8489717E-01
         -2   -1    0    0    0  501 -0.00000000000E+00  0.00000000000E+00  0.62753901657E+03  0.62753901657E+03  0.00000000000E+00 0.  1.
          2   -1    0    0  501    0  0.00000000000E+00 -0.00000000000E+00 -0.20533954790E+04  0.20533954790E+04  0.00000000000E+00 0. -1.
         23    2    1    2    0    0 -0.56956241770E+03 -0.96007495264E+01 -0.15061288210E+04  0.16128835643E+04  0.92064349083E+02 0.  0.
        254    2    1    2    0    0  0.56956241770E+03  0.96007495264E+01  0.80272358617E+02  0.10680509313E+04  0.89988644738E+03 0.  0.
        -24    2    4    4    0    0 -0.98121497417E+02 -0.84283975164E+02 -0.26566904472E+03  0.30604313367E+03  0.79691540451E+02 0.  0.
         24    2    4    4    0    0  0.66768391511E+03  0.93884724691E+02  0.34594140334E+03  0.76200779759E+03  0.79776418923E+02 0.  0.
         11    1    3    3    0    0 -0.39753291299E+03 -0.26549529314E+02 -0.93992848261E+03  0.10208833659E+04  0.00000000000E+00 0.  1.
        -11    1    3    3    0    0 -0.17202950470E+03  0.16948779788E+02 -0.56620033842E+03  0.59200019836E+03  0.00000000000E+00 0. -1.
          2    1    6    6  502    0  0.57395119807E+03  0.10818650904E+03  0.29355516922E+03  0.65368106587E+03  0.00000000000E+00 0. -1.
          1    1    5    5  503    0 -0.58753165409E+02 -0.16085348216E+02 -0.58680832283E+02  0.84581989515E+02  0.00000000000E+00 0. -1.
         -2    1    5    5    0  503 -0.39368332007E+02 -0.68198626948E+02 -0.20698821244E+03  0.22146114416E+03  0.00000000000E+00 0.  1.
         -1    1    6    6    0  502  0.93732717047E+02 -0.14301784350E+02  0.52386234124E+02  0.10832673173E+03  0.00000000000E+00 0.  1.
<mgrwt>
<rscale>  0 0.22703178E+04</rscale>
<asrwt>0</asrwt>
<pdfrwt beam="1">  1        2 0.31590700E+00 0.22703178E+04</pdfrwt>
<pdfrwt beam="2">  1       -2 0.96544464E-01 0.22703178E+04</pdfrwt>
<totfact> 0.50879179E+00</totfact>
</mgrwt>
</event>
<event>
12    1  0.2019083E-007  0.1594703E+04  0.7818608E-02  0.8823809E-01
          2   -1    0    0  501    0  0.00000000000E+00  0.00000000000E+00  0.23819334305E+04  0.23819334305E+04  0.00000000000E+00 0. -1.
         -2   -1    0    0    0  501 -0.00000000000E+00 -0.00000000000E+00 -0.26691307681E+03  0.26691307681E+03  0.00000000000E+00 0.  1.
         23    2    1    2    0    0  0.61103855798E+02  0.40406796217E+03  0.13162861869E+04  0.13817355097E+04  0.97872843813E+02 0.  0.
        254    2    1    2    0    0 -0.61103855798E+02 -0.40406796217E+03  0.79873416678E+03  0.12671109977E+04  0.89475662163E+03 0.  0.
        -24    2    4    4    0    0 -0.46457413550E+03 -0.29512496218E+03  0.41773892472E+03  0.69581215667E+03  0.81980957916E+02 0.  0.
         24    2    4    4    0    0  0.40347027970E+03 -0.10894299999E+03  0.38099524206E+03  0.57129884099E+03  0.81044107751E+02 0.  0.
         13    1    3    3    0    0  0.60617911194E+02  0.14497397946E+03  0.40786314092E+03  0.43708617868E+03  0.00000000000E+00 0.  1.
        -13    1    3    3    0    0  0.48594460362E+00  0.25909398271E+03  0.90842304603E+03  0.94464933101E+03  0.00000000000E+00 0. -1.
          4    1    6    6  502    0  0.34846515958E+03 -0.98629776642E+02  0.36237291675E+03  0.51231819319E+03  0.00000000000E+00 0. -1.
          3    1    5    5  503    0 -0.33039934210E+03 -0.16668985494E+03  0.26203184308E+03  0.45344230040E+03  0.00000000000E+00 0. -1.
         -4    1    5    5    0  503 -0.13417479340E+03 -0.12843510724E+03  0.15570708164E+03  0.24236985627E+03  0.00000000000E+00 0.  1.
         -3    1    6    6    0  502  0.55005120118E+02 -0.10313223344E+02  0.18622325310E+02  0.58980647800E+02  0.00000000000E+00 0.  1.
<mgrwt>
<rscale>  0 0.15947027E+04</rscale>
<asrwt>0</asrwt>
<pdfrwt beam="1">  1        2 0.36645128E+00 0.15947027E+04</pdfrwt>
<pdfrwt beam="2">  1       -2 0.41063552E-01 0.15947027E+04</pdfrwt>
<totfact> 0.21972688E+01</totfact>
</mgrwt>
</event>
<event>
12    1  0.2019083E-007  0.2210909E+04  0.7818608E-02  0.8513901E-01
          1   -1    0    0  501    0  0.00000000000E+00  0.00000000000E+00  0.90864713530E+03  0.90864713530E+03  0.00000000000E+00 0. -1.
         -1   -1    0    0    0  501 -0.00000000000E+00 -0.00000000000E+00 -0.13448885206E+04  0.13448885206E+04  0.00000000000E+00 0.  1.
         23    2    1    2    0    0 -0.52077890422E+03 -0.70903282236E+03  0.89601111077E+02  0.88876399349E+03  0.89077869088E+02 0.  0.
        254    2    1    2    0    0  0.52077890422E+03  0.70903282236E+03 -0.52584249641E+03  0.13647716624E+04  0.90119540018E+03 0.  0.
        -24    2    4    4    0    0 -0.13072560806E+03  0.54780676369E+02  0.14650913768E+03  0.21959379659E+03  0.81648031029E+02 0.  0.
         24    2    4    4    0    0  0.65150451228E+03  0.65425214599E+03 -0.67235163409E+03  0.11451778658E+04  0.82895262338E+02 0.  0.
         13    1    3    3    0    0 -0.23440490872E+03 -0.38273801310E+03  0.69449794405E+02  0.45415561413E+03  0.00000000000E+00 0. -1.
        -13    1    3    3    0    0 -0.28637399550E+03 -0.32629480926E+03  0.20151316672E+02  0.43460837936E+03  0.00000000000E+00 0.  1.
          4    1    6    6  502    0  0.44632150801E+03  0.39988082656E+03 -0.40998210327E+03  0.72608049758E+03  0.00000000000E+00 0. -1.
          1    1    5    5  503    0 -0.11741625203E+03  0.41194760829E+02  0.74312798997E+02  0.14493438742E+03  0.00000000000E+00 0. -1.
         -2    1    5    5    0  503 -0.13309356028E+02  0.13585915541E+02  0.72196338683E+02  0.74659409174E+02  0.00000000000E+00 0.  1.
         -3    1    6    6    0  502  0.20518300427E+03  0.25437131943E+03 -0.26236953082E+03  0.41909736827E+03  0.00000000000E+00 0.  1.
<mgrwt>
<rscale>  0 0.22109085E+04</rscale>
<asrwt>0</asrwt>
<pdfrwt beam="1">  1        1 0.13979187E+00 0.22109085E+04</pdfrwt>
<pdfrwt beam="2">  1       -1 0.20690593E+00 0.22109085E+04</pdfrwt>
<totfact> 0.22003116E+00</totfact>
</mgrwt>
</event>
<event>
12    1  0.2019083E-007  0.2316811E+04  0.7818608E-02  0.8471322E-01
         -1   -1    0    0    0  501 -0.00000000000E+00  0.00000000000E+00  0.14801497010E+04  0.14801497010E+04  0.00000000000E+00 0.  1.
          1   -1    0    0  501    0  0.00000000000E+00 -0.00000000000E+00 -0.90659946440E+03  0.90659946440E+03  0.00000000000E+00 0. -1.
         23    2    1    2    0    0  0.38330209013E+03 -0.80358087887E+03 -0.17801678752E+03  0.91491868842E+03  0.11279853101E+03 0.  0.
        254    2    1    2    0    0 -0.38330209013E+03  0.80358087887E+03  0.75156702414E+03  0.14718304770E+04  0.89931598456E+03 0.  0.
        -24    2    4    4    0    0  0.54529123609E+02  0.77910295446E+03  0.30872564722E+03  0.84354178913E+03  0.79223644157E+02 0.  0.
         24    2    4    4    0    0 -0.43783121374E+03  0.24477924416E+02  0.44284137692E+03  0.62828868787E+03  0.79642009579E+02 0.  0.
         11    1    3    3    0    0  0.32272636216E+03 -0.58532191953E+03 -0.16257256516E+03  0.68788363351E+03  0.00000000000E+00 0. -1.
        -11    1    3    3    0    0  0.60575727976E+02 -0.21825895935E+03 -0.15444222357E+02  0.22703505491E+03  0.00000000000E+00 0.  1.
          4    1    6    6  502    0 -0.39609436860E+03  0.31469846049E+02  0.42654117526E+03  0.58293951165E+03  0.00000000000E+00 0. -1.
          1    1    5    5  503    0  0.71158226294E+02  0.48091634914E+03  0.18164862094E+03  0.51898000879E+03  0.00000000000E+00 0. -1.
         -2    1    5    5    0  503 -0.16629102685E+02  0.29818660532E+03  0.12707702628E+03  0.32456178034E+03  0.00000000000E+00 0.  1.
         -3    1    6    6    0  502 -0.41736845140E+02 -0.69919216326E+01  0.16300201660E+02  0.45349176228E+02  0.00000000000E+00 0.  1.
<mgrwt>
<rscale>  0 0.23168107E+04</rscale>
<asrwt>0</asrwt>
<pdfrwt beam="1">  1        1 0.13947684E+00 0.23168107E+04</pdfrwt>
<pdfrwt beam="2">  1       -1 0.22771534E+00 0.23168107E+04</pdfrwt>
<totfact> 0.15854164E+00</totfact>
</mgrwt>
</event>
<event>
12    1  0.2019083E-007  0.1531412E+04  0.7818608E-02  0.8863829E-01
         -1   -1    0    0    0  501 -0.00000000000E+00  0.00000000000E+00  0.17242518407E+04  0.17242518407E+04  0.00000000000E+00 0.  1.
          1   -1    0    0  501    0  0.00000000000E+00 -0.00000000000E+00 -0.34003481713E+03  0.34003481713E+03  0.00000000000E+00 0. -1.
         23    2    1    2    0    0 -0.25623968429E+03 -0.34760634836E+03  0.12665163704E+03  0.45866704411E+03  0.88576921142E+02 0.  0.
        254    2    1    2    0    0  0.25623968429E+03  0.34760634836E+03  0.12575653866E+04  0.16056196138E+04  0.90003038471E+03 0.  0.
        -24    2    4    4    0    0 -0.27458536395E+03  0.27049586844E+03  0.26469503522E+03  0.47424666134E+03  0.79254635096E+02 0.  0.
         24    2    4    4    0    0  0.53082504824E+03  0.77110479925E+02  0.99287035134E+03  0.11313729524E+04  0.80572730844E+02 0.  0.
         11    1    3    3    0    0 -0.16583390610E+03 -0.17194478102E+03  0.37064476254E+02  0.24174297825E+03  0.00000000000E+00 0.  1.
        -11    1    3    3    0    0 -0.90405778188E+02 -0.17566156734E+03  0.89587160789E+02  0.21692406586E+03  0.00000000000E+00 0. -1.
          2    1    6    6  502    0  0.32178734862E+03  0.17251863525E+02  0.64744936301E+03  0.72321186536E+03  0.00000000000E+00 0. -1.
          3    1    5    5  503    0 -0.23824807706E+03  0.20748259513E+03  0.24227194927E+03  0.39812921383E+03  0.00000000000E+00 0. -1.
         -4    1    5    5    0  503 -0.36337286888E+02  0.63013273310E+02  0.22423085958E+02  0.76117447511E+02  0.00000000000E+00 0.  1.
         -1    1    6    6    0  502  0.20903769962E+03  0.59858616400E+02  0.34542098832E+03  0.40816108706E+03  0.00000000000E+00 0.  1.
<mgrwt>
<rscale>  0 0.15314120E+04</rscale>
<asrwt>0</asrwt>
<pdfrwt beam="1">  1        1 0.52313050E-01 0.15314120E+04</pdfrwt>
<pdfrwt beam="2">  1       -1 0.26526951E+00 0.15314120E+04</pdfrwt>
<totfact> 0.39847541E+00</totfact>
</mgrwt>
</event>
<event>
12    1  0.2019083E-007  0.1620815E+04  0.7818608E-02  0.8807862E-01
          1   -1    0    0  501    0  0.00000000000E+00  0.00000000000E+00  0.20021588776E+04  0.20021588776E+04  0.00000000000E+00 0. -1.
         -1   -1    0    0    0  501 -0.00000000000E+00 -0.00000000000E+00 -0.32802595678E+03  0.32802595678E+03  0.00000000000E+00 0.  1.
         23    2    1    2    0    0 -0.44937174582E+03 -0.19448794153E+03  0.20371634124E+03  0.53813433508E+03  0.91256175443E+02 0.  0.
        254    2    1    2    0    0  0.44937174582E+03  0.19448794153E+03  0.14704165795E+04  0.17920504993E+04  0.89975527184E+03 0.  0.
        -24    2    4    4    0    0  0.10195212014E+03 -0.30764433014E+03  0.22436780921E+03  0.40212366862E+03  0.79518943545E+02 0.  0.
         24    2    4    4    0    0  0.34741962568E+03  0.50213227168E+03  0.12460487703E+04  0.13899268306E+04  0.80136395970E+02 0.  0.
         13    1    3    3    0    0 -0.46924481081E+02 -0.10159048927E+02  0.50588137169E+02  0.69744338996E+02  0.00000000000E+00 0. -1.
        -13    1    3    3    0    0 -0.40244726474E+03 -0.18432889260E+03  0.15312820407E+03  0.46838999608E+03  0.00000000000E+00 0.  1.
          2    1    6    6  502    0  0.32115011416E+03  0.44124403710E+03  0.11533527179E+04  0.12759530508E+04  0.00000000000E+00 0. -1.
          1    1    5    5  503    0  0.53529184593E+02 -0.21947780454E+03  0.11487668769E+03  0.25344138112E+03  0.00000000000E+00 0. -1.
         -4    1    5    5    0  503  0.48422935549E+02 -0.88166525601E+02  0.10949112152E+03  0.14868228750E+03  0.00000000000E+00 0.  1.
         -1    1    6    6    0  502  0.26269511517E+02  0.60888234580E+02  0.92696052458E+02  0.11397377982E+03  0.00000000000E+00 0.  1.
<mgrwt>
<rscale>  0 0.16208147E+04</rscale>
<asrwt>0</asrwt>
<pdfrwt beam="1">  1        1 0.30802443E+00 0.16208147E+04</pdfrwt>
<pdfrwt beam="2">  1       -1 0.50465533E-01 0.16208147E+04</pdfrwt>
<totfact> 0.11223355E+01</totfact>
</mgrwt>
</event>
<event>
12    1  0.2019083E-007  0.1822065E+04  0.7818608E-02  0.8694653E-01
         -1   -1    0    0    0  501 -0.00000000000E+00  0.00000000000E+00  0.91010982007E+03  0.91010982007E+03  0.00000000000E+00 0.  1.
          1   -1    0    0  501    0  0.00000000000E+00 -0.00000000000E+00 -0.91195580548E+03  0.91195580548E+03  0.00000000000E+00 0. -1.
         23    2    1    2    0    0  0.30686781166E+03 -0.60958491558E+03  0.47277525382E+02  0.69235451053E+03  0.10657382750E+03 0.  0.
        254    2    1    2    0    0 -0.30686781166E+03  0.60958491558E+03 -0.49123510792E+02  0.11297111150E+04  0.89892850715E+03 0.  0.
        -24    2    4    4    0    0 -0.46464623650E+03  0.62289995617E+03 -0.28794315490E+03  0.83260586672E+03  0.80129821848E+02 0.  0.
         24    2    4    4    0    0  0.15777842485E+03 -0.13315040586E+02  0.23881964411E+03  0.29710524831E+03  0.78519962481E+02 0.  0.
         13    1    3    3    0    0  0.13731466748E+03 -0.21217497598E+03  0.61295445467E+02  0.26005897403E+03  0.00000000000E+00 0.  1.
        -13    1    3    3    0    0  0.16955314418E+03 -0.39740993961E+03 -0.14017920085E+02  0.43229553650E+03  0.00000000000E+00 0. -1.
          4    1    6    6  502    0  0.15896457186E+02  0.23857390177E+02  0.54208618372E+02  0.61322481383E+02  0.00000000000E+00 0. -1.
          3    1    5    5  503    0 -0.25707655195E+03  0.30375833101E+03 -0.18095902725E+03  0.43715403094E+03  0.00000000000E+00 0. -1.
         -4    1    5    5    0  503 -0.20756968455E+03  0.31914162516E+03 -0.10698412765E+03  0.39545183578E+03  0.00000000000E+00 0.  1.
         -3    1    6    6    0  502  0.14188196766E+03 -0.37172430763E+02  0.18461102574E+03  0.23578276693E+03  0.00000000000E+00 0.  1.
<mgrwt>
<rscale>  0 0.18220647E+04</rscale>
<asrwt>0</asrwt>
<pdfrwt beam="1">  1        1 0.14030089E+00 0.18220647E+04</pdfrwt>
<pdfrwt beam="2">  1       -1 0.14001690E+00 0.18220647E+04</pdfrwt>
<totfact> 0.70221948E+00</totfact>
</mgrwt>
</event>
<event>
12    1  0.2019083E-007  0.2259020E+04  0.7818608E-02  0.8494256E-01
         -1   -1    0    0    0  501 -0.00000000000E+00  0.00000000000E+00  0.82780898292E+03  0.82780898292E+03  0.00000000000E+00 0.  1.
          1   -1    0    0  501    0  0.00000000000E+00 -0.00000000000E+00 -0.15411683981E+04  0.15411683981E+04  0.00000000000E+00 0. -1.
         23    2    1    2    0    0 -0.41970920958E+03 -0.53240197243E+03 -0.99335775368E+03  0.12061552683E+04  0.91887015342E+02 0.  0.
        254    2    1    2    0    0  0.41970920958E+03  0.53240197243E+03  0.27999833854E+03  0.11628221127E+04  0.90230178727E+03 0.  0.
        -24    2    4    4    0    0  0.40514768999E+03  0.75780310544E+03  0.31888255196E+03  0.91994547731E+03  0.78761678219E+02 0.  0.
         24    2    4    4    0    0  0.14561519594E+02 -0.22540113301E+03 -0.38884213429E+02  0.24287663538E+03  0.80370201826E+02 0.  0.
         13    1    3    3    0    0 -0.10277200868E+03 -0.14482600797E+03 -0.33377131613E+03  0.37807400047E+03  0.00000000000E+00 0. -1.
        -13    1    3    3    0    0 -0.31693720090E+03 -0.38757596445E+03 -0.65958643754E+03  0.82808126783E+03  0.00000000000E+00 0.  1.
          2    1    6    6  502    0 -0.81993140268E+00  0.63423688098E+01  0.26788872072E+01  0.69335680781E+01  0.00000000000E+00 0. -1.
          1    1    5    5  503    0  0.13948219305E+03  0.34298934180E+03  0.14174718395E+03  0.39647097614E+03  0.00000000000E+00 0. -1.
         -2    1    5    5    0  503  0.26566549694E+03  0.41481376364E+03  0.17713536802E+03  0.52347450117E+03  0.00000000000E+00 0.  1.
         -1    1    6    6    0  502  0.15381450996E+02 -0.23174350182E+03 -0.41563100636E+02  0.23594306730E+03  0.00000000000E+00 0.  1.
<mgrwt>
<rscale>  0 0.22590202E+04</rscale>
<asrwt>0</asrwt>
<pdfrwt beam="1">  1        1 0.23710283E+00 0.22590202E+04</pdfrwt>
<pdfrwt beam="2">  1       -1 0.12735523E+00 0.22590202E+04</pdfrwt>
<totfact> 0.29679093E+00</totfact>
</mgrwt>
</event>
<event>
12    1  0.2019083E-007  0.1850780E+04  0.7818608E-02  0.8679752E-01
          2   -1    0    0  501    0  0.00000000000E+00  0.00000000000E+00  0.25359325965E+04  0.25359325965E+04  0.00000000000E+00 0.  1.
         -2   -1    0    0    0  501 -0.00000000000E+00 -0.00000000000E+00 -0.33768519754E+03  0.33768519754E+03  0.00000000000E+00 0. -1.
         23    2    1    2    0    0 -0.65918386546E+03 -0.21799145776E+03  0.10113993913E+04  0.12303364380E+04  0.93570175379E+02 0.  0.
        254    2    1    2    0    0  0.65918386546E+03  0.21799145776E+03  0.11868480076E+04  0.16432813560E+04  0.89984541882E+03 0.  0.
        -24    2    4    4    0    0  0.59406494681E+03 -0.24881412679E+03  0.57871079257E+03  0.86974543590E+03  0.82032378480E+02 0.  0.
         24    2    4    4    0    0  0.65118918648E+02  0.46680558455E+03  0.60813721505E+03  0.77353592014E+03  0.79868767831E+02 0.  0.
         13    1    3    3    0    0 -0.35853267963E+03 -0.98127735199E+02  0.61467988481E+03  0.71833564270E+03  0.00000000000E+00 0.  1.
        -13    1    3    3    0    0 -0.30065118583E+03 -0.11986372256E+03  0.39671950653E+03  0.51200079530E+03  0.00000000000E+00 0. -1.
          2    1    6    6  502    0  0.55172213025E+02  0.14654089721E+03  0.17609773975E+03  0.23564511790E+03  0.00000000000E+00 0. -1.
          1    1    5    5  503    0  0.79543823557E+02 -0.65583108218E+02  0.91103606417E+02  0.13757990788E+03  0.00000000000E+00 0. -1.
         -2    1    5    5    0  503  0.51452112325E+03 -0.18323101857E+03  0.48760718615E+03  0.73216552802E+03  0.00000000000E+00 0.  1.
         -3    1    6    6    0  502  0.99467056237E+01  0.32026468734E+03  0.43203947530E+03  0.53789080224E+03  0.00000000000E+00 0.  1.
<mgrwt>
<rscale>  0 0.18507803E+04</rscale>
<asrwt>0</asrwt>
<pdfrwt beam="1">  1        2 0.39014346E+00 0.18507803E+04</pdfrwt>
<pdfrwt beam="2">  1       -2 0.51951571E-01 0.18507803E+04</pdfrwt>
<totfact> 0.10925159E+01</totfact>
</mgrwt>
</event>
<event>
12    1  0.2019083E-007  0.3655226E+04  0.7818608E-02  0.8077957E-01
          1   -1    0    0  501    0  0.00000000000E+00  0.00000000000E+00  0.33159697081E+04  0.33159697081E+04  0.00000000000E+00 0. -1.
         -1   -1    0    0    0  501 -0.00000000000E+00 -0.00000000000E+00 -0.10072981487E+04  0.10072981487E+04  0.00000000000E+00 0.  1.
         23    2    1    2    0    0 -0.10526082533E+04  0.13546393356E+04  0.10346413373E+04  0.20054091459E+04  0.90284445846E+02 0.  0.
        254    2    1    2    0    0  0.10526082533E+04 -0.13546393356E+04  0.12740302221E+04  0.23178587109E+04  0.89793325603E+03 0.  0.
        -24    2    4    4    0    0  0.21758735295E+03 -0.79391983085E+03  0.94570259865E+03  0.12564137489E+04  0.81050289046E+02 0.  0.
         24    2    4    4    0    0  0.83502090037E+03 -0.56071950475E+03  0.32832762340E+03  0.10614449620E+04  0.84853473173E+02 0.  0.
         11    1    3    3    0    0 -0.13810551004E+03  0.14266351180E+03  0.97683317323E+02  0.22128723412E+03  0.00000000000E+00 0.  1.
        -11    1    3    3    0    0 -0.91450274329E+03  0.12119758238E+04  0.93695802000E+03  0.17841219118E+04  0.00000000000E+00 0. -1.
          2    1    6    6  502    0  0.13757563342E+03 -0.58172346109E+02  0.59018796133E+02  0.16060602435E+03  0.00000000000E+00 0. -1.
          3    1    5    5  503    0  0.17584777419E+03 -0.59050793651E+03  0.65598023218E+03  0.89996229242E+03  0.00000000000E+00 0. -1.
         -4    1    5    5    0  503  0.41739578761E+02 -0.20341189435E+03  0.28972236647E+03  0.35645145649E+03  0.00000000000E+00 0.  1.
         -1    1    6    6    0  502  0.69744526696E+03 -0.50254715864E+03  0.26930882727E+03  0.90083893760E+03  0.00000000000E+00 0.  1.
<mgrwt>
<rscale>  0 0.36552265E+04</rscale>
<asrwt>0</asrwt>
<pdfrwt beam="1">  1        1 0.51014918E+00 0.36552265E+04</pdfrwt>
<pdfrwt beam="2">  1       -1 0.15496895E+00 0.36552265E+04</pdfrwt>
<totfact> 0.89181755E-02</totfact>
</mgrwt>
</event>
<event>
12    1  0.2019083E-007  0.3750664E+04  0.7818608E-02  0.8056826E-01
         -2   -1    0    0    0  501 -0.00000000000E+00  0.00000000000E+00  0.11633030625E+04  0.11633030625E+04  0.00000000000E+00 0.  1.
          2   -1    0    0  501    0  0.00000000000E+00 -0.00000000000E+00 -0.30231767118E+04  0.30231767118E+04  0.00000000000E+00 0. -1.
         23    2    1    2    0    0 -0.55970734227E+03 -0.16161206435E+04 -0.38369163014E+03  0.17551537067E+04  0.90702943666E+02 0.  0.
        254    2    1    2    0    0  0.55970734227E+03  0.16161206435E+04 -0.14761820192E+04  0.24313260675E+04  0.89839570886E+03 0.  0.
        -24    2    4    4    0    0 -0.94064974392E+02  0.19472234470E+03  0.58850117802E+02  0.23819036473E+03  0.80661654794E+02 0.  0.
         24    2    4    4    0    0  0.65377231666E+03  0.14213982988E+04 -0.15350321370E+04  0.21931357028E+04  0.75691370456E+02 0.  0.
         13    1    3    3    0    0 -0.29272941817E+03 -0.94979962533E+03 -0.25231648660E+03  0.10254137945E+04  0.00000000000E+00 0.  1.
        -13    1    3    3    0    0 -0.26697792410E+03 -0.66632101813E+03 -0.13137514354E+03  0.72973991222E+03  0.00000000000E+00 0. -1.
          4    1    6    6  502    0  0.42549182808E+03  0.85227020494E+03 -0.96308970167E+03  0.13546031048E+04  0.00000000000E+00 0. -1.
          3    1    5    5  503    0 -0.10139187355E+03  0.19114468725E+03  0.43342512816E+02  0.22066983687E+03  0.00000000000E+00 0. -1.
         -4    1    5    5    0  503  0.73268991625E+01  0.35776574459E+01  0.15507604986E+02  0.17520527861E+02  0.00000000000E+00 0.  1.
         -3    1    6    6    0  502  0.22828048858E+03  0.56912809381E+03 -0.57194243534E+03  0.83853259804E+03  0.00000000000E+00 0.  1.
<mgrwt>
<rscale>  0 0.37506643E+04</rscale>
<asrwt>0</asrwt>
<pdfrwt beam="1">  1        2 0.46510411E+00 0.37506643E+04</pdfrwt>
<pdfrwt beam="2">  1       -2 0.17896970E+00 0.37506643E+04</pdfrwt>
<totfact> 0.24968266E-01</totfact>
</mgrwt>
</event>
<event>
12    1  0.2019083E-007  0.1338092E+04  0.7818608E-02  0.8999892E-01
         -2   -1    0    0    0  501 -0.00000000000E+00  0.00000000000E+00  0.23768029415E+03  0.23768029415E+03  0.00000000000E+00 0.  1.
          2   -1    0    0  501    0  0.00000000000E+00 -0.00000000000E+00 -0.18832967534E+04  0.18832967534E+04  0.00000000000E+00 0. -1.
         23    2    1    2    0    0  0.10637441922E+03  0.31230337041E+03 -0.23478185291E+03  0.41515804302E+03  0.91568389758E+02 0.  0.
        254    2    1    2    0    0 -0.10637441922E+03 -0.31230337041E+03 -0.14108346063E+04  0.17058190045E+04  0.90028621977E+03 0.  0.
        -24    2    4    4    0    0 -0.28926446941E+03  0.57760294445E+02 -0.11943681894E+04  0.12334760524E+04  0.89093294954E+02 0.  0.
         24    2    4    4    0    0  0.18289005019E+03 -0.37006366485E+03 -0.21646641695E+03  0.47234295210E+03  0.76513189857E+02 0.  0.
         13    1    3    3    0    0  0.32041711908E+02  0.52427176213E+02 -0.88723540979E+02  0.10792194787E+03  0.00000000000E+00 0. -1.
        -13    1    3    3    0    0  0.74332707312E+02  0.25987619419E+03 -0.14605831193E+03  0.30723609516E+03  0.00000000000E+00 0.  1.
          4    1    6    6  502    0  0.48210454201E+00  0.37160004542E+01 -0.32580420428E+01  0.49654730004E+01  0.00000000000E+00 0. -1.
          1    1    5    5  503    0 -0.68717418950E+02 -0.18209613223E+02 -0.36864802637E+03  0.37543979681E+03  0.00000000000E+00 0. -1.
         -2    1    5    5    0  503 -0.22054705046E+03  0.75969907668E+02 -0.82572016302E+03  0.85803625562E+03  0.00000000000E+00 0.  1.
         -3    1    6    6    0  502  0.18240794565E+03 -0.37377966531E+03 -0.21320837491E+03  0.46737747910E+03  0.00000000000E+00 0.  1.
<mgrwt>
<rscale>  0 0.13380920E+04</rscale>
<asrwt>0</asrwt>
<pdfrwt beam="1">  1        2 0.28973795E+00 0.13380920E+04</pdfrwt>
<pdfrwt beam="2">  1       -2 0.36566201E-01 0.13380920E+04</pdfrwt>
<totfact> 0.53422824E+01</totfact>
</mgrwt>
</event>
<event>
12    1  0.2019083E-007  0.1928250E+04  0.7818608E-02  0.8640921E-01
          1   -1    0    0  501    0  0.00000000000E+00  0.00000000000E+00  0.27870165914E+04  0.27870165914E+04  0.00000000000E+00 0. -1.
         -1   -1    0    0    0  501 -0.00000000000E+00 -0.00000000000E+00 -0.33352403383E+03  0.33352403383E+03  0.00000000000E+00 0.  1.
         23    2    1    2    0    0 -0.32201693173E+03 -0.44111571856E+02 -0.13298347534E+03  0.36229461973E+03  0.89062066435E+02 0.  0.
        254    2    1    2    0    0  0.32201693173E+03  0.44111571856E+02  0.25864760329E+04  0.27582460055E+04  0.90134456396E+03 0.  0.
        -24    2    4    4    0    0 -0.15460246761E+03  0.13126942181E+03  0.19099946074E+04  0.19223693473E+04  0.79315338842E+02 0.  0.
         24    2    4    4    0    0  0.47661939935E+03 -0.87157849959E+02  0.67648142543E+03  0.83587665815E+03  0.79373333324E+02 0.  0.
         13    1    3    3    0    0 -0.86224608815E+02  0.72495819476E+01 -0.74032183749E+02  0.11387714360E+03  0.00000000000E+00 0.  1.
        -13    1    3    3    0    0 -0.23579232292E+03 -0.51361153803E+02 -0.58951291591E+02  0.24841747613E+03  0.00000000000E+00 0. -1.
          2    1    6    6  502    0  0.66247622023E+02 -0.26052585458E+02  0.61764294159E+02  0.94246022016E+02  0.00000000000E+00 0. -1.
          1    1    5    5  503    0 -0.34125292431E+02  0.57264635087E+02  0.90861068003E+03  0.91105276569E+03  0.00000000000E+00 0. -1.
         -2    1    5    5    0  503 -0.12047717518E+03  0.74004786727E+02  0.10013839274E+04  0.10113165816E+04  0.00000000000E+00 0.  1.
         -1    1    6    6    0  502  0.41037177732E+03 -0.61105264501E+02  0.61471713127E+03  0.74163063613E+03  0.00000000000E+00 0.  1.
<mgrwt>
<rscale>  0 0.19282500E+04</rscale>
<asrwt>0</asrwt>
<pdfrwt beam="1">  1        1 0.42877177E+00 0.19282500E+04</pdfrwt>
<pdfrwt beam="2">  1       -1 0.51311392E-01 0.19282500E+04</pdfrwt>
<totfact> 0.30399953E+00</totfact>
</mgrwt>
</event>
<event>
12    1  0.2019083E-007  0.1962739E+04  0.7818608E-02  0.8624242E-01
          2   -1    0    0  501    0  0.00000000000E+00  0.00000000000E+00  0.17926268911E+04  0.17926268911E+04  0.00000000000E+00 0. -1.
         -2   -1    0    0    0  501 -0.00000000000E+00 -0.00000000000E+00 -0.53724831391E+03  0.53724831391E+03  0.00000000000E+00 0.  1.
         23    2    1    2    0    0 -0.51643612051E+03  0.19340108372E+03  0.11363136189E+04  0.12670103468E+04  0.99981661003E+02 0.  0.
        254    2    1    2    0    0  0.51643612051E+03 -0.19340108372E+03  0.11906495827E+03  0.10628648582E+04  0.90077466485E+03 0.  0.
        -24    2    4    4    0    0  0.44380874564E+03 -0.22434028673E+03 -0.32870831794E+03  0.60137610021E+03  0.79431030891E+02 0.  0.
         24    2    4    4    0    0  0.72627374868E+02  0.30939203010E+02  0.44777327621E+03  0.46148875802E+03  0.78987321925E+02 0.  0.
         11    1    3    3    0    0 -0.19722722054E+03  0.83421978937E+02  0.33656060416E+03  0.39891207473E+03  0.00000000000E+00 0. -1.
        -11    1    3    3    0    0 -0.31920889997E+03  0.10997910478E+03  0.79975301479E+03  0.86809827207E+03  0.00000000000E+00 0.  1.
          4    1    6    6  502    0 -0.10130933896E+02  0.88977837327E+01  0.17657170487E+03  0.17708577961E+03  0.00000000000E+00 0. -1.
          3    1    5    5  503    0  0.39853743206E+02 -0.31577305630E+02 -0.62622497608E+02  0.80666128487E+02  0.00000000000E+00 0. -1.
         -4    1    5    5    0  503  0.40395500243E+03 -0.19276298110E+03 -0.26608582034E+03  0.52070997173E+03  0.00000000000E+00 0.  1.
         -3    1    6    6    0  502  0.82758308764E+02  0.22041419277E+02  0.27120157134E+03  0.28440297841E+03  0.00000000000E+00 0.  1.
<mgrwt>
<rscale>  0 0.19627387E+04</rscale>
<asrwt>0</asrwt>
<pdfrwt beam="1">  1        2 0.27578875E+00 0.19627387E+04</pdfrwt>
<pdfrwt beam="2">  1       -2 0.82653588E-01 0.19627387E+04</pdfrwt>
<totfact> 0.10421962E+01</totfact>
</mgrwt>
</event>
<event>
12    1  0.2019083E-007  0.2351820E+04  0.7818608E-02  0.8457765E-01
         -1   -1    0    0    0  501 -0.00000000000E+00  0.00000000000E+00  0.13354122984E+04  0.13354122984E+04  0.00000000000E+00 0.  1.
          1   -1    0    0  501    0  0.00000000000E+00 -0.00000000000E+00 -0.10354591470E+04  0.10354591470E+04  0.00000000000E+00 0. -1.
         23    2    1    2    0    0 -0.75115997297E+01  0.99467103299E+03  0.31404631594E+02  0.99946583795E+03  0.92297466535E+02 0.  0.
        254    2    1    2    0    0  0.75115997297E+01 -0.99467103299E+03  0.26854851988E+03  0.13714056074E+04  0.90510117920E+03 0.  0.
        -24    2    4    4    0    0 -0.13504282485E+03 -0.43443918208E+03 -0.30444984034E+03  0.55339120212E+03  0.81105794089E+02 0.  0.
         24    2    4    4    0    0  0.14255442458E+03 -0.56023185092E+03  0.57299836022E+03  0.81801440532E+03  0.81479787338E+02 0.  0.
         13    1    3    3    0    0  0.17608287874E+02  0.19037172470E+03  0.37117437516E+02  0.19475407450E+03  0.00000000000E+00 0. -1.
        -13    1    3    3    0    0 -0.25119887604E+02  0.80429930830E+03 -0.57128059220E+01  0.80471176345E+03  0.00000000000E+00 0.  1.
          2    1    6    6  502    0  0.46390196662E+02 -0.18965749990E+03  0.24933070836E+03  0.31668252200E+03  0.00000000000E+00 0. -1.
          1    1    5    5  503    0 -0.32899314108E+02 -0.21004614957E+03 -0.17231373112E+03  0.27366726467E+03  0.00000000000E+00 0. -1.
         -2    1    5    5    0  503 -0.10214351075E+03 -0.22439303250E+03 -0.13213610922E+03  0.27972393745E+03  0.00000000000E+00 0.  1.
         -1    1    6    6    0  502  0.96164227923E+02 -0.37057435102E+03  0.32366765187E+03  0.50133188332E+03  0.00000000000E+00 0.  1.
<mgrwt>
<rscale>  0 0.23518205E+04</rscale>
<asrwt>0</asrwt>
<pdfrwt beam="1">  1        1 0.15930141E+00 0.23518205E+04</pdfrwt>
<pdfrwt beam="2">  1       -1 0.20544805E+00 0.23518205E+04</pdfrwt>
<totfact> 0.17643445E+00</totfact>
</mgrwt>
</event>
<event>
12    1  0.2019083E-007  0.4065011E+04  0.7818608E-02  0.7991559E-01
         -1   -1    0    0    0  501 -0.00000000000E+00  0.00000000000E+00  0.13229133058E+04  0.13229133058E+04  0.00000000000E+00 0.  1.
          1   -1    0    0  501    0  0.00000000000E+00 -0.00000000000E+00 -0.31227129339E+04  0.31227129339E+04  0.00000000000E+00 0. -1.
         23    2    1    2    0    0 -0.18747185296E+03  0.16749273215E+04  0.17651390380E+03  0.16970650112E+04  0.91352427748E+02 0.  0.
        254    2    1    2    0    0  0.18747185296E+03 -0.16749273215E+04 -0.19763135319E+04  0.27485612285E+04  0.89902526247E+03 0.  0.
        -24    2    4    4    0    0 -0.84413622894E+02 -0.15248529532E+04 -0.18585812988E+04  0.24068378214E+04  0.79004215285E+02 0.  0.
         24    2    4    4    0    0  0.27188547585E+03 -0.15007436836E+03 -0.11773223314E+03  0.34172340710E+03  0.80436187272E+02 0.  0.
         13    1    3    3    0    0 -0.26685890056E+02  0.23815063352E+03 -0.68442950726E+01  0.23973882737E+03  0.00000000000E+00 0.  1.
        -13    1    3    3    0    0 -0.16078596290E+03  0.14367766880E+04  0.18335819887E+03  0.14573261838E+04  0.00000000000E+00 0. -1.
          2    1    6    6  502    0  0.76418699583E+02 -0.22477381490E+02  0.13685841909E+01  0.79667580278E+02  0.00000000000E+00 0. -1.
          3    1    5    5  503    0 -0.69481416386E+02 -0.14639400930E+04 -0.17979407797E+04  0.23195989546E+04  0.00000000000E+00 0. -1.
         -4    1    5    5    0  503 -0.14932206508E+02 -0.60912860158E+02 -0.60640519117E+02  0.87238866812E+02  0.00000000000E+00 0.  1.
         -1    1    6    6    0  502  0.19546677627E+03 -0.12759698687E+03 -0.11910081733E+03  0.26205582683E+03  0.00000000000E+00 0.  1.
<mgrwt>
<rscale>  0 0.40650109E+04</rscale>
<asrwt>0</asrwt>
<pdfrwt beam="1">  1        1 0.48041737E+00 0.40650109E+04</pdfrwt>
<pdfrwt beam="2">  1       -1 0.20352512E+00 0.40650109E+04</pdfrwt>
<totfact> 0.53754013E-02</totfact>
</mgrwt>
</event>
<event>
12    1  0.2019083E-007  0.2876645E+04  0.7818608E-02  0.8279860E-01
         -2   -1    0    0    0  501 -0.00000000000E+00  0.00000000000E+00  0.27098314350E+04  0.27098314350E+04  0.00000000000E+00 0.  1.
          2   -1    0    0  501    0  0.00000000000E+00 -0.00000000000E+00 -0.76343183284E+03  0.76343183284E+03  0.00000000000E+00 0. -1.
         23    2    1    2    0    0  0.12205492611E+04  0.32415507810E+03  0.53084818236E+03  0.13729522099E+04  0.91547607233E+02 0.  0.
        254    2    1    2    0    0 -0.12205492611E+04 -0.32415507810E+03  0.14155514198E+04  0.21003110580E+04  0.90150080679E+03 0.  0.
        -24    2    4    4    0    0 -0.22535153390E+03  0.28931885790E+03  0.28522292184E+03  0.47216351905E+03  0.84247007185E+02 0.  0.
         24    2    4    4    0    0 -0.99519772721E+03 -0.61347393600E+03  0.11303284979E+04  0.16281475389E+04  0.80331243893E+02 0.  0.
         13    1    3    3    0    0  0.41359277583E+03  0.79121536292E+02  0.14308605164E+03  0.44473904697E+03  0.00000000000E+00 0. -1.
        -13    1    3    3    0    0  0.80695648528E+03  0.24503354181E+03  0.38776213071E+03  0.92821316289E+03  0.00000000000E+00 0.  1.
          4    1    6    6  502    0 -0.45159870353E+03 -0.31145517113E+03  0.56951143980E+03  0.79075216896E+03  0.00000000000E+00 0. -1.
          3    1    5    5  503    0 -0.68505859416E+02  0.33657959273E+02  0.59469383218E+02  0.96760108191E+02  0.00000000000E+00 0. -1.
         -4    1    5    5    0  503 -0.15684567448E+03  0.25566089862E+03  0.22575353862E+03  0.37540341086E+03  0.00000000000E+00 0.  1.
         -3    1    6    6    0  502 -0.54359902368E+03 -0.30201876487E+03  0.56081705815E+03  0.83739536994E+03  0.00000000000E+00 0.  1.
<mgrwt>
<rscale>  0 0.28766450E+04</rscale>
<asrwt>0</asrwt>
<pdfrwt beam="1">  1        2 0.11745105E+00 0.28766450E+04</pdfrwt>
<pdfrwt beam="2">  1       -2 0.41689714E+00 0.28766450E+04</pdfrwt>
<totfact> 0.18197587E-01</totfact>
</mgrwt>
</event>
<event>
12    1  0.2019083E-007  0.2326914E+04  0.7818608E-02  0.8467384E-01
          2   -1    0    0  501    0  0.00000000000E+00  0.00000000000E+00  0.11242592415E+04  0.11242592415E+04  0.00000000000E+00 0. -1.
         -2   -1    0    0    0  501 -0.00000000000E+00 -0.00000000000E+00 -0.12040215641E+04  0.12040215641E+04  0.00000000000E+00 0.  1.
         23    2    1    2    0    0  0.41050984321E+03 -0.32744881658E+03 -0.86990212022E+03  0.10202485166E+04  0.91849213219E+02 0.  0.
        254    2    1    2    0    0 -0.41050984321E+03  0.32744881658E+03  0.79013979756E+03  0.13080322890E+04  0.90049237115E+03 0.  0.
        -24    2    4    4    0    0  0.11674037552E+02  0.45187849413E+03  0.75886694739E+02  0.46530485079E+03  0.80120890664E+02 0.  0.
         24    2    4    4    0    0 -0.42218388076E+03 -0.12442967755E+03  0.71425310282E+03  0.84272743820E+03  0.79435926236E+02 0.  0.
         13    1    3    3    0    0  0.11847142877E+03 -0.69501038172E+02 -0.16375008585E+03  0.21372871674E+03  0.00000000000E+00 0. -1.
        -13    1    3    3    0    0  0.29203841443E+03 -0.25794777841E+03 -0.70615203438E+03  0.80651979985E+03  0.00000000000E+00 0.  1.
          2    1    6    6  502    0 -0.40789144794E+03 -0.10315469870E+03  0.65956465676E+03  0.78233104350E+03  0.00000000000E+00 0. -1.
          3    1    5    5  503    0  0.35568631532E+02  0.39341031715E+03  0.55269509347E+02  0.39886278825E+03  0.00000000000E+00 0. -1.
         -4    1    5    5    0  503 -0.23894593980E+02  0.58468176982E+02  0.20617185392E+02  0.66442062540E+02  0.00000000000E+00 0.  1.
         -1    1    6    6    0  502 -0.14292432817E+02 -0.21274978848E+02  0.54688446055E+02  0.60396394700E+02  0.00000000000E+00 0.  1.
<mgrwt>
<rscale>  0 0.23269142E+04</rscale>
<asrwt>0</asrwt>
<pdfrwt beam="1">  1        2 0.17296296E+00 0.23269142E+04</pdfrwt>
<pdfrwt beam="2">  1       -2 0.18523409E+00 0.23269142E+04</pdfrwt>
<totfact> 0.31786546E+00</totfact>
</mgrwt>
</event>
<event>
12    1  0.2019083E-007  0.1351691E+04  0.7818608E-02  0.8989549E-01
         -2   -1    0    0    0  501 -0.00000000000E+00  0.00000000000E+00  0.44303131135E+03  0.44303131135E+03  0.00000000000E+00 0.  1.
          2   -1    0    0  501    0  0.00000000000E+00 -0.00000000000E+00 -0.10310042720E+04  0.10310042720E+04  0.00000000000E+00 0. -1.
         23    2    1    2    0    0  0.28232546201E+03  0.22630627215E+03 -0.86939843355E+02  0.38304028274E+03  0.90769634393E+02 0.  0.
        254    2    1    2    0    0 -0.28232546201E+03 -0.22630627215E+03 -0.50103311732E+03  0.10909953006E+04  0.89906304898E+03 0.  0.
        -24    2    4    4    0    0 -0.68483375980E+02  0.34105349511E+03 -0.20677644198E+03  0.41229187038E+03  0.78870971286E+02 0.  0.
         24    2    4    4    0    0 -0.21384208603E+03 -0.56735976726E+03 -0.29425667534E+03  0.67870343025E+03  0.80161162593E+02 0.  0.
         11    1    3    3    0    0  0.24590117569E+03  0.22847931438E+03 -0.86148888179E+02  0.34654266149E+03  0.00000000000E+00 0. -1.
        -11    1    3    3    0    0  0.36424286323E+02 -0.21730422256E+01 -0.79095517555E+00  0.36497621248E+02  0.00000000000E+00 0.  1.
          4    1    6    6  502    0 -0.13444590474E+03 -0.41890440352E+03 -0.18060025616E+03  0.47557654811E+03  0.00000000000E+00 0. -1.
          3    1    5    5  503    0 -0.72293262509E+02  0.31979093071E+03 -0.21152680558E+03  0.39017450538E+03  0.00000000000E+00 0. -1.
         -4    1    5    5    0  503  0.38098865298E+01  0.21262564406E+02  0.47503636003E+01  0.22117365006E+02  0.00000000000E+00 0.  1.
         -3    1    6    6    0  502 -0.79396181287E+02 -0.14845536374E+03 -0.11365641918E+03  0.20312688214E+03  0.00000000000E+00 0.  1.
<mgrwt>
<rscale>  0 0.13516911E+04</rscale>
<asrwt>0</asrwt>
<pdfrwt beam="1">  1        2 0.15861604E+00 0.13516911E+04</pdfrwt>
<pdfrwt beam="2">  1       -2 0.68158663E-01 0.13516911E+04</pdfrwt>
<totfact> 0.46314444E+01</totfact>
</mgrwt>
</event>
<event>
12    1  0.2019083E-007  0.1762008E+04  0.7818608E-02  0.8726768E-01
          1   -1    0    0  501    0  0.00000000000E+00  0.00000000000E+00  0.31615973851E+04  0.31615973851E+04  0.00000000000E+00 0. -1.
         -1   -1    0    0    0  501 -0.00000000000E+00 -0.00000000000E+00 -0.24549875950E+03  0.24549875950E+03  0.00000000000E+00 0.  1.
         23    2    1    2    0    0 -0.41181374832E+02 -0.26193625463E+03 -0.59699159066E+02  0.28733985796E+03  0.93239998169E+02 0.  0.
        254    2    1    2    0    0  0.41181374832E+02  0.26193625463E+03  0.29757977846E+04  0.31197562866E+04  0.89844327908E+03 0.  0.
        -24    2    4    4    0    0  0.14249097238E+03  0.57336291014E+03  0.17738589066E+04  0.18713562916E+04  0.79688427832E+02 0.  0.
         24    2    4    4    0    0 -0.10130959755E+03 -0.31142665552E+03  0.12019388780E+04  0.12483999950E+04  0.81211358694E+02 0.  0.
         11    1    3    3    0    0 -0.26664211243E+02 -0.11392907422E+03  0.19856290585E+02  0.11868060663E+03  0.00000000000E+00 0. -1.
        -11    1    3    3    0    0 -0.14517163589E+02 -0.14800718040E+03 -0.79555449651E+02  0.16865925133E+03  0.00000000000E+00 0.  1.
          2    1    6    6  502    0 -0.74937365159E+02 -0.20516616484E+03  0.92875617919E+03  0.95409475645E+03  0.00000000000E+00 0. -1.
          1    1    5    5  503    0  0.48261119301E+02  0.19186727166E+03  0.48107682626E+03  0.52017025898E+03  0.00000000000E+00 0. -1.
         -4    1    5    5    0  503  0.94229853077E+02  0.38149563848E+03  0.12927820804E+04  0.13511860326E+04  0.00000000000E+00 0.  1.
         -1    1    6    6    0  502 -0.26372232386E+02 -0.10626049068E+03  0.27318269882E+03  0.29430523857E+03  0.00000000000E+00 0.  1.
<mgrwt>
<rscale>  0 0.17620082E+04</rscale>
<asrwt>0</asrwt>
<pdfrwt beam="1">  1        1 0.48639957E+00 0.17620082E+04</pdfrwt>
<pdfrwt beam="2">  1       -1 0.37769042E-01 0.17620082E+04</pdfrwt>
<totfact> 0.29207900E+00</totfact>
</mgrwt>
</event>
<event>
12    1  0.2019083E-007  0.2769865E+04  0.7818608E-02  0.8312686E-01
          1   -1    0    0  501    0  0.00000000000E+00  0.00000000000E+00  0.15821436378E+04  0.15821436378E+04  0.00000000000E+00 0. -1.
         -1   -1    0    0    0  501 -0.00000000000E+00 -0.00000000000E+00 -0.12123032024E+04  0.12123032024E+04  0.00000000000E+00 0.  1.
         23    2    1    2    0    0  0.39810042074E+03 -0.23386278429E+03  0.13230250627E+04  0.14043151132E+04  0.92357315759E+02 0.  0.
        254    2    1    2    0    0 -0.39810042074E+03  0.23386278429E+03 -0.95318462733E+03  0.13901317269E+04  0.90040520740E+03 0.  0.
        -24    2    4    4    0    0 -0.96780082736E+02  0.45427799754E+03 -0.13973515931E+03  0.49151095494E+03  0.79512392846E+02 0.  0.
         24    2    4    4    0    0 -0.30132033800E+03 -0.22041521325E+03 -0.81344946803E+03  0.89862077197E+03  0.80264827043E+02 0.  0.
         13    1    3    3    0    0  0.26533134802E+03 -0.18133543999E+03  0.10180398694E+04  0.10675619147E+04  0.00000000000E+00 0.  1.
        -13    1    3    3    0    0  0.13276907272E+03 -0.52527344299E+02  0.30498519335E+03  0.33675319855E+03  0.00000000000E+00 0. -1.
          4    1    6    6  502    0 -0.53810528733E+02 -0.48169014734E+02 -0.94059598554E+02  0.11858766826E+03  0.00000000000E+00 0. -1.
          1    1    5    5  503    0 -0.91897231150E+02  0.33799091540E+03 -0.13387500668E+03  0.37497396896E+03  0.00000000000E+00 0. -1.
         -2    1    5    5    0  503 -0.48828515852E+01  0.11628708214E+03 -0.58601526335E+01  0.11653698598E+03  0.00000000000E+00 0.  1.
         -3    1    6    6    0  502 -0.24750980927E+03 -0.17224619852E+03 -0.71938986947E+03  0.78003310371E+03  0.00000000000E+00 0.  1.
<mgrwt>
<rscale>  0 0.27698648E+04</rscale>
<asrwt>0</asrwt>
<pdfrwt beam="1">  1        1 0.24340671E+00 0.27698648E+04</pdfrwt>
<pdfrwt beam="2">  1       -1 0.18650818E+00 0.27698648E+04</pdfrwt>
<totfact> 0.93176974E-01</totfact>
</mgrwt>
</event>
<event>
12    1  0.2019083E-007  0.1543596E+04  0.7818608E-02  0.8855969E-01
          1   -1    0    0  501    0  0.00000000000E+00  0.00000000000E+00  0.93225206376E+03  0.93225206376E+03  0.00000000000E+00 0. -1.
         -1   -1    0    0    0  501 -0.00000000000E+00 -0.00000000000E+00 -0.63895999123E+03  0.63895999123E+03  0.00000000000E+00 0.  1.
         23    2    1    2    0    0 -0.14648186943E+03 -0.43881639020E+03  0.29834229196E+03  0.55763238087E+03  0.89044857497E+02 0.  0.
        254    2    1    2    0    0  0.14648186943E+03  0.43881639020E+03 -0.50502194351E+01  0.10135796741E+04  0.90183229521E+03 0.  0.
        -24    2    4    4    0    0  0.71013106274E+01 -0.18636020077E+03 -0.25129931348E+03  0.32279600570E+03  0.79154047880E+02 0.  0.
         24    2    4    4    0    0  0.13938055880E+03  0.62517659097E+03  0.24624909405E+03  0.69078366842E+03  0.79188068323E+02 0.  0.
         13    1    3    3    0    0 -0.78903514145E+02 -0.30120681437E+03  0.24179492824E+03  0.39422848310E+03  0.00000000000E+00 0. -1.
        -13    1    3    3    0    0 -0.67578355285E+02 -0.13760957583E+03  0.56547363726E+02  0.16340389778E+03  0.00000000000E+00 0.  1.
          2    1    6    6  502    0  0.14307365470E+03  0.56862702523E+03  0.20686287838E+03  0.62177087013E+03  0.00000000000E+00 0. -1.
          1    1    5    5  503    0 -0.30277112798E+02 -0.39431059046E+02 -0.78475640783E+02  0.92897460531E+02  0.00000000000E+00 0. -1.
         -2    1    5    5    0  503  0.37378423426E+02 -0.14692914172E+03 -0.17282367270E+03  0.22989854517E+03  0.00000000000E+00 0.  1.
         -1    1    6    6    0  502 -0.36930959026E+01  0.56549565736E+02  0.39386215665E+02  0.69012798281E+02  0.00000000000E+00 0.  1.
<mgrwt>
<rscale>  0 0.15435955E+04</rscale>
<asrwt>0</asrwt>
<pdfrwt beam="1">  1        1 0.14342339E+00 0.15435955E+04</pdfrwt>
<pdfrwt beam="2">  1       -1 0.98301538E-01 0.15435955E+04</pdfrwt>
<totfact> 0.16369196E+01</totfact>
</mgrwt>
</event>
<event>
12    1  0.2019083E-007  0.1909401E+04  0.7818608E-02  0.8650191E-01
          2   -1    0    0  501    0  0.00000000000E+00  0.00000000000E+00  0.12771952497E+04  0.12771952497E+04  0.00000000000E+00 0. -1.
         -2   -1    0    0    0  501 -0.00000000000E+00 -0.00000000000E+00 -0.71363610685E+03  0.71363610685E+03  0.00000000000E+00 0.  1.
         23    2    1    2    0    0  0.24815622088E+03 -0.39717804446E+03 -0.36771914041E+03  0.60242260996E+03  0.91453407849E+02 0.  0.
        254    2    1    2    0    0 -0.24815622088E+03  0.39717804446E+03  0.93127828323E+03  0.13884087466E+04  0.91709743088E+03 0.  0.
        -24    2    4    4    0    0 -0.51441455093E+03  0.42619621541E+03  0.87416035115E+03  0.11030137564E+04  0.78851018716E+02 0.  0.
         24    2    4    4    0    0  0.26625833006E+03 -0.29018170951E+02  0.57117932082E+02  0.28539499010E+03  0.80326145440E+02 0.  0.
         13    1    3    3    0    0  0.10692242358E+03 -0.94286051001E+02 -0.12161284003E+03  0.18738182126E+03  0.00000000000E+00 0. -1.
        -13    1    3    3    0    0  0.14123379730E+03 -0.30289199346E+03 -0.24610630038E+03  0.41504078870E+03  0.00000000000E+00 0.  1.
          2    1    6    6  502    0  0.11461178026E+02 -0.18704303412E+02  0.15868898838E+02  0.27074554811E+02  0.00000000000E+00 0. -1.
          1    1    5    5  503    0 -0.15925798557E+02  0.15762129450E+02  0.10740618694E+02  0.24848273066E+02  0.00000000000E+00 0. -1.
         -2    1    5    5    0  503 -0.49848875238E+03  0.41043408597E+03  0.86341973245E+03  0.10781654834E+04  0.00000000000E+00 0.  1.
         -1    1    6    6    0  502  0.25479715203E+03 -0.10313867540E+02  0.41249033244E+02  0.25832043529E+03  0.00000000000E+00 0.  1.
<mgrwt>
<rscale>  0 0.19094006E+04</rscale>
<asrwt>0</asrwt>
<pdfrwt beam="1">  1        2 0.19649158E+00 0.19094006E+04</pdfrwt>
<pdfrwt beam="2">  1       -2 0.10979017E+00 0.19094006E+04</pdfrwt>
<totfact> 0.10532578E+01</totfact>
</mgrwt>
</event>
<event>
12    1  0.2019083E-007  0.1477311E+04  0.7818608E-02  0.8899682E-01
          1   -1    0    0  501    0  0.00000000000E+00  0.00000000000E+00  0.61499193725E+03  0.61499193725E+03  0.00000000000E+00 0. -1.
         -1   -1    0    0    0  501 -0.00000000000E+00 -0.00000000000E+00 -0.88718573976E+03  0.88718573976E+03  0.00000000000E+00 0.  1.
         23    2    1    2    0    0 -0.73046714219E+02 -0.21280733416E+03  0.32144739879E+03  0.40249327182E+03  0.89719673071E+02 0.  0.
        254    2    1    2    0    0  0.73046714219E+02  0.21280733416E+03 -0.59364120129E+03  0.10996844052E+04  0.89792713024E+03 0.  0.
        -24    2    4    4    0    0  0.15867743569E+03  0.68662991816E+02 -0.79980336281E+03  0.82218301555E+03  0.80039720511E+02 0.  0.
         24    2    4    4    0    0 -0.85630721474E+02  0.14414434235E+03  0.20616216152E+03  0.27750138964E+03  0.79962319383E+02 0.  0.
         11    1    3    3    0    0 -0.62593398554E+02 -0.19986614591E+03  0.32386275542E+03  0.38568315256E+03  0.00000000000E+00 0. -1.
        -11    1    3    3    0    0 -0.10453315666E+02 -0.12941188247E+02 -0.24153566251E+01  0.16810119253E+02  0.00000000000E+00 0.  1.
          4    1    6    6  502    0  0.93749831662E+00  0.72675315034E+02  0.68540666330E+02  0.99901968246E+02  0.00000000000E+00 0. -1.
          3    1    5    5  503    0  0.69726689603E+01  0.19665694408E+02 -0.21595878847E+03  0.21696441175E+03  0.00000000000E+00 0. -1.
         -4    1    5    5    0  503  0.15170476673E+03  0.48997297408E+02 -0.58384457434E+03  0.60521860381E+03  0.00000000000E+00 0.  1.
         -3    1    6    6    0  502 -0.86568219791E+02  0.71469027312E+02  0.13762149519E+03  0.17759942140E+03  0.00000000000E+00 0.  1.
<mgrwt>
<rscale>  0 0.14773112E+04</rscale>
<asrwt>0</asrwt>
<pdfrwt beam="1">  1        1 0.94614145E-01 0.14773112E+04</pdfrwt>
<pdfrwt beam="2">  1       -1 0.13649011E+00 0.14773112E+04</pdfrwt>
<totfact> 0.14342223E+01</totfact>
</mgrwt>
</event>
<event>
12    1  0.2019083E-007  0.1743430E+04  0.7818608E-02  0.8736975E-01
          2   -1    0    0  501    0  0.00000000000E+00  0.00000000000E+00  0.37846338567E+03  0.37846338567E+03  0.00000000000E+00 0. -1.
         -2   -1    0    0    0  501 -0.00000000000E+00 -0.00000000000E+00 -0.20078227008E+04  0.20078227008E+04  0.00000000000E+00 0.  1.
         23    2    1    2    0    0  0.20775325772E+03 -0.43174819698E+03 -0.28416168956E+02  0.48625560566E+03  0.77904516526E+02 0.  0.
        254    2    1    2    0    0 -0.20775325772E+03  0.43174819698E+03 -0.16009431462E+04  0.19000304808E+04  0.90417307470E+03 0.  0.
        -24    2    4    4    0    0 -0.31839372940E+03  0.50770551714E+03 -0.16316255469E+04  0.17399976229E+04  0.79059112183E+02 0.  0.
         24    2    4    4    0    0  0.11064047169E+03 -0.75957320168E+02  0.30682400671E+02  0.16003285799E+03  0.81598268746E+02 0.  0.
         13    1    3    3    0    0  0.18031175577E+03 -0.35324244563E+03  0.49916505318E+01  0.39663266537E+03  0.00000000000E+00 0. -1.
        -13    1    3    3    0    0  0.27441501945E+02 -0.78505751350E+02 -0.33407819488E+02  0.89622940294E+02  0.00000000000E+00 0.  1.
          4    1    6    6  502    0 -0.10929036510E+02 -0.16384985155E+02 -0.43982241470E+01  0.20180583570E+02  0.00000000000E+00 0. -1.
          1    1    5    5  503    0 -0.90506322884E+02  0.20809931059E+03 -0.56313223774E+03  0.60713642185E+03  0.00000000000E+00 0. -1.
         -2    1    5    5    0  503 -0.22788740652E+03  0.29960620655E+03 -0.10684933091E+04  0.11328612010E+04  0.00000000000E+00 0.  1.
         -3    1    6    6    0  502  0.12156950820E+03 -0.59572335012E+02  0.35080624818E+02  0.13985227442E+03  0.00000000000E+00 0.  1.
<mgrwt>
<rscale>  0 0.17434304E+04</rscale>
<asrwt>0</asrwt>
<pdfrwt beam="1">  1        2 0.58225138E-01 0.17434304E+04</pdfrwt>
<pdfrwt beam="2">  1       -2 0.30889579E+00 0.17434304E+04</pdfrwt>
<totfact> 0.22552563E+00</totfact>
</mgrwt>
</event>
<event>
12    1  0.2019083E-007  0.1927330E+04  0.7818608E-02  0.8641371E-01
          2   -1    0    0  501    0  0.00000000000E+00  0.00000000000E+00  0.27399914262E+04  0.27399914262E+04  0.00000000000E+00 0. -1.
         -2   -1    0    0    0  501 -0.00000000000E+00 -0.00000000000E+00 -0.33892460413E+03  0.33892460413E+03  0.00000000000E+00 0.  1.
         23    2    1    2    0    0  0.44077796776E+03  0.59501088137E+03  0.11328478156E+04  0.13564640466E+04  0.91254427150E+02 0.  0.
        254    2    1    2    0    0 -0.44077796776E+03 -0.59501088137E+03  0.12682190064E+04  0.17224519837E+04  0.90007678684E+03 0.  0.
        -24    2    4    4    0    0 -0.38988128727E+03  0.12958463378E+03  0.32908978643E+03  0.53213787105E+03  0.77916819751E+02 0.  0.
         24    2    4    4    0    0 -0.50896680492E+02 -0.72459551514E+03  0.93912921995E+03  0.11903141127E+04  0.85175479816E+02 0.  0.
         11    1    3    3    0    0  0.39974219138E+02  0.24086356006E+02  0.96854330775E+02  0.10751210225E+03  0.00000000000E+00 0. -1.
        -11    1    3    3    0    0  0.40080374862E+03  0.57092452536E+03  0.10359934849E+04  0.12489519443E+04  0.00000000000E+00 0.  1.
          2    1    6    6  502    0 -0.35641302927E+02 -0.47234208811E+03  0.67642836850E+03  0.82579215810E+03  0.00000000000E+00 0. -1.
          1    1    5    5  503    0 -0.82360929737E+02  0.78271563509E+01  0.10006595981E+03  0.12983752707E+03  0.00000000000E+00 0. -1.
         -2    1    5    5    0  503 -0.30752035753E+03  0.12175747743E+03  0.22902382663E+03  0.40230034398E+03  0.00000000000E+00 0.  1.
         -1    1    6    6    0  502 -0.15255377564E+02 -0.25225342703E+03  0.26270085145E+03  0.36452195455E+03  0.00000000000E+00 0.  1.
<mgrwt>
<rscale>  0 0.19273303E+04</rscale>
<asrwt>0</asrwt>
<pdfrwt beam="1">  1        2 0.42153713E+00 0.19273303E+04</pdfrwt>
<pdfrwt beam="2">  1       -2 0.52142249E-01 0.19273303E+04</pdfrwt>
<totfact> 0.81680143E+00</totfact>
</mgrwt>
</event>
<event>
12    1  0.2019083E-007  0.3054607E+04  0.7818608E-02  0.8228307E-01
         -1   -1    0    0    0  501 -0.00000000000E+00  0.00000000000E+00  0.10908092623E+04  0.10908092623E+04  0.00000000000E+00 0.  1.
          1   -1    0    0  501    0  0.00000000000E+00 -0.00000000000E+00 -0.21384640650E+04  0.21384640650E+04  0.00000000000E+00 0. -1.
         23    2    1    2    0    0  0.12040330356E+04  0.24327924740E+03 -0.11713142902E+04  0.16997221086E+04  0.90541354309E+02 0.  0.
        254    2    1    2    0    0 -0.12040330356E+04 -0.24327924740E+03  0.12365948761E+03  0.15295512187E+04  0.90297005420E+03 0.  0.
        -24    2    4    4    0    0  0.93670052113E+02  0.21981140024E+02 -0.12873292681E+03  0.17854272581E+03  0.77769462619E+02 0.  0.
         24    2    4    4    0    0 -0.12977030877E+04 -0.26526038742E+03  0.25239241442E+03  0.13510084929E+04  0.84413506367E+02 0.  0.
         11    1    3    3    0    0  0.10286906597E+04  0.17730545088E+03 -0.10100686280E+04  0.14525427117E+04  0.00000000000E+00 0.  1.
        -11    1    3    3    0    0  0.17534237595E+03  0.65973796514E+02 -0.16124566228E+03  0.24717939686E+03  0.00000000000E+00 0. -1.
          2    1    6    6  502    0 -0.10790983990E+04 -0.20105659508E+03  0.23473560891E+03  0.11224873787E+04  0.00000000000E+00 0. -1.
          3    1    5    5  503    0  0.90800777572E+02  0.43370161360E+02 -0.94304377143E+02  0.13790963582E+03  0.00000000000E+00 0. -1.
         -4    1    5    5    0  503  0.28692745408E+01 -0.21389021336E+02 -0.34428549665E+02  0.40633089990E+02  0.00000000000E+00 0.  1.
         -1    1    6    6    0  502 -0.21860468870E+03 -0.64203792340E+02  0.17656805506E+02  0.22852111424E+03  0.00000000000E+00 0.  1.
<mgrwt>
<rscale>  0 0.30546073E+04</rscale>
<asrwt>0</asrwt>
<pdfrwt beam="1">  1        1 0.32899447E+00 0.30546073E+04</pdfrwt>
<pdfrwt beam="2">  1       -1 0.16781681E+00 0.30546073E+04</pdfrwt>
<totfact> 0.51899902E-01</totfact>
</mgrwt>
</event>
<event>
12    1  0.2019083E-007  0.1882774E+04  0.7818608E-02  0.8663479E-01
          2   -1    0    0  501    0  0.00000000000E+00  0.00000000000E+00  0.25307164407E+04  0.25307164407E+04  0.00000000000E+00 0.  1.
         -2   -1    0    0    0  501 -0.00000000000E+00 -0.00000000000E+00 -0.35018129290E+03  0.35018129290E+03  0.00000000000E+00 0. -1.
         23    2    1    2    0    0  0.31711548660E+03 -0.35679918090E+03  0.12899491291E+02  0.48607582386E+03  0.90749227735E+02 0.  0.
        254    2    1    2    0    0 -0.31711548660E+03  0.35679918090E+03  0.21676356565E+04  0.23948219098E+04  0.89925510990E+03 0.  0.
        -24    2    4    4    0    0  0.16074613378E+03  0.46836532911E+03  0.85723613730E+03  0.99334328001E+03  0.81680326930E+02 0.  0.
         24    2    4    4    0    0 -0.47786162038E+03 -0.11156614821E+03  0.13103995192E+04  0.14014786298E+04  0.78719222496E+02 0.  0.
         13    1    3    3    0    0  0.13511018164E+03 -0.14464527143E+03  0.49862237397E+02  0.20411579666E+03  0.00000000000E+00 0.  1.
        -13    1    3    3    0    0  0.18200530496E+03 -0.21215390947E+03 -0.36962746106E+02  0.28196002720E+03  0.00000000000E+00 0. -1.
          2    1    6    6  502    0 -0.36498523306E+03 -0.94016954790E+02  0.10884437437E+04  0.11518520701E+04  0.00000000000E+00 0. -1.
          3    1    5    5  503    0  0.31639260453E+02  0.21071934450E+03  0.38872311028E+03  0.44329374168E+03  0.00000000000E+00 0. -1.
         -4    1    5    5    0  503  0.12910687333E+03  0.25764598462E+03  0.46851302703E+03  0.55004953834E+03  0.00000000000E+00 0.  1.
         -1    1    6    6    0  502 -0.11287638732E+03 -0.17549193422E+02  0.22195577556E+03  0.24962655970E+03  0.00000000000E+00 0.  1.
<mgrwt>
<rscale>  0 0.18827741E+04</rscale>
<asrwt>0</asrwt>
<pdfrwt beam="1">  1        2 0.38934098E+00 0.18827741E+04</pdfrwt>
<pdfrwt beam="2">  1       -2 0.53874047E-01 0.18827741E+04</pdfrwt>
<totfact> 0.10179029E+01</totfact>
</mgrwt>
</event>
<event>
12    1  0.2019083E-007  0.1673277E+04  0.7818608E-02  0.8776754E-01
          2   -1    0    0  501    0  0.00000000000E+00  0.00000000000E+00  0.12184092651E+04  0.12184092651E+04  0.00000000000E+00 0. -1.
         -2   -1    0    0    0  501 -0.00000000000E+00 -0.00000000000E+00 -0.57448983174E+03  0.57448983174E+03  0.00000000000E+00 0.  1.
         23    2    1    2    0    0 -0.22549169444E+03 -0.14825966959E+03  0.79423732059E+03  0.84375814040E+03  0.91035400726E+02 0.  0.
        254    2    1    2    0    0  0.22549169444E+03  0.14825966959E+03 -0.15031788727E+03  0.94914095641E+03  0.89746624116E+03 0.  0.
        -24    2    4    4    0    0  0.53535367079E+03  0.91294465855E+02 -0.25871729703E+03  0.60669209341E+03  0.78755470338E+02 0.  0.
         24    2    4    4    0    0 -0.30986197635E+03  0.56965203737E+02  0.10839940976E+03  0.34244886300E+03  0.79128458266E+02 0.  0.
         11    1    3    3    0    0 -0.45028697758E+02  0.14780023690E+01  0.19809867473E+03  0.20315721263E+03  0.00000000000E+00 0. -1.
        -11    1    3    3    0    0 -0.18046299668E+03 -0.14973767196E+03  0.59613864586E+03  0.64060092777E+03  0.00000000000E+00 0.  1.
          2    1    6    6  502    0 -0.15522854041E+03 -0.35605834058E+01  0.27318025264E+02  0.15765421662E+03  0.00000000000E+00 0. -1.
          3    1    5    5  503    0  0.21955980791E+03  0.73163114598E+02 -0.91122187861E+02  0.24872194054E+03  0.00000000000E+00 0. -1.
         -4    1    5    5    0  503  0.31579386288E+03  0.18131351258E+02 -0.16759510917E+03  0.35797015287E+03  0.00000000000E+00 0.  1.
         -1    1    6    6    0  502 -0.15463343594E+03  0.60525787143E+02  0.81081384498E+02  0.18479464638E+03  0.00000000000E+00 0.  1.
<mgrwt>
<rscale>  0 0.16732767E+04</rscale>
<asrwt>0</asrwt>
<pdfrwt beam="1">  1        2 0.18744758E+00 0.16732767E+04</pdfrwt>
<pdfrwt beam="2">  1       -2 0.88383051E-01 0.16732767E+04</pdfrwt>
<totfact> 0.19406721E+01</totfact>
</mgrwt>
</event>
<event>
12    1  0.2019083E-007  0.1322415E+04  0.7818608E-02  0.9011976E-01
         -2   -1    0    0    0  501 -0.00000000000E+00  0.00000000000E+00  0.27448332674E+03  0.27448332674E+03  0.00000000000E+00 0.  1.
          2   -1    0    0  501    0  0.00000000000E+00 -0.00000000000E+00 -0.15927941238E+04  0.15927941238E+04  0.00000000000E+00 0. -1.
         23    2    1    2    0    0  0.18593632000E+03  0.28683832470E+03 -0.43286148230E+03  0.55901922588E+03  0.91021384431E+02 0.  0.
        254    2    1    2    0    0 -0.18593632000E+03 -0.28683832470E+03 -0.88544931473E+03  0.13082582246E+04  0.90037245280E+03 0.  0.
        -24    2    4    4    0    0  0.33433839855E+03 -0.25017200487E+03 -0.30424306294E+03  0.52327799644E+03  0.82992912050E+02 0.  0.
         24    2    4    4    0    0 -0.52027471855E+03 -0.36666319828E+02 -0.58120625180E+03  0.78498022819E+03  0.79768726667E+02 0.  0.
         11    1    3    3    0    0  0.99088978972E+02  0.76205734935E+02 -0.13457091601E+03  0.18367163969E+03  0.00000000000E+00 0.  1.
        -11    1    3    3    0    0  0.86847341029E+02  0.21063258977E+03 -0.29829056630E+03  0.37534758619E+03  0.00000000000E+00 0. -1.
          2    1    6    6  502    0 -0.34893255389E+03 -0.61099008331E+02 -0.40301991112E+03  0.53657437951E+03  0.00000000000E+00 0. -1.
          3    1    5    5  503    0  0.30352954277E+03 -0.23572675611E+03 -0.24749997684E+03  0.45711434611E+03  0.00000000000E+00 0. -1.
         -2    1    5    5    0  503  0.30808855776E+02 -0.14445248768E+02 -0.56743086098E+02  0.66163650339E+02  0.00000000000E+00 0.  1.
         -1    1    6    6    0  502 -0.17134216466E+03  0.24432688502E+02 -0.17818634067E+03  0.24840584869E+03  0.00000000000E+00 0.  1.
<mgrwt>
<rscale>  0 0.13224151E+04</rscale>
<asrwt>0</asrwt>
<pdfrwt beam="1">  1        2 0.24504524E+00 0.13224151E+04</pdfrwt>
<pdfrwt beam="2">  1       -2 0.42228205E-01 0.13224151E+04</pdfrwt>
<totfact> 0.58534306E+01</totfact>
</mgrwt>
</event>
<event>
12    1  0.2019083E-007  0.4200133E+04  0.7818608E-02  0.7965347E-01
         -1   -1    0    0    0  501 -0.00000000000E+00  0.00000000000E+00  0.24913103031E+04  0.24913103031E+04  0.00000000000E+00 0.  1.
          1   -1    0    0  501    0  0.00000000000E+00 -0.00000000000E+00 -0.17702647666E+04  0.17702647666E+04  0.00000000000E+00 0. -1.
         23    2    1    2    0    0  0.83043829273E+03  0.15884606232E+04  0.12479169278E+04  0.21861371522E+04  0.95205462796E+02 0.  0.
        254    2    1    2    0    0 -0.83043829273E+03 -0.15884606232E+04 -0.52687139134E+03  0.20754379175E+04  0.90388836513E+03 0.  0.
        -24    2    4    4    0    0 -0.90836419090E+03 -0.80589955456E+03 -0.32087904467E+03  0.12585725918E+04  0.80262146165E+02 0.  0.
         24    2    4    4    0    0  0.77925898170E+02 -0.78256106868E+03 -0.20599234667E+03  0.81686532569E+03  0.79761153477E+02 0.  0.
         13    1    3    3    0    0  0.67449545433E+03  0.13521291511E+04  0.10268692884E+04  0.18269258044E+04  0.00000000000E+00 0. -1.
        -13    1    3    3    0    0  0.15594283840E+03  0.23633147213E+03  0.22104763937E+03  0.35921134787E+03  0.00000000000E+00 0.  1.
          2    1    6    6  502    0  0.53702452405E+02 -0.68242069643E+03 -0.20219040021E+03  0.71376671136E+03  0.00000000000E+00 0. -1.
          3    1    5    5  503    0 -0.73988152677E+03 -0.62242242756E+03 -0.23425376715E+03  0.99484128353E+03  0.00000000000E+00 0. -1.
         -4    1    5    5    0  503 -0.16848266413E+03 -0.18347712700E+03 -0.86625277516E+02  0.26373130825E+03  0.00000000000E+00 0.  1.
         -1    1    6    6    0  502  0.24223445765E+02 -0.10014037226E+03 -0.38019464624E+01  0.10309861433E+03  0.00000000000E+00 0.  1.
<mgrwt>
<rscale>  0 0.42001328E+04</rscale>
<asrwt>0</asrwt>
<pdfrwt beam="1">  1        1 0.27234843E+00 0.42001328E+04</pdfrwt>
<pdfrwt beam="2">  1       -1 0.38327851E+00 0.42001328E+04</pdfrwt>
<totfact> 0.30539555E-02</totfact>
</mgrwt>
</event>
<event>
12    1  0.2019083E-007  0.3021305E+04  0.7818608E-02  0.8237673E-01
         -2   -1    0    0    0  501 -0.00000000000E+00  0.00000000000E+00  0.13403855453E+04  0.13403855453E+04  0.00000000000E+00 0. -1.
          2   -1    0    0  501    0  0.00000000000E+00 -0.00000000000E+00 -0.17025481494E+04  0.17025481494E+04  0.00000000000E+00 0.  1.
         23    2    1    2    0    0  0.92974001550E+03  0.38589143046E+03  0.77784065525E+03  0.12755557185E+04  0.93153709640E+02 0.  0.
        254    2    1    2    0    0 -0.92974001550E+03 -0.38589143046E+03 -0.11400032594E+04  0.17673779761E+04  0.90038257784E+03 0.  0.
        -24    2    4    4    0    0 -0.42028972251E+03  0.86578073322E+02 -0.94687813564E+03  0.10425856986E+04  0.79167679415E+02 0.  0.
         24    2    4    4    0    0 -0.50945029299E+03 -0.47246950378E+03 -0.19312512372E+03  0.72479227753E+03  0.72522404273E+02 0.  0.
         13    1    3    3    0    0  0.49813026088E+03  0.17111467024E+03  0.36454298730E+03  0.64055099466E+03  0.00000000000E+00 0.  1.
        -13    1    3    3    0    0  0.43160975463E+03  0.21477676022E+03  0.41329766795E+03  0.63500472388E+03  0.00000000000E+00 0. -1.
          4    1    6    6  502    0 -0.30308575409E+03 -0.23687358747E+03 -0.90021936928E+02  0.39506204563E+03  0.00000000000E+00 0. -1.
          1    1    5    5  503    0 -0.19889641434E+03  0.74387705302E+02 -0.51647583495E+03  0.55842689981E+03  0.00000000000E+00 0. -1.
         -2    1    5    5    0  503 -0.22139330817E+03  0.12190368020E+02 -0.43040230069E+03  0.48415879875E+03  0.00000000000E+00 0.  1.
         -3    1    6    6    0  502 -0.20636453890E+03 -0.23559591631E+03 -0.10310318679E+03  0.32973023189E+03  0.00000000000E+00 0.  1.
<mgrwt>
<rscale>  0 0.30213050E+04</rscale>
<asrwt>0</asrwt>
<pdfrwt beam="1">  1        2 0.26193048E+00 0.30213050E+04</pdfrwt>
<pdfrwt beam="2">  1       -2 0.20621316E+00 0.30213050E+04</pdfrwt>
<totfact> 0.10120031E+00</totfact>
</mgrwt>
</event>
<event>
12    1  0.2019083E-007  0.2173651E+04  0.7818608E-02  0.8529476E-01
         -1   -1    0    0    0  501 -0.00000000000E+00  0.00000000000E+00  0.74301408485E+03  0.74301408485E+03  0.00000000000E+00 0.  1.
          1   -1    0    0  501    0  0.00000000000E+00 -0.00000000000E+00 -0.15897278361E+04  0.15897278361E+04  0.00000000000E+00 0. -1.
         23    2    1    2    0    0  0.26269347763E+03  0.81077733471E+03 -0.65364420628E+03  0.10781216098E+04  0.93422199370E+02 0.  0.
        254    2    1    2    0    0 -0.26269347763E+03 -0.81077733471E+03 -0.19306954496E+03  0.12546203112E+04  0.90023803873E+03 0.  0.
        -24    2    4    4    0    0 -0.46307207064E+03 -0.89062221486E+03 -0.17881505434E+03  0.10227254156E+04  0.79679230572E+02 0.  0.
         24    2    4    4    0    0  0.20037859301E+03  0.79844880150E+02 -0.14254490618E+02  0.23189489561E+03  0.83936086906E+02 0.  0.
         11    1    3    3    0    0  0.10793271933E+03  0.43816265437E+03 -0.30276852527E+03  0.54341950966E+03  0.00000000000E+00 0.  1.
        -11    1    3    3    0    0  0.15476075830E+03  0.37261468035E+03 -0.35087568101E+03  0.53470210009E+03  0.00000000000E+00 0. -1.
          4    1    6    6  502    0 -0.29314207876E+01  0.16263866965E+02  0.67301777189E+01  0.17843819339E+02  0.00000000000E+00 0. -1.
          3    1    5    5  503    0 -0.14907196328E+03 -0.34687736760E+03 -0.94434816599E+02  0.38918413762E+03  0.00000000000E+00 0. -1.
         -4    1    5    5    0  503 -0.31400010736E+03 -0.54374484726E+03 -0.84380237742E+02  0.63354127795E+03  0.00000000000E+00 0.  1.
         -1    1    6    6    0  502  0.20331001380E+03  0.63581013185E+02 -0.20984668337E+02  0.21405107627E+03  0.00000000000E+00 0.  1.
<mgrwt>
<rscale>  0 0.21736515E+04</rscale>
<asrwt>0</asrwt>
<pdfrwt beam="1">  1        1 0.24457351E+00 0.21736515E+04</pdfrwt>
<pdfrwt beam="2">  1       -1 0.11430986E+00 0.21736515E+04</pdfrwt>
<totfact> 0.36091070E+00</totfact>
</mgrwt>
</event>
<event>
12    1  0.2019083E-007  0.3769869E+04  0.7818608E-02  0.8052652E-01
         -2   -1    0    0    0  501 -0.00000000000E+00  0.00000000000E+00  0.15149631519E+04  0.15149631519E+04  0.00000000000E+00 0.  1.
          2   -1    0    0  501    0  0.00000000000E+00 -0.00000000000E+00 -0.23452568496E+04  0.23452568496E+04  0.00000000000E+00 0. -1.
         23    2    1    2    0    0 -0.14471359146E+04  0.63786019465E+03  0.42903635861E+03  0.16414089851E+04  0.95306222345E+02 0.  0.
        254    2    1    2    0    0  0.14471359146E+04 -0.63786019465E+03 -0.12593300563E+04  0.22188110163E+04  0.91440808835E+03 0.  0.
        -24    2    4    4    0    0  0.13268958120E+04 -0.84090271932E+03 -0.10279923824E+04  0.18790721867E+04  0.79837743100E+02 0.  0.
         24    2    4    4    0    0  0.12024010264E+03  0.20304252467E+03 -0.23133767396E+03  0.33973882966E+03  0.78875876420E+02 0.  0.
         11    1    3    3    0    0 -0.10445291230E+04  0.49587976228E+03  0.28511817342E+03  0.11908947058E+04  0.00000000000E+00 0. -1.
        -11    1    3    3    0    0 -0.40260679167E+03  0.14198043237E+03  0.14391818519E+03  0.45051427936E+03  0.00000000000E+00 0.  1.
          2    1    6    6  502    0  0.90707035649E+02  0.15272901315E+03 -0.21552382421E+03  0.27929274351E+03  0.00000000000E+00 0. -1.
          1    1    5    5  503    0  0.42642309787E+03 -0.25773400327E+03 -0.28390780339E+03  0.57346936768E+03  0.00000000000E+00 0. -1.
         -2    1    5    5    0  503  0.90047271413E+03 -0.58316871605E+03 -0.74408457898E+03  0.13056028190E+04  0.00000000000E+00 0.  1.
         -1    1    6    6    0  502  0.29533066986E+02  0.50313511519E+02 -0.15813849742E+02  0.60446086148E+02  0.00000000000E+00 0.  1.
<mgrwt>
<rscale>  0 0.37698688E+04</rscale>
<asrwt>0</asrwt>
<pdfrwt beam="1">  1        2 0.36080874E+00 0.37698688E+04</pdfrwt>
<pdfrwt beam="2">  1       -2 0.23307126E+00 0.37698688E+04</pdfrwt>
<totfact> 0.28093760E-01</totfact>
</mgrwt>
</event>
<event>
12    1  0.2019083E-007  0.1185836E+04  0.7818608E-02  0.9125345E-01
         -1   -1    0    0    0  501 -0.00000000000E+00  0.00000000000E+00  0.64852061348E+03  0.64852061348E+03  0.00000000000E+00 0.  1.
          1   -1    0    0  501    0  0.00000000000E+00 -0.00000000000E+00 -0.54208277001E+03  0.54208277001E+03  0.00000000000E+00 0. -1.
         23    2    1    2    0    0  0.17277393548E+03  0.10121790283E+03  0.15124943412E+03  0.26702217781E+03  0.91260919802E+02 0.  0.
        254    2    1    2    0    0 -0.17277393548E+03 -0.10121790283E+03 -0.44811590646E+02  0.92358120568E+03  0.90049889961E+03 0.  0.
        -24    2    4    4    0    0  0.22000801513E+03  0.25598301510E+03 -0.14807779586E+03  0.37677613580E+03  0.78117809360E+02 0.  0.
         24    2    4    4    0    0 -0.39278195061E+03 -0.35720091793E+03  0.10326620522E+03  0.54680506988E+03  0.80384817030E+02 0.  0.
         11    1    3    3    0    0  0.88530702016E+01  0.44817768217E+02  0.42408483915E+02  0.62333688387E+02  0.00000000000E+00 0. -1.
        -11    1    3    3    0    0  0.16392086528E+03  0.56400134610E+02  0.10884095021E+03  0.20468848942E+03  0.00000000000E+00 0.  1.
          4    1    6    6  502    0 -0.23237510225E+03 -0.25366106854E+03  0.89093569238E+02  0.35535867784E+03  0.00000000000E+00 0. -1.
          1    1    5    5  503    0  0.82296116545E+02  0.14612817340E+03 -0.95226429522E+02  0.19285789260E+03  0.00000000000E+00 0. -1.
         -2    1    5    5    0  503  0.13771189858E+03  0.10985484171E+03 -0.52851366342E+02  0.18391824320E+03  0.00000000000E+00 0.  1.
         -3    1    6    6    0  502 -0.16040684836E+03 -0.10353984939E+03  0.14172635979E+02  0.19144639204E+03  0.00000000000E+00 0.  1.
<mgrwt>
<rscale>  0 0.11858362E+04</rscale>
<asrwt>0</asrwt>
<pdfrwt beam="1">  1        1 0.83397350E-01 0.11858362E+04</pdfrwt>
<pdfrwt beam="2">  1       -1 0.99772402E-01 0.11858362E+04</pdfrwt>
<totfact> 0.37603616E+01</totfact>
</mgrwt>
</event>
<event>
12    1  0.2088572E-007  0.1833684E+04  0.7818608E-02  0.8688589E-01
         -2   -1    0    0    0  501 -0.00000000000E+00  0.00000000000E+00  0.88991109371E+03  0.88991109371E+03  0.00000000000E+00 0.  1.
          2   -1    0    0  501    0  0.00000000000E+00 -0.00000000000E+00 -0.94458754048E+03  0.94458754048E+03  0.00000000000E+00 0. -1.
         23    2    1    2    0    0  0.58118078504E+03  0.31556292323E+03  0.17758462619E+03  0.69082648113E+03  0.91399475690E+02 0.  0.
        254    2    1    2    0    0 -0.58118078504E+03 -0.31556292323E+03 -0.23226107296E+03  0.11436721531E+04  0.90370887141E+03 0.  0.
        -24    2    4    4    0    0 -0.35164865713E+03  0.28656217919E+03 -0.19040513400E+02  0.46041249412E+03  0.76436005816E+02 0.  0.
         24    2    4    4    0    0 -0.22953212791E+03 -0.60212510242E+03 -0.21322055956E+03  0.68325965895E+03  0.78365284535E+02 0.  0.
         11    1    3    3    0    0  0.26393031994E+03  0.13700217398E+03  0.33304363769E+02  0.29922899275E+03  0.00000000000E+00 0. -1.
        -11    1    3    3    0    0  0.31725046510E+03  0.17856074925E+03  0.14428026242E+03  0.39159748838E+03  0.00000000000E+00 0.  1.
          4    1    6    6  502    0 -0.19131372040E+03 -0.51900189984E+03 -0.15364014308E+03  0.57408118347E+03  0.00000000000E+00 0. -1.
          3    1    5    5  503    0 -0.19566022503E+03  0.16977798482E+03 -0.47849011842E+02  0.26343313330E+03  0.00000000000E+00 0. -1.
         -4    1    5    5    0  503 -0.15598843210E+03  0.11678419437E+03  0.28808498442E+02  0.19697936081E+03  0.00000000000E+00 0.  1.
         -3    1    6    6    0  502 -0.38218407512E+02 -0.83123202585E+02 -0.59580416478E+02  0.10917847548E+03  0.00000000000E+00 0.  1.
<mgrwt>
<rscale>  0 0.18336836E+04</rscale>
<asrwt>0</asrwt>
<pdfrwt beam="1">  1        2 0.14532116E+00 0.18336836E+04</pdfrwt>
<pdfrwt beam="2">  1       -2 0.13690940E+00 0.18336836E+04</pdfrwt>
<totfact> 0.98075432E+00</totfact>
</mgrwt>
</event>
<event>
12    1  0.2019083E-007  0.2242786E+04  0.7818608E-02  0.8500828E-01
         -2   -1    0    0    0  501 -0.00000000000E+00  0.00000000000E+00  0.77176694728E+03  0.77176694728E+03  0.00000000000E+00 0.  1.
          2   -1    0    0  501    0  0.00000000000E+00 -0.00000000000E+00 -0.16294060121E+04  0.16294060121E+04  0.00000000000E+00 0. -1.
         23    2    1    2    0    0  0.78570023945E+03 -0.32783575533E+02  0.18771308114E+03  0.81365528110E+03  0.91646530359E+02 0.  0.
        254    2    1    2    0    0 -0.78570023945E+03  0.32783575533E+02 -0.10453521460E+04  0.15875176783E+04  0.89947297943E+03 0.  0.
        -24    2    4    4    0    0 -0.21202472978E+03  0.28107902925E+03  0.68297337364E+01  0.36099598772E+03  0.79445271484E+02 0.  0.
         24    2    4    4    0    0 -0.57367550967E+03 -0.24829545372E+03 -0.10521818797E+04  0.12265216906E+04  0.80712618223E+02 0.  0.
         11    1    3    3    0    0  0.66359784141E+03  0.57143698191E+01  0.16091254482E+03  0.68285254354E+03  0.00000000000E+00 0. -1.
        -11    1    3    3    0    0  0.12210239804E+03 -0.38497945352E+02  0.26800536316E+02  0.13080273755E+03  0.00000000000E+00 0.  1.
          2    1    6    6  502    0 -0.46549758558E+03 -0.23234810564E+03 -0.89033573786E+03  0.10311989966E+04  0.00000000000E+00 0. -1.
          3    1    5    5  503    0 -0.14428618194E+03  0.23574987036E+03  0.24874831164E+02  0.27751623538E+03  0.00000000000E+00 0. -1.
         -4    1    5    5    0  503 -0.67738547839E+02  0.45329158894E+02 -0.18045097428E+02  0.83479752339E+02  0.00000000000E+00 0.  1.
         -1    1    6    6    0  502 -0.10817792409E+03 -0.15947348076E+02 -0.16184614186E+03  0.19532269404E+03  0.00000000000E+00 0.  1.
<mgrwt>
<rscale>  0 0.22427855E+04</rscale>
<asrwt>0</asrwt>
<pdfrwt beam="1">  1        2 0.25067785E+00 0.22427855E+04</pdfrwt>
<pdfrwt beam="2">  1       -2 0.11873338E+00 0.22427855E+04</pdfrwt>
<totfact> 0.53327567E+00</totfact>
</mgrwt>
</event>
<event>
12    1  0.2019083E-007  0.1689224E+04  0.7818608E-02  0.8767534E-01
          1   -1    0    0  501    0  0.00000000000E+00  0.00000000000E+00  0.65100313834E+03  0.65100313834E+03  0.00000000000E+00 0. -1.
         -1   -1    0    0    0  501 -0.00000000000E+00 -0.00000000000E+00 -0.10958004312E+04  0.10958004312E+04  0.00000000000E+00 0.  1.
         23    2    1    2    0    0  0.12010094645E+03 -0.13681580774E+03 -0.75404988938E+03  0.78101245521E+03  0.90809784348E+02 0.  0.
        254    2    1    2    0    0 -0.12010094645E+03  0.13681580774E+03  0.30925259652E+03  0.96579111433E+03  0.89664513910E+03 0.  0.
        -24    2    4    4    0    0  0.24445501534E+03  0.46942534369E+02 -0.20028907901E+03  0.32782111665E+03  0.73410580261E+02 0.  0.
         24    2    4    4    0    0 -0.36455596179E+03  0.89873273374E+02  0.50954167553E+03  0.63796999768E+03  0.79967145059E+02 0.  0.
         11    1    3    3    0    0  0.72295666059E+02 -0.13159551865E+03 -0.48537701037E+03  0.50806976495E+03  0.00000000000E+00 0. -1.
        -11    1    3    3    0    0  0.47805280394E+02 -0.52202890915E+01 -0.26867287900E+03  0.27294269026E+03  0.00000000000E+00 0.  1.
          2    1    6    6  502    0 -0.22456917389E+03  0.48186849130E+02  0.37289362356E+03  0.43795312624E+03  0.00000000000E+00 0. -1.
          3    1    5    5  503    0  0.88954875178E+02  0.40754844187E+02 -0.11267490612E+03  0.14922989517E+03  0.00000000000E+00 0. -1.
         -4    1    5    5    0  503  0.15550014016E+03  0.61876901820E+01 -0.87614172892E+02  0.17859122148E+03  0.00000000000E+00 0.  1.
         -1    1    6    6    0  502 -0.13998678789E+03  0.41686424243E+02  0.13664805197E+03  0.20001687144E+03  0.00000000000E+00 0.  1.
<mgrwt>
<rscale>  0 0.16892241E+04</rscale>
<asrwt>0</asrwt>
<pdfrwt beam="1">  1        1 0.10015433E+00 0.16892241E+04</pdfrwt>
<pdfrwt beam="2">  1       -1 0.16858468E+00 0.16892241E+04</pdfrwt>
<totfact> 0.72945360E+00</totfact>
</mgrwt>
</event>
<event>
12    1  0.2019083E-007  0.2764755E+04  0.7818608E-02  0.8314295E-01
          2   -1    0    0  501    0  0.00000000000E+00  0.00000000000E+00  0.22335795061E+04  0.22335795061E+04  0.00000000000E+00 0. -1.
         -2   -1    0    0    0  501 -0.00000000000E+00 -0.00000000000E+00 -0.85556292510E+03  0.85556292510E+03  0.00000000000E+00 0.  1.
         23    2    1    2    0    0 -0.39928198209E+03  0.11275020281E+04  0.92252284021E+03  0.15136117292E+04  0.96359490967E+02 0.  0.
        254    2    1    2    0    0  0.39928198209E+03 -0.11275020281E+04  0.45549374081E+03  0.15755307020E+04  0.91876848026E+03 0.  0.
        -24    2    4    4    0    0  0.17547533680E+03 -0.12219295671E+04  0.45939496648E+03  0.13195988896E+04  0.79962700211E+02 0.  0.
         24    2    4    4    0    0  0.22380664529E+03  0.94427538927E+02 -0.39012256763E+01  0.25593181242E+03  0.80497816525E+02 0.  0.
         13    1    3    3    0    0 -0.21010484431E+03  0.49385307822E+03  0.45703640580E+03  0.70492353110E+03  0.00000000000E+00 0.  1.
        -13    1    3    3    0    0 -0.18917713779E+03  0.63364894991E+03  0.46548643441E+03  0.80868819813E+03  0.00000000000E+00 0. -1.
          2    1    6    6  502    0  0.87633946407E+01  0.29838987239E+02  0.33653194000E+01  0.31280786750E+02  0.00000000000E+00 0. -1.
          3    1    5    5  503    0  0.14486092232E+02 -0.81155131241E+02  0.52704602157E+02  0.97845680964E+02  0.00000000000E+00 0. -1.
         -4    1    5    5    0  503  0.16098924457E+03 -0.11407744358E+04  0.40669036433E+03  0.12217532086E+04  0.00000000000E+00 0.  1.
         -1    1    6    6    0  502  0.21504325065E+03  0.64588551688E+02 -0.72665450762E+01  0.22465102567E+03  0.00000000000E+00 0.  1.
<mgrwt>
<rscale>  0 0.27647552E+04</rscale>
<asrwt>0</asrwt>
<pdfrwt beam="1">  1        2 0.34362761E+00 0.27647552E+04</pdfrwt>
<pdfrwt beam="2">  1       -2 0.13162507E+00 0.27647552E+04</pdfrwt>
<totfact> 0.18153213E+00</totfact>
</mgrwt>
</event>
<event>
12    1  0.2019083E-007  0.1477709E+04  0.7818608E-02  0.8899413E-01
         -2   -1    0    0    0  501 -0.00000000000E+00  0.00000000000E+00  0.47673155655E+03  0.47673155655E+03  0.00000000000E+00 0.  1.
          2   -1    0    0  501    0  0.00000000000E+00 -0.00000000000E+00 -0.11451016845E+04  0.11451016845E+04  0.00000000000E+00 0. -1.
         23    2    1    2    0    0  0.41012252946E+03 -0.54780563003E+02  0.52171218987E+01  0.42343397783E+03  0.89820465188E+02 0.  0.
        254    2    1    2    0    0 -0.41012252946E+03  0.54780563003E+02 -0.67358724986E+03  0.11983992632E+04  0.90068840987E+03 0.  0.
        -24    2    4    4    0    0 -0.26868618685E+03  0.10931370604E+03 -0.87952853487E+03  0.92968847579E+03  0.81292466013E+02 0.  0.
         24    2    4    4    0    0 -0.14143634261E+03 -0.54533143040E+02  0.20594128501E+03  0.26871078744E+03  0.82556475904E+02 0.  0.
         11    1    3    3    0    0  0.35186024667E+03 -0.30706169428E+02 -0.23877396641E+02  0.35400371764E+03  0.00000000000E+00 0. -1.
        -11    1    3    3    0    0  0.58262282785E+02 -0.24074393576E+02  0.29094518539E+02  0.69430260192E+02  0.00000000000E+00 0.  1.
          4    1    6    6  502    0 -0.64916048158E+02 -0.22185087138E+01  0.14185842384E+03  0.15602188149E+03  0.00000000000E+00 0. -1.
          1    1    5    5  503    0 -0.12632213534E+03  0.82667434032E+01 -0.35942900640E+03  0.38107063855E+03  0.00000000000E+00 0. -1.
         -4    1    5    5    0  503 -0.14236405151E+03  0.10104696264E+03 -0.52009952847E+03  0.54861783724E+03  0.00000000000E+00 0.  1.
         -3    1    6    6    0  502 -0.76520294452E+02 -0.52314634326E+02  0.64082861163E+02  0.11268890594E+03  0.00000000000E+00 0.  1.
<mgrwt>
<rscale>  0 0.14777092E+04</rscale>
<asrwt>0</asrwt>
<pdfrwt beam="1">  1        2 0.17616949E+00 0.14777092E+04</pdfrwt>
<pdfrwt beam="2">  1       -2 0.73343317E-01 0.14777092E+04</pdfrwt>
<totfact> 0.33197339E+01</totfact>
</mgrwt>
</event>
<event>
12    1  0.2019083E-007  0.1919496E+04  0.7818608E-02  0.8645212E-01
         -1   -1    0    0    0  501 -0.00000000000E+00  0.00000000000E+00  0.49349751882E+03  0.49349751882E+03  0.00000000000E+00 0. -1.
          1   -1    0    0  501    0  0.00000000000E+00 -0.00000000000E+00 -0.18665058872E+04  0.18665058872E+04  0.00000000000E+00 0.  1.
         23    2    1    2    0    0 -0.65603244911E+03  0.35088712811E+03 -0.57401562851E+03  0.94396333989E+03  0.89847060697E+02 0.  0.
        254    2    1    2    0    0  0.65603244911E+03 -0.35088712811E+03 -0.79899273982E+03  0.14160400661E+04  0.90182022571E+03 0.  0.
        -24    2    4    4    0    0  0.30576619370E+03  0.22271316847E+03 -0.59450434704E+03  0.70908718962E+03  0.79215549086E+02 0.  0.
         24    2    4    4    0    0  0.35026625542E+03 -0.57360029658E+03 -0.20448839279E+03  0.70695287647E+03  0.79139856189E+02 0.  0.
         11    1    3    3    0    0 -0.63996943296E+03  0.34158303406E+03 -0.57455326479E+03  0.92539251043E+03  0.00000000000E+00 0.  1.
        -11    1    3    3    0    0 -0.16063016149E+02  0.93040940505E+01  0.53763627778E+00  0.18570829456E+02  0.00000000000E+00 0. -1.
          2    1    6    6  502    0  0.11544858063E+03 -0.14643313585E+03 -0.28143854073E+02  0.18858185111E+03  0.00000000000E+00 0. -1.
          3    1    5    5  503    0  0.17345825242E+03  0.13407947442E+03 -0.41329843380E+03  0.46784684051E+03  0.00000000000E+00 0. -1.
         -4    1    5    5    0  503  0.13230794128E+03  0.88633694052E+02 -0.18120591324E+03  0.24124034911E+03  0.00000000000E+00 0.  1.
         -1    1    6    6    0  502  0.23481767479E+03 -0.42716716073E+03 -0.17634453871E+03  0.51837102536E+03  0.00000000000E+00 0.  1.
<mgrwt>
<rscale>  0 0.19194958E+04</rscale>
<asrwt>0</asrwt>
<pdfrwt beam="1">  1        1 0.28715475E+00 0.19194958E+04</pdfrwt>
<pdfrwt beam="2">  1       -1 0.75922696E-01 0.19194958E+04</pdfrwt>
<totfact> 0.59755162E+00</totfact>
</mgrwt>
</event>
<event>
12    1  0.2019083E-007  0.3102298E+04  0.7818608E-02  0.8215108E-01
         -1   -1    0    0    0  501 -0.00000000000E+00  0.00000000000E+00  0.83264238150E+03  0.83264238150E+03  0.00000000000E+00 0.  1.
          1   -1    0    0  501    0  0.00000000000E+00 -0.00000000000E+00 -0.28896716355E+04  0.28896716355E+04  0.00000000000E+00 0. -1.
         23    2    1    2    0    0  0.11259618363E+04  0.48207844514E+03 -0.83337787435E+02  0.12310782988E+04  0.91754601481E+02 0.  0.
        254    2    1    2    0    0 -0.11259618363E+04 -0.48207844514E+03 -0.19736914665E+04  0.24912357182E+04  0.90033755591E+03 0.  0.
        -24    2    4    4    0    0 -0.46944515049E+02  0.15987331893E+03 -0.60157790995E+03  0.62952558838E+03  0.81505945072E+02 0.  0.
         24    2    4    4    0    0 -0.10790173212E+04 -0.64195176407E+03 -0.13721135566E+04  0.18617101298E+04  0.82997279805E+02 0.  0.
         11    1    3    3    0    0  0.71613456979E+03  0.29880666903E+03 -0.96468722168E+02  0.78194652110E+03  0.00000000000E+00 0. -1.
        -11    1    3    3    0    0  0.40982726648E+03  0.18327177611E+03  0.13130934733E+02  0.44913177767E+03  0.00000000000E+00 0.  1.
          4    1    6    6  502    0 -0.29950766687E+03 -0.14311585867E+03 -0.39333410479E+03  0.51468311562E+03  0.00000000000E+00 0. -1.
          1    1    5    5  503    0 -0.89645080654E+00 -0.94277964168E+01 -0.43445298499E+02  0.44465502707E+02  0.00000000000E+00 0. -1.
         -2    1    5    5    0  503 -0.46048064243E+02  0.16930111535E+03 -0.55813261145E+03  0.58506008567E+03  0.00000000000E+00 0.  1.
         -3    1    6    6    0  502 -0.77950965435E+03 -0.49883590540E+03 -0.97877945179E+03  0.13470270142E+04  0.00000000000E+00 0.  1.
<mgrwt>
<rscale>  0 0.31022979E+04</rscale>
<asrwt>0</asrwt>
<pdfrwt beam="1">  1        1 0.44456487E+00 0.31022979E+04</pdfrwt>
<pdfrwt beam="2">  1       -1 0.12809883E+00 0.31022979E+04</pdfrwt>
<totfact> 0.31891553E-01</totfact>
</mgrwt>
</event>
<event>
12    1  0.2019083E-007  0.1313421E+04  0.7818608E-02  0.9018989E-01
         -1   -1    0    0    0  501 -0.00000000000E+00  0.00000000000E+00  0.71697743233E+03  0.71697743233E+03  0.00000000000E+00 0.  1.
          1   -1    0    0  501    0  0.00000000000E+00 -0.00000000000E+00 -0.60150954448E+03  0.60150954448E+03  0.00000000000E+00 0. -1.
         23    2    1    2    0    0 -0.11969179560E+03  0.31080759938E+03  0.12427104789E+02  0.34526470081E+03  0.90143169055E+02 0.  0.
        254    2    1    2    0    0  0.11969179560E+03 -0.31080759938E+03  0.10304078305E+03  0.97322227600E+03  0.90863452816E+03 0.  0.
        -24    2    4    4    0    0 -0.21205831795E+03  0.22871839437E+03 -0.21242888381E+02  0.32289777460E+03  0.80813850304E+02 0.  0.
         24    2    4    4    0    0  0.33175011354E+03 -0.53952599375E+03  0.12428367143E+03  0.65032450140E+03  0.79555580378E+02 0.  0.
         11    1    3    3    0    0  0.72888479234E+00  0.35671601848E+02  0.26742873266E+02  0.44588964127E+02  0.00000000000E+00 0.  1.
        -11    1    3    3    0    0 -0.12042068039E+03  0.27513599753E+03 -0.14315768477E+02  0.30067573669E+03  0.00000000000E+00 0. -1.
          4    1    6    6  502    0  0.16973203474E+03 -0.29539385928E+03  0.27681165102E+02  0.34180804937E+03  0.00000000000E+00 0. -1.
          3    1    5    5  503    0 -0.74559393901E+02  0.10177762639E+03  0.28329394605E+02  0.12930716550E+03  0.00000000000E+00 0. -1.
         -4    1    5    5    0  503 -0.13749892404E+03  0.12694076798E+03 -0.49572282985E+02  0.19359060909E+03  0.00000000000E+00 0.  1.
         -3    1    6    6    0  502  0.16201807880E+03 -0.24413213447E+03  0.96602506333E+02  0.30851645203E+03  0.00000000000E+00 0.  1.
<mgrwt>
<rscale>  0 0.13134211E+04</rscale>
<asrwt>0</asrwt>
<pdfrwt beam="1">  1        1 0.92539930E-01 0.13134211E+04</pdfrwt>
<pdfrwt beam="2">  1       -1 0.11030422E+00 0.13134211E+04</pdfrwt>
<totfact> 0.25407222E+01</totfact>
</mgrwt>
</event>
<event>
12    1  0.2019083E-007  0.1287629E+04  0.7818608E-02  0.9039434E-01
          1   -1    0    0  501    0  0.00000000000E+00  0.00000000000E+00  0.15516867119E+04  0.15516867119E+04  0.00000000000E+00 0. -1.
         -1   -1    0    0    0  501 -0.00000000000E+00 -0.00000000000E+00 -0.26712661361E+03  0.26712661361E+03  0.00000000000E+00 0.  1.
         23    2    1    2    0    0 -0.52627922024E+02 -0.41598352533E+02 -0.11041873686E+03  0.15813949704E+03  0.91190361128E+02 0.  0.
        254    2    1    2    0    0  0.52627922024E+02  0.41598352533E+02  0.13949788352E+04  0.16606738285E+04  0.89853853170E+03 0.  0.
        -24    2    4    4    0    0 -0.25015486417E+03 -0.13923287564E+03  0.12267664829E+04  0.12622063442E+04  0.79029122187E+02 0.  0.
         24    2    4    4    0    0  0.30278278619E+03  0.18083122817E+03  0.16821235228E+03  0.39846748425E+03  0.78125487829E+02 0.  0.
         13    1    3    3    0    0  0.12134104378E+02 -0.16094528580E+02  0.72549378378E+01  0.21422055510E+02  0.00000000000E+00 0. -1.
        -13    1    3    3    0    0 -0.64762026402E+02 -0.25503823954E+02 -0.11767367470E+03  0.13671744153E+03  0.00000000000E+00 0.  1.
          4    1    6    6  502    0  0.19719586822E+03  0.15664732989E+03  0.10344259198E+03  0.27225900580E+03  0.00000000000E+00 0. -1.
          1    1    5    5  503    0 -0.11056322058E+03 -0.10670782554E+03  0.62928802775E+03  0.64777635620E+03  0.00000000000E+00 0. -1.
         -2    1    5    5    0  503 -0.13959164359E+03 -0.32525050103E+02  0.59747845515E+03  0.61442998804E+03  0.00000000000E+00 0.  1.
         -3    1    6    6    0  502  0.10558691797E+03  0.24183898284E+02  0.64769760300E+02  0.12620847845E+03  0.00000000000E+00 0.  1.
<mgrwt>
<rscale>  0 0.12876285E+04</rscale>
<asrwt>0</asrwt>
<pdfrwt beam="1">  1        1 0.23872103E+00 0.12876285E+04</pdfrwt>
<pdfrwt beam="2">  1       -1 0.41096403E-01 0.12876285E+04</pdfrwt>
<totfact> 0.34333958E+01</totfact>
</mgrwt>
</event>
<event>
12    1  0.2019083E-007  0.2727842E+04  0.7818608E-02  0.8326027E-01
          1   -1    0    0  501    0  0.00000000000E+00  0.00000000000E+00  0.21586307294E+04  0.21586307294E+04  0.00000000000E+00 0. -1.
         -1   -1    0    0    0  501 -0.00000000000E+00 -0.00000000000E+00 -0.86178712568E+03  0.86178712568E+03  0.00000000000E+00 0.  1.
         23    2    1    2    0    0  0.21413804091E+03 -0.28571658677E+02 -0.74355927301E+03  0.77993193416E+03  0.93498605337E+02 0.  0.
        254    2    1    2    0    0 -0.21413804091E+03  0.28571658677E+02  0.20404028767E+04  0.22404859209E+04  0.89992323127E+03 0.  0.
        -24    2    4    4    0    0  0.25160600187E+03  0.19983587111E+03  0.13269284492E+04  0.13676094775E+04  0.79853730057E+02 0.  0.
         24    2    4    4    0    0 -0.46574404278E+03 -0.17126421244E+03  0.71347442757E+03  0.87287644341E+03  0.81354672965E+02 0.  0.
         13    1    3    3    0    0  0.90708115479E+02 -0.28889322195E+02 -0.47388868798E+03  0.48335602173E+03  0.00000000000E+00 0.  1.
        -13    1    3    3    0    0  0.12342992543E+03  0.31766351736E+00 -0.26967058503E+03  0.29657591243E+03  0.00000000000E+00 0. -1.
          4    1    6    6  502    0 -0.81535490693E+01 -0.29112990552E+01 -0.67298957888E-01  0.86579763089E+01  0.00000000000E+00 0. -1.
          1    1    5    5  503    0  0.94619954332E+02  0.77605087764E+02  0.35425719444E+03  0.37479813929E+03  0.00000000000E+00 0. -1.
         -2    1    5    5    0  503  0.15698604754E+03  0.12223078335E+03  0.97267125472E+03  0.99281133821E+03  0.00000000000E+00 0.  1.
         -3    1    6    6    0  502 -0.45759049371E+03 -0.16835291338E+03  0.71354172653E+03  0.86421846710E+03  0.00000000000E+00 0.  1.
<mgrwt>
<rscale>  0 0.27278418E+04</rscale>
<asrwt>0</asrwt>
<pdfrwt beam="1">  1        1 0.33209703E+00 0.27278418E+04</pdfrwt>
<pdfrwt beam="2">  1       -1 0.13258264E+00 0.27278418E+04</pdfrwt>
<totfact> 0.97671346E-01</totfact>
</mgrwt>
</event>
<event>
12    1  0.2019083E-007  0.1352657E+04  0.7818608E-02  0.8988819E-01
         -2   -1    0    0    0  501 -0.00000000000E+00  0.00000000000E+00  0.90147316722E+03  0.90147316722E+03  0.00000000000E+00 0.  1.
          2   -1    0    0  501    0  0.00000000000E+00 -0.00000000000E+00 -0.50741396062E+03  0.50741396062E+03  0.00000000000E+00 0. -1.
         23    2    1    2    0    0 -0.22242856225E+02  0.36287895505E+03  0.70581215626E+02  0.38077226244E+03  0.88486875736E+02 0.  0.
        254    2    1    2    0    0  0.22242856225E+02 -0.36287895505E+03  0.32347799097E+03  0.10281148654E+04  0.90565240857E+03 0.  0.
        -24    2    4    4    0    0  0.36108807830E+03  0.23176988492E+02  0.34602484894E+03  0.50747551380E+03  0.82924230112E+02 0.  0.
         24    2    4    4    0    0 -0.33884522207E+03 -0.38605594354E+03 -0.22546857965E+02  0.52063935160E+03  0.81863896630E+02 0.  0.
         11    1    3    3    0    0  0.97926973784E+01  0.15259016660E+03 -0.10178598642E+02  0.15324248672E+03  0.00000000000E+00 0. -1.
        -11    1    3    3    0    0 -0.32035553603E+02  0.21028878845E+03  0.80759814267E+02  0.22752977573E+03  0.00000000000E+00 0.  1.
          2    1    6    6  502    0 -0.27641532174E+03 -0.30795539749E+03  0.14350333956E+02  0.41406266316E+03  0.00000000000E+00 0. -1.
          3    1    5    5  503    0  0.35290059484E+03  0.15651753056E+02  0.34834796129E+03  0.49611501625E+03  0.00000000000E+00 0. -1.
         -4    1    5    5    0  503  0.81874834542E+01  0.75252354360E+01 -0.23231123464E+01  0.11360497553E+02  0.00000000000E+00 0.  1.
         -3    1    6    6    0  502 -0.62429900327E+02 -0.78100546051E+02 -0.36897191920E+02  0.10657668845E+03  0.00000000000E+00 0.  1.
<mgrwt>
<rscale>  0 0.13526567E+04</rscale>
<asrwt>0</asrwt>
<pdfrwt beam="1">  1        2 0.78063686E-01 0.13526567E+04</pdfrwt>
<pdfrwt beam="2">  1       -2 0.13868818E+00 0.13526567E+04</pdfrwt>
<totfact> 0.21741913E+01</totfact>
</mgrwt>
</event>
<event>
12    1  0.2019083E-007  0.1718625E+04  0.7818608E-02  0.8750812E-01
         -2   -1    0    0    0  501 -0.00000000000E+00  0.00000000000E+00  0.54123416587E+03  0.54123416587E+03  0.00000000000E+00 0.  1.
          2   -1    0    0  501    0  0.00000000000E+00 -0.00000000000E+00 -0.13643228487E+04  0.13643228487E+04  0.00000000000E+00 0. -1.
         23    2    1    2    0    0  0.50140509441E+03  0.21728516530E+03  0.19942110424E+02  0.55462091401E+03  0.92664765295E+02 0.  0.
        254    2    1    2    0    0 -0.50140509441E+03 -0.21728516530E+03 -0.84303079320E+03  0.13509361005E+04  0.90316527702E+03 0.  0.
        -24    2    4    4    0    0 -0.43857819471E+03 -0.23748234037E+03 -0.10244591326E+04  0.11416398073E+04  0.71247739336E+02 0.  0.
         24    2    4    4    0    0 -0.62826899709E+02  0.20197175078E+02  0.18142833939E+03  0.20929629323E+03  0.80830383007E+02 0.  0.
         13    1    3    3    0    0  0.44237848235E+03  0.15719792679E+03  0.25809594253E+02  0.47018724460E+03  0.00000000000E+00 0.  1.
        -13    1    3    3    0    0  0.59026612067E+02  0.60087238504E+02 -0.58674838290E+01  0.84433669407E+02  0.00000000000E+00 0. -1.
          2    1    6    6  502    0 -0.74328736282E+02  0.21880447352E+02  0.18184532977E+03  0.19766446057E+03  0.00000000000E+00 0. -1.
          3    1    5    5  503    0 -0.41022520425E+03 -0.22184436159E+03 -0.90804138960E+03  0.10208030193E+04  0.00000000000E+00 0. -1.
         -4    1    5    5    0  503 -0.28352990456E+02 -0.15637978787E+02 -0.11641774300E+03  0.12083678800E+03  0.00000000000E+00 0.  1.
         -1    1    6    6    0  502  0.11501836573E+02 -0.16832722738E+01 -0.41699037490E+00  0.11631832662E+02  0.00000000000E+00 0.  1.
<mgrwt>
<rscale>  0 0.17186252E+04</rscale>
<asrwt>0</asrwt>
<pdfrwt beam="1">  1        2 0.20989582E+00 0.17186252E+04</pdfrwt>
<pdfrwt beam="2">  1       -2 0.83266796E-01 0.17186252E+04</pdfrwt>
<totfact> 0.18202124E+01</totfact>
</mgrwt>
</event>
<event>
12    1  0.2019083E-007  0.3156749E+04  0.7818608E-02  0.8200334E-01
          2   -1    0    0  501    0  0.00000000000E+00  0.00000000000E+00  0.29335882193E+04  0.29335882193E+04  0.00000000000E+00 0. -1.
         -2   -1    0    0    0  501 -0.00000000000E+00 -0.00000000000E+00 -0.84922131736E+03  0.84922131736E+03  0.00000000000E+00 0.  1.
         23    2    1    2    0    0 -0.31668717480E+03 -0.10066734408E+04 -0.22973641394E+03  0.10838511112E+04  0.90951790494E+02 0.  0.
        254    2    1    2    0    0  0.31668717480E+03  0.10066734408E+04  0.23141033158E+04  0.26989584254E+04  0.90311695964E+03 0.  0.
        -24    2    4    4    0    0  0.40676531450E+03  0.75252524288E+03  0.85102781396E+03  0.12092442332E+04  0.79189729425E+02 0.  0.
         24    2    4    4    0    0 -0.90078139700E+02  0.25414819794E+03  0.14630755019E+04  0.14897141922E+04  0.77156156617E+02 0.  0.
         11    1    3    3    0    0 -0.91117502956E+02 -0.17293815515E+03 -0.38796171231E+02  0.19928659702E+03  0.00000000000E+00 0.  1.
        -11    1    3    3    0    0 -0.22556967184E+03 -0.83373528567E+03 -0.19094024271E+03  0.88456451416E+03  0.00000000000E+00 0. -1.
          2    1    6    6  502    0 -0.62488021301E+02  0.22264299907E+03  0.13374019321E+04  0.13572466931E+04  0.00000000000E+00 0. -1.
          3    1    5    5  503    0  0.16039041551E+03  0.30434056269E+03  0.28851119471E+03  0.44898437942E+03  0.00000000000E+00 0. -1.
         -4    1    5    5    0  503  0.24637489899E+03  0.44818468018E+03  0.56251661925E+03  0.76025985382E+03  0.00000000000E+00 0.  1.
         -1    1    6    6    0  502 -0.27590118400E+02  0.31505198867E+02  0.12567356973E+03  0.13246749910E+03  0.00000000000E+00 0.  1.
<mgrwt>
<rscale>  0 0.31567487E+04</rscale>
<asrwt>0</asrwt>
<pdfrwt beam="1">  1        2 0.45132126E+00 0.31567487E+04</pdfrwt>
<pdfrwt beam="2">  1       -2 0.13064943E+00 0.31567487E+04</pdfrwt>
<totfact> 0.69368750E-01</totfact>
</mgrwt>
</event>
<event>
12    1  0.2019083E-007  0.1766724E+04  0.7818608E-02  0.8724198E-01
         -2   -1    0    0    0  501 -0.00000000000E+00  0.00000000000E+00  0.51660932769E+03  0.51660932769E+03  0.00000000000E+00 0.  1.
          2   -1    0    0  501    0  0.00000000000E+00 -0.00000000000E+00 -0.15104802483E+04  0.15104802483E+04  0.00000000000E+00 0. -1.
         23    2    1    2    0    0 -0.88062380351E+02  0.59669176883E+03 -0.63643791599E+03  0.88288698953E+03  0.10315117810E+03 0.  0.
        254    2    1    2    0    0  0.88062380351E+02 -0.59669176883E+03 -0.35743300465E+03  0.11442025865E+04  0.90423733405E+03 0.  0.
        -24    2    4    4    0    0 -0.23062828983E+03 -0.68541640970E+03 -0.13721054364E+03  0.74018717980E+03  0.77879811864E+02 0.  0.
         24    2    4    4    0    0  0.31869067018E+03  0.88724640873E+02 -0.22022246101E+03  0.40401540669E+03  0.72764767225E+02 0.  0.
         13    1    3    3    0    0 -0.20612603986E+02  0.43551980785E+03 -0.42897454816E+03  0.61165476000E+03  0.00000000000E+00 0.  1.
        -13    1    3    3    0    0 -0.67449776365E+02  0.16117196098E+03 -0.20746336784E+03  0.27123222952E+03  0.00000000000E+00 0. -1.
          4    1    6    6  502    0  0.22287532080E+03  0.30293963886E+02 -0.16488639198E+03  0.27888824846E+03  0.00000000000E+00 0. -1.
          3    1    5    5  503    0 -0.21173814181E+03 -0.54743291958E+03 -0.12704136433E+03  0.60054587701E+03  0.00000000000E+00 0. -1.
         -4    1    5    5    0  503 -0.18890148020E+02 -0.13798349012E+03 -0.10169179308E+02  0.13964130279E+03  0.00000000000E+00 0.  1.
         -3    1    6    6    0  502  0.95815349379E+02  0.58430676987E+02 -0.55336069031E+02  0.12512715823E+03  0.00000000000E+00 0.  1.
<mgrwt>
<rscale>  0 0.17667237E+04</rscale>
<asrwt>0</asrwt>
<pdfrwt beam="1">  1        2 0.23238157E+00 0.17667237E+04</pdfrwt>
<pdfrwt beam="2">  1       -2 0.79478360E-01 0.17667237E+04</pdfrwt>
<totfact> 0.16626785E+01</totfact>
</mgrwt>
</event>
<event>
12    1  0.2019083E-007  0.1385896E+04  0.7818608E-02  0.8964092E-01
         -1   -1    0    0    0  501 -0.00000000000E+00  0.00000000000E+00  0.91055882646E+03  0.91055882646E+03  0.00000000000E+00 0.  1.
          1   -1    0    0  501    0  0.00000000000E+00 -0.00000000000E+00 -0.52734306194E+03  0.52734306194E+03  0.00000000000E+00 0. -1.
         23    2    1    2    0    0  0.12872960147E+03  0.29329533129E+03 -0.12572769547E+03  0.35520883065E+03  0.88161206389E+02 0.  0.
        254    2    1    2    0    0 -0.12872960147E+03 -0.29329533129E+03  0.50894345999E+03  0.10826930578E+04  0.90033735354E+03 0.  0.
        -24    2    4    4    0    0 -0.39308574455E+03 -0.24835154991E+02  0.56517894346E+03  0.69346328310E+03  0.79566949058E+02 0.  0.
         24    2    4    4    0    0  0.26435614308E+03 -0.26846017630E+03 -0.56235483463E+02  0.38922977465E+03  0.79889619056E+02 0.  0.
         11    1    3    3    0    0  0.12425099284E+03  0.25518819064E+03 -0.13707513236E+03  0.31519662716E+03  0.00000000000E+00 0. -1.
        -11    1    3    3    0    0  0.44786086332E+01  0.38107140654E+02  0.11347436891E+02  0.40012203490E+02  0.00000000000E+00 0.  1.
          4    1    6    6  502    0  0.26207806779E+02 -0.52708043027E+02 -0.31927100570E+02  0.66965115447E+02  0.00000000000E+00 0. -1.
          3    1    5    5  503    0 -0.37204263058E+02  0.19158836866E+02  0.78323364149E+02  0.88801844526E+02  0.00000000000E+00 0. -1.
         -4    1    5    5    0  503 -0.35588148149E+03 -0.43993991857E+02  0.48685557931E+03  0.60466143857E+03  0.00000000000E+00 0.  1.
         -1    1    6    6    0  502  0.23814833630E+03 -0.21575213327E+03 -0.24308382893E+02  0.32226465921E+03  0.00000000000E+00 0.  1.
<mgrwt>
<rscale>  0 0.13858959E+04</rscale>
<asrwt>0</asrwt>
<pdfrwt beam="1">  1        1 0.81129702E-01 0.13858959E+04</pdfrwt>
<pdfrwt beam="2">  1       -1 0.14008597E+00 0.13858959E+04</pdfrwt>
<totfact> 0.16815340E+01</totfact>
</mgrwt>
</event>
<event>
12    1  0.2019083E-007  0.1691609E+04  0.7818608E-02  0.8766165E-01
         -2   -1    0    0    0  501 -0.00000000000E+00  0.00000000000E+00  0.52462003400E+03  0.52462003400E+03  0.00000000000E+00 0.  1.
          2   -1    0    0  501    0  0.00000000000E+00 -0.00000000000E+00 -0.13636251506E+04  0.13636251506E+04  0.00000000000E+00 0. -1.
         23    2    1    2    0    0  0.29033964879E+03 -0.20280946164E+03 -0.84431574727E+03  0.92002973203E+03  0.90315211060E+02 0.  0.
        254    2    1    2    0    0 -0.29033964879E+03  0.20280946164E+03  0.53106306208E+01  0.96821545262E+03  0.90110164271E+03 0.  0.
        -24    2    4    4    0    0  0.17911995285E+03  0.40346552702E+03 -0.32917713419E+02  0.45020720090E+03  0.82064358171E+02 0.  0.
         24    2    4    4    0    0 -0.46945960164E+03 -0.20065606537E+03  0.38228344040E+02  0.51800825172E+03  0.78841413101E+02 0.  0.
         13    1    3    3    0    0  0.16829839086E+03 -0.92362189403E+02 -0.55372563196E+03  0.58606074590E+03  0.00000000000E+00 0. -1.
        -13    1    3    3    0    0  0.12204125794E+03 -0.11044727224E+03 -0.29059011530E+03  0.33396898613E+03  0.00000000000E+00 0.  1.
          4    1    6    6  502    0 -0.13020031309E+03 -0.42719692144E+02  0.43444843989E+02  0.14375168901E+03  0.00000000000E+00 0. -1.
          3    1    5    5  503    0  0.62026287557E+02  0.71122896787E+02 -0.25530790953E+02  0.97762713149E+02  0.00000000000E+00 0. -1.
         -4    1    5    5    0  503  0.11709366529E+03  0.33234263023E+03 -0.73869224657E+01  0.35244448775E+03  0.00000000000E+00 0.  1.
         -3    1    6    6    0  502 -0.33925928855E+03 -0.15793637323E+03 -0.52164999492E+01  0.37425656271E+03  0.00000000000E+00 0.  1.
<mgrwt>
<rscale>  0 0.16916088E+04</rscale>
<asrwt>0</asrwt>
<pdfrwt beam="1">  1        2 0.20978848E+00 0.16916088E+04</pdfrwt>
<pdfrwt beam="2">  1       -2 0.80710775E-01 0.16916088E+04</pdfrwt>
<totfact> 0.19592051E+01</totfact>
</mgrwt>
</event>
<event>
12    1  0.2019083E-007  0.1762110E+04  0.7818608E-02  0.8726713E-01
          2   -1    0    0  501    0  0.00000000000E+00  0.00000000000E+00  0.19784335334E+04  0.19784335334E+04  0.00000000000E+00 0. -1.
         -2   -1    0    0    0  501 -0.00000000000E+00 -0.00000000000E+00 -0.39235980253E+03  0.39235980253E+03  0.00000000000E+00 0.  1.
         23    2    1    2    0    0 -0.30318583536E+03 -0.55026743638E+03  0.39495851099E+03  0.74771813443E+03  0.91511096897E+02 0.  0.
        254    2    1    2    0    0  0.30318583536E+03  0.55026743638E+03  0.11911152199E+04  0.16230752015E+04  0.90603627983E+03 0.  0.
        -24    2    4    4    0    0  0.26116445114E+03 -0.19440098764E+03  0.50724768462E+03  0.60803487497E+03  0.80047367794E+02 0.  0.
         24    2    4    4    0    0  0.42021384224E+02  0.74466842401E+03  0.68386753523E+03  0.10150403265E+04  0.79593971123E+02 0.  0.
         13    1    3    3    0    0 -0.97952766923E+02 -0.14877077071E+03  0.67647057931E+02  0.19053506557E+03  0.00000000000E+00 0.  1.
        -13    1    3    3    0    0 -0.20523306844E+03 -0.40149666566E+03  0.32731145306E+03  0.55718306886E+03  0.00000000000E+00 0. -1.
          2    1    6    6  502    0 -0.13603689088E+02  0.12323481619E+03  0.85830632126E+02  0.15079382511E+03  0.00000000000E+00 0. -1.
          3    1    5    5  503    0  0.33541757053E+02  0.15822660441E+00  0.32259407241E+02  0.46537553195E+02  0.00000000000E+00 0. -1.
         -4    1    5    5    0  503  0.22762269408E+03 -0.19455921424E+03  0.47498827738E+03  0.56149732177E+03  0.00000000000E+00 0.  1.
         -3    1    6    6    0  502  0.55625073312E+02  0.62143360782E+03  0.59803690310E+03  0.86424650140E+03  0.00000000000E+00 0.  1.
<mgrwt>
<rscale>  0 0.17621099E+04</rscale>
<asrwt>0</asrwt>
<pdfrwt beam="1">  1        2 0.30437438E+00 0.17621099E+04</pdfrwt>
<pdfrwt beam="2">  1       -2 0.60363048E-01 0.17621099E+04</pdfrwt>
<totfact> 0.16630696E+01</totfact>
</mgrwt>
</event>
<event>
12    1  0.2019083E-007  0.1455634E+04  0.7818608E-02  0.8914504E-01
         -1   -1    0    0    0  501 -0.00000000000E+00  0.00000000000E+00  0.71698354038E+03  0.71698354038E+03  0.00000000000E+00 0.  1.
          1   -1    0    0  501    0  0.00000000000E+00 -0.00000000000E+00 -0.73881455639E+03  0.73881455639E+03  0.00000000000E+00 0. -1.
         23    2    1    2    0    0  0.20504066080E+03  0.88736811651E+02  0.37776406053E+03  0.44747336398E+03  0.87240080900E+02 0.  0.
        254    2    1    2    0    0 -0.20504066080E+03 -0.88736811651E+02 -0.39959507654E+03  0.10083247328E+04  0.89840227473E+03 0.  0.
        -24    2    4    4    0    0  0.24910808140E+03  0.88011840805E+02  0.11126815721E+03  0.29779266113E+03  0.80616039832E+02 0.  0.
         24    2    4    4    0    0 -0.45414874220E+03 -0.17674865246E+03 -0.51086323374E+03  0.71053207166E+03  0.79896277008E+02 0.  0.
         11    1    3    3    0    0  0.48022809639E+02  0.60177011429E+02  0.90184681966E+02  0.11857799042E+03  0.00000000000E+00 0. -1.
        -11    1    3    3    0    0  0.15701785116E+03  0.28559800222E+02  0.28757937856E+03  0.32889537356E+03  0.00000000000E+00 0.  1.
          2    1    6    6  502    0 -0.43045113122E+03 -0.18031328490E+03 -0.46511740190E+03  0.65888941001E+03  0.00000000000E+00 0. -1.
          1    1    5    5  503    0  0.22768866342E+03  0.94261889103E+02  0.11967132311E+03  0.27395009904E+03  0.00000000000E+00 0. -1.
         -2    1    5    5    0  503  0.21419417975E+02 -0.62500482981E+01 -0.84031659033E+01  0.23842562097E+02  0.00000000000E+00 0.  1.
         -1    1    6    6    0  502 -0.23697610981E+02  0.35646324455E+01 -0.45745831846E+02  0.51642661647E+02  0.00000000000E+00 0.  1.
<mgrwt>
<rscale>  0 0.14556344E+04</rscale>
<asrwt>0</asrwt>
<pdfrwt beam="1">  1        1 0.11366378E+00 0.14556344E+04</pdfrwt>
<pdfrwt beam="2">  1       -1 0.11030516E+00 0.14556344E+04</pdfrwt>
<totfact> 0.18462081E+01</totfact>
</mgrwt>
</event>
<event>
12    1  0.2019083E-007  0.3484124E+04  0.7818608E-02  0.8117563E-01
          1   -1    0    0  501    0  0.00000000000E+00  0.00000000000E+00  0.18610295967E+04  0.18610295967E+04  0.00000000000E+00 0. -1.
         -1   -1    0    0    0  501 -0.00000000000E+00 -0.00000000000E+00 -0.16306991880E+04  0.16306991880E+04  0.00000000000E+00 0.  1.
         23    2    1    2    0    0  0.94531633816E+03 -0.13215809011E+04  0.88492259452E+02  0.16298258348E+04  0.91117037498E+02 0.  0.
        254    2    1    2    0    0 -0.94531633816E+03  0.13215809011E+04  0.14183814918E+03  0.18619029499E+04  0.89797855043E+03 0.  0.
        -24    2    4    4    0    0 -0.10839062574E+04  0.12928436469E+04  0.87888012846E+02  0.16911474839E+04  0.77188335309E+02 0.  0.
         24    2    4    4    0    0  0.13858991926E+03  0.28737254154E+02  0.53950136337E+02  0.17075546605E+03  0.78827764631E+02 0.  0.
         11    1    3    3    0    0  0.83609072571E+03 -0.11155106262E+04  0.83048657762E+02  0.13965345460E+04  0.00000000000E+00 0. -1.
        -11    1    3    3    0    0  0.10922561245E+03 -0.20607027489E+03  0.54436016896E+01  0.23329128875E+03  0.00000000000E+00 0.  1.
          4    1    6    6  502    0  0.98544364732E+02  0.34106321517E+02  0.11704482809E+01  0.10428615890E+03  0.00000000000E+00 0. -1.
          3    1    5    5  503    0 -0.37531185240E+02  0.26938896742E+02  0.74729107739E+01  0.46798914716E+02  0.00000000000E+00 0. -1.
         -4    1    5    5    0  503 -0.10463750722E+04  0.12659047502E+04  0.80415102072E+02  0.16443485691E+04  0.00000000000E+00 0.  1.
         -3    1    6    6    0  502  0.40045554531E+02 -0.53690673633E+01  0.52779688056E+02  0.66469307153E+02  0.00000000000E+00 0.  1.
<mgrwt>
<rscale>  0 0.34841237E+04</rscale>
<asrwt>0</asrwt>
<pdfrwt beam="1">  1        1 0.28631224E+00 0.34841237E+04</pdfrwt>
<pdfrwt beam="2">  1       -1 0.25087680E+00 0.34841237E+04</pdfrwt>
<totfact> 0.20815048E-01</totfact>
</mgrwt>
</event>
<event>
12    1  0.2019083E-007  0.4276975E+04  0.7818608E-02  0.7950889E-01
         -1   -1    0    0    0  501 -0.00000000000E+00  0.00000000000E+00  0.16002280089E+04  0.16002280089E+04  0.00000000000E+00 0.  1.
          1   -1    0    0  501    0  0.00000000000E+00 -0.00000000000E+00 -0.28577976144E+04  0.28577976144E+04  0.00000000000E+00 0. -1.
         23    2    1    2    0    0  0.54325748982E+03 -0.18240286803E+04 -0.13737907152E+04  0.23490209747E+04  0.91593031020E+02 0.  0.
        254    2    1    2    0    0 -0.54325748982E+03  0.18240286803E+04  0.11622110966E+03  0.21090046486E+04  0.90121248034E+03 0.  0.
        -24    2    4    4    0    0 -0.31656324553E+03  0.78501007383E+02  0.86786017647E+02  0.34671227673E+03  0.79390763905E+02 0.  0.
         24    2    4    4    0    0 -0.22669424429E+03  0.17455276729E+04  0.29435092012E+02  0.17622923719E+04  0.80937272155E+02 0.  0.
         11    1    3    3    0    0  0.51147113357E+03 -0.17728885133E+04 -0.13292991621E+04  0.22741531750E+04  0.00000000000E+00 0.  1.
        -11    1    3    3    0    0  0.31786356256E+02 -0.51140167062E+02 -0.44491553115E+02  0.74867799685E+02  0.00000000000E+00 0. -1.
          4    1    6    6  502    0 -0.68227229443E+02  0.78951618478E+03 -0.82935831824E+01  0.79250207848E+03  0.00000000000E+00 0. -1.
          3    1    5    5  503    0 -0.13101598914E+02 -0.24437641251E+01  0.22466482130E+02  0.26122149539E+02  0.00000000000E+00 0. -1.
         -4    1    5    5    0  503 -0.30346164662E+03  0.80944771508E+02  0.64319535517E+02  0.32059012719E+03  0.00000000000E+00 0.  1.
         -3    1    6    6    0  502 -0.15846701485E+03  0.95601148816E+03  0.37728675194E+02  0.96979029343E+03  0.00000000000E+00 0.  1.
<mgrwt>
<rscale>  0 0.42769745E+04</rscale>
<asrwt>0</asrwt>
<pdfrwt beam="1">  1        1 0.43966116E+00 0.42769745E+04</pdfrwt>
<pdfrwt beam="2">  1       -1 0.24618893E+00 0.42769745E+04</pdfrwt>
<totfact> 0.42800618E-02</totfact>
</mgrwt>
</event>
<event>
12    1  0.2019083E-007  0.1551078E+04  0.7818608E-02  0.8851180E-01
         -1   -1    0    0    0  501 -0.00000000000E+00  0.00000000000E+00  0.49466512618E+03  0.49466512618E+03  0.00000000000E+00 0.  1.
          1   -1    0    0  501    0  0.00000000000E+00 -0.00000000000E+00 -0.12158944222E+04  0.12158944222E+04  0.00000000000E+00 0. -1.
         23    2    1    2    0    0  0.29519987527E+03  0.41401445550E+03 -0.25812390725E+03  0.57748763849E+03  0.91176122918E+02 0.  0.
        254    2    1    2    0    0 -0.29519987527E+03 -0.41401445550E+03 -0.46310538873E+03  0.11330719098E+04  0.90046344517E+03 0.  0.
        -24    2    4    4    0    0  0.92119558715E+02  0.56918793855E+02 -0.49952195665E+03  0.51726247756E+03  0.79451389703E+02 0.  0.
         24    2    4    4    0    0 -0.38731943398E+03 -0.47093324936E+03  0.36416567913E+02  0.61580943229E+03  0.78106473423E+02 0.  0.
         11    1    3    3    0    0  0.20955872336E+03  0.21920354143E+03 -0.16447571542E+03  0.34498885790E+03  0.00000000000E+00 0.  1.
        -11    1    3    3    0    0  0.85641151902E+02  0.19481091408E+03 -0.93648191828E+02  0.23249878059E+03  0.00000000000E+00 0. -1.
          2    1    6    6  502    0 -0.10638079910E+03 -0.10669681610E+03  0.39669959446E+02  0.15580369272E+03  0.00000000000E+00 0. -1.
          3    1    5    5  503    0  0.35379247555E+01 -0.11934646508E+02 -0.14212885803E+03  0.14267293010E+03  0.00000000000E+00 0. -1.
         -4    1    5    5    0  503  0.88581633960E+02  0.68853440364E+02 -0.35739309861E+03  0.37458954745E+03  0.00000000000E+00 0.  1.
         -1    1    6    6    0  502 -0.28093863488E+03 -0.36423643326E+03 -0.32533915336E+01  0.46000573957E+03  0.00000000000E+00 0.  1.
<mgrwt>
<rscale>  0 0.15510778E+04</rscale>
<asrwt>0</asrwt>
<pdfrwt beam="1">  1        1 0.18706068E+00 0.15510778E+04</pdfrwt>
<pdfrwt beam="2">  1       -1 0.76102328E-01 0.15510778E+04</pdfrwt>
<totfact> 0.17379917E+01</totfact>
</mgrwt>
</event>
<event>
12    1  0.2019083E-007  0.2430678E+04  0.7818608E-02  0.8428107E-01
          2   -1    0    0  501    0  0.00000000000E+00  0.00000000000E+00  0.19862870504E+04  0.19862870504E+04  0.00000000000E+00 0. -1.
         -2   -1    0    0    0  501 -0.00000000000E+00 -0.00000000000E+00 -0.74362314168E+03  0.74362314168E+03  0.00000000000E+00 0.  1.
         23    2    1    2    0    0  0.18699114461E+03 -0.69068963896E+03 -0.32313698853E+03  0.79018631225E+03  0.89213391275E+02 0.  0.
        254    2    1    2    0    0 -0.18699114461E+03  0.69068963896E+03  0.15658008973E+04  0.19397238798E+04  0.89374404311E+03 0.  0.
        -24    2    4    4    0    0 -0.28066086704E+03  0.68759965463E+03  0.57866414769E+03  0.94506679988E+03  0.82068587710E+02 0.  0.
         24    2    4    4    0    0  0.93669722424E+02  0.30899843254E+01  0.98713674956E+03  0.99465707994E+03  0.78231575649E+02 0.  0.
         13    1    3    3    0    0  0.98575453777E+02 -0.23566035059E+03 -0.86174990815E+02  0.26959052277E+03  0.00000000000E+00 0. -1.
        -13    1    3    3    0    0  0.88415690836E+02 -0.45502928837E+03 -0.23696199772E+03  0.52059578948E+03  0.00000000000E+00 0.  1.
          2    1    6    6  502    0  0.29209692972E+02 -0.16314729503E+02  0.65026342062E+03  0.65112356183E+03  0.00000000000E+00 0. -1.
          1    1    5    5  503    0 -0.26554756669E+03  0.57323114553E+03  0.49427447794E+03  0.80213260495E+03  0.00000000000E+00 0. -1.
         -2    1    5    5    0  503 -0.15113300349E+02  0.11436850911E+03  0.84389669751E+02  0.14293419494E+03  0.00000000000E+00 0.  1.
         -1    1    6    6    0  502  0.64460029452E+02  0.19404713829E+02  0.33687332894E+03  0.34353351811E+03  0.00000000000E+00 0.  1.
<mgrwt>
<rscale>  0 0.24306781E+04</rscale>
<asrwt>0</asrwt>
<pdfrwt beam="1">  1        2 0.30558262E+00 0.24306781E+04</pdfrwt>
<pdfrwt beam="2">  1       -2 0.11440356E+00 0.24306781E+04</pdfrwt>
<totfact> 0.36422517E+00</totfact>
</mgrwt>
</event>
<event>
12    1  0.2019083E-007  0.2295969E+04  0.7818608E-02  0.8479512E-01
         -2   -1    0    0    0  501 -0.00000000000E+00  0.00000000000E+00  0.10962665537E+04  0.10962665537E+04  0.00000000000E+00 0.  1.
          2   -1    0    0  501    0  0.00000000000E+00 -0.00000000000E+00 -0.12021421044E+04  0.12021421044E+04  0.00000000000E+00 0. -1.
         23    2    1    2    0    0 -0.57323083442E+03  0.58664329862E+03 -0.56074377510E+03  0.99775605669E+03  0.91321508933E+02 0.  0.
        254    2    1    2    0    0  0.57323083442E+03 -0.58664329862E+03  0.45486822447E+03  0.13006526014E+04  0.90113713641E+03 0.  0.
        -24    2    4    4    0    0  0.41899379471E+03 -0.34022768145E+03  0.71696353686E+03  0.90090916044E+03  0.79309059636E+02 0.  0.
         24    2    4    4    0    0  0.15423703971E+03 -0.24641561718E+03 -0.26209531240E+03  0.39974344099E+03  0.81185867162E+02 0.  0.
         13    1    3    3    0    0 -0.15196865093E+03  0.12743209713E+03 -0.17761608666E+03  0.26623464179E+03  0.00000000000E+00 0. -1.
        -13    1    3    3    0    0 -0.42126218349E+03  0.45921120149E+03 -0.38312768844E+03  0.73152141490E+03  0.00000000000E+00 0.  1.
          2    1    6    6  502    0  0.16361141717E+03 -0.22353049614E+03 -0.24320560718E+03  0.36862385422E+03  0.00000000000E+00 0. -1.
          1    1    5    5  503    0  0.39833816646E+03 -0.29981024441E+03  0.63633105864E+03  0.80837905323E+03  0.00000000000E+00 0. -1.
         -2    1    5    5    0  503  0.20655628246E+02 -0.40417437038E+02  0.80632478226E+02  0.92530107208E+02  0.00000000000E+00 0.  1.
         -1    1    6    6    0  502 -0.93743774632E+01 -0.22885121038E+02 -0.18889705210E+02  0.31119586769E+02  0.00000000000E+00 0.  1.
<mgrwt>
<rscale>  0 0.22959688E+04</rscale>
<asrwt>0</asrwt>
<pdfrwt beam="1">  1        2 0.18494494E+00 0.22959688E+04</pdfrwt>
<pdfrwt beam="2">  1       -2 0.16865639E+00 0.22959688E+04</pdfrwt>
<totfact> 0.37319665E+00</totfact>
</mgrwt>
</event>
<event>
12    1  0.2019083E-007  0.3036098E+04  0.7818608E-02  0.8233497E-01
         -2   -1    0    0    0  501 -0.00000000000E+00  0.00000000000E+00  0.12987832501E+04  0.12987832501E+04  0.00000000000E+00 0.  1.
          2   -1    0    0  501    0  0.00000000000E+00 -0.00000000000E+00 -0.17743325751E+04  0.17743325751E+04  0.00000000000E+00 0. -1.
         23    2    1    2    0    0  0.13382158717E+04 -0.34430239632E+03 -0.24027281762E+03  0.14054877075E+04  0.91097804027E+02 0.  0.
        254    2    1    2    0    0 -0.13382158717E+04  0.34430239632E+03 -0.23527650735E+03  0.16676281176E+04  0.90347254770E+03 0.  0.
        -24    2    4    4    0    0 -0.10606568010E+04  0.38483337445E+03 -0.53317741387E+03  0.12502379991E+04  0.75679086908E+02 0.  0.
         24    2    4    4    0    0 -0.27755907067E+03 -0.40530978133E+02  0.29790090652E+03  0.41739011848E+03  0.82387881419E+02 0.  0.
         11    1    3    3    0    0  0.25081387236E+03 -0.50242686728E+02 -0.77825428008E+02  0.26737375223E+03  0.00000000000E+00 0. -1.
        -11    1    3    3    0    0  0.10874019993E+04 -0.29405970959E+03 -0.16244738961E+03  0.11381139553E+04  0.00000000000E+00 0.  1.
          4    1    6    6  502    0 -0.25673501370E+03 -0.14197665412E+02  0.24792745974E+03  0.35718687862E+03  0.00000000000E+00 0. -1.
          3    1    5    5  503    0 -0.80987690377E+03  0.28607371613E+03 -0.44001403742E+03  0.96506534673E+03  0.00000000000E+00 0. -1.
         -4    1    5    5    0  503 -0.25077989721E+03  0.98759658323E+02 -0.93163376454E+02  0.28517265239E+03  0.00000000000E+00 0.  1.
         -3    1    6    6    0  502 -0.20824056966E+02 -0.26333312721E+02  0.49973446782E+02  0.60203239868E+02  0.00000000000E+00 0.  1.
<mgrwt>
<rscale>  0 0.30360984E+04</rscale>
<asrwt>0</asrwt>
<pdfrwt beam="1">  1        2 0.27297424E+00 0.30360984E+04</pdfrwt>
<pdfrwt beam="2">  1       -2 0.19981281E+00 0.30360984E+04</pdfrwt>
<totfact> 0.10151491E+00</totfact>
</mgrwt>
</event>
<event>
12    1  0.2019083E-007  0.5652672E+04  0.7818608E-02  0.7735024E-01
         -2   -1    0    0    0  501 -0.00000000000E+00  0.00000000000E+00  0.34930297076E+04  0.34930297076E+04  0.00000000000E+00 0.  1.
          2   -1    0    0  501    0  0.00000000000E+00 -0.00000000000E+00 -0.22868900742E+04  0.22868900742E+04  0.00000000000E+00 0. -1.
         23    2    1    2    0    0  0.13410723300E+04  0.16976910697E+04 -0.11543340249E+04  0.24538887035E+04  0.91938923419E+02 0.  0.
        254    2    1    2    0    0 -0.13410723300E+04 -0.16976910697E+04  0.23604736583E+04  0.33260310783E+04  0.90000937731E+03 0.  0.
        -24    2    4    4    0    0 -0.23058409596E+03  0.68728190175E+02  0.29641900193E+03  0.38996176588E+03  0.79456684451E+02 0.  0.
         24    2    4    4    0    0 -0.11104882341E+04 -0.17664192599E+04  0.20640546564E+04  0.29360693124E+04  0.82220816907E+02 0.  0.
         13    1    3    3    0    0  0.92314345310E+03  0.12327673112E+04 -0.80692735700E+03  0.17386894024E+04  0.00000000000E+00 0. -1.
        -13    1    3    3    0    0  0.41792887691E+03  0.46492375849E+03 -0.34740666795E+03  0.71519930110E+03  0.00000000000E+00 0.  1.
          4    1    6    6  502    0 -0.20810588311E+03 -0.31719875180E+03  0.41963523686E+03  0.56570030824E+03  0.00000000000E+00 0. -1.
          3    1    5    5  503    0 -0.11704800473E+03  0.15715544438E+02  0.89980146450E+02  0.14847100897E+03  0.00000000000E+00 0. -1.
         -4    1    5    5    0  503 -0.11353609123E+03  0.53012645737E+02  0.20643885548E+03  0.24149075691E+03  0.00000000000E+00 0.  1.
         -3    1    6    6    0  502 -0.90238235095E+03 -0.14492205081E+04  0.16444194195E+04  0.23703690041E+04  0.00000000000E+00 0.  1.
<mgrwt>
<rscale>  0 0.56526719E+04</rscale>
<asrwt>0</asrwt>
<pdfrwt beam="1">  1        2 0.35182924E+00 0.56526719E+04</pdfrwt>
<pdfrwt beam="2">  1       -2 0.53738919E+00 0.56526719E+04</pdfrwt>
<totfact> 0.32222031E-03</totfact>
</mgrwt>
</event>
<event>
12    1  0.2019083E-007  0.2114046E+04  0.7818608E-02  0.8555081E-01
         -2   -1    0    0    0  501 -0.00000000000E+00  0.00000000000E+00  0.84790829082E+03  0.84790829082E+03  0.00000000000E+00 0. -1.
          2   -1    0    0  501    0  0.00000000000E+00 -0.00000000000E+00 -0.13177105462E+04  0.13177105462E+04  0.00000000000E+00 0.  1.
         23    2    1    2    0    0  0.53554534983E+03 -0.46703414398E+03  0.30767552682E+03  0.77949032721E+03  0.89505458159E+02 0.  0.
        254    2    1    2    0    0 -0.53554534983E+03  0.46703414398E+03 -0.77747778225E+03  0.13861285098E+04  0.90108314298E+03 0.  0.
        -24    2    4    4    0    0 -0.74421048267E+03  0.31226672239E+03 -0.35919274477E+03  0.88705169848E+03  0.80508008564E+02 0.  0.
         24    2    4    4    0    0  0.20866513284E+03  0.15476742159E+03 -0.41828503748E+03  0.49907681137E+03  0.81370747951E+02 0.  0.
         13    1    3    3    0    0  0.24515854544E+03 -0.24020765934E+03  0.19203783313E+03  0.39329500551E+03  0.00000000000E+00 0. -1.
        -13    1    3    3    0    0  0.29038680439E+03 -0.22682648464E+03  0.11563769369E+03  0.38619532170E+03  0.00000000000E+00 0.  1.
          2    1    6    6  502    0  0.10827770450E+03  0.12794262609E+03 -0.24030640035E+03  0.29298556775E+03  0.00000000000E+00 0. -1.
          1    1    5    5  503    0 -0.55013047231E+03  0.19757865037E+03 -0.27976138678E+03  0.64803340437E+03  0.00000000000E+00 0. -1.
         -2    1    5    5    0  503 -0.19408001037E+03  0.11468807202E+03 -0.79431357990E+02  0.23901829411E+03  0.00000000000E+00 0.  1.
         -1    1    6    6    0  502  0.10038742834E+03  0.26824795502E+02 -0.17797863713E+03  0.20609124362E+03  0.00000000000E+00 0.  1.
<mgrwt>
<rscale>  0 0.21140461E+04</rscale>
<asrwt>0</asrwt>
<pdfrwt beam="1">  1        2 0.20272470E+00 0.21140461E+04</pdfrwt>
<pdfrwt beam="2">  1       -2 0.13044743E+00 0.21140461E+04</pdfrwt>
<totfact> 0.63986993E+00</totfact>
</mgrwt>
</event>
<event>
12    1  0.2019083E-007  0.2003602E+04  0.7818608E-02  0.8604939E-01
         -1   -1    0    0    0  501 -0.00000000000E+00  0.00000000000E+00  0.86780017810E+03  0.86780017810E+03  0.00000000000E+00 0.  1.
          1   -1    0    0  501    0  0.00000000000E+00 -0.00000000000E+00 -0.11564932281E+04  0.11564932281E+04  0.00000000000E+00 0. -1.
         23    2    1    2    0    0 -0.37666335270E+03  0.53635240565E+03 -0.57255341269E+03  0.87503829880E+03  0.91243792444E+02 0.  0.
        254    2    1    2    0    0  0.37666335270E+03 -0.53635240565E+03  0.28386036270E+03  0.11492551074E+04  0.90036737616E+03 0.  0.
        -24    2    4    4    0    0  0.63311642970E+03 -0.52390403735E+03  0.30172900087E+03  0.87933900020E+03  0.82974896236E+02 0.  0.
         24    2    4    4    0    0 -0.25645307700E+03 -0.12448368304E+02 -0.17868638178E+02  0.26991610720E+03  0.81315890949E+02 0.  0.
         11    1    3    3    0    0 -0.10237972555E+03  0.13923392364E+03 -0.10044009188E+03  0.19988973398E+03  0.00000000000E+00 0.  1.
        -11    1    3    3    0    0 -0.27428362716E+03  0.39711848201E+03 -0.47211332082E+03  0.67514856482E+03  0.00000000000E+00 0. -1.
          2    1    6    6  502    0 -0.32396679880E+02  0.12121768306E+02  0.22033803997E+02  0.41011835520E+02  0.00000000000E+00 0. -1.
          3    1    5    5  503    0  0.34777161160E+02 -0.40066778954E+02  0.68047525769E+00  0.53059030906E+02  0.00000000000E+00 0. -1.
         -4    1    5    5    0  503  0.59833926854E+03 -0.48383725839E+03  0.30104852562E+03  0.82627996930E+03  0.00000000000E+00 0.  1.
         -1    1    6    6    0  502 -0.22405639712E+03 -0.24570136610E+02 -0.39902442174E+02  0.22890427168E+03  0.00000000000E+00 0.  1.
<mgrwt>
<rscale>  0 0.20036018E+04</rscale>
<asrwt>0</asrwt>
<pdfrwt beam="1">  1        1 0.17792203E+00 0.20036018E+04</pdfrwt>
<pdfrwt beam="2">  1       -1 0.13350772E+00 0.20036018E+04</pdfrwt>
<totfact> 0.50567532E+00</totfact>
</mgrwt>
</event>
<event>
12    1  0.2019083E-007  0.1631002E+04  0.7818608E-02  0.8801725E-01
          1   -1    0    0  501    0  0.00000000000E+00  0.00000000000E+00  0.18697990790E+04  0.18697990790E+04  0.00000000000E+00 0. -1.
         -1   -1    0    0    0  501 -0.00000000000E+00 -0.00000000000E+00 -0.35567558904E+03  0.35567558904E+03  0.00000000000E+00 0.  1.
         23    2    1    2    0    0 -0.16868500919E+02 -0.55955256930E+03  0.45387211703E+03  0.72537445205E+03  0.82368519071E+02 0.  0.
        254    2    1    2    0    0  0.16868500919E+02  0.55955256930E+03  0.10602513729E+04  0.15001002160E+04  0.90154537328E+03 0.  0.
        -24    2    4    4    0    0  0.21552743849E+03  0.43142895684E+03  0.11380128954E+04  0.12385395955E+04  0.79523316412E+02 0.  0.
         24    2    4    4    0    0 -0.19865893757E+03  0.12812361245E+03 -0.77761522480E+02  0.26156062053E+03  0.80536142754E+02 0.  0.
         13    1    3    3    0    0 -0.18022812022E+02 -0.11934203621E+03  0.13931914723E+03  0.18432896718E+03  0.00000000000E+00 0. -1.
        -13    1    3    3    0    0  0.11543111023E+01 -0.44021053309E+03  0.31455296980E+03  0.54104548486E+03  0.00000000000E+00 0.  1.
          2    1    6    6  502    0 -0.20422014479E+03  0.12369309750E+03 -0.65824712398E+02  0.24766659579E+03  0.00000000000E+00 0. -1.
          1    1    5    5  503    0  0.20289870998E+03  0.35726994084E+03  0.10047482775E+04  0.10855085437E+04  0.00000000000E+00 0. -1.
         -2    1    5    5    0  503  0.12628728513E+02  0.74159016008E+02  0.13326461788E+03  0.15303105180E+03  0.00000000000E+00 0.  1.
         -1    1    6    6    0  502  0.55612072234E+01  0.44305149535E+01 -0.11936810082E+02  0.13894024740E+02  0.00000000000E+00 0.  1.
<mgrwt>
<rscale>  0 0.16310020E+04</rscale>
<asrwt>0</asrwt>
<pdfrwt beam="1">  1        1 0.28766139E+00 0.16310020E+04</pdfrwt>
<pdfrwt beam="2">  1       -1 0.54719322E-01 0.16310020E+04</pdfrwt>
<totfact> 0.11798439E+01</totfact>
</mgrwt>
</event>
<event>
12    1  0.2019083E-007  0.1413161E+04  0.7818608E-02  0.8944347E-01
          2   -1    0    0  501    0  0.00000000000E+00  0.00000000000E+00  0.16672042632E+04  0.16672042632E+04  0.00000000000E+00 0. -1.
         -2   -1    0    0    0  501 -0.00000000000E+00 -0.00000000000E+00 -0.29945710208E+03  0.29945710208E+03  0.00000000000E+00 0.  1.
         23    2    1    2    0    0  0.31407573712E+03  0.21031824637E+03  0.63013312001E+03  0.74048310181E+03  0.91488478638E+02 0.  0.
        254    2    1    2    0    0 -0.31407573712E+03 -0.21031824637E+03  0.73761404108E+03  0.12261782634E+04  0.90363782941E+03 0.  0.
        -24    2    4    4    0    0 -0.16925400206E+03  0.31371727320E+03  0.51892377969E+03  0.63467193798E+03  0.80381185721E+02 0.  0.
         24    2    4    4    0    0 -0.14482173506E+03 -0.52403551957E+03  0.21869026139E+03  0.59150632546E+03  0.80422272479E+02 0.  0.
         13    1    3    3    0    0  0.20650764433E+03  0.18164447066E+03  0.48524209090E+03  0.55776339757E+03  0.00000000000E+00 0. -1.
        -13    1    3    3    0    0  0.10756809279E+03  0.28673775713E+02  0.14489102911E+03  0.18271970424E+03  0.00000000000E+00 0.  1.
          2    1    6    6  502    0 -0.44163529141E+02 -0.29583892384E+03  0.13755715732E+03  0.32923100961E+03  0.00000000000E+00 0. -1.
          3    1    5    5  503    0 -0.10740021153E+03  0.17008355854E+03  0.22554364766E+03  0.30221376428E+03  0.00000000000E+00 0. -1.
         -4    1    5    5    0  503 -0.61853790533E+02  0.14363371466E+03  0.29338013203E+03  0.33245817370E+03  0.00000000000E+00 0.  1.
         -1    1    6    6    0  502 -0.10065820592E+03 -0.22819659574E+03  0.81133104074E+02  0.26227531584E+03  0.00000000000E+00 0.  1.
<mgrwt>
<rscale>  0 0.14131612E+04</rscale>
<asrwt>0</asrwt>
<pdfrwt beam="1">  1        2 0.25649296E+00 0.14131612E+04</pdfrwt>
<pdfrwt beam="2">  1       -2 0.46070324E-01 0.14131612E+04</pdfrwt>
<totfact> 0.44424411E+01</totfact>
</mgrwt>
</event>
<event>
12    1  0.2019083E-007  0.1692005E+04  0.7818608E-02  0.8765937E-01
          1   -1    0    0  501    0  0.00000000000E+00  0.00000000000E+00  0.62339428850E+03  0.62339428850E+03  0.00000000000E+00 0. -1.
         -1   -1    0    0    0  501 -0.00000000000E+00 -0.00000000000E+00 -0.11481018808E+04  0.11481018808E+04  0.00000000000E+00 0.  1.
         23    2    1    2    0    0 -0.50397891742E+03  0.15208107678E+03 -0.49713742626E+03  0.73002538192E+03  0.93102279952E+02 0.  0.
        254    2    1    2    0    0  0.50397891742E+03 -0.15208107678E+03 -0.27570166085E+02  0.10414707874E+04  0.89820815176E+03 0.  0.
        -24    2    4    4    0    0  0.50206425052E+03  0.26490508137E+03 -0.16263209305E+03  0.59580485741E+03  0.79315929273E+02 0.  0.
         24    2    4    4    0    0  0.19146669068E+01 -0.41698615815E+03  0.13506192696E+03  0.44566593002E+03  0.80593269106E+02 0.  0.
         11    1    3    3    0    0 -0.39315412177E+03  0.15182162292E+03 -0.42001678416E+03  0.59500761981E+03  0.00000000000E+00 0.  1.
        -11    1    3    3    0    0 -0.11082479565E+03  0.25945386563E+00 -0.77120642099E+02  0.13501776211E+03  0.00000000000E+00 0. -1.
          4    1    6    6  502    0 -0.21468243080E+02 -0.18256654440E+03  0.24571561788E+02  0.18545940322E+03  0.00000000000E+00 0. -1.
          3    1    5    5  503    0  0.14128616310E+03  0.75429794624E+02 -0.93842357183E+01  0.16043533801E+03  0.00000000000E+00 0. -1.
         -4    1    5    5    0  503  0.36077808741E+03  0.18947528675E+03 -0.15324785733E+03  0.43536951940E+03  0.00000000000E+00 0.  1.
         -3    1    6    6    0  502  0.23382909987E+02 -0.23441961376E+03  0.11049036517E+03  0.26020652680E+03  0.00000000000E+00 0.  1.
<mgrwt>
<rscale>  0 0.16920049E+04</rscale>
<asrwt>0</asrwt>
<pdfrwt beam="1">  1        1 0.95906814E-01 0.16920049E+04</pdfrwt>
<pdfrwt beam="2">  1       -1 0.17663106E+00 0.16920049E+04</pdfrwt>
<totfact> 0.67884033E+00</totfact>
</mgrwt>
</event>
<event>
12    1  0.2019083E-007  0.1626693E+04  0.7818608E-02  0.8804315E-01
         -1   -1    0    0    0  501 -0.00000000000E+00  0.00000000000E+00  0.69284896695E+03  0.69284896695E+03  0.00000000000E+00 0.  1.
          1   -1    0    0  501    0  0.00000000000E+00 -0.00000000000E+00 -0.95480093208E+03  0.95480093208E+03  0.00000000000E+00 0. -1.
         23    2    1    2    0    0 -0.80287554964E+02  0.43327941246E+03  0.25852983771E+03  0.51892072024E+03  0.90905974325E+02 0.  0.
        254    2    1    2    0    0  0.80287554964E+02 -0.43327941246E+03 -0.52048180284E+03  0.11287291788E+04  0.89941709525E+03 0.  0.
        -24    2    4    4    0    0 -0.28103601678E+03 -0.13643603919E+03 -0.56654157442E+03  0.65192965389E+03  0.80292481308E+02 0.  0.
         24    2    4    4    0    0  0.36132357175E+03 -0.29684337326E+03  0.46059771579E+02  0.47679952490E+03  0.80904713330E+02 0.  0.
         11    1    3    3    0    0 -0.63674076542E+02  0.28173873633E+03  0.21592387947E+03  0.36063031666E+03  0.00000000000E+00 0.  1.
        -11    1    3    3    0    0 -0.16613478422E+02  0.15154067613E+03  0.42605958236E+02  0.15829040358E+03  0.00000000000E+00 0. -1.
          4    1    6    6  502    0  0.26501247975E+03 -0.17947330171E+03  0.75081640154E+01  0.32015410816E+03  0.00000000000E+00 0. -1.
          1    1    5    5  503    0 -0.14964377891E+03 -0.70183376415E+02 -0.21780783463E+03  0.27342132272E+03  0.00000000000E+00 0. -1.
         -2    1    5    5    0  503 -0.13139223788E+03 -0.66252662778E+02 -0.34873373978E+03  0.37850833116E+03  0.00000000000E+00 0.  1.
         -3    1    6    6    0  502  0.96311091999E+02 -0.11737007156E+03  0.38551607564E+02  0.15664541674E+03  0.00000000000E+00 0.  1.
<mgrwt>
<rscale>  0 0.16266934E+04</rscale>
<asrwt>0</asrwt>
<pdfrwt beam="1">  1        1 0.14689245E+00 0.16266934E+04</pdfrwt>
<pdfrwt beam="2">  1       -1 0.10659215E+00 0.16266934E+04</pdfrwt>
<totfact> 0.12931549E+01</totfact>
</mgrwt>
</event>
<event>
12    1  0.2019083E-007  0.2964111E+04  0.7818608E-02  0.8254054E-01
          1   -1    0    0  501    0  0.00000000000E+00  0.00000000000E+00  0.13762629559E+04  0.13762629559E+04  0.00000000000E+00 0. -1.
         -1   -1    0    0    0  501 -0.00000000000E+00 -0.00000000000E+00 -0.15959805027E+04  0.15959805027E+04  0.00000000000E+00 0.  1.
         23    2    1    2    0    0 -0.19705385553E+03  0.11889238430E+04 -0.69652769854E+03  0.13949069466E+04  0.90798834407E+02 0.  0.
        254    2    1    2    0    0  0.19705385553E+03 -0.11889238430E+04  0.47681015177E+03  0.15773365121E+04  0.89903972378E+03 0.  0.
        -24    2    4    4    0    0 -0.25869191605E+03 -0.79099829116E+02  0.19112775670E+03  0.34131317638E+03  0.82380668787E+02 0.  0.
         24    2    4    4    0    0  0.45574577158E+03 -0.11098240139E+04  0.28568239507E+03  0.12360233357E+04  0.82010397596E+02 0.  0.
         11    1    3    3    0    0 -0.10069632855E+03  0.51931678370E+03 -0.25659329907E+03  0.58793689589E+03  0.00000000000E+00 0.  1.
        -11    1    3    3    0    0 -0.96357526985E+02  0.66960705933E+03 -0.43993439947E+03  0.80697005072E+03  0.00000000000E+00 0. -1.
          2    1    6    6  502    0  0.49284477566E+02 -0.20085844609E+03  0.52615207672E+02  0.21340439352E+03  0.00000000000E+00 0. -1.
          3    1    5    5  503    0 -0.11897789634E+03 -0.27378432426E+02  0.13523923321E+03  0.18219486430E+03  0.00000000000E+00 0. -1.
         -4    1    5    5    0  503 -0.13971401971E+03 -0.51721396690E+02  0.55888523498E+02  0.15911831207E+03  0.00000000000E+00 0.  1.
         -1    1    6    6    0  502  0.40646129402E+03 -0.90896556783E+03  0.23306718739E+03  0.10226189422E+04  0.00000000000E+00 0.  1.
<mgrwt>
<rscale>  0 0.29641112E+04</rscale>
<asrwt>0</asrwt>
<pdfrwt beam="1">  1        1 0.21173276E+00 0.29641112E+04</pdfrwt>
<pdfrwt beam="2">  1       -1 0.24553546E+00 0.29641112E+04</pdfrwt>
<totfact> 0.50827362E-01</totfact>
</mgrwt>
</event>
<event>
12    1  0.2019083E-007  0.1529753E+04  0.7818608E-02  0.8864905E-01
          2   -1    0    0  501    0  0.00000000000E+00  0.00000000000E+00  0.46014614552E+03  0.46014614552E+03  0.00000000000E+00 0.  1.
         -2   -1    0    0    0  501 -0.00000000000E+00 -0.00000000000E+00 -0.12714142027E+04  0.12714142027E+04  0.00000000000E+00 0. -1.
         23    2    1    2    0    0 -0.37229602019E+03  0.32562141332E+03 -0.31740885725E+03  0.59245307902E+03  0.74957566124E+02 0.  0.
        254    2    1    2    0    0  0.37229602019E+03 -0.32562141332E+03 -0.49385919991E+03  0.11391072692E+04  0.89946363457E+03 0.  0.
        -24    2    4    4    0    0 -0.10238327030E+03 -0.19758653642E+02  0.20285704227E+03  0.23866150339E+03  0.70253791141E+02 0.  0.
         24    2    4    4    0    0  0.47467929049E+03 -0.30586275968E+03 -0.69671624219E+03  0.90044576579E+03  0.80725450947E+02 0.  0.
         13    1    3    3    0    0 -0.26234920293E+03  0.19241511188E+03 -0.23325213032E+03  0.40032141568E+03  0.00000000000E+00 0. -1.
        -13    1    3    3    0    0 -0.10994681726E+03  0.13320630144E+03 -0.84156726931E+02  0.19213166334E+03  0.00000000000E+00 0.  1.
          4    1    6    6  502    0  0.48704791949E+02 -0.96609962841E+01 -0.41704464785E+02  0.64844074448E+02  0.00000000000E+00 0. -1.
          3    1    5    5  503    0  0.10734898374E+02 -0.19478541078E+00  0.13865196206E+02  0.17536238202E+02  0.00000000000E+00 0. -1.
         -4    1    5    5    0  503 -0.11311816868E+03 -0.19563868232E+02  0.18899184607E+03  0.22112526519E+03  0.00000000000E+00 0.  1.
         -3    1    6    6    0  502  0.42597449855E+03 -0.29620176339E+03 -0.65501177740E+03  0.83560169135E+03  0.00000000000E+00 0.  1.
<mgrwt>
<rscale>  0 0.15297534E+04</rscale>
<asrwt>0</asrwt>
<pdfrwt beam="1">  1        2 0.70791716E-01 0.15297534E+04</pdfrwt>
<pdfrwt beam="2">  1       -2 0.19560218E+00 0.15297534E+04</pdfrwt>
<totfact> 0.92835629E+00</totfact>
</mgrwt>
</event>
<event>
12    1  0.2019083E-007  0.2077271E+04  0.7818608E-02  0.8571322E-01
         -2   -1    0    0    0  501 -0.00000000000E+00  0.00000000000E+00  0.31800017859E+03  0.31800017859E+03  0.00000000000E+00 0. -1.
          2   -1    0    0  501    0  0.00000000000E+00 -0.00000000000E+00 -0.33923374375E+04  0.33923374375E+04  0.00000000000E+00 0.  1.
         23    2    1    2    0    0  0.17758635397E+03 -0.54333724473E+03 -0.15615923549E+03  0.59947640069E+03  0.90741244949E+02 0.  0.
        254    2    1    2    0    0 -0.17758635397E+03  0.54333724473E+03 -0.29181780234E+04  0.31108612153E+04  0.91375174441E+03 0.  0.
        -24    2    4    4    0    0 -0.20984165281E+02 -0.12535055105E+03 -0.46427002184E+02  0.15707432459E+03  0.79773310529E+02 0.  0.
         24    2    4    4    0    0 -0.15660218869E+03  0.66868779578E+03 -0.28717510212E+04  0.29537868908E+04  0.78964894594E+02 0.  0.
         13    1    3    3    0    0  0.51220877713E+02 -0.27179187283E+03 -0.10387278058E+03  0.29543858075E+03  0.00000000000E+00 0.  1.
        -13    1    3    3    0    0  0.12636547626E+03 -0.27154537189E+03 -0.52286454908E+02  0.30403781994E+03  0.00000000000E+00 0. -1.
          2    1    6    6  502    0 -0.16306279181E+03  0.59614958675E+03 -0.25997039412E+04  0.26721609955E+04  0.00000000000E+00 0. -1.
          1    1    5    5  503    0 -0.16615674778E+02 -0.10710394366E+03 -0.68413337918E+02  0.12817066825E+03  0.00000000000E+00 0. -1.
         -2    1    5    5    0  503 -0.43684905032E+01 -0.18246607390E+02  0.21986335735E+02  0.28903656336E+02  0.00000000000E+00 0.  1.
         -1    1    6    6    0  502  0.64606031180E+01  0.72538209027E+02 -0.27204707998E+03  0.28162589527E+03  0.00000000000E+00 0.  1.
<mgrwt>
<rscale>  0 0.20772712E+04</rscale>
<asrwt>0</asrwt>
<pdfrwt beam="1">  1        2 0.52189804E+00 0.20772712E+04</pdfrwt>
<pdfrwt beam="2">  1       -2 0.48923107E-01 0.20772712E+04</pdfrwt>
<totfact> 0.35387331E+00</totfact>
</mgrwt>
</event>
<event>
12    1  0.2019083E-007  0.2601607E+04  0.7818608E-02  0.8367656E-01
         -1   -1    0    0    0  501 -0.00000000000E+00  0.00000000000E+00  0.10061106665E+04  0.10061106665E+04  0.00000000000E+00 0.  1.
          1   -1    0    0  501    0  0.00000000000E+00 -0.00000000000E+00 -0.16818124286E+04  0.16818124286E+04  0.00000000000E+00 0. -1.
         23    2    1    2    0    0 -0.64365936538E+03  0.92149562934E+03 -0.83075924877E+02  0.11308781288E+04  0.92369688599E+02 0.  0.
        254    2    1    2    0    0  0.64365936538E+03 -0.92149562934E+03 -0.59262583731E+03  0.15570449663E+04  0.89985113798E+03 0.  0.
        -24    2    4    4    0    0  0.46549569429E+03 -0.61420589372E+02 -0.46583560221E+03  0.66614571004E+03  0.79300495058E+02 0.  0.
         24    2    4    4    0    0  0.17816367108E+03 -0.86007503997E+03 -0.12679023510E+03  0.89089925626E+03  0.78449684675E+02 0.  0.
         13    1    3    3    0    0 -0.28451881774E+03  0.46160071647E+03 -0.74237137282E+02  0.54730003805E+03  0.00000000000E+00 0.  1.
        -13    1    3    3    0    0 -0.35914054764E+03  0.45989491287E+03 -0.88387875953E+01  0.58357809075E+03  0.00000000000E+00 0. -1.
          4    1    6    6  502    0  0.17149896830E+03 -0.68797792848E+03 -0.11470340737E+03  0.71824953733E+03  0.00000000000E+00 0. -1.
          1    1    5    5  503    0  0.33691858289E+03 -0.11568155774E+02 -0.30902547996E+03  0.45732340962E+03  0.00000000000E+00 0. -1.
         -2    1    5    5    0  503  0.12857711141E+03 -0.49852433598E+02 -0.15681012225E+03  0.20882230042E+03  0.00000000000E+00 0.  1.
         -3    1    6    6    0  502  0.66647027829E+01 -0.17209711149E+03 -0.12086827733E+02  0.17264971894E+03  0.00000000000E+00 0.  1.
<mgrwt>
<rscale>  0 0.26016068E+04</rscale>
<asrwt>0</asrwt>
<pdfrwt beam="1">  1        1 0.25874037E+00 0.26016068E+04</pdfrwt>
<pdfrwt beam="2">  1       -1 0.15478626E+00 0.26016068E+04</pdfrwt>
<totfact> 0.13834851E+00</totfact>
</mgrwt>
</event>
<event>
12    1  0.2019083E-007  0.1099165E+04  0.7818608E-02  0.9206007E-01
          2   -1    0    0  501    0  0.00000000000E+00  0.00000000000E+00  0.98259752385E+03  0.98259752385E+03  0.00000000000E+00 0. -1.
         -2   -1    0    0    0  501 -0.00000000000E+00 -0.00000000000E+00 -0.30739004149E+03  0.30739004149E+03  0.00000000000E+00 0.  1.
         23    2    1    2    0    0 -0.15264339293E+03 -0.20943881063E+02  0.58925360714E+02  0.18749875987E+03  0.89134366314E+02 0.  0.
        254    2    1    2    0    0  0.15264339293E+03  0.20943881063E+02  0.61628212165E+03  0.11024888055E+04  0.90107672324E+03 0.  0.
        -24    2    4    4    0    0  0.43437694363E+03  0.22576086569E+03  0.54809356182E+03  0.73914319896E+03  0.79213751485E+02 0.  0.
         24    2    4    4    0    0 -0.28173355070E+03 -0.20481698462E+03  0.68188559827E+02  0.36334560652E+03  0.77759625138E+02 0.  0.
         11    1    3    3    0    0 -0.46437689440E+02  0.34081051999E+02  0.27479275401E+02  0.63820746489E+02  0.00000000000E+00 0. -1.
        -11    1    3    3    0    0 -0.10620570349E+03 -0.55024933062E+02  0.31446085313E+02  0.12367801338E+03  0.00000000000E+00 0.  1.
          4    1    6    6  502    0 -0.12760278054E+03 -0.60951463134E+02 -0.10847239085E+01  0.14141685573E+03  0.00000000000E+00 0. -1.
          1    1    5    5  503    0  0.40084528094E+02  0.49926466669E+02  0.77222007184E+02  0.10031281005E+03  0.00000000000E+00 0. -1.
         -2    1    5    5    0  503  0.39429241553E+03  0.17583439902E+03  0.47087155464E+03  0.63883038891E+03  0.00000000000E+00 0.  1.
         -3    1    6    6    0  502 -0.15413077016E+03 -0.14386552149E+03  0.69273283736E+02  0.22192875078E+03  0.00000000000E+00 0.  1.
<mgrwt>
<rscale>  0 0.10991646E+04</rscale>
<asrwt>0</asrwt>
<pdfrwt beam="1">  1        2 0.15116885E+00 0.10991646E+04</pdfrwt>
<pdfrwt beam="2">  1       -2 0.47290776E-01 0.10991646E+04</pdfrwt>
<totfact> 0.10873493E+02</totfact>
</mgrwt>
</event>
<event>
12    1  0.2019083E-007  0.1828154E+04  0.7818608E-02  0.8691469E-01
          2   -1    0    0  501    0  0.00000000000E+00  0.00000000000E+00  0.28034156744E+04  0.28034156744E+04  0.00000000000E+00 0. -1.
         -2   -1    0    0    0  501 -0.00000000000E+00 -0.00000000000E+00 -0.29804242191E+03  0.29804242191E+03  0.00000000000E+00 0.  1.
         23    2    1    2    0    0  0.17421798103E+03 -0.54303205328E+03  0.16045153635E+04  0.17053117148E+04  0.91557506756E+02 0.  0.
        254    2    1    2    0    0 -0.17421798103E+03  0.54303205328E+03  0.90085788904E+03  0.13961463816E+04  0.90135679215E+03 0.  0.
        -24    2    4    4    0    0 -0.29030557704E+03  0.74920389899E+03  0.77197260504E+03  0.11169527578E+04  0.77832833127E+02 0.  0.
         24    2    4    4    0    0  0.11608759601E+03 -0.20617184571E+03  0.12888528399E+03  0.27919362377E+03  0.73174471053E+02 0.  0.
         11    1    3    3    0    0  0.99410667471E+01 -0.16214328517E+03  0.47843756862E+03  0.50526406640E+03  0.00000000000E+00 0.  1.
        -11    1    3    3    0    0  0.16427691429E+03 -0.38088876811E+03  0.11260777949E+04  0.12000476484E+04  0.00000000000E+00 0. -1.
          2    1    6    6  502    0  0.66068944341E+02 -0.77727598596E+02  0.89832314536E+02  0.13592839926E+03  0.00000000000E+00 0. -1.
          3    1    5    5  503    0 -0.19156268173E+03  0.38813102906E+03  0.40601434296E+03  0.59345564572E+03  0.00000000000E+00 0. -1.
         -4    1    5    5    0  503 -0.98742895313E+02  0.36107286993E+03  0.36595826208E+03  0.52349711209E+03  0.00000000000E+00 0.  1.
         -1    1    6    6    0  502  0.50018651669E+02 -0.12844424712E+03  0.39052969456E+02  0.14326522451E+03  0.00000000000E+00 0.  1.
<mgrwt>
<rscale>  0 0.18281540E+04</rscale>
<asrwt>0</asrwt>
<pdfrwt beam="1">  1        2 0.43129470E+00 0.18281540E+04</pdfrwt>
<pdfrwt beam="2">  1       -2 0.45852682E-01 0.18281540E+04</pdfrwt>
<totfact> 0.98007655E+00</totfact>
</mgrwt>
</event>
<event>
12    1  0.2019083E-007  0.1227664E+04  0.7818608E-02  0.9088981E-01
          1   -1    0    0  501    0  0.00000000000E+00  0.00000000000E+00  0.26615841461E+04  0.26615841461E+04  0.00000000000E+00 0. -1.
         -1   -1    0    0    0  501 -0.00000000000E+00 -0.00000000000E+00 -0.14156597151E+03  0.14156597151E+03  0.00000000000E+00 0.  1.
         23    2    1    2    0    0  0.22842002648E+03  0.13478923586E+03  0.74426560521E+03  0.79421262677E+03  0.80613639250E+02 0.  0.
        254    2    1    2    0    0 -0.22842002648E+03 -0.13478923586E+03  0.17757525693E+04  0.20089374908E+04  0.90121518395E+03 0.  0.
        -24    2    4    4    0    0  0.24296498002E+03  0.19169721302E+03  0.37163475475E+03  0.49025113931E+03  0.80336701867E+02 0.  0.
         24    2    4    4    0    0 -0.47138500650E+03 -0.32648644887E+03  0.14041178146E+04  0.15186863515E+04  0.77872789015E+02 0.  0.
         11    1    3    3    0    0  0.21216019418E+03  0.14588291899E+03  0.68762475490E+03  0.73424898883E+03  0.00000000000E+00 0. -1.
        -11    1    3    3    0    0  0.16259832298E+02 -0.11093683134E+02  0.56640850306E+02  0.59963637942E+02  0.00000000000E+00 0.  1.
          4    1    6    6  502    0 -0.15685110720E+03 -0.67977803534E+02  0.38451517334E+03  0.42080300632E+03  0.00000000000E+00 0. -1.
          3    1    5    5  503    0  0.55651895441E+02  0.51518091656E+02  0.14950715621E+03  0.16764139403E+03  0.00000000000E+00 0. -1.
         -4    1    5    5    0  503  0.18731308458E+03  0.14017912136E+03  0.22212759854E+03  0.32260974528E+03  0.00000000000E+00 0.  1.
         -3    1    6    6    0  502 -0.31453389930E+03 -0.25850864534E+03  0.10196026412E+04  0.10978833452E+04  0.00000000000E+00 0.  1.
<mgrwt>
<rscale>  0 0.12276640E+04</rscale>
<asrwt>0</asrwt>
<pdfrwt beam="1">  1        1 0.40947445E+00 0.12276640E+04</pdfrwt>
<pdfrwt beam="2">  1       -1 0.21779382E-01 0.12276640E+04</pdfrwt>
<totfact> 0.18422198E+01</totfact>
</mgrwt>
</event>
<event>
12    1  0.2019083E-007  0.1385303E+04  0.7818608E-02  0.8964526E-01
          1   -1    0    0  501    0  0.00000000000E+00  0.00000000000E+00  0.99945950149E+03  0.99945950149E+03  0.00000000000E+00 0. -1.
         -1   -1    0    0    0  501 -0.00000000000E+00 -0.00000000000E+00 -0.48002584845E+03  0.48002584845E+03  0.00000000000E+00 0.  1.
         23    2    1    2    0    0  0.37462698581E+03  0.73143605363E+01  0.27455376769E+03  0.47422583063E+03  0.95454118355E+02 0.  0.
        254    2    1    2    0    0 -0.37462698581E+03 -0.73143605363E+01  0.24487988535E+03  0.10052595193E+04  0.90010091908E+03 0.  0.
        -24    2    4    4    0    0 -0.66603138326E+03 -0.25993929285E+02  0.18557314462E+03  0.69621078334E+03  0.77450468004E+02 0.  0.
         24    2    4    4    0    0  0.29140439744E+03  0.18679568749E+02  0.59306740726E+02  0.30904873596E+03  0.82026718609E+02 0.  0.
         11    1    3    3    0    0  0.20869042519E+03  0.18660415997E+02  0.20753265886E+03  0.29490627187E+03  0.00000000000E+00 0. -1.
        -11    1    3    3    0    0  0.16593656062E+03 -0.11346055461E+02  0.67021108831E+02  0.17931955876E+03  0.00000000000E+00 0.  1.
          2    1    6    6  502    0  0.65379285564E+02  0.37031984606E+02  0.27728010474E+02  0.80091581515E+02  0.00000000000E+00 0. -1.
          3    1    5    5  503    0 -0.32480913487E+03 -0.28233066149E+02  0.53908616101E+02  0.33046061642E+03  0.00000000000E+00 0. -1.
         -4    1    5    5    0  503 -0.34122224839E+03  0.22391368645E+01  0.13166452852E+03  0.36575016692E+03  0.00000000000E+00 0.  1.
         -1    1    6    6    0  502  0.22602511188E+03 -0.18352415857E+02  0.31578730252E+02  0.22895715445E+03  0.00000000000E+00 0.  1.
<mgrwt>
<rscale>  0 0.13853034E+04</rscale>
<asrwt>0</asrwt>
<pdfrwt beam="1">  1        1 0.15376300E+00 0.13853034E+04</pdfrwt>
<pdfrwt beam="2">  1       -1 0.73850131E-01 0.13853034E+04</pdfrwt>
<totfact> 0.27307327E+01</totfact>
</mgrwt>
</event>
<event>
12    1  0.2019083E-007  0.2466533E+04  0.7818608E-02  0.8415006E-01
          1   -1    0    0  501    0  0.00000000000E+00  0.00000000000E+00  0.24821924025E+04  0.24821924025E+04  0.00000000000E+00 0. -1.
         -1   -1    0    0    0  501 -0.00000000000E+00 -0.00000000000E+00 -0.61274301522E+03  0.61274301522E+03  0.00000000000E+00 0.  1.
         23    2    1    2    0    0 -0.57686800567E+03  0.31962114969E+03  0.18653699903E+04  0.19806608456E+04  0.92075020656E+02 0.  0.
        254    2    1    2    0    0  0.57686800567E+03 -0.31962114969E+03  0.40793969422E+01  0.11142745720E+04  0.89814074906E+03 0.  0.
        -24    2    4    4    0    0  0.50961943593E+03  0.15008119922E+03  0.22678712219E+03  0.58321706952E+03  0.80457538816E+02 0.  0.
         24    2    4    4    0    0  0.67248569743E+02 -0.46970234891E+03 -0.22270772525E+03  0.53105750253E+03  0.85326862110E+02 0.  0.
         13    1    3    3    0    0 -0.21616762733E+03  0.74101039935E+02  0.58936904153E+03  0.63211966773E+03  0.00000000000E+00 0. -1.
        -13    1    3    3    0    0 -0.36070037834E+03  0.24552010976E+03  0.12760009488E+04  0.13485411779E+04  0.00000000000E+00 0.  1.
          4    1    6    6  502    0  0.50161502555E+02 -0.20635628187E+03 -0.58634364561E+02  0.22031132543E+03  0.00000000000E+00 0. -1.
          3    1    5    5  503    0  0.41386721996E+02  0.36436566778E+02  0.17010849108E+02  0.57704879720E+02  0.00000000000E+00 0. -1.
         -4    1    5    5    0  503  0.46823271393E+03  0.11364463244E+03  0.20977627308E+03  0.52551218980E+03  0.00000000000E+00 0.  1.
         -3    1    6    6    0  502  0.17087067187E+02 -0.26334606704E+03 -0.16407336069E+03  0.31074617709E+03  0.00000000000E+00 0.  1.
<mgrwt>
<rscale>  0 0.24665328E+04</rscale>
<asrwt>0</asrwt>
<pdfrwt beam="1">  1        1 0.38187575E+00 0.24665328E+04</pdfrwt>
<pdfrwt beam="2">  1       -1 0.94268157E-01 0.24665328E+04</pdfrwt>
<totfact> 0.13526685E+00</totfact>
</mgrwt>
</event>
<event>
12    1  0.2019083E-007  0.1918726E+04  0.7818608E-02  0.8645591E-01
         -1   -1    0    0    0  501 -0.00000000000E+00  0.00000000000E+00  0.52649234167E+03  0.52649234167E+03  0.00000000000E+00 0.  1.
          1   -1    0    0  501    0  0.00000000000E+00 -0.00000000000E+00 -0.17481298970E+04  0.17481298970E+04  0.00000000000E+00 0. -1.
         23    2    1    2    0    0 -0.69073643146E+03  0.25621306493E+03 -0.35946831629E+03  0.82565726911E+03  0.98643313165E+02 0.  0.
        254    2    1    2    0    0  0.69073643146E+03 -0.25621306493E+03 -0.86216923906E+03  0.14489649696E+04  0.90188787213E+03 0.  0.
        -24    2    4    4    0    0  0.39889929746E+01 -0.25633967499E+03  0.78840101065E+02  0.28127013722E+03  0.84682864365E+02 0.  0.
         24    2    4    4    0    0  0.68674743849E+03  0.12661005987E+00 -0.94100934012E+03  0.11676948324E+04  0.79941122129E+02 0.  0.
         13    1    3    3    0    0 -0.13625529037E+03  0.73630010679E+02 -0.11434110842E+03  0.19251174432E+03  0.00000000000E+00 0. -1.
        -13    1    3    3    0    0 -0.55448114109E+03  0.18258305425E+03 -0.24512720787E+03  0.63314552479E+03  0.00000000000E+00 0.  1.
          2    1    6    6  502    0  0.14867128492E+03 -0.17220955134E+02 -0.15970796194E+03  0.21887518215E+03  0.00000000000E+00 0. -1.
          1    1    5    5  503    0 -0.17597711312E+01 -0.68225050500E+02 -0.16619872608E+02  0.70242255628E+02  0.00000000000E+00 0. -1.
         -2    1    5    5    0  503  0.57487641058E+01 -0.18811462449E+03  0.95459973673E+02  0.21102788160E+03  0.00000000000E+00 0.  1.
         -1    1    6    6    0  502  0.53807615357E+03  0.17347565194E+02 -0.78130137818E+03  0.94881965020E+03  0.00000000000E+00 0.  1.
<mgrwt>
<rscale>  0 0.19187256E+04</rscale>
<asrwt>0</asrwt>
<pdfrwt beam="1">  1        1 0.26894306E+00 0.19187256E+04</pdfrwt>
<pdfrwt beam="2">  1       -1 0.80998821E-01 0.19187256E+04</pdfrwt>
<totfact> 0.62700891E+00</totfact>
</mgrwt>
</event>
<event>
12    1  0.2019083E-007  0.3738261E+04  0.7818608E-02  0.8059535E-01
         -2   -1    0    0    0  501 -0.00000000000E+00  0.00000000000E+00  0.23389913218E+04  0.23389913218E+04  0.00000000000E+00 0. -1.
          2   -1    0    0  501    0  0.00000000000E+00 -0.00000000000E+00 -0.14936565644E+04  0.14936565644E+04  0.00000000000E+00 0.  1.
         23    2    1    2    0    0 -0.15355442467E+04 -0.47487272429E+03 -0.33589188275E+03  0.16445568651E+04  0.91343788943E+02 0.  0.
        254    2    1    2    0    0  0.15355442467E+04  0.47487272429E+03  0.11812266401E+04  0.21880910212E+04  0.89946967919E+03 0.  0.
        -24    2    4    4    0    0  0.82700059112E+03 -0.19044142160E+03  0.41575076813E+03  0.94831047080E+03  0.79032493668E+02 0.  0.
         24    2    4    4    0    0  0.70854365558E+03  0.66531414589E+03  0.76547587200E+03  0.12397805504E+04  0.80159078787E+02 0.  0.
         13    1    3    3    0    0 -0.11143110942E+04 -0.32734734507E+03 -0.28069755930E+03  0.11948374864E+04  0.00000000000E+00 0. -1.
        -13    1    3    3    0    0 -0.42123315245E+03 -0.14752537922E+03 -0.55194323448E+02  0.44971937870E+03  0.00000000000E+00 0.  1.
          4    1    6    6  502    0  0.29668571083E+03  0.32487573639E+03  0.37277286711E+03  0.57665090441E+03  0.00000000000E+00 0. -1.
          1    1    5    5  503    0  0.10807443780E+03 -0.23574986660E+02  0.25784674725E+02  0.11358130811E+03  0.00000000000E+00 0. -1.
         -2    1    5    5    0  503  0.71892615332E+03 -0.16686643494E+03  0.38996609340E+03  0.83472916269E+03  0.00000000000E+00 0.  1.
         -3    1    6    6    0  502  0.41185794475E+03  0.34043840950E+03  0.39270300489E+03  0.66312964597E+03  0.00000000000E+00 0.  1.
<mgrwt>
<rscale>  0 0.37382615E+04</rscale>
<asrwt>0</asrwt>
<pdfrwt beam="1">  1        2 0.22979332E+00 0.37382615E+04</pdfrwt>
<pdfrwt beam="2">  1       -2 0.35984482E+00 0.37382615E+04</pdfrwt>
<totfact> 0.13895703E-01</totfact>
</mgrwt>
</event>
<event>
12    1  0.2019083E-007  0.1654202E+04  0.7818608E-02  0.8787924E-01
         -1   -1    0    0    0  501 -0.00000000000E+00  0.00000000000E+00  0.11676179963E+04  0.11676179963E+04  0.00000000000E+00 0.  1.
          1   -1    0    0  501    0  0.00000000000E+00 -0.00000000000E+00 -0.58589049516E+03  0.58589049516E+03  0.00000000000E+00 0. -1.
         23    2    1    2    0    0  0.51597697032E+03 -0.24349167376E+03  0.28590393714E+03  0.64612037265E+03  0.10104477025E+03 0.  0.
        254    2    1    2    0    0 -0.51597697032E+03  0.24349167376E+03  0.29582356403E+03  0.11073881188E+04  0.90181840500E+03 0.  0.
        -24    2    4    4    0    0 -0.53060932915E+03 -0.90669348203E+02  0.47216327841E+03  0.72074471286E+03  0.82265355755E+02 0.  0.
         24    2    4    4    0    0  0.14632358830E+02  0.33416102196E+03 -0.17633971438E+03  0.38664340597E+03  0.80744869743E+02 0.  0.
         11    1    3    3    0    0  0.27705926551E+03 -0.13346278142E+03  0.20986604499E+03  0.37231425901E+03  0.00000000000E+00 0.  1.
        -11    1    3    3    0    0  0.23891770481E+03 -0.11002889234E+03  0.76037892151E+02  0.27380611364E+03  0.00000000000E+00 0. -1.
          2    1    6    6  502    0  0.22277013175E+02  0.12289593185E+03 -0.26922879358E+02  0.12776743252E+03  0.00000000000E+00 0. -1.
          1    1    5    5  503    0 -0.48795812834E+02 -0.21951791530E+02  0.22221600837E+02  0.57937138739E+02  0.00000000000E+00 0. -1.
         -2    1    5    5    0  503 -0.48181351631E+03 -0.68717556673E+02  0.44994167757E+03  0.66280757412E+03  0.00000000000E+00 0.  1.
         -1    1    6    6    0  502 -0.76446543447E+01  0.21126509012E+03 -0.14941683502E+03  0.25887597345E+03  0.00000000000E+00 0.  1.
<mgrwt>
<rscale>  0 0.16542023E+04</rscale>
<asrwt>0</asrwt>
<pdfrwt beam="1">  1        1 0.90136999E-01 0.16542023E+04</pdfrwt>
<pdfrwt beam="2">  1       -1 0.17963354E+00 0.16542023E+04</pdfrwt>
<totfact> 0.70884486E+00</totfact>
</mgrwt>
</event>
<event>
12    1  0.2019083E-007  0.1767260E+04  0.7818608E-02  0.8723907E-01
          2   -1    0    0  501    0  0.00000000000E+00  0.00000000000E+00  0.16282915749E+04  0.16282915749E+04  0.00000000000E+00 0. -1.
         -2   -1    0    0    0  501 -0.00000000000E+00 -0.00000000000E+00 -0.47952215899E+03  0.47952215899E+03  0.00000000000E+00 0.  1.
         23    2    1    2    0    0 -0.13182187485E+03  0.63514840398E+03  0.47133092941E+03  0.80701187049E+03  0.91240409579E+02 0.  0.
        254    2    1    2    0    0  0.13182187485E+03 -0.63514840398E+03  0.67743848649E+03  0.13008018634E+04  0.90131686050E+03 0.  0.
        -24    2    4    4    0    0  0.95499488211E+02 -0.23227218734E+03  0.82284406938E+03  0.86367494638E+03  0.76102097434E+02 0.  0.
         24    2    4    4    0    0  0.36322386638E+02 -0.40287621663E+03 -0.14540558289E+03  0.43712691699E+03  0.79426672644E+02 0.  0.
         11    1    3    3    0    0 -0.52038977081E+02  0.19689184485E+03  0.19992258011E+03  0.28538306141E+03  0.00000000000E+00 0.  1.
        -11    1    3    3    0    0 -0.79782897768E+02  0.43825655913E+03  0.27140834929E+03  0.52162880908E+03  0.00000000000E+00 0. -1.
          2    1    6    6  502    0  0.41325504914E+02 -0.14967893585E+03 -0.27167024567E+02  0.15763764911E+03  0.00000000000E+00 0. -1.
          3    1    5    5  503    0  0.17447923094E+02 -0.24751376342E+02  0.40804454086E+02  0.50814015039E+02  0.00000000000E+00 0. -1.
         -4    1    5    5    0  503  0.78051565117E+02 -0.20752081100E+03  0.78203961530E+03  0.81286093135E+03  0.00000000000E+00 0.  1.
         -1    1    6    6    0  502 -0.50031182756E+01 -0.25319728078E+03 -0.11823855832E+03  0.27948926788E+03  0.00000000000E+00 0.  1.
<mgrwt>
<rscale>  0 0.17672599E+04</rscale>
<asrwt>0</asrwt>
<pdfrwt beam="1">  1        2 0.25050639E+00 0.17672599E+04</pdfrwt>
<pdfrwt beam="2">  1       -2 0.73772641E-01 0.17672599E+04</pdfrwt>
<totfact> 0.16855829E+01</totfact>
</mgrwt>
</event>
<event>
12    1  0.2019083E-007  0.1718059E+04  0.7818608E-02  0.8751131E-01
          2   -1    0    0  501    0  0.00000000000E+00  0.00000000000E+00  0.34456568653E+04  0.34456568653E+04  0.00000000000E+00 0. -1.
         -2   -1    0    0    0  501 -0.00000000000E+00 -0.00000000000E+00 -0.21416278072E+03  0.21416278072E+03  0.00000000000E+00 0.  1.
         23    2    1    2    0    0  0.31935735330E+03 -0.41016794571E+03  0.18941939340E+04  0.19663636888E+04  0.91589487705E+02 0.  0.
        254    2    1    2    0    0 -0.31935735330E+03  0.41016794571E+03  0.13373001506E+04  0.16934559572E+04  0.89955240175E+03 0.  0.
        -24    2    4    4    0    0  0.10414415011E+03 -0.59710440945E+02  0.92051735021E+03  0.93168399440E+03  0.79193008702E+02 0.  0.
         24    2    4    4    0    0 -0.42350150340E+03  0.46987838666E+03  0.41678280035E+03  0.76177196280E+03  0.80308150337E+02 0.  0.
         13    1    3    3    0    0  0.20317967698E+03 -0.28680845415E+03  0.14181912756E+04  0.14610980681E+04  0.00000000000E+00 0. -1.
        -13    1    3    3    0    0  0.11617767632E+03 -0.12335949156E+03  0.47600265842E+03  0.50526562070E+03  0.00000000000E+00 0.  1.
          4    1    6    6  502    0 -0.29482665326E+03  0.29909005391E+03  0.31481907278E+03  0.52487014051E+03  0.00000000000E+00 0. -1.
          3    1    5    5  503    0  0.83591357592E+02 -0.78895903410E+01  0.65633455286E+03  0.66168331245E+03  0.00000000000E+00 0. -1.
         -4    1    5    5    0  503  0.20552792513E+02 -0.51820850604E+02  0.26418279736E+03  0.27000068196E+03  0.00000000000E+00 0.  1.
         -3    1    6    6    0  502 -0.12867485015E+03  0.17078833275E+03  0.10196372757E+03  0.23690182229E+03  0.00000000000E+00 0.  1.
<mgrwt>
<rscale>  0 0.17180587E+04</rscale>
<asrwt>0</asrwt>
<pdfrwt beam="1">  1        2 0.53010102E+00 0.17180587E+04</pdfrwt>
<pdfrwt beam="2">  1       -2 0.32948123E-01 0.17180587E+04</pdfrwt>
<totfact> 0.73097748E+00</totfact>
</mgrwt>
</event>
<event>
12    1  0.2019083E-007  0.2599720E+04  0.7818608E-02  0.8368296E-01
         -1   -1    0    0    0  501 -0.00000000000E+00  0.00000000000E+00  0.12600190905E+04  0.12600190905E+04  0.00000000000E+00 0.  1.
          1   -1    0    0  501    0  0.00000000000E+00 -0.00000000000E+00 -0.13409611045E+04  0.13409611045E+04  0.00000000000E+00 0. -1.
         23    2    1    2    0    0  0.48405301816E+03 -0.33636973466E+03  0.94400754488E+03  0.11162720975E+04  0.86378400753E+02 0.  0.
        254    2    1    2    0    0 -0.48405301816E+03  0.33636973466E+03 -0.10249495589E+04  0.14847080975E+04  0.89798920577E+03 0.  0.
        -24    2    4    4    0    0 -0.42893474366E+03 -0.16577136729E+03 -0.80057153298E+03  0.92646903323E+03  0.77232956633E+02 0.  0.
         24    2    4    4    0    0 -0.55118274494E+02  0.50214110196E+03 -0.22437802589E+03  0.55823906423E+03  0.78113019899E+02 0.  0.
         13    1    3    3    0    0  0.24672580451E+03 -0.21546224507E+03  0.56385608059E+03  0.65209760104E+03  0.00000000000E+00 0.  1.
        -13    1    3    3    0    0  0.23732721365E+03 -0.12090748959E+03  0.38015146429E+03  0.46417449648E+03  0.00000000000E+00 0. -1.
          2    1    6    6  502    0  0.14778551966E+02  0.58978520601E+02 -0.42246788095E+02  0.74038250890E+02  0.00000000000E+00 0. -1.
          1    1    5    5  503    0 -0.10563852115E+03 -0.77394792600E+02 -0.23663197298E+03  0.27045173638E+03  0.00000000000E+00 0. -1.
         -4    1    5    5    0  503 -0.32329622251E+03 -0.88376574692E+02 -0.56393956000E+03  0.65601729686E+03  0.00000000000E+00 0.  1.
         -1    1    6    6    0  502 -0.69896826460E+02  0.44316258136E+03 -0.18213123779E+03  0.48420081334E+03  0.00000000000E+00 0.  1.
<mgrwt>
<rscale>  0 0.25997204E+04</rscale>
<asrwt>0</asrwt>
<pdfrwt beam="1">  1        1 0.20630171E+00 0.25997204E+04</pdfrwt>
<pdfrwt beam="2">  1       -1 0.19384909E+00 0.25997204E+04</pdfrwt>
<totfact> 0.12370436E+00</totfact>
</mgrwt>
</event>
<event>
12    1  0.2019083E-007  0.2366887E+04  0.7818608E-02  0.8452006E-01
         -1   -1    0    0    0  501 -0.00000000000E+00  0.00000000000E+00  0.96258897463E+03  0.96258897463E+03  0.00000000000E+00 0.  1.
          1   -1    0    0  501    0  0.00000000000E+00 -0.00000000000E+00 -0.14549707049E+04  0.14549707049E+04  0.00000000000E+00 0. -1.
         23    2    1    2    0    0 -0.51946120079E+03  0.84583092473E+03 -0.40086180145E+03  0.10744045474E+04  0.91569947667E+02 0.  0.
        254    2    1    2    0    0  0.51946120079E+03 -0.84583092473E+03 -0.91519928849E+02  0.13431551321E+04  0.90023325822E+03 0.  0.
        -24    2    4    4    0    0  0.57110900073E+01 -0.12786959339E+03  0.32896138838E+03  0.36197454317E+03  0.80166859709E+02 0.  0.
         24    2    4    4    0    0  0.51375011079E+03 -0.71796133134E+03 -0.42048131723E+03  0.98118058895E+03  0.80642174899E+02 0.  0.
         11    1    3    3    0    0 -0.26107242935E+03  0.34800785678E+03 -0.19762977869E+03  0.47783450186E+03  0.00000000000E+00 0. -1.
        -11    1    3    3    0    0 -0.25838877145E+03  0.49782306794E+03 -0.20323202276E+03  0.59657004556E+03  0.00000000000E+00 0.  1.
          2    1    6    6  502    0  0.78684573371E+02 -0.70551309775E+02 -0.36774898507E+02  0.11189791132E+03  0.00000000000E+00 0. -1.
          3    1    5    5  503    0 -0.27885508590E+02 -0.53309070152E+02  0.20355026580E+03  0.21225496285E+03  0.00000000000E+00 0. -1.
         -4    1    5    5    0  503  0.33596598597E+02 -0.74560523236E+02  0.12541112258E+03  0.14971958031E+03  0.00000000000E+00 0.  1.
         -1    1    6    6    0  502  0.43506553742E+03 -0.64741002157E+03 -0.38370641872E+03  0.86928267763E+03  0.00000000000E+00 0.  1.
<mgrwt>
<rscale>  0 0.23668872E+04</rscale>
<asrwt>0</asrwt>
<pdfrwt beam="1">  1        1 0.22384165E+00 0.23668872E+04</pdfrwt>
<pdfrwt beam="2">  1       -1 0.14809061E+00 0.23668872E+04</pdfrwt>
<totfact> 0.22820718E+00</totfact>
</mgrwt>
</event>
<event>
12    1  0.2019083E-007  0.2423819E+04  0.7818608E-02  0.8430640E-01
          2   -1    0    0  501    0  0.00000000000E+00  0.00000000000E+00  0.11839362791E+04  0.11839362791E+04  0.00000000000E+00 0. -1.
         -2   -1    0    0    0  501 -0.00000000000E+00 -0.00000000000E+00 -0.12405436811E+04  0.12405436811E+04  0.00000000000E+00 0.  1.
         23    2    1    2    0    0  0.76706076823E+03 -0.44339157041E+02 -0.72890518861E+03  0.10629657071E+04  0.90802739879E+02 0.  0.
        254    2    1    2    0    0 -0.76706076823E+03  0.44339157041E+02  0.67229778660E+03  0.13615142531E+04  0.90077109445E+03 0.  0.
        -24    2    4    4    0    0  0.94321036177E+02  0.26343028791E+03  0.17600995318E+03  0.33993725918E+03  0.79283428938E+02 0.  0.
         24    2    4    4    0    0 -0.86138180441E+03 -0.21909113087E+03  0.49628783342E+03  0.10215769940E+04  0.85664487303E+02 0.  0.
         13    1    3    3    0    0  0.34213988732E+03 -0.58335910354E+02 -0.29528326180E+03  0.45569176603E+03  0.00000000000E+00 0.  1.
        -13    1    3    3    0    0  0.42492088092E+03  0.13996753313E+02 -0.43362192681E+03  0.60727394111E+03  0.00000000000E+00 0. -1.
          2    1    6    6  502    0 -0.93778877803E+02 -0.29014180965E+02  0.86907242792E+02  0.13110747297E+03  0.00000000000E+00 0. -1.
          1    1    5    5  503    0 -0.23384764824E+01  0.82289314484E+02  0.28468102919E+02  0.87105870263E+02  0.00000000000E+00 0. -1.
         -2    1    5    5    0  503  0.96659512659E+02  0.18114097342E+03  0.14754185026E+03  0.25283138891E+03  0.00000000000E+00 0.  1.
         -1    1    6    6    0  502 -0.76760292661E+03 -0.19007694990E+03  0.40938059063E+03  0.89046952099E+03  0.00000000000E+00 0.  1.
<mgrwt>
<rscale>  0 0.24238190E+04</rscale>
<asrwt>0</asrwt>
<pdfrwt beam="1">  1        2 0.18214404E+00 0.24238190E+04</pdfrwt>
<pdfrwt beam="2">  1       -2 0.19085287E+00 0.24238190E+04</pdfrwt>
<totfact> 0.26586286E+00</totfact>
</mgrwt>
</event>
<event>
12    1  0.2019083E-007  0.4256067E+04  0.7818608E-02  0.7954792E-01
          1   -1    0    0  501    0  0.00000000000E+00  0.00000000000E+00  0.28821430605E+04  0.28821430605E+04  0.00000000000E+00 0. -1.
         -1   -1    0    0    0  501 -0.00000000000E+00 -0.00000000000E+00 -0.15712359296E+04  0.15712359296E+04  0.00000000000E+00 0.  1.
         23    2    1    2    0    0  0.19651182814E+04  0.38160306961E+03  0.99425443217E+03  0.22369684775E+04  0.90417535234E+02 0.  0.
        254    2    1    2    0    0 -0.19651182814E+04 -0.38160306961E+03  0.31665269880E+03  0.22164105126E+04  0.89715988889E+03 0.  0.
        -24    2    4    4    0    0 -0.73256892325E+03 -0.12177275375E+03  0.55677923854E+03  0.93156538938E+03  0.79530644073E+02 0.  0.
         24    2    4    4    0    0 -0.12325493581E+04 -0.25983031586E+03 -0.24012653975E+03  0.12848451232E+04  0.80476843554E+02 0.  0.
         13    1    3    3    0    0  0.12599720073E+04  0.20112589081E+03  0.62420218788E+03  0.14204258005E+04  0.00000000000E+00 0.  1.
        -13    1    3    3    0    0  0.70514627405E+03  0.18047717880E+03  0.37005224429E+03  0.81654267701E+03  0.00000000000E+00 0. -1.
          2    1    6    6  502    0 -0.64528688179E+02 -0.22617985168E+02 -0.29689701565E+02  0.74545309915E+02  0.00000000000E+00 0. -1.
          1    1    5    5  503    0 -0.20975113066E+03  0.73358175289E+00  0.16443631111E+03  0.26652462432E+03  0.00000000000E+00 0. -1.
         -2    1    5    5    0  503 -0.52281779259E+03 -0.12250633551E+03  0.39234292743E+03  0.66504076506E+03  0.00000000000E+00 0.  1.
         -1    1    6    6    0  502 -0.11680206700E+04 -0.23721233069E+03 -0.21043683818E+03  0.12102998133E+04  0.00000000000E+00 0.  1.
<mgrwt>
<rscale>  0 0.42560671E+04</rscale>
<asrwt>0</asrwt>
<pdfrwt beam="1">  1        1 0.44340662E+00 0.42560671E+04</pdfrwt>
<pdfrwt beam="2">  1       -1 0.24172861E+00 0.42560671E+04</pdfrwt>
<totfact> 0.44045553E-02</totfact>
</mgrwt>
</event>
<event>
12    1  0.2019083E-007  0.2930045E+04  0.7818608E-02  0.8263994E-01
          1   -1    0    0  501    0  0.00000000000E+00  0.00000000000E+00  0.93122415872E+03  0.93122415872E+03  0.00000000000E+00 0. -1.
         -1   -1    0    0    0  501 -0.00000000000E+00 -0.00000000000E+00 -0.23048065825E+04  0.23048065825E+04  0.00000000000E+00 0.  1.
         23    2    1    2    0    0 -0.78624530024E+03  0.10403287920E+04 -0.36216366645E+03  0.13564325556E+04  0.91000489810E+02 0.  0.
        254    2    1    2    0    0  0.78624530024E+03 -0.10403287920E+04 -0.10114187573E+04  0.18795981856E+04  0.89969759867E+03 0.  0.
        -24    2    4    4    0    0  0.26813783484E+03 -0.28589533198E+03  0.12482547297E+03  0.41837580786E+03  0.76307788449E+02 0.  0.
         24    2    4    4    0    0  0.51810746539E+03 -0.75443345997E+03 -0.11362442303E+04  0.14612223777E+04  0.80713661011E+02 0.  0.
         11    1    3    3    0    0 -0.42990585451E+03  0.49446477290E+03 -0.18955512203E+03  0.68208914349E+03  0.00000000000E+00 0.  1.
        -11    1    3    3    0    0 -0.35633944572E+03  0.54586401905E+03 -0.17260854442E+03  0.67434341213E+03  0.00000000000E+00 0. -1.
          4    1    6    6  502    0  0.90063907559E+02 -0.18116948540E+03 -0.22291169144E+03  0.30103739314E+03  0.00000000000E+00 0. -1.
          3    1    5    5  503    0  0.18408965696E+02 -0.53823247008E+02  0.53600466768E+01  0.57136346023E+02  0.00000000000E+00 0. -1.
         -4    1    5    5    0  503  0.24972886915E+03 -0.23207208497E+03  0.11946542629E+03  0.36123946184E+03  0.00000000000E+00 0.  1.
         -3    1    6    6    0  502  0.42804355783E+03 -0.57326397457E+03 -0.91333253883E+03  0.11601849846E+04  0.00000000000E+00 0.  1.
<mgrwt>
<rscale>  0 0.29300454E+04</rscale>
<asrwt>0</asrwt>
<pdfrwt beam="1">  1        1 0.14326526E+00 0.29300454E+04</pdfrwt>
<pdfrwt beam="2">  1       -1 0.35458563E+00 0.29300454E+04</pdfrwt>
<totfact> 0.21277882E-01</totfact>
</mgrwt>
</event>
<event>
12    1  0.2019083E-007  0.1168178E+04  0.7818608E-02  0.9141175E-01
         -2   -1    0    0    0  501 -0.00000000000E+00  0.00000000000E+00  0.18299413744E+03  0.18299413744E+03  0.00000000000E+00 0.  1.
          2   -1    0    0  501    0  0.00000000000E+00 -0.00000000000E+00 -0.18643226600E+04  0.18643226600E+04  0.00000000000E+00 0. -1.
         23    2    1    2    0    0 -0.12195073715E+03 -0.22730602241E+02 -0.25163468334E+02  0.15723653992E+03  0.93281652947E+02 0.  0.
        254    2    1    2    0    0  0.12195073715E+03  0.22730602241E+02 -0.16561650542E+04  0.18900802575E+04  0.90229265233E+03 0.  0.
        -24    2    4    4    0    0 -0.45955876391E+02 -0.39328224654E+03 -0.10940186727E+04  0.11662132901E+04  0.79960700965E+02 0.  0.
         24    2    4    4    0    0  0.16790661354E+03  0.41601284878E+03 -0.56214638146E+03  0.72386696739E+03  0.81948221853E+02 0.  0.
         11    1    3    3    0    0 -0.82703309566E+02  0.20586115468E+02  0.14699386442E+02  0.86485244551E+02  0.00000000000E+00 0.  1.
        -11    1    3    3    0    0 -0.39247427585E+02 -0.43316717709E+02 -0.39862854776E+02  0.70751295366E+02  0.00000000000E+00 0. -1.
          2    1    6    6  502    0  0.85982340503E+02  0.24689921378E+03 -0.26477867279E+03  0.37210204273E+03  0.00000000000E+00 0. -1.
          3    1    5    5  503    0 -0.42462547983E+02 -0.17718820189E+03 -0.59833813713E+03  0.62546562912E+03  0.00000000000E+00 0. -1.
         -4    1    5    5    0  503 -0.34933284074E+01 -0.21609404465E+03 -0.49568053561E+03  0.54074766098E+03  0.00000000000E+00 0.  1.
         -1    1    6    6    0  502  0.81924273039E+02  0.16911363500E+03 -0.29736770867E+03  0.35176492465E+03  0.00000000000E+00 0.  1.
<mgrwt>
<rscale>  0 0.11681783E+04</rscale>
<asrwt>0</asrwt>
<pdfrwt beam="1">  1        2 0.28681886E+00 0.11681783E+04</pdfrwt>
<pdfrwt beam="2">  1       -2 0.28152945E-01 0.11681783E+04</pdfrwt>
<totfact> 0.90746804E+01</totfact>
</mgrwt>
</event>
<event>
12    1  0.2019083E-007  0.2793932E+04  0.7818608E-02  0.8305155E-01
          1   -1    0    0  501    0  0.00000000000E+00  0.00000000000E+00  0.12202875288E+04  0.12202875288E+04  0.00000000000E+00 0. -1.
         -1   -1    0    0    0  501 -0.00000000000E+00 -0.00000000000E+00 -0.15992244266E+04  0.15992244266E+04  0.00000000000E+00 0.  1.
         23    2    1    2    0    0 -0.15680186233E+03 -0.10760593503E+04 -0.79303344210E+03  0.13483434720E+04  0.81471030300E+02 0.  0.
        254    2    1    2    0    0  0.15680186233E+03  0.10760593503E+04  0.41409654433E+03  0.14711684834E+04  0.90020564830E+03 0.  0.
        -24    2    4    4    0    0  0.23089030410E+03  0.68168187385E+03  0.67169140856E+03  0.98774745055E+03  0.80468428994E+02 0.  0.
         24    2    4    4    0    0 -0.74088441766E+02  0.39437747644E+03 -0.25759486423E+03  0.48342103288E+03  0.79486412832E+02 0.  0.
         13    1    3    3    0    0 -0.79058133386E+02 -0.76796760700E+03 -0.58348943745E+03  0.96772121888E+03  0.00000000000E+00 0. -1.
        -13    1    3    3    0    0 -0.77743728945E+02 -0.30809174329E+03 -0.20954400466E+03  0.38062225311E+03  0.00000000000E+00 0.  1.
          2    1    6    6  502    0  0.88882703956E+01  0.15992518740E+03 -0.10828616073E+03  0.19334156180E+03  0.00000000000E+00 0. -1.
          1    1    5    5  503    0  0.15985519547E+03  0.56662193042E+03  0.55613127022E+03  0.80987411693E+03  0.00000000000E+00 0. -1.
         -2    1    5    5    0  503  0.71035108625E+02  0.11505994343E+03  0.11556013834E+03  0.17787333362E+03  0.00000000000E+00 0.  1.
         -1    1    6    6    0  502 -0.82976712162E+02  0.23445228904E+03 -0.14930870350E+03  0.29007947108E+03  0.00000000000E+00 0.  1.
<mgrwt>
<rscale>  0 0.27939317E+04</rscale>
<asrwt>0</asrwt>
<pdfrwt beam="1">  1        1 0.18773654E+00 0.27939317E+04</pdfrwt>
<pdfrwt beam="2">  1       -1 0.24603453E+00 0.27939317E+04</pdfrwt>
<totfact> 0.66202508E-01</totfact>
</mgrwt>
</event>
<event>
12    1  0.2019083E-007  0.2075807E+04  0.7818608E-02  0.8571976E-01
          1   -1    0    0  501    0  0.00000000000E+00  0.00000000000E+00  0.21931954731E+04  0.21931954731E+04  0.00000000000E+00 0. -1.
         -1   -1    0    0    0  501 -0.00000000000E+00 -0.00000000000E+00 -0.49117532404E+03  0.49117532404E+03  0.00000000000E+00 0.  1.
         23    2    1    2    0    0 -0.68621473273E+03 -0.29992370621E+03  0.20104890285E+03  0.78089322332E+03  0.92350830691E+02 0.  0.
        254    2    1    2    0    0  0.68621473273E+03  0.29992370621E+03  0.15009712462E+04  0.19034775738E+04  0.89970400861E+03 0.  0.
        -24    2    4    4    0    0  0.83901354427E+02  0.16987101175E+03 -0.67573627705E+02  0.21635652894E+03  0.79676562071E+02 0.  0.
         24    2    4    4    0    0  0.60231337831E+03  0.13005269445E+03  0.15685448740E+04  0.16871210449E+04  0.79682429365E+02 0.  0.
         13    1    3    3    0    0 -0.23667839019E+03 -0.56396729589E+02  0.65692134796E+02  0.25201727731E+03  0.00000000000E+00 0.  1.
        -13    1    3    3    0    0 -0.44953634255E+03 -0.24352697662E+03  0.13535676806E+03  0.52887594601E+03  0.00000000000E+00 0. -1.
          4    1    6    6  502    0  0.56396628808E+03  0.10775236776E+03  0.14917828767E+04  0.15984632301E+04  0.00000000000E+00 0. -1.
          3    1    5    5  503    0  0.96559280496E+02  0.14259077232E+03 -0.42939301889E+02  0.17748128535E+03  0.00000000000E+00 0. -1.
         -4    1    5    5    0  503 -0.12657926069E+02  0.27280239433E+02 -0.24634325817E+02  0.38875243592E+02  0.00000000000E+00 0.  1.
         -3    1    6    6    0  502  0.38347090228E+02  0.22300326699E+02  0.76761997235E+02  0.88657814767E+02  0.00000000000E+00 0.  1.
<mgrwt>
<rscale>  0 0.20758068E+04</rscale>
<asrwt>0</asrwt>
<pdfrwt beam="1">  1        1 0.33741468E+00 0.20758068E+04</pdfrwt>
<pdfrwt beam="2">  1       -1 0.75565436E-01 0.20758068E+04</pdfrwt>
<totfact> 0.35714278E+00</totfact>
</mgrwt>
</event>
<event>
12    1  0.2019083E-007  0.1365506E+04  0.7818608E-02  0.8979172E-01
          3   -1    0    0  501    0  0.00000000000E+00  0.00000000000E+00  0.42554714934E+03  0.42554714934E+03  0.00000000000E+00 0. -1.
         -3   -1    0    0    0  501 -0.00000000000E+00 -0.00000000000E+00 -0.10954177674E+04  0.10954177674E+04  0.00000000000E+00 0.  1.
         23    2    1    2    0    0 -0.15856153886E+03 -0.33724887175E+03 -0.13491270619E+03  0.40806342796E+03  0.97137839417E+02 0.  0.
        254    2    1    2    0    0  0.15856153886E+03  0.33724887175E+03 -0.53495791184E+03  0.11129014887E+04  0.90193746629E+03 0.  0.
        -24    2    4    4    0    0  0.61915735917E+02 -0.19108102833E+03 -0.52752628807E+03  0.56999571467E+03  0.79155621371E+02 0.  0.
         24    2    4    4    0    0  0.96645802941E+02  0.52832990009E+03 -0.74316237631E+01  0.54290577406E+03  0.78857820979E+02 0.  0.
         11    1    3    3    0    0 -0.52624009956E+02 -0.22062365931E+03 -0.67076160783E+02  0.23652335364E+03  0.00000000000E+00 0. -1.
        -11    1    3    3    0    0 -0.10593752890E+03 -0.11662521245E+03 -0.67836545402E+02  0.17154007433E+03  0.00000000000E+00 0.  1.
          4    1    6    6  502    0  0.32743918451E+02  0.15451332282E+03 -0.37952497529E+02  0.16244052202E+03  0.00000000000E+00 0. -1.
          3    1    5    5  503    0 -0.11137175171E+02 -0.11514724827E+02 -0.90443198331E+02  0.91850953631E+02  0.00000000000E+00 0. -1.
         -4    1    5    5    0  503  0.73052911089E+02 -0.17956630350E+03 -0.43708308974E+03  0.47814476104E+03  0.00000000000E+00 0.  1.
         -3    1    6    6    0  502  0.63901884490E+02  0.37381657726E+03  0.30520873765E+02  0.38046525204E+03  0.00000000000E+00 0.  1.
<mgrwt>
<rscale>  0 0.13655064E+04</rscale>
<asrwt>0</asrwt>
<pdfrwt beam="1">  1        3 0.65468792E-01 0.13655064E+04</pdfrwt>
<pdfrwt beam="2">  1       -3 0.16852581E+00 0.13655064E+04</pdfrwt>
<totfact> 0.13655087E+00</totfact>
</mgrwt>
</event>
<event>
12    1  0.2019083E-007  0.1545477E+04  0.7818608E-02  0.8854762E-01
         -2   -1    0    0    0  501 -0.00000000000E+00  0.00000000000E+00  0.39265412227E+03  0.39265412227E+03  0.00000000000E+00 0. -1.
          2   -1    0    0  501    0  0.00000000000E+00 -0.00000000000E+00 -0.15207397692E+04  0.15207397692E+04  0.00000000000E+00 0.  1.
         23    2    1    2    0    0  0.46567560254E+03 -0.18094913021E+03 -0.27570553309E+03  0.57809482685E+03  0.92648439422E+02 0.  0.
        254    2    1    2    0    0 -0.46567560254E+03  0.18094913021E+03 -0.85238011385E+03  0.13352990646E+04  0.89826242210E+03 0.  0.
        -24    2    4    4    0    0  0.10526888297E+03 -0.33502254628E+01  0.12768880875E+03  0.18345037744E+03  0.79100236220E+02 0.  0.
         24    2    4    4    0    0 -0.57094448551E+03  0.18429935567E+03 -0.98006892260E+03  0.11518486872E+04  0.79224030981E+02 0.  0.
         11    1    3    3    0    0  0.39921317911E+03 -0.18486127573E+03 -0.22328347456E+03  0.49335622389E+03  0.00000000000E+00 0. -1.
        -11    1    3    3    0    0  0.66462423431E+02  0.39121455199E+01 -0.52422058530E+02  0.84738602959E+02  0.00000000000E+00 0.  1.
          2    1    6    6  502    0 -0.42043753032E+02  0.34151163890E+02 -0.68728175622E+02  0.87507378479E+02  0.00000000000E+00 0. -1.
          1    1    5    5  503    0  0.29806384995E+02  0.35254388964E+02  0.35668181704E+02  0.58339623874E+02  0.00000000000E+00 0. -1.
         -2    1    5    5    0  503  0.75462497973E+02 -0.38604614427E+02  0.92020627044E+02  0.12511075356E+03  0.00000000000E+00 0.  1.
         -1    1    6    6    0  502 -0.52890073248E+03  0.15014819178E+03 -0.91134074697E+03  0.10643413087E+04  0.00000000000E+00 0.  1.
<mgrwt>
<rscale>  0 0.15454769E+04</rscale>
<asrwt>0</asrwt>
<pdfrwt beam="1">  1        2 0.23395996E+00 0.15454769E+04</pdfrwt>
<pdfrwt beam="2">  1       -2 0.60408327E-01 0.15454769E+04</pdfrwt>
<totfact> 0.30370852E+01</totfact>
</mgrwt>
</event>
<event>
12    1  0.5578584E-007  0.2996153E+04  0.7818608E-02  0.8244830E-01
          1   -1    0    0  501    0  0.00000000000E+00  0.00000000000E+00  0.17390110728E+04  0.17390110728E+04  0.00000000000E+00 0. -1.
         -1   -1    0    0    0  501 -0.00000000000E+00 -0.00000000000E+00 -0.12905227992E+04  0.12905227992E+04  0.00000000000E+00 0.  1.
         23    2    1    2    0    0 -0.92791668123E+03 -0.75724233600E+03 -0.44940498106E+03  0.12824970673E+04  0.91589125315E+02 0.  0.
        254    2    1    2    0    0  0.92791668123E+03  0.75724233600E+03  0.89789325460E+03  0.17470368047E+04  0.90082183456E+03 0.  0.
        -24    2    4    4    0    0  0.82078840898E+03  0.33911506200E+03  0.18630568691E+03  0.91099043248E+03  0.80629532391E+02 0.  0.
         24    2    4    4    0    0  0.10712827225E+03  0.41812727400E+03  0.71158756769E+03  0.83604637224E+03  0.79434161776E+02 0.  0.
         13    1    3    3    0    0 -0.65350143000E+03 -0.47887996915E+03 -0.31156724616E+03  0.86802320980E+03  0.00000000000E+00 0. -1.
        -13    1    3    3    0    0 -0.27441525123E+03 -0.27836236684E+03 -0.13783773490E+03  0.41447385749E+03  0.00000000000E+00 0.  1.
          4    1    6    6  502    0  0.28835365346E+01 -0.31710164539E+01  0.34881709306E+01  0.55260713657E+01  0.00000000000E+00 0. -1.
          1    1    5    5  503    0  0.87579350205E+02  0.63129920686E+02  0.14346459123E+02  0.10890982673E+03  0.00000000000E+00 0. -1.
         -2    1    5    5    0  503  0.73320905878E+03  0.27598514131E+03  0.17195922779E+03  0.80208060575E+03  0.00000000000E+00 0.  1.
         -3    1    6    6    0  502  0.10424473571E+03  0.42129829046E+03  0.70809939676E+03  0.83052030087E+03  0.00000000000E+00 0.  1.
<mgrwt>
<rscale>  0 0.29961532E+04</rscale>
<asrwt>0</asrwt>
<pdfrwt beam="1">  1        1 0.26754016E+00 0.29961532E+04</pdfrwt>
<pdfrwt beam="2">  1       -1 0.19854197E+00 0.29961532E+04</pdfrwt>
<totfact> 0.58789172E-01</totfact>
</mgrwt>
</event>
<event>
12    1  0.2019083E-007  0.1388154E+04  0.7818608E-02  0.8962438E-01
          2   -1    0    0  501    0  0.00000000000E+00  0.00000000000E+00  0.11889744994E+04  0.11889744994E+04  0.00000000000E+00 0. -1.
         -2   -1    0    0    0  501 -0.00000000000E+00 -0.00000000000E+00 -0.40517525712E+03  0.40517525712E+03  0.00000000000E+00 0.  1.
         23    2    1    2    0    0  0.39455135011E+03  0.94953099528E+01  0.21980061020E+03  0.46087665685E+03  0.91291049934E+02 0.  0.
        254    2    1    2    0    0 -0.39455135011E+03 -0.94953099528E+01  0.56399863213E+03  0.11332730997E+04  0.90025137196E+03 0.  0.
        -24    2    4    4    0    0 -0.40047502527E+03  0.18165983529E+03  0.73767138820E+03  0.86263380393E+03  0.81224756715E+02 0.  0.
         24    2    4    4    0    0  0.59236751576E+01 -0.19115514524E+03 -0.17367275607E+03  0.27063929578E+03  0.80672317074E+02 0.  0.
         13    1    3    3    0    0  0.28795773426E+03  0.30859490079E+02  0.12062899328E+03  0.31372490954E+03  0.00000000000E+00 0.  1.
        -13    1    3    3    0    0  0.10659361585E+03 -0.21364180126E+02  0.99171616918E+02  0.14715174730E+03  0.00000000000E+00 0. -1.
          4    1    6    6  502    0  0.22060782975E+02 -0.10398238604E+03 -0.47481452429E+02  0.11641951330E+03  0.00000000000E+00 0. -1.
          1    1    5    5  503    0 -0.32956450250E+03  0.17589558634E+03  0.58348547552E+03  0.69282560486E+03  0.00000000000E+00 0. -1.
         -2    1    5    5    0  503 -0.70910522767E+02  0.57642489412E+01  0.15418591267E+03  0.16980819907E+03  0.00000000000E+00 0.  1.
         -3    1    6    6    0  502 -0.16137107817E+02 -0.87172759202E+02 -0.12619130364E+03  0.15421978249E+03  0.00000000000E+00 0.  1.
<mgrwt>
<rscale>  0 0.13881542E+04</rscale>
<asrwt>0</asrwt>
<pdfrwt beam="1">  1        2 0.18291915E+00 0.13881542E+04</pdfrwt>
<pdfrwt beam="2">  1       -2 0.62334655E-01 0.13881542E+04</pdfrwt>
<totfact> 0.44739652E+01</totfact>
</mgrwt>
</event>
<event>
12    1  0.2019083E-007  0.2593533E+04  0.7818608E-02  0.8370401E-01
         -2   -1    0    0    0  501 -0.00000000000E+00  0.00000000000E+00  0.96491578518E+03  0.96491578518E+03  0.00000000000E+00 0. -1.
          2   -1    0    0  501    0  0.00000000000E+00 -0.00000000000E+00 -0.17427467107E+04  0.17427467107E+04  0.00000000000E+00 0.  1.
         23    2    1    2    0    0  0.87464598880E+03  0.49342372809E+03  0.21697835683E+03  0.10315242857E+04  0.92142083270E+02 0.  0.
        254    2    1    2    0    0 -0.87464598880E+03 -0.49342372809E+03 -0.99480928233E+03  0.16761382101E+04  0.90073370655E+03 0.  0.
        -24    2    4    4    0    0 -0.71842564240E+03  0.75749554346E+02 -0.71088305685E+03  0.10163535751E+04  0.75805477557E+02 0.  0.
         24    2    4    4    0    0 -0.15622034640E+03 -0.56917328244E+03 -0.28392622548E+03  0.65978463505E+03  0.79615583078E+02 0.  0.
         13    1    3    3    0    0  0.21361634138E+03  0.10251318150E+03  0.88264795488E+02  0.25284692565E+03  0.00000000000E+00 0. -1.
        -13    1    3    3    0    0  0.66102964742E+03  0.39091054658E+03  0.12871356134E+03  0.77867736006E+03  0.00000000000E+00 0.  1.
          4    1    6    6  502    0 -0.10264874343E+03 -0.24856895297E+03 -0.10464583597E+03  0.28857241707E+03  0.00000000000E+00 0. -1.
          1    1    5    5  503    0 -0.28312145440E+03  0.11609740840E+02 -0.32424172251E+03  0.43061030949E+03  0.00000000000E+00 0. -1.
         -2    1    5    5    0  503 -0.43530418800E+03  0.64139813506E+02 -0.38664133434E+03  0.58574326560E+03  0.00000000000E+00 0.  1.
         -3    1    6    6    0  502 -0.53571602971E+02 -0.32060432947E+03 -0.17928038951E+03  0.37121221798E+03  0.00000000000E+00 0.  1.
<mgrwt>
<rscale>  0 0.25935334E+04</rscale>
<asrwt>0</asrwt>
<pdfrwt beam="1">  1        2 0.26811488E+00 0.25935334E+04</pdfrwt>
<pdfrwt beam="2">  1       -2 0.14844858E+00 0.25935334E+04</pdfrwt>
<totfact> 0.25311075E+00</totfact>
</mgrwt>
</event>
<event>
12    1  0.2019083E-007  0.2716922E+04  0.7818608E-02  0.8329535E-01
         -4   -1    0    0    0  501 -0.00000000000E+00  0.00000000000E+00  0.69002446247E+03  0.69002446247E+03  0.00000000000E+00 0.  1.
          4   -1    0    0  501    0  0.00000000000E+00 -0.00000000000E+00 -0.26744217379E+04  0.26744217379E+04  0.00000000000E+00 0. -1.
         23    2    1    2    0    0 -0.49339158542E+03  0.74107284117E+03  0.13670777355E+03  0.90546120380E+03  0.92448708719E+02 0.  0.
        254    2    1    2    0    0  0.49339158542E+03 -0.74107284117E+03 -0.21211050490E+04  0.24589849966E+04  0.86884772666E+03 0.  0.
        -24    2    4    4    0    0  0.17863721859E+03 -0.47080738067E+03 -0.30405118151E+03  0.59345969952E+03  0.78590383679E+02 0.  0.
         24    2    4    4    0    0  0.31475436683E+03 -0.27026546050E+03 -0.18170538675E+04  0.18655252971E+04  0.79913366452E+02 0.  0.
         11    1    3    3    0    0 -0.26841793362E+03  0.32539617336E+03  0.81168528054E+02  0.42955696558E+03  0.00000000000E+00 0.  1.
        -11    1    3    3    0    0 -0.22497365180E+03  0.41567666781E+03  0.55539245493E+02  0.47590423822E+03  0.00000000000E+00 0. -1.
          4    1    6    6  502    0  0.31234583749E+02 -0.59394162024E+01 -0.20948609057E+03  0.21188510573E+03  0.00000000000E+00 0. -1.
          1    1    5    5  503    0  0.11597286603E+02 -0.22417605107E+02  0.22275684662E+01  0.25337879481E+02  0.00000000000E+00 0. -1.
         -2    1    5    5    0  503  0.16703993199E+03 -0.44838977557E+03 -0.30627874998E+03  0.56812182003E+03  0.00000000000E+00 0.  1.
         -3    1    6    6    0  502  0.28351978308E+03 -0.26432604430E+03 -0.16075677769E+04  0.16536401914E+04  0.00000000000E+00 0.  1.
<mgrwt>
<rscale>  0 0.27169221E+04</rscale>
<asrwt>0</asrwt>
<pdfrwt beam="1">  1        4 0.41144950E+00 0.27169221E+04</pdfrwt>
<pdfrwt beam="2">  1       -4 0.10615761E+00 0.27169221E+04</pdfrwt>
<totfact> 0.70598589E-03</totfact>
</mgrwt>
</event>
<event>
12    1  0.2019083E-007  0.3072839E+04  0.7818608E-02  0.8223232E-01
         -2   -1    0    0    0  501 -0.00000000000E+00  0.00000000000E+00  0.16730307742E+04  0.16730307742E+04  0.00000000000E+00 0. -1.
          2   -1    0    0  501    0  0.00000000000E+00 -0.00000000000E+00 -0.14109636637E+04  0.14109636637E+04  0.00000000000E+00 0.  1.
         23    2    1    2    0    0  0.96000146491E+03 -0.70695997958E+03 -0.62238772480E+03  0.13479954474E+04  0.91268947895E+02 0.  0.
        254    2    1    2    0    0 -0.96000146491E+03  0.70695997958E+03  0.88445483539E+03  0.17359989905E+04  0.90002050745E+03 0.  0.
        -24    2    4    4    0    0 -0.55891265753E+03  0.75494143938E+03  0.24196542920E+03  0.97303417866E+03  0.76995508204E+02 0.  0.
         24    2    4    4    0    0 -0.40108880738E+03 -0.47981459797E+02  0.64248940619E+03  0.76296481184E+03  0.78410555086E+02 0.  0.
         11    1    3    3    0    0  0.82500297771E+03 -0.63646552244E+03 -0.56453431859E+03  0.11850811244E+04  0.00000000000E+00 0. -1.
        -11    1    3    3    0    0  0.13499848720E+03 -0.70494457143E+02 -0.57853406214E+02  0.16291432302E+03  0.00000000000E+00 0.  1.
          4    1    6    6  502    0 -0.40468597465E+03 -0.47094184281E+02  0.63302364092E+03  0.75279979426E+03  0.00000000000E+00 0. -1.
          1    1    5    5  503    0 -0.55585999596E+03  0.74853689473E+03  0.24677673346E+03  0.96446180539E+03  0.00000000000E+00 0. -1.
         -2    1    5    5    0  503 -0.30526615671E+01  0.64045446523E+01 -0.48113042627E+01  0.85723732743E+01  0.00000000000E+00 0.  1.
         -3    1    6    6    0  502  0.35971672728E+01 -0.88727551541E+00  0.94657652793E+01  0.10165017587E+02  0.00000000000E+00 0.  1.
<mgrwt>
<rscale>  0 0.30728395E+04</rscale>
<asrwt>0</asrwt>
<pdfrwt beam="1">  1        2 0.21707133E+00 0.30728395E+04</pdfrwt>
<pdfrwt beam="2">  1       -2 0.25738935E+00 0.30728395E+04</pdfrwt>
<totfact> 0.70253286E-01</totfact>
</mgrwt>
</event>
<event>
12    1  0.2019083E-007  0.3407102E+04  0.7818608E-02  0.8136165E-01
         -2   -1    0    0    0  501 -0.00000000000E+00  0.00000000000E+00  0.10906328319E+04  0.10906328319E+04  0.00000000000E+00 0. -1.
          2   -1    0    0  501    0  0.00000000000E+00 -0.00000000000E+00 -0.26609196918E+04  0.26609196918E+04  0.00000000000E+00 0.  1.
         23    2    1    2    0    0  0.73991919888E+02  0.10214041191E+04  0.59915633715E+03  0.11900916206E+04  0.92674539696E+02 0.  0.
        254    2    1    2    0    0 -0.73991919888E+02 -0.10214041191E+04 -0.21694431971E+04  0.25614609031E+04  0.89769537935E+03 0.  0.
        -24    2    4    4    0    0  0.12918715812E+03 -0.98149068862E+03 -0.21078786744E+04  0.23301543828E+04  0.80334600394E+02 0.  0.
         24    2    4    4    0    0 -0.20317907800E+03 -0.39913430500E+02 -0.61564522691E+02  0.23130652033E+03  0.82690363536E+02 0.  0.
         13    1    3    3    0    0  0.72680324711E+02  0.57503526281E+03  0.37761851970E+03  0.69176855197E+03  0.00000000000E+00 0. -1.
        -13    1    3    3    0    0  0.13115951771E+01  0.44636885631E+03  0.22153781744E+03  0.49832306862E+03  0.00000000000E+00 0.  1.
          2    1    6    6  502    0 -0.14380484754E+03  0.91509360074E+01 -0.54121192854E+02  0.15392425839E+03  0.00000000000E+00 0. -1.
          3    1    5    5  503    0  0.13577210013E+03 -0.91669779428E+03 -0.19975248192E+04  0.22020159655E+04  0.00000000000E+00 0. -1.
         -4    1    5    5    0  503 -0.65849420132E+01 -0.64792894343E+02 -0.11035385522E+03  0.12813841727E+03  0.00000000000E+00 0.  1.
         -1    1    6    6    0  502 -0.59374230462E+02 -0.49064366507E+02 -0.74433298368E+01  0.77382261939E+02  0.00000000000E+00 0.  1.
<mgrwt>
<rscale>  0 0.34071022E+04</rscale>
<asrwt>0</asrwt>
<pdfrwt beam="1">  1        2 0.40937226E+00 0.34071022E+04</pdfrwt>
<pdfrwt beam="2">  1       -2 0.16778967E+00 0.34071022E+04</pdfrwt>
<totfact> 0.51252579E-01</totfact>
</mgrwt>
</event>
<event>
12    1  0.2019083E-007  0.2068588E+04  0.7818608E-02  0.8575208E-01
          2   -1    0    0  501    0  0.00000000000E+00  0.00000000000E+00  0.61354642408E+03  0.61354642408E+03  0.00000000000E+00 0. -1.
         -2   -1    0    0    0  501 -0.00000000000E+00 -0.00000000000E+00 -0.17435744745E+04  0.17435744745E+04  0.00000000000E+00 0.  1.
         23    2    1    2    0    0  0.55717393657E+03  0.59470005076E+03 -0.67371017137E+03  0.10622727486E+04  0.10211293486E+03 0.  0.
        254    2    1    2    0    0 -0.55717393657E+03 -0.59470005076E+03 -0.45631787904E+03  0.12948481499E+04  0.89682483168E+03 0.  0.
        -24    2    4    4    0    0  0.39176954655E+02 -0.30350820547E+03 -0.53519384551E+03  0.62195341615E+03  0.82106851248E+02 0.  0.
         24    2    4    4    0    0 -0.59635089122E+03 -0.29119184529E+03  0.78875966470E+02  0.67289473380E+03  0.78350676203E+02 0.  0.
         11    1    3    3    0    0  0.28205662484E+03  0.24088899483E+03 -0.34386546942E+03  0.50579334565E+03  0.00000000000E+00 0. -1.
        -11    1    3    3    0    0  0.27511731173E+03  0.35381105593E+03 -0.32984470194E+03  0.55647940296E+03  0.00000000000E+00 0.  1.
          2    1    6    6  502    0 -0.15717798991E+03 -0.72673380092E+02  0.55353407446E+02  0.18179752584E+03  0.00000000000E+00 0. -1.
          3    1    5    5  503    0 -0.65049593367E+01  0.11266158756E+00 -0.30620293584E+02  0.31303826728E+02  0.00000000000E+00 0. -1.
         -4    1    5    5    0  503  0.45681913991E+02 -0.30362086706E+03 -0.50457355193E+03  0.59064958942E+03  0.00000000000E+00 0.  1.
         -1    1    6    6    0  502 -0.43917290132E+03 -0.21851846520E+03  0.23522559024E+02  0.49109720796E+03  0.00000000000E+00 0.  1.
<mgrwt>
<rscale>  0 0.20685878E+04</rscale>
<asrwt>0</asrwt>
<pdfrwt beam="1">  1        2 0.94391759E-01 0.20685878E+04</pdfrwt>
<pdfrwt beam="2">  1       -2 0.26824222E+00 0.20685878E+04</pdfrwt>
<totfact> 0.22157835E+00</totfact>
</mgrwt>
</event>
<event>
12    1  0.2019083E-007  0.1091382E+04  0.7818608E-02  0.9213633E-01
         -1   -1    0    0    0  501 -0.00000000000E+00  0.00000000000E+00  0.64999209246E+03  0.64999209246E+03  0.00000000000E+00 0.  1.
          1   -1    0    0  501    0  0.00000000000E+00 -0.00000000000E+00 -0.45812636099E+03  0.45812636099E+03  0.00000000000E+00 0. -1.
         23    2    1    2    0    0 -0.55943603729E+02  0.14091745255E+03  0.30198514428E+02  0.18014211463E+03  0.92476029095E+02 0.  0.
        254    2    1    2    0    0  0.55943603729E+02 -0.14091745255E+03  0.16166721704E+03  0.92797633882E+03  0.90111951545E+03 0.  0.
        -24    2    4    4    0    0  0.46189808719E+03 -0.21843168940E+02  0.35676284985E+01  0.46936766794E+03  0.80413386681E+02 0.  0.
         24    2    4    4    0    0 -0.40595448346E+03 -0.11907428361E+03  0.15809958854E+03  0.45860867088E+03  0.79678764148E+02 0.  0.
         11    1    3    3    0    0 -0.12053126608E+02  0.12370268166E+03  0.25063163414E+00  0.12428875302E+03  0.00000000000E+00 0. -1.
        -11    1    3    3    0    0 -0.43890477121E+02  0.17214770886E+02  0.29947882794E+02  0.55853361604E+02  0.00000000000E+00 0.  1.
          4    1    6    6  502    0 -0.34512063458E+03 -0.70132805211E+02  0.13530533563E+03  0.37727231098E+03  0.00000000000E+00 0. -1.
          1    1    5    5  503    0  0.36600382786E+03  0.13352956170E+02 -0.96004462604E+01  0.36637313222E+03  0.00000000000E+00 0. -1.
         -2    1    5    5    0  503  0.95894259332E+02 -0.35196125110E+02  0.13168074759E+02  0.10299453572E+03  0.00000000000E+00 0.  1.
         -3    1    6    6    0  502 -0.60833848874E+02 -0.48941478398E+02  0.22794252913E+02  0.81336359905E+02  0.00000000000E+00 0.  1.
<mgrwt>
<rscale>  0 0.10913817E+04</rscale>
<asrwt>0</asrwt>
<pdfrwt beam="1">  1        1 0.70480979E-01 0.10913817E+04</pdfrwt>
<pdfrwt beam="2">  1       -1 0.99998783E-01 0.10913817E+04</pdfrwt>
<totfact> 0.47518639E+01</totfact>
</mgrwt>
</event>
<event>
12    1  0.2019083E-007  0.1739088E+04  0.7818608E-02  0.8739380E-01
         -2   -1    0    0    0  501 -0.00000000000E+00  0.00000000000E+00  0.46810150177E+03  0.46810150177E+03  0.00000000000E+00 0. -1.
          2   -1    0    0  501    0  0.00000000000E+00 -0.00000000000E+00 -0.16152622020E+04  0.16152622020E+04  0.00000000000E+00 0.  1.
         23    2    1    2    0    0 -0.60992750926E+03 -0.14819640487E+03 -0.51796383044E+03  0.81861868730E+03  0.88748434282E+02 0.  0.
        254    2    1    2    0    0  0.60992750926E+03  0.14819640487E+03 -0.62919686976E+03  0.12647450164E+04  0.89984305005E+03 0.  0.
        -24    2    4    4    0    0  0.70312082156E+03 -0.19083059300E+03 -0.37385937930E+03  0.82287222585E+03  0.80948499976E+02 0.  0.
         24    2    4    4    0    0 -0.93193312297E+02  0.33902699787E+03 -0.25533749046E+03  0.44187279059E+03  0.80187469647E+02 0.  0.
         13    1    3    3    0    0 -0.38027468728E+03 -0.70028431307E+02 -0.26918973428E+03  0.47114321816E+03  0.00000000000E+00 0. -1.
        -13    1    3    3    0    0 -0.22965282198E+03 -0.78167973567E+02 -0.24877409616E+03  0.34747546914E+03  0.00000000000E+00 0.  1.
          4    1    6    6  502    0 -0.22370895887E+02  0.18499706110E+02 -0.39470439000E+02  0.48996037225E+02  0.00000000000E+00 0. -1.
          1    1    5    5  503    0  0.34579608159E+03 -0.98817047940E+02 -0.22967232007E+03  0.42671901014E+03  0.00000000000E+00 0. -1.
         -2    1    5    5    0  503  0.35732473997E+03 -0.92013545056E+02 -0.14418705923E+03  0.39615321571E+03  0.00000000000E+00 0.  1.
         -3    1    6    6    0  502 -0.70822416410E+02  0.32052729176E+03 -0.21586705146E+03  0.39287675337E+03  0.00000000000E+00 0.  1.
<mgrwt>
<rscale>  0 0.17390879E+04</rscale>
<asrwt>0</asrwt>
<pdfrwt beam="1">  1        2 0.24850188E+00 0.17390879E+04</pdfrwt>
<pdfrwt beam="2">  1       -2 0.72015615E-01 0.17390879E+04</pdfrwt>
<totfact> 0.18117173E+01</totfact>
</mgrwt>
</event>
<event>
12    1  0.2019083E-007  0.1300287E+04  0.7818608E-02  0.9029338E-01
         -2   -1    0    0    0  501 -0.00000000000E+00  0.00000000000E+00  0.27983558425E+03  0.27983558425E+03  0.00000000000E+00 0.  1.
          2   -1    0    0  501    0  0.00000000000E+00 -0.00000000000E+00 -0.15104810840E+04  0.15104810840E+04  0.00000000000E+00 0. -1.
         23    2    1    2    0    0 -0.12020199293E+03 -0.25914410226E+03 -0.55728704301E+03  0.63317497701E+03  0.93474693738E+02 0.  0.
        254    2    1    2    0    0  0.12020199293E+03  0.25914410226E+03 -0.67335845674E+03  0.11571416912E+04  0.89663877760E+03 0.  0.
        -24    2    4    4    0    0 -0.49815698346E+02  0.34930190945E+03 -0.82587403413E+03  0.90135039623E+03  0.76623682937E+02 0.  0.
         24    2    4    4    0    0  0.17001769127E+03 -0.90157807188E+02  0.15251557739E+03  0.25579129501E+03  0.71650120110E+02 0.  0.
         11    1    3    3    0    0 -0.10264518946E+03 -0.11047007785E+03 -0.27306472910E+03  0.31193592178E+03  0.00000000000E+00 0.  1.
        -11    1    3    3    0    0 -0.17556803470E+02 -0.14867402441E+03 -0.28422231391E+03  0.32123905523E+03  0.00000000000E+00 0. -1.
          4    1    6    6  502    0  0.11472308298E+03 -0.80269507937E+02  0.71523244194E+02  0.15722644222E+03  0.00000000000E+00 0. -1.
          3    1    5    5  503    0 -0.54536271622E+02  0.34550105920E+03 -0.77697315824E+03  0.85207539306E+03  0.00000000000E+00 0. -1.
         -4    1    5    5    0  503  0.47205732764E+01  0.38008502483E+01 -0.48900875888E+02  0.49275003169E+02  0.00000000000E+00 0.  1.
         -3    1    6    6    0  502  0.55294608293E+02 -0.98882992506E+01  0.80992333197E+02  0.98564852788E+02  0.00000000000E+00 0.  1.
<mgrwt>
<rscale>  0 0.13002867E+04</rscale>
<asrwt>0</asrwt>
<pdfrwt beam="1">  1        2 0.23238171E+00 0.13002867E+04</pdfrwt>
<pdfrwt beam="2">  1       -2 0.43051627E-01 0.13002867E+04</pdfrwt>
<totfact> 0.62761223E+01</totfact>
</mgrwt>
</event>
<event>
12    1  0.2019083E-007  0.1683953E+04  0.7818608E-02  0.8770570E-01
          2   -1    0    0  501    0  0.00000000000E+00  0.00000000000E+00  0.17653332509E+04  0.17653332509E+04  0.00000000000E+00 0.  1.
         -2   -1    0    0    0  501 -0.00000000000E+00 -0.00000000000E+00 -0.40158087802E+03  0.40158087802E+03  0.00000000000E+00 0. -1.
         23    2    1    2    0    0 -0.34399422158E+03  0.45118929633E+03  0.24679564877E+03  0.62532899618E+03  0.90688784352E+02 0.  0.
        254    2    1    2    0    0  0.34399422158E+03 -0.45118929633E+03  0.11169567242E+04  0.15415851328E+04  0.89832543790E+03 0.  0.
        -24    2    4    4    0    0  0.58395638524E+03 -0.11139373524E+03  0.85185027975E+03  0.10419147204E+04  0.80769805004E+02 0.  0.
         24    2    4    4    0    0 -0.23996216366E+03 -0.33979556109E+03  0.26510644441E+03  0.49967041237E+03  0.79663233731E+02 0.  0.
         11    1    3    3    0    0 -0.87967574301E+02  0.18647295948E+03  0.94596491885E+02  0.22684566344E+03  0.00000000000E+00 0. -1.
        -11    1    3    3    0    0 -0.25602664728E+03  0.26471633685E+03  0.15219915688E+03  0.39848333273E+03  0.00000000000E+00 0.  1.
          4    1    6    6  502    0 -0.22042785004E+02 -0.20802187131E+02  0.47302366209E+02  0.56179437601E+02  0.00000000000E+00 0. -1.
          1    1    5    5  503    0  0.23151594862E+03 -0.19820350514E+02  0.27854147055E+03  0.36273658704E+03  0.00000000000E+00 0. -1.
         -2    1    5    5    0  503  0.35244043662E+03 -0.91573384729E+02  0.57330880920E+03  0.67917813337E+03  0.00000000000E+00 0.  1.
         -3    1    6    6    0  502 -0.21791937866E+03 -0.31899337396E+03  0.21780407820E+03  0.44349097477E+03  0.00000000000E+00 0.  1.
<mgrwt>
<rscale>  0 0.16839526E+04</rscale>
<asrwt>0</asrwt>
<pdfrwt beam="1">  1        2 0.27158973E+00 0.16839526E+04</pdfrwt>
<pdfrwt beam="2">  1       -2 0.61781675E-01 0.16839526E+04</pdfrwt>
<totfact> 0.20914112E+01</totfact>
</mgrwt>
</event>
<event>
12    1  0.2019083E-007  0.1823121E+04  0.7818608E-02  0.8694100E-01
          1   -1    0    0  501    0  0.00000000000E+00  0.00000000000E+00  0.94041089973E+03  0.94041089973E+03  0.00000000000E+00 0. -1.
         -1   -1    0    0    0  501 -0.00000000000E+00 -0.00000000000E+00 -0.88359535850E+03  0.88359535850E+03  0.00000000000E+00 0.  1.
         23    2    1    2    0    0 -0.52683338397E+03 -0.25007272586E+03  0.38399970886E+03  0.70391705895E+03  0.89183332453E+02 0.  0.
        254    2    1    2    0    0  0.52683338397E+03  0.25007272586E+03 -0.32718416763E+03  0.11200891993E+04  0.89858808812E+03 0.  0.
        -24    2    4    4    0    0  0.47018945299E+03  0.56255624702E+03 -0.28384549499E+03  0.79036051859E+03  0.80955738226E+02 0.  0.
         24    2    4    4    0    0  0.56643930985E+02 -0.31248352116E+03 -0.43338672636E+02  0.32972868069E+03  0.77383954474E+02 0.  0.
         13    1    3    3    0    0 -0.26486507078E+03 -0.15261633418E+03  0.15589840221E+03  0.34314656197E+03  0.00000000000E+00 0.  1.
        -13    1    3    3    0    0 -0.26196831319E+03 -0.97456391676E+02  0.22810130665E+03  0.36077049698E+03  0.00000000000E+00 0. -1.
          4    1    6    6  502    0  0.33644470484E+02 -0.11576466967E+03  0.19105969652E+02  0.12205919553E+03  0.00000000000E+00 0. -1.
          3    1    5    5  503    0  0.16305760979E+03  0.13799325288E+03 -0.84362233027E+02  0.22966695085E+03  0.00000000000E+00 0. -1.
         -4    1    5    5    0  503  0.30713184320E+03  0.42456299414E+03 -0.19948326197E+03  0.56069356774E+03  0.00000000000E+00 0.  1.
         -3    1    6    6    0  502  0.22999460501E+02 -0.19671885149E+03 -0.62444642288E+02  0.20766948516E+03  0.00000000000E+00 0.  1.
<mgrwt>
<rscale>  0 0.18231212E+04</rscale>
<asrwt>0</asrwt>
<pdfrwt beam="1">  1        1 0.14467860E+00 0.18231212E+04</pdfrwt>
<pdfrwt beam="2">  1       -1 0.13593775E+00 0.18231212E+04</pdfrwt>
<totfact> 0.71907258E+00</totfact>
</mgrwt>
</event>
<event>
12    1  0.2019083E-007  0.2609795E+04  0.7818608E-02  0.8364882E-01
          2   -1    0    0  501    0  0.00000000000E+00  0.00000000000E+00  0.16664096660E+04  0.16664096660E+04  0.00000000000E+00 0. -1.
         -2   -1    0    0    0  501 -0.00000000000E+00 -0.00000000000E+00 -0.10218118427E+04  0.10218118427E+04  0.00000000000E+00 0.  1.
         23    2    1    2    0    0 -0.10750407231E+04  0.37453740961E+03  0.13339446050E+03  0.11500024435E+04  0.93384744202E+02 0.  0.
        254    2    1    2    0    0  0.10750407231E+04 -0.37453740961E+03  0.51120336276E+03  0.15382190652E+04  0.89933207826E+03 0.  0.
        -24    2    4    4    0    0  0.25365311083E+03  0.26989404768E+03  0.26406336998E+03  0.46246042903E+03  0.83411554599E+02 0.  0.
         24    2    4    4    0    0  0.82138761225E+03 -0.64443145729E+03  0.24713999278E+03  0.10757586362E+04  0.78796919893E+02 0.  0.
         11    1    3    3    0    0 -0.79760375216E+03  0.28807854919E+03  0.13901099951E+03  0.85935153107E+03  0.00000000000E+00 0.  1.
        -11    1    3    3    0    0 -0.27743697092E+03  0.86458860420E+02 -0.56165390078E+01  0.29065091242E+03  0.00000000000E+00 0. -1.
          4    1    6    6  502    0  0.13436549925E+02 -0.26610487783E+02  0.48780415898E+01  0.30206857230E+02  0.00000000000E+00 0. -1.
          1    1    5    5  503    0  0.17166203226E+03  0.13080830640E+03  0.12521909295E+03  0.24951650764E+03  0.00000000000E+00 0. -1.
         -2    1    5    5    0  503  0.81991078570E+02  0.13908574128E+03  0.13884427703E+03  0.21294392139E+03  0.00000000000E+00 0.  1.
         -3    1    6    6    0  502  0.80795106232E+03 -0.61782096950E+03  0.24226195119E+03  0.10455517789E+04  0.00000000000E+00 0.  1.
<mgrwt>
<rscale>  0 0.26097947E+04</rscale>
<asrwt>0</asrwt>
<pdfrwt beam="1">  1        2 0.25637072E+00 0.26097947E+04</pdfrwt>
<pdfrwt beam="2">  1       -2 0.15720182E+00 0.26097947E+04</pdfrwt>
<totfact> 0.23918269E+00</totfact>
</mgrwt>
</event>
<event>
12    1  0.2019083E-007  0.2949313E+04  0.7818608E-02  0.8258355E-01
         -2   -1    0    0    0  501 -0.00000000000E+00  0.00000000000E+00  0.13158664419E+04  0.13158664419E+04  0.00000000000E+00 0. -1.
          2   -1    0    0  501    0  0.00000000000E+00 -0.00000000000E+00 -0.16526087884E+04  0.16526087884E+04  0.00000000000E+00 0.  1.
         23    2    1    2    0    0 -0.40596940265E+03 -0.10938338634E+04 -0.80761413557E+03  0.14210808263E+04  0.77113205473E+02 0.  0.
        254    2    1    2    0    0  0.40596940265E+03  0.10938338634E+04  0.47087178904E+03  0.15473944039E+04  0.90079160913E+03 0.  0.
        -24    2    4    4    0    0  0.65100693696E+03  0.71659218138E+03  0.13615426528E+03  0.98100277978E+03  0.80709873021E+02 0.  0.
         24    2    4    4    0    0 -0.24503753431E+03  0.37724168198E+03  0.33471752376E+03  0.56639162415E+03  0.80056051323E+02 0.  0.
         13    1    3    3    0    0 -0.26713780116E+03 -0.67281526721E+03 -0.54146343134E+03  0.90400532967E+03  0.00000000000E+00 0.  1.
        -13    1    3    3    0    0 -0.13883160149E+03 -0.42101859615E+03 -0.26615070423E+03  0.51707549666E+03  0.00000000000E+00 0. -1.
          2    1    6    6  502    0 -0.24821217542E+03  0.37223716932E+03  0.31868696770E+03  0.54930062592E+03  0.00000000000E+00 0. -1.
          3    1    5    5  503    0  0.20556664167E+03  0.25185290139E+03  0.80161727418E+02  0.33483343717E+03  0.00000000000E+00 0. -1.
         -4    1    5    5    0  503  0.44544029529E+03  0.46473927999E+03  0.55992537864E+02  0.64616934261E+03  0.00000000000E+00 0.  1.
         -1    1    6    6    0  502  0.31746411142E+01  0.50045126657E+01  0.16030556055E+02  0.17090998234E+02  0.00000000000E+00 0.  1.
<mgrwt>
<rscale>  0 0.29493134E+04</rscale>
<asrwt>0</asrwt>
<pdfrwt beam="1">  1        2 0.25424751E+00 0.29493134E+04</pdfrwt>
<pdfrwt beam="2">  1       -2 0.20244099E+00 0.29493134E+04</pdfrwt>
<totfact> 0.11485080E+00</totfact>
</mgrwt>
</event>
<event>
12    1  0.2019083E-007  0.2579202E+04  0.7818608E-02  0.8375300E-01
         -2   -1    0    0    0  501 -0.00000000000E+00  0.00000000000E+00  0.51245914381E+03  0.51245914381E+03  0.00000000000E+00 0.  1.
          2   -1    0    0  501    0  0.00000000000E+00 -0.00000000000E+00 -0.32452743530E+04  0.32452743530E+04  0.00000000000E+00 0. -1.
         23    2    1    2    0    0  0.10712702346E+04  0.31000217584E+03 -0.92764293791E+03  0.14535497850E+04  0.92543464294E+02 0.  0.
        254    2    1    2    0    0 -0.10712702346E+04 -0.31000217584E+03 -0.18051722712E+04  0.23041837118E+04  0.89827300091E+03 0.  0.
        -24    2    4    4    0    0 -0.83296368638E+03  0.12003054390E+03 -0.14942016638E+04  0.17167316106E+04  0.79328284024E+02 0.  0.
         24    2    4    4    0    0 -0.23830654817E+03 -0.43003271974E+03 -0.31097060746E+03  0.58745210111E+03  0.81725769743E+02 0.  0.
         13    1    3    3    0    0  0.85755925696E+03  0.21126790999E+03 -0.71559936141E+03  0.11367165236E+04  0.00000000000E+00 0.  1.
        -13    1    3    3    0    0  0.21371097760E+03  0.98734265857E+02 -0.21204357650E+03  0.31683326141E+03  0.00000000000E+00 0. -1.
          4    1    6    6  502    0 -0.16383020636E+03 -0.30275877922E+03 -0.26011438040E+03  0.43146576435E+03  0.00000000000E+00 0. -1.
          1    1    5    5  503    0 -0.81027049802E+03  0.11000272435E+03 -0.14214458671E+04  0.16398619553E+04  0.00000000000E+00 0. -1.
         -2    1    5    5    0  503 -0.22693188366E+02  0.10027819548E+02 -0.72755796714E+02  0.76869655382E+02  0.00000000000E+00 0.  1.
         -3    1    6    6    0  502 -0.74476341810E+02 -0.12727394052E+03 -0.50856227060E+02  0.15598633676E+03  0.00000000000E+00 0.  1.
<mgrwt>
<rscale>  0 0.25792018E+04</rscale>
<asrwt>0</asrwt>
<pdfrwt beam="1">  1        2 0.49927298E+00 0.25792018E+04</pdfrwt>
<pdfrwt beam="2">  1       -2 0.78839868E-01 0.25792018E+04</pdfrwt>
<totfact> 0.15332202E+00</totfact>
</mgrwt>
</event>
<event>
12    1  0.2019083E-007  0.3149480E+04  0.7818608E-02  0.8202288E-01
          2   -1    0    0  501    0  0.00000000000E+00  0.00000000000E+00  0.17450484089E+04  0.17450484089E+04  0.00000000000E+00 0. -1.
         -2   -1    0    0    0  501 -0.00000000000E+00 -0.00000000000E+00 -0.14210525682E+04  0.14210525682E+04  0.00000000000E+00 0.  1.
         23    2    1    2    0    0 -0.13423080902E+04  0.42294807421E+03  0.47669686964E+03  0.14887697645E+04  0.92300724828E+02 0.  0.
        254    2    1    2    0    0  0.13423080902E+04 -0.42294807421E+03 -0.15270102888E+03  0.16773312126E+04  0.89969234184E+03 0.  0.
        -24    2    4    4    0    0 -0.41199517096E+02  0.51341944518E+02  0.14917500850E+03  0.18188059635E+03  0.80585189019E+02 0.  0.
         24    2    4    4    0    0  0.13835076073E+04 -0.47429001873E+03 -0.30187603738E+03  0.14954506162E+04  0.78734251296E+02 0.  0.
         13    1    3    3    0    0 -0.71315871415E+03  0.25397350408E+03  0.21754407593E+03  0.78766954830E+03  0.00000000000E+00 0.  1.
        -13    1    3    3    0    0 -0.62914937605E+03  0.16897457013E+03  0.25915279371E+03  0.70110021625E+03  0.00000000000E+00 0. -1.
          4    1    6    6  502    0  0.23646842050E+03 -0.50656616832E+02 -0.54982185197E+02  0.24800493425E+03  0.00000000000E+00 0. -1.
          1    1    5    5  503    0  0.85014140969E+01 -0.14523942814E+02  0.50620396565E+02  0.53344573341E+02  0.00000000000E+00 0. -1.
         -2    1    5    5    0  503 -0.49700931193E+02  0.65865887333E+02  0.98554611938E+02  0.12853602300E+03  0.00000000000E+00 0.  1.
         -3    1    6    6    0  502  0.11470391868E+04 -0.42363340190E+03 -0.24689385219E+03  0.12474456820E+04  0.00000000000E+00 0.  1.
<mgrwt>
<rscale>  0 0.31494797E+04</rscale>
<asrwt>0</asrwt>
<pdfrwt beam="1">  1        2 0.26846898E+00 0.31494797E+04</pdfrwt>
<pdfrwt beam="2">  1       -2 0.21862347E+00 0.31494797E+04</pdfrwt>
<totfact> 0.78942362E-01</totfact>
</mgrwt>
</event>
<event>
12    1  0.2019083E-007  0.2139617E+04  0.7818608E-02  0.8543990E-01
          1   -1    0    0  501    0  0.00000000000E+00  0.00000000000E+00  0.54196492574E+03  0.54196492574E+03  0.00000000000E+00 0.  1.
         -1   -1    0    0    0  501 -0.00000000000E+00 -0.00000000000E+00 -0.21117421897E+04  0.21117421897E+04  0.00000000000E+00 0. -1.
         23    2    1    2    0    0  0.29493890750E+01 -0.84612858097E+03 -0.36644700236E+03  0.92846208062E+03  0.10870213974E+03 0.  0.
        254    2    1    2    0    0 -0.29493890750E+01  0.84612858097E+03 -0.12033302616E+04  0.17252450349E+04  0.90140137413E+03 0.  0.
        -24    2    4    4    0    0 -0.29892347172E+03  0.78248115065E+03 -0.56350240739E+03  0.10130459547E+04  0.84232714394E+02 0.  0.
         24    2    4    4    0    0  0.29597408264E+03  0.63647430321E+02 -0.63982785426E+03  0.71219908014E+03  0.78715904963E+02 0.  0.
         11    1    3    3    0    0  0.45877534895E+02 -0.55451086977E+03 -0.26893340521E+03  0.61799047673E+03  0.00000000000E+00 0. -1.
        -11    1    3    3    0    0 -0.42928145820E+02 -0.29161771120E+03 -0.97513597151E+02  0.31047160389E+03  0.00000000000E+00 0.  1.
          2    1    6    6  502    0  0.31332046881E+02  0.34885894970E+01 -0.13936113173E+03  0.14288244278E+03  0.00000000000E+00 0. -1.
          1    1    5    5  503    0 -0.66203521585E+02  0.98426762764E+02 -0.65589926586E+02  0.13554620012E+03  0.00000000000E+00 0. -1.
         -2    1    5    5    0  503 -0.23271995013E+03  0.68405438789E+03 -0.49791248081E+03  0.87749975460E+03  0.00000000000E+00 0.  1.
         -1    1    6    6    0  502  0.26464203576E+03  0.60158840824E+02 -0.50046672253E+03  0.56931663736E+03  0.00000000000E+00 0.  1.
<mgrwt>
<rscale>  0 0.21396170E+04</rscale>
<asrwt>0</asrwt>
<pdfrwt beam="1">  1        1 0.83379219E-01 0.21396170E+04</pdfrwt>
<pdfrwt beam="2">  1       -1 0.32488341E+00 0.21396170E+04</pdfrwt>
<totfact> 0.82613422E-01</totfact>
</mgrwt>
</event>
<event>
12    1  0.2019083E-007  0.2609736E+04  0.7818608E-02  0.8364901E-01
          3   -1    0    0  501    0  0.00000000000E+00  0.00000000000E+00  0.32463942532E+04  0.32463942532E+04  0.00000000000E+00 0. -1.
         -3   -1    0    0    0  501 -0.00000000000E+00 -0.00000000000E+00 -0.52448374111E+03  0.52448374111E+03  0.00000000000E+00 0.  1.
         23    2    1    2    0    0  0.12623707712E+03  0.10671328685E+04  0.61413553372E+03  0.12406717178E+04  0.85997086746E+02 0.  0.
        254    2    1    2    0    0 -0.12623707712E+03 -0.10671328685E+04  0.21077749784E+04  0.25302062765E+04  0.89695043542E+03 0.  0.
        -24    2    4    4    0    0 -0.44263945913E+03 -0.57535840653E+03  0.73557804245E+03  0.10365217903E+04  0.79595090633E+02 0.  0.
         24    2    4    4    0    0  0.31640238201E+03 -0.49177446195E+03  0.13721969359E+04  0.14936844862E+04  0.78843672292E+02 0.  0.
         13    1    3    3    0    0  0.37606714778E+02  0.67221798029E+03  0.38246312754E+03  0.77431861785E+03  0.00000000000E+00 0.  1.
        -13    1    3    3    0    0  0.88630362344E+02  0.39491488819E+03  0.23167240618E+03  0.46635309995E+03  0.00000000000E+00 0. -1.
          2    1    6    6  502    0  0.13066755941E+02 -0.18727967412E+01  0.42660825323E+02  0.44656393672E+02  0.00000000000E+00 0. -1.
          3    1    5    5  503    0 -0.20884866957E+03 -0.32568905590E+03  0.35908840101E+03  0.52785945824E+03  0.00000000000E+00 0. -1.
         -4    1    5    5    0  503 -0.23379078956E+03 -0.24966935063E+03  0.37648964144E+03  0.50866233204E+03  0.00000000000E+00 0.  1.
         -1    1    6    6    0  502  0.30333562607E+03 -0.48990166521E+03  0.13295361106E+04  0.14490280926E+04  0.00000000000E+00 0.  1.
<mgrwt>
<rscale>  0 0.26097364E+04</rscale>
<asrwt>0</asrwt>
<pdfrwt beam="1">  1        3 0.49944526E+00 0.26097364E+04</pdfrwt>
<pdfrwt beam="2">  1       -3 0.80689808E-01 0.26097364E+04</pdfrwt>
<totfact> 0.11322760E-02</totfact>
</mgrwt>
</event>
<event>
12    1  0.2019083E-007  0.2564515E+04  0.7818608E-02  0.8380356E-01
         -2   -1    0    0    0  501 -0.00000000000E+00  0.00000000000E+00  0.64673588188E+03  0.64673588188E+03  0.00000000000E+00 0.  1.
          2   -1    0    0  501    0  0.00000000000E+00 -0.00000000000E+00 -0.25422806526E+04  0.25422806526E+04  0.00000000000E+00 0. -1.
         23    2    1    2    0    0  0.27510538922E+03  0.91633697835E+03 -0.10294257844E+03  0.96650043760E+03  0.90385221990E+02 0.  0.
        254    2    1    2    0    0 -0.27510538922E+03 -0.91633697835E+03 -0.17926021923E+04  0.22225160969E+04  0.90044363960E+03 0.  0.
        -24    2    4    4    0    0 -0.22556602764E+03 -0.83497260790E+03 -0.18807952373E+04  0.20716706965E+04  0.79808905336E+02 0.  0.
         24    2    4    4    0    0 -0.49539361574E+02 -0.81364370450E+02  0.88193045041E+02  0.15084540036E+03  0.76824556563E+02 0.  0.
         11    1    3    3    0    0  0.15480700069E+03  0.56342647499E+03 -0.10487911623E+03  0.59364486792E+03  0.00000000000E+00 0. -1.
        -11    1    3    3    0    0  0.12029838853E+03  0.35291050337E+03  0.19365377916E+01  0.37285556969E+03  0.00000000000E+00 0.  1.
          2    1    6    6  502    0 -0.69678378553E+02 -0.63750051050E+02  0.59540787896E+02  0.11164340943E+03  0.00000000000E+00 0. -1.
          3    1    5    5  503    0 -0.23726660502E+02 -0.21699382395E+03 -0.45436872388E+03  0.50408353602E+03  0.00000000000E+00 0. -1.
         -4    1    5    5    0  503 -0.20183936714E+03 -0.61797878396E+03 -0.14264265135E+04  0.15675871605E+04  0.00000000000E+00 0.  1.
         -1    1    6    6    0  502  0.20139016979E+02 -0.17614319400E+02  0.28652257145E+02  0.39201990923E+02  0.00000000000E+00 0.  1.
<mgrwt>
<rscale>  0 0.25645149E+04</rscale>
<asrwt>0</asrwt>
<pdfrwt beam="1">  1        2 0.39112009E+00 0.25645149E+04</pdfrwt>
<pdfrwt beam="2">  1       -2 0.99497830E-01 0.25645149E+04</pdfrwt>
<totfact> 0.24389384E+00</totfact>
</mgrwt>
</event>
<event>
12    1  0.2019083E-007  0.1537814E+04  0.7818608E-02  0.8859689E-01
         -1   -1    0    0    0  501 -0.00000000000E+00  0.00000000000E+00  0.80008072734E+03  0.80008072734E+03  0.00000000000E+00 0.  1.
          1   -1    0    0  501    0  0.00000000000E+00 -0.00000000000E+00 -0.73894794237E+03  0.73894794237E+03  0.00000000000E+00 0. -1.
         23    2    1    2    0    0  0.19199269751E+03 -0.46129895177E+03  0.37231924544E+02  0.50861137978E+03  0.87415105315E+02 0.  0.
        254    2    1    2    0    0 -0.19199269751E+03  0.46129895177E+03  0.23900860422E+02  0.10304172899E+04  0.90084994393E+03 0.  0.
        -24    2    4    4    0    0 -0.25065029157E+03 -0.11830444801E+03  0.26795194329E+03  0.39373960168E+03  0.80069463199E+02 0.  0.
         24    2    4    4    0    0  0.58657594060E+02  0.57960339978E+03 -0.24405108287E+03  0.63667768825E+03  0.80104514803E+02 0.  0.
         13    1    3    3    0    0  0.75182688182E+02 -0.19697527223E+03  0.58631708468E+02  0.21883640399E+03  0.00000000000E+00 0.  1.
        -13    1    3    3    0    0  0.11681000932E+03 -0.26432367954E+03 -0.21399783924E+02  0.28977497579E+03  0.00000000000E+00 0. -1.
          2    1    6    6  502    0  0.21400788506E+02  0.12907872609E+03 -0.20765657352E+02  0.13247838995E+03  0.00000000000E+00 0. -1.
          3    1    5    5  503    0 -0.97676241828E+01  0.11861249362E+01 -0.46098659478E+01  0.10865736910E+02  0.00000000000E+00 0. -1.
         -4    1    5    5    0  503 -0.24088266738E+03 -0.11949057295E+03  0.27256180924E+03  0.38287386477E+03  0.00000000000E+00 0.  1.
         -1    1    6    6    0  502  0.37256805554E+02  0.45052467369E+03 -0.22328542552E+03  0.50419929831E+03  0.00000000000E+00 0.  1.
<mgrwt>
<rscale>  0 0.15378140E+04</rscale>
<asrwt>0</asrwt>
<pdfrwt beam="1">  1        1 0.11368430E+00 0.15378140E+04</pdfrwt>
<pdfrwt beam="2">  1       -1 0.12308934E+00 0.15378140E+04</pdfrwt>
<totfact> 0.14060119E+01</totfact>
</mgrwt>
</event>
<event>
12    1  0.2019083E-007  0.1978606E+04  0.7818608E-02  0.8616689E-01
         -2   -1    0    0    0  501 -0.00000000000E+00  0.00000000000E+00  0.37321564978E+03  0.37321564978E+03  0.00000000000E+00 0.  1.
          2   -1    0    0  501    0  0.00000000000E+00 -0.00000000000E+00 -0.26224000787E+04  0.26224000787E+04  0.00000000000E+00 0. -1.
         23    2    1    2    0    0 -0.57323343544E+03 -0.37682165277E+03 -0.14794974825E+04  0.16333169657E+04  0.90666311460E+02 0.  0.
        254    2    1    2    0    0  0.57323343544E+03  0.37682165277E+03 -0.76968694640E+03  0.13622987628E+04  0.89042057154E+03 0.  0.
        -24    2    4    4    0    0  0.72066935456E+03  0.52599511021E+03 -0.65901354501E+03  0.11120212961E+04  0.79103324928E+02 0.  0.
         24    2    4    4    0    0 -0.14743591912E+03 -0.14917345744E+03 -0.11067340139E+03  0.25027746667E+03  0.80000861850E+02 0.  0.
         11    1    3    3    0    0 -0.30298055229E+03 -0.15994338492E+03 -0.80950658745E+03  0.87902219345E+03  0.00000000000E+00 0. -1.
        -11    1    3    3    0    0 -0.27025288315E+03 -0.21687826784E+03 -0.66999089507E+03  0.75429477221E+03  0.00000000000E+00 0.  1.
          4    1    6    6  502    0 -0.71117956256E+02 -0.12603820562E+03 -0.72578332560E+02  0.16189813876E+03  0.00000000000E+00 0. -1.
          1    1    5    5  503    0  0.26882249763E+03  0.22307761648E+03 -0.21845331545E+03  0.41200850627E+03  0.00000000000E+00 0. -1.
         -4    1    5    5    0  503  0.45184685692E+03  0.30291749373E+03 -0.44056022956E+03  0.70001278988E+03  0.00000000000E+00 0.  1.
         -3    1    6    6    0  502 -0.76317962861E+02 -0.23135251822E+02 -0.38095068828E+02  0.88379327907E+02  0.00000000000E+00 0.  1.
<mgrwt>
<rscale>  0 0.19786063E+04</rscale>
<asrwt>0</asrwt>
<pdfrwt beam="1">  1        2 0.40344615E+00 0.19786063E+04</pdfrwt>
<pdfrwt beam="2">  1       -2 0.57417795E-01 0.19786063E+04</pdfrwt>
<totfact> 0.78148592E+00</totfact>
</mgrwt>
</event>
<event>
12    1  0.2019083E-007  0.2166031E+04  0.7818608E-02  0.8532701E-01
          1   -1    0    0  501    0  0.00000000000E+00  0.00000000000E+00  0.19266034402E+04  0.19266034402E+04  0.00000000000E+00 0. -1.
         -1   -1    0    0    0  501 -0.00000000000E+00 -0.00000000000E+00 -0.60880343443E+03  0.60880343443E+03  0.00000000000E+00 0.  1.
         23    2    1    2    0    0  0.38976227245E+03 -0.11451182113E+03 -0.38492291484E+03  0.56728232942E+03  0.92822436382E+02 0.  0.
        254    2    1    2    0    0 -0.38976227245E+03  0.11451182113E+03  0.17027229206E+04  0.19681245452E+04  0.89956728202E+03 0.  0.
        -24    2    4    4    0    0 -0.19432758792E+03 -0.36044169678E+03  0.10737546058E+04  0.11519364237E+04  0.79543336950E+02 0.  0.
         24    2    4    4    0    0 -0.19543468453E+03  0.47495351791E+03  0.62896831480E+03  0.81618812155E+03  0.82379297376E+02 0.  0.
         11    1    3    3    0    0  0.94536103272E+02 -0.58328854535E+02 -0.66636558749E+02  0.12953671702E+03  0.00000000000E+00 0. -1.
        -11    1    3    3    0    0  0.29522616918E+03 -0.56182966594E+02 -0.31828635609E+03  0.43774561240E+03  0.00000000000E+00 0.  1.
          2    1    6    6  502    0 -0.40959116610E+02  0.75119532184E+02  0.63143293972E+02  0.10633752359E+03  0.00000000000E+00 0. -1.
          3    1    5    5  503    0  0.60242439581E+01 -0.12021821387E+02  0.58399631129E+02  0.59927728313E+02  0.00000000000E+00 0. -1.
         -4    1    5    5    0  503 -0.20035183188E+03 -0.34841987540E+03  0.10153549747E+04  0.10920086954E+04  0.00000000000E+00 0.  1.
         -1    1    6    6    0  502 -0.15447556792E+03  0.39983398573E+03  0.56582502083E+03  0.70985059796E+03  0.00000000000E+00 0.  1.
<mgrwt>
<rscale>  0 0.21660312E+04</rscale>
<asrwt>0</asrwt>
<pdfrwt beam="1">  1        1 0.29640053E+00 0.21660312E+04</pdfrwt>
<pdfrwt beam="2">  1       -1 0.93662068E-01 0.21660312E+04</pdfrwt>
<totfact> 0.33777549E+00</totfact>
</mgrwt>
</event>
<event>
12    1  0.2019083E-007  0.2035437E+04  0.7818608E-02  0.8590230E-01
          4   -1    0    0  501    0  0.00000000000E+00  0.00000000000E+00  0.16940639394E+04  0.16940639394E+04  0.00000000000E+00 0. -1.
         -4   -1    0    0    0  501 -0.00000000000E+00 -0.00000000000E+00 -0.61140020597E+03  0.61140020597E+03  0.00000000000E+00 0.  1.
         23    2    1    2    0    0  0.45983051967E+03 -0.43157730783E+03 -0.15187333491E+03  0.65491026019E+03  0.90215628253E+02 0.  0.
        254    2    1    2    0    0 -0.45983051967E+03  0.43157730783E+03  0.12345370683E+04  0.16505538852E+04  0.89584779697E+03 0.  0.
        -24    2    4    4    0    0 -0.28557588652E+03  0.61101348032E+03  0.43073623073E+03  0.80493741949E+03  0.86599588636E+02 0.  0.
         24    2    4    4    0    0 -0.17425463316E+03 -0.17943617248E+03  0.80380083759E+03  0.84561646567E+03  0.80058749290E+02 0.  0.
         13    1    3    3    0    0  0.26010319279E+03 -0.30247675864E+03 -0.85294569235E+02  0.40794732988E+03  0.00000000000E+00 0.  1.
        -13    1    3    3    0    0  0.19972732688E+03 -0.12910054919E+03 -0.66578765675E+02  0.24696293030E+03  0.00000000000E+00 0. -1.
          2    1    6    6  502    0 -0.16608000720E+03 -0.12812792140E+03  0.67064577508E+03  0.70268420266E+03  0.00000000000E+00 0. -1.
          1    1    5    5  503    0 -0.28042721162E+03  0.60824505631E+03  0.41445493732E+03  0.78763847329E+03  0.00000000000E+00 0. -1.
         -2    1    5    5    0  503 -0.51486748925E+01  0.27684240097E+01  0.16281293409E+02  0.17298946203E+02  0.00000000000E+00 0.  1.
         -1    1    6    6    0  502 -0.81746259546E+01 -0.51308251080E+02  0.13315506250E+03  0.14293226301E+03  0.00000000000E+00 0.  1.
<mgrwt>
<rscale>  0 0.20354371E+04</rscale>
<asrwt>0</asrwt>
<pdfrwt beam="1">  1        4 0.26062522E+00 0.20354371E+04</pdfrwt>
<pdfrwt beam="2">  1       -4 0.94061570E-01 0.20354371E+04</pdfrwt>
<totfact> 0.95978279E-02</totfact>
</mgrwt>
</event>
<event>
12    1  0.2019083E-007  0.2626906E+04  0.7818608E-02  0.8359119E-01
          2   -1    0    0  501    0  0.00000000000E+00  0.00000000000E+00  0.10299097044E+04  0.10299097044E+04  0.00000000000E+00 0. -1.
         -2   -1    0    0    0  501 -0.00000000000E+00 -0.00000000000E+00 -0.16750587125E+04  0.16750587125E+04  0.00000000000E+00 0.  1.
         23    2    1    2    0    0 -0.41845328456E+03  0.97801175346E+03  0.18342111243E+03  0.10833345916E+04  0.91435177031E+02 0.  0.
        254    2    1    2    0    0  0.41845328456E+03 -0.97801175346E+03 -0.82857012056E+03  0.16216338253E+04  0.90086496078E+03 0.  0.
        -24    2    4    4    0    0  0.13551059432E+03 -0.97792004269E+03 -0.33222849970E+03  0.10446425939E+04  0.78813970537E+02 0.  0.
         24    2    4    4    0    0  0.28294269024E+03 -0.91710769634E-01 -0.49634162086E+03  0.57699123143E+03  0.80667850923E+02 0.  0.
         11    1    3    3    0    0 -0.15782164159E+03  0.47042360928E+03  0.63007736113E+02  0.50017598656E+03  0.00000000000E+00 0.  1.
        -11    1    3    3    0    0 -0.26063164297E+03  0.50758814417E+03  0.12041337632E+03  0.58315860503E+03  0.00000000000E+00 0. -1.
          2    1    6    6  502    0  0.38081678894E+02  0.94389205561E+01 -0.13355956637E+03  0.13920296426E+03  0.00000000000E+00 0. -1.
          1    1    5    5  503    0  0.18914471649E+02 -0.78634891136E+02 -0.49294833352E+02  0.94716334055E+02  0.00000000000E+00 0. -1.
         -2    1    5    5    0  503  0.11659612267E+03 -0.89928515155E+03 -0.28293366635E+03  0.94992625986E+03  0.00000000000E+00 0.  1.
         -1    1    6    6    0  502  0.24486101135E+03 -0.95306313257E+01 -0.36278205449E+03  0.43778826717E+03  0.00000000000E+00 0.  1.
<mgrwt>
<rscale>  0 0.26269063E+04</rscale>
<asrwt>0</asrwt>
<pdfrwt beam="1">  1        2 0.15844765E+00 0.26269063E+04</pdfrwt>
<pdfrwt beam="2">  1       -2 0.25770134E+00 0.26269063E+04</pdfrwt>
<totfact> 0.12259379E+00</totfact>
</mgrwt>
</event>
<event>
12    1  0.2019083E-007  0.2897609E+04  0.7818608E-02  0.8273589E-01
          2   -1    0    0  501    0  0.00000000000E+00  0.00000000000E+00  0.22924374270E+04  0.22924374270E+04  0.00000000000E+00 0. -1.
         -2   -1    0    0    0  501 -0.00000000000E+00 -0.00000000000E+00 -0.91563429869E+03  0.91563429869E+03  0.00000000000E+00 0.  1.
         23    2    1    2    0    0 -0.10333304938E+04  0.65641534460E+03  0.11273273745E+03  0.12329692027E+04  0.94081723208E+02 0.  0.
        254    2    1    2    0    0  0.10333304938E+04 -0.65641534460E+03  0.12640703909E+04  0.19751025230E+04  0.89694091736E+03 0.  0.
        -24    2    4    4    0    0  0.11655605554E+04 -0.45704856216E+03  0.95765870865E+03  0.15783577493E+04  0.81720168306E+02 0.  0.
         24    2    4    4    0    0 -0.13223006163E+03 -0.19936678244E+03  0.30641168224E+03  0.39674477373E+03  0.79286779020E+02 0.  0.
         11    1    3    3    0    0 -0.42228435748E+03  0.32304242979E+03  0.42952797799E+02  0.53340925456E+03  0.00000000000E+00 0. -1.
        -11    1    3    3    0    0 -0.61104613634E+03  0.33337291482E+03  0.69779939652E+02  0.69955994814E+03  0.00000000000E+00 0.  1.
          4    1    6    6  502    0 -0.43946483655E+02 -0.15944800950E+02  0.76623491484E+02  0.89759063889E+02  0.00000000000E+00 0. -1.
          3    1    5    5  503    0  0.83816826469E+03 -0.35824111588E+03  0.72594409617E+03  0.11652714567E+04  0.00000000000E+00 0. -1.
         -4    1    5    5    0  503  0.32739229076E+03 -0.98807446279E+02  0.23171461247E+03  0.41308629259E+03  0.00000000000E+00 0.  1.
         -3    1    6    6    0  502 -0.88283577976E+02 -0.18342198149E+03  0.22978819076E+03  0.30698570984E+03  0.00000000000E+00 0.  1.
<mgrwt>
<rscale>  0 0.28976089E+04</rscale>
<asrwt>0</asrwt>
<pdfrwt beam="1">  1        2 0.35268268E+00 0.28976089E+04</pdfrwt>
<pdfrwt beam="2">  1       -2 0.14086682E+00 0.28976089E+04</pdfrwt>
<totfact> 0.13968029E+00</totfact>
</mgrwt>
</event>
<event>
12    1  0.2019083E-007  0.1953777E+04  0.7818608E-02  0.8628542E-01
          2   -1    0    0  501    0  0.00000000000E+00  0.00000000000E+00  0.22393872923E+04  0.22393872923E+04  0.00000000000E+00 0. -1.
         -2   -1    0    0    0  501 -0.00000000000E+00 -0.00000000000E+00 -0.42614814835E+03  0.42614814835E+03  0.00000000000E+00 0.  1.
         23    2    1    2    0    0  0.30843400092E+03 -0.70129105777E+03  0.73299736205E+03  0.10642274798E+04  0.91401944389E+02 0.  0.
        254    2    1    2    0    0 -0.30843400092E+03  0.70129105777E+03  0.10802417819E+04  0.16013079608E+04  0.90018009164E+03 0.  0.
        -24    2    4    4    0    0 -0.55682963040E+03  0.68826636862E+03  0.97634012530E+03  0.13204021962E+04  0.80324890682E+02 0.  0.
         24    2    4    4    0    0  0.24839562947E+03  0.13024689152E+02  0.10390165662E+03  0.28090576461E+03  0.79009259414E+02 0.  0.
         13    1    3    3    0    0  0.11258253284E+03 -0.15777576929E+03  0.18275397398E+03  0.26639638714E+03  0.00000000000E+00 0.  1.
        -13    1    3    3    0    0  0.19585146808E+03 -0.54351528848E+03  0.55024338807E+03  0.79783109270E+03  0.00000000000E+00 0. -1.
          4    1    6    6  502    0  0.14375452070E+03 -0.16192450744E+02  0.25418801412E+02  0.14687979149E+03  0.00000000000E+00 0. -1.
          3    1    5    5  503    0 -0.14282548792E+03  0.13044465580E+03  0.18938734239E+03  0.27070739495E+03  0.00000000000E+00 0. -1.
         -4    1    5    5    0  503 -0.41400414248E+03  0.55782171283E+03  0.78695278290E+03  0.10496948013E+04  0.00000000000E+00 0.  1.
         -3    1    6    6    0  502  0.10464110877E+03  0.29217139896E+02  0.78482855206E+02  0.13402597312E+03  0.00000000000E+00 0.  1.
<mgrwt>
<rscale>  0 0.19537766E+04</rscale>
<asrwt>0</asrwt>
<pdfrwt beam="1">  1        2 0.34452112E+00 0.19537766E+04</pdfrwt>
<pdfrwt beam="2">  1       -2 0.65561255E-01 0.19537766E+04</pdfrwt>
<totfact> 0.98066512E+00</totfact>
</mgrwt>
</event>
<event>
12    1  0.2019083E-007  0.2635278E+04  0.7818608E-02  0.8356316E-01
          1   -1    0    0  501    0  0.00000000000E+00  0.00000000000E+00  0.20377340888E+04  0.20377340888E+04  0.00000000000E+00 0. -1.
         -1   -1    0    0    0  501 -0.00000000000E+00 -0.00000000000E+00 -0.85201114530E+03  0.85201114530E+03  0.00000000000E+00 0.  1.
         23    2    1    2    0    0 -0.11085554329E+04 -0.10657396803E+03  0.89462259322E+03  0.14311264056E+04  0.86718199492E+02 0.  0.
        254    2    1    2    0    0  0.11085554329E+04  0.10657396803E+03  0.29110035032E+03  0.14586188286E+04  0.89586623705E+03 0.  0.
        -24    2    4    4    0    0  0.97893716797E+03  0.40177559022E+03  0.78447931355E+02  0.10641516892E+04  0.80765932949E+02 0.  0.
         24    2    4    4    0    0  0.12961826488E+03 -0.29520162219E+03  0.21265241896E+03  0.39446713937E+03  0.80239519030E+02 0.  0.
         13    1    3    3    0    0 -0.79513198855E+03 -0.11369998749E+03  0.65858699188E+03  0.10387008194E+04  0.00000000000E+00 0. -1.
        -13    1    3    3    0    0 -0.31342344430E+03  0.71260194651E+01  0.23603560134E+03  0.39242558618E+03  0.00000000000E+00 0.  1.
          4    1    6    6  502    0  0.15067967322E+02 -0.73959209617E+02  0.16213406104E+02  0.77200277616E+02  0.00000000000E+00 0. -1.
          1    1    5    5  503    0  0.63989362688E+03  0.24606738181E+03  0.86262537642E+02  0.69098063324E+03  0.00000000000E+00 0. -1.
         -2    1    5    5    0  503  0.33904354109E+03  0.15570820842E+03 -0.78146062872E+01  0.37317105595E+03  0.00000000000E+00 0.  1.
         -3    1    6    6    0  502  0.11455029756E+03 -0.22124241258E+03  0.19643901286E+03  0.31726686175E+03  0.00000000000E+00 0.  1.
<mgrwt>
<rscale>  0 0.26352777E+04</rscale>
<asrwt>0</asrwt>
<pdfrwt beam="1">  1        1 0.31349755E+00 0.26352777E+04</pdfrwt>
<pdfrwt beam="2">  1       -1 0.13107864E+00 0.26352777E+04</pdfrwt>
<totfact> 0.12248331E+00</totfact>
</mgrwt>
</event>
<event>
12    1  0.2019083E-007  0.1997993E+04  0.7818608E-02  0.8607560E-01
          1   -1    0    0  501    0  0.00000000000E+00  0.00000000000E+00  0.15096061181E+04  0.15096061181E+04  0.00000000000E+00 0. -1.
         -1   -1    0    0    0  501 -0.00000000000E+00 -0.00000000000E+00 -0.66109550945E+03  0.66109550945E+03  0.00000000000E+00 0.  1.
         23    2    1    2    0    0 -0.25006605869E+03 -0.24108097127E+03 -0.43529796893E+03  0.56447323117E+03  0.92155512815E+02 0.  0.
        254    2    1    2    0    0  0.25006605869E+03  0.24108097127E+03  0.12838085775E+04  0.16062283964E+04  0.90063984426E+03 0.  0.
        -24    2    4    4    0    0  0.55101679623E+03  0.20094937217E+02  0.57267997414E+03  0.79885996112E+03  0.78686520220E+02 0.  0.
         24    2    4    4    0    0 -0.30095073755E+03  0.22098603405E+03  0.71112860340E+03  0.80736843524E+03  0.82059283237E+02 0.  0.
         13    1    3    3    0    0 -0.12706118658E+03 -0.95124478609E+02 -0.13360731254E+03  0.20747078236E+03  0.00000000000E+00 0. -1.
        -13    1    3    3    0    0 -0.12300487210E+03 -0.14595649266E+03 -0.30169065638E+03  0.35700244881E+03  0.00000000000E+00 0.  1.
          2    1    6    6  502    0 -0.29428473009E+03  0.22759636957E+03  0.68348693317E+03  0.77817607109E+03  0.00000000000E+00 0. -1.
          3    1    5    5  503    0  0.21052358896E+03 -0.12608251599E+02  0.26588553335E+03  0.33937334363E+03  0.00000000000E+00 0. -1.
         -4    1    5    5    0  503  0.34049320727E+03  0.32703188816E+02  0.30679444079E+03  0.45948661750E+03  0.00000000000E+00 0.  1.
         -1    1    6    6    0  502 -0.66660074535E+01 -0.66103355211E+01  0.27641670236E+02  0.29192364147E+02  0.00000000000E+00 0.  1.
<mgrwt>
<rscale>  0 0.19979928E+04</rscale>
<asrwt>0</asrwt>
<pdfrwt beam="1">  1        1 0.23224709E+00 0.19979928E+04</pdfrwt>
<pdfrwt beam="2">  1       -1 0.10170700E+00 0.19979928E+04</pdfrwt>
<totfact> 0.54789526E+00</totfact>
</mgrwt>
</event>
<event>
12    1  0.2341012E-007  0.2378033E+04  0.7818608E-02  0.8447774E-01
         -2   -1    0    0    0  501 -0.00000000000E+00  0.00000000000E+00  0.11572171197E+04  0.11572171197E+04  0.00000000000E+00 0.  1.
          2   -1    0    0  501    0  0.00000000000E+00 -0.00000000000E+00 -0.12216893945E+04  0.12216893945E+04  0.00000000000E+00 0. -1.
         23    2    1    2    0    0 -0.86562081008E+03 -0.31298331808E+03  0.39669398969E+03  0.10063575432E+04  0.90174492767E+02 0.  0.
        254    2    1    2    0    0  0.86562081008E+03  0.31298331808E+03 -0.46116626453E+03  0.13725489709E+04  0.90772154862E+03 0.  0.
        -24    2    4    4    0    0  0.65582810921E+03 -0.16401814674E+03 -0.14093158164E+02  0.68104622171E+03  0.81319602231E+02 0.  0.
         24    2    4    4    0    0  0.20979270088E+03  0.47700146482E+03 -0.44707310636E+03  0.69150274923E+03  0.82208971413E+02 0.  0.
         13    1    3    3    0    0 -0.31070006150E+03 -0.81137202838E+02  0.17252669744E+03  0.36453152844E+03  0.00000000000E+00 0.  1.
        -13    1    3    3    0    0 -0.55492074858E+03 -0.23184611525E+03  0.22416729225E+03  0.64182601480E+03  0.00000000000E+00 0. -1.
          2    1    6    6  502    0  0.10357396419E+03  0.20335603763E+03 -0.14545789149E+03  0.27062749730E+03  0.00000000000E+00 0. -1.
          1    1    5    5  503    0  0.45363719569E+03 -0.14226859517E+03 -0.34467273235E+02  0.47667079983E+03  0.00000000000E+00 0. -1.
         -2    1    5    5    0  503  0.20219091351E+03 -0.21749551565E+02  0.20374115071E+02  0.20437542187E+03  0.00000000000E+00 0.  1.
         -1    1    6    6    0  502  0.10621873669E+03  0.27364542719E+03 -0.30161521487E+03  0.42087525193E+03  0.00000000000E+00 0.  1.
<mgrwt>
<rscale>  0 0.23780327E+04</rscale>
<asrwt>0</asrwt>
<pdfrwt beam="1">  1        2 0.18795221E+00 0.23780327E+04</pdfrwt>
<pdfrwt beam="2">  1       -2 0.17803340E+00 0.23780327E+04</pdfrwt>
<totfact> 0.30990112E+00</totfact>
</mgrwt>
</event>
<event>
12    1  0.2019083E-007  0.3164845E+04  0.7818608E-02  0.8198164E-01
          1   -1    0    0  501    0  0.00000000000E+00  0.00000000000E+00  0.24651600369E+04  0.24651600369E+04  0.00000000000E+00 0. -1.
         -1   -1    0    0    0  501 -0.00000000000E+00 -0.00000000000E+00 -0.10157804844E+04  0.10157804844E+04  0.00000000000E+00 0.  1.
         23    2    1    2    0    0 -0.12981817560E+04 -0.64266784874E+03  0.79722265654E+03  0.16559793861E+04  0.91683846905E+02 0.  0.
        254    2    1    2    0    0  0.12981817560E+04  0.64266784874E+03  0.65215689593E+03  0.18249611352E+04  0.89826315337E+03 0.  0.
        -24    2    4    4    0    0  0.55104263740E+03  0.34226279239E+03 -0.16610582411E+03  0.67407734777E+03  0.77442357136E+02 0.  0.
         24    2    4    4    0    0  0.74713911860E+03  0.30040505635E+03  0.81826272004E+03  0.11508837874E+04  0.80743747545E+02 0.  0.
         13    1    3    3    0    0 -0.49335717104E+03 -0.25998259006E+03  0.25889607891E+03  0.61483284316E+03  0.00000000000E+00 0. -1.
        -13    1    3    3    0    0 -0.80482458496E+03 -0.38268525867E+03  0.53832657763E+03  0.10411465430E+04  0.00000000000E+00 0.  1.
          2    1    6    6  502    0  0.36308319351E+03  0.14204842128E+03  0.45343011239E+03  0.59800169416E+03  0.00000000000E+00 0. -1.
          1    1    5    5  503    0  0.44923850371E+02  0.51730291180E+02 -0.30238245303E+02  0.74890098389E+02  0.00000000000E+00 0. -1.
         -2    1    5    5    0  503  0.50611878703E+03  0.29053250121E+03 -0.13586757881E+03  0.59918724938E+03  0.00000000000E+00 0.  1.
         -1    1    6    6    0  502  0.38405592508E+03  0.15835663506E+03  0.36483260765E+03  0.55288209328E+03  0.00000000000E+00 0.  1.
<mgrwt>
<rscale>  0 0.31648453E+04</rscale>
<asrwt>0</asrwt>
<pdfrwt beam="1">  1        1 0.37925539E+00 0.31648453E+04</pdfrwt>
<pdfrwt beam="2">  1       -1 0.15627392E+00 0.31648453E+04</pdfrwt>
<totfact> 0.37488583E-01</totfact>
</mgrwt>
</event>
<event>
12    1  0.2019083E-007  0.2573548E+04  0.7818608E-02  0.8377242E-01
          2   -1    0    0  501    0  0.00000000000E+00  0.00000000000E+00  0.97543146146E+03  0.97543146146E+03  0.00000000000E+00 0. -1.
         -2   -1    0    0    0  501 -0.00000000000E+00 -0.00000000000E+00 -0.16974917810E+04  0.16974917810E+04  0.00000000000E+00 0.  1.
         23    2    1    2    0    0 -0.34678033322E+02  0.88799923147E+03 -0.10381884747E+04  0.13697049768E+04  0.92256236680E+02 0.  0.
        254    2    1    2    0    0  0.34678033322E+02 -0.88799923147E+03  0.31612815524E+03  0.13032182657E+04  0.89927506154E+03 0.  0.
        -24    2    4    4    0    0 -0.28222775472E+03 -0.26087856794E+02 -0.69361086169E+02  0.30426507466E+03  0.86215970535E+02 0.  0.
         24    2    4    4    0    0  0.31690578804E+03 -0.86191137468E+03  0.38548924141E+03  0.99895319100E+03  0.77362951562E+02 0.  0.
         11    1    3    3    0    0 -0.22940665703E+02  0.32188301191E+03 -0.31215728746E+03  0.44897340636E+03  0.00000000000E+00 0. -1.
        -11    1    3    3    0    0 -0.11737367618E+02  0.56611621956E+03 -0.72603118727E+03  0.92073157040E+03  0.00000000000E+00 0.  1.
          2    1    6    6  502    0  0.77305435164E+02 -0.13127296555E+03  0.54177663240E+02  0.16169088096E+03  0.00000000000E+00 0. -1.
          3    1    5    5  503    0 -0.10749240392E+02  0.62876345751E+01  0.13709744832E+02  0.18521274818E+02  0.00000000000E+00 0. -1.
         -4    1    5    5    0  503 -0.27147851433E+03 -0.32375491369E+02 -0.83070831001E+02  0.28574379984E+03  0.00000000000E+00 0.  1.
         -1    1    6    6    0  502  0.23960035288E+03 -0.73063840913E+03  0.33131157817E+03  0.83726231004E+03  0.00000000000E+00 0.  1.
<mgrwt>
<rscale>  0 0.25735477E+04</rscale>
<asrwt>0</asrwt>
<pdfrwt beam="1">  1        2 0.15006638E+00 0.25735477E+04</pdfrwt>
<pdfrwt beam="2">  1       -2 0.26115258E+00 0.25735477E+04</pdfrwt>
<totfact> 0.12713771E+00</totfact>
</mgrwt>
</event>
<event>
12    1  0.3592162E-007  0.3075393E+04  0.7818608E-02  0.8222524E-01
         -1   -1    0    0    0  501 -0.00000000000E+00  0.00000000000E+00  0.15773067191E+04  0.15773067191E+04  0.00000000000E+00 0.  1.
          1   -1    0    0  501    0  0.00000000000E+00 -0.00000000000E+00 -0.14990805425E+04  0.14990805425E+04  0.00000000000E+00 0. -1.
         23    2    1    2    0    0  0.12809512287E+04 -0.53372557453E+03  0.21240031640E+03  0.14066420388E+04  0.88481025513E+02 0.  0.
        254    2    1    2    0    0 -0.12809512287E+04  0.53372557453E+03 -0.13417413973E+03  0.16697452228E+04  0.91888376313E+03 0.  0.
        -24    2    4    4    0    0 -0.40700659699E+03  0.26162029971E+03 -0.48184280366E+03  0.68745855272E+03  0.79543843631E+02 0.  0.
         24    2    4    4    0    0 -0.87394463167E+03  0.27210527482E+03  0.34766866393E+03  0.98228667007E+03  0.78696267350E+02 0.  0.
         13    1    3    3    0    0  0.45554953367E+03 -0.14432210614E+03  0.74411170563E+02  0.48362306630E+03  0.00000000000E+00 0. -1.
        -13    1    3    3    0    0  0.82540169499E+03 -0.38940346839E+03  0.13798914584E+03  0.92301897253E+03  0.00000000000E+00 0.  1.
          2    1    6    6  502    0 -0.62831565448E+03  0.22069931807E+03  0.27963701310E+03  0.72227806955E+03  0.00000000000E+00 0. -1.
          1    1    5    5  503    0 -0.22797109775E+03  0.10061934073E+03 -0.23180112347E+03  0.34033341590E+03  0.00000000000E+00 0. -1.
         -2    1    5    5    0  503 -0.17903549924E+03  0.16100095898E+03 -0.25004168019E+03  0.34712513682E+03  0.00000000000E+00 0.  1.
         -1    1    6    6    0  502 -0.24562897719E+03  0.51405956754E+02  0.68031650828E+02  0.26000860051E+03  0.00000000000E+00 0.  1.
<mgrwt>
<rscale>  0 0.30753925E+04</rscale>
<asrwt>0</asrwt>
<pdfrwt beam="1">  1        1 0.23062778E+00 0.30753925E+04</pdfrwt>
<pdfrwt beam="2">  1       -1 0.24266257E+00 0.30753925E+04</pdfrwt>
<totfact> 0.43140774E-01</totfact>
</mgrwt>
</event>
<event>
12    1  0.2019083E-007  0.1545848E+04  0.7818608E-02  0.8854524E-01
          2   -1    0    0  501    0  0.00000000000E+00  0.00000000000E+00  0.22802443341E+04  0.22802443341E+04  0.00000000000E+00 0. -1.
         -2   -1    0    0    0  501 -0.00000000000E+00 -0.00000000000E+00 -0.26199455686E+03  0.26199455686E+03  0.00000000000E+00 0.  1.
         23    2    1    2    0    0 -0.10026395126E+03  0.40454601077E+03  0.11289567042E+04  0.12068477940E+04  0.90708451744E+02 0.  0.
        254    2    1    2    0    0  0.10026395126E+03 -0.40454601077E+03  0.88929307304E+03  0.13353910969E+04  0.90482975043E+03 0.  0.
        -24    2    4    4    0    0 -0.28000767443E+03  0.13508203380E+03  0.20341423155E+03  0.38017719345E+03  0.80659129811E+02 0.  0.
         24    2    4    4    0    0  0.38027162569E+03 -0.53962804457E+03  0.68587884148E+03  0.95521390348E+03  0.78732969077E+02 0.  0.
         13    1    3    3    0    0  0.74437079220E+00  0.10053686150E+03  0.36134928166E+03  0.37507534971E+03  0.00000000000E+00 0. -1.
        -13    1    3    3    0    0 -0.10100832205E+03  0.30400914927E+03  0.76760742254E+03  0.83177244430E+03  0.00000000000E+00 0.  1.
          2    1    6    6  502    0  0.36409020155E+03 -0.53014500882E+03  0.64814412041E+03  0.91307513714E+03  0.00000000000E+00 0. -1.
          1    1    5    5  503    0 -0.12042155615E+03  0.10271050581E+03  0.10424457963E+03  0.18951973927E+03  0.00000000000E+00 0. -1.
         -2    1    5    5    0  503 -0.15958611828E+03  0.32371527996E+02  0.99169651924E+02  0.19065745418E+03  0.00000000000E+00 0.  1.
         -1    1    6    6    0  502  0.16181424144E+02 -0.94830357493E+01  0.37734721079E+02  0.42138766347E+02  0.00000000000E+00 0.  1.
<mgrwt>
<rscale>  0 0.15458481E+04</rscale>
<asrwt>0</asrwt>
<pdfrwt beam="1">  1        2 0.35080681E+00 0.15458481E+04</pdfrwt>
<pdfrwt beam="2">  1       -2 0.40306856E-01 0.15458481E+04</pdfrwt>
<totfact> 0.26131139E+01</totfact>
</mgrwt>
</event>
<event>
12    1  0.2019083E-007  0.2664071E+04  0.7818608E-02  0.8346758E-01
          2   -1    0    0  501    0  0.00000000000E+00  0.00000000000E+00  0.16208236526E+04  0.16208236526E+04  0.00000000000E+00 0. -1.
         -2   -1    0    0    0  501 -0.00000000000E+00 -0.00000000000E+00 -0.10947021963E+04  0.10947021963E+04  0.00000000000E+00 0.  1.
         23    2    1    2    0    0  0.16145905749E+03  0.79409291391E+03  0.11071621699E+04  0.13765622964E+04  0.11163826505E+03 0.  0.
        254    2    1    2    0    0 -0.16145905749E+03 -0.79409291391E+03 -0.58104071360E+03  0.13389635525E+04  0.89362324331E+03 0.  0.
        -24    2    4    4    0    0  0.13937207574E+03 -0.85546134874E+03 -0.52583762194E+03  0.10169577396E+04  0.80368805372E+02 0.  0.
         24    2    4    4    0    0 -0.30083113323E+03  0.61368434828E+02 -0.55203091661E+02  0.32200581290E+03  0.79843012830E+02 0.  0.
         13    1    3    3    0    0  0.22221256743E+02  0.38372073179E+03  0.50243366879E+03  0.63259384742E+03  0.00000000000E+00 0. -1.
        -13    1    3    3    0    0  0.13923780075E+03  0.41037218212E+03  0.60472850107E+03  0.74396844894E+03  0.00000000000E+00 0.  1.
          2    1    6    6  502    0 -0.90800670195E+01  0.15036985192E+02  0.89478597577E+01  0.19713516556E+02  0.00000000000E+00 0. -1.
          3    1    5    5  503    0  0.28534226661E+02 -0.25373231768E+03 -0.11543918773E+03  0.28021509094E+03  0.00000000000E+00 0. -1.
         -4    1    5    5    0  503  0.11083784908E+03 -0.60172903106E+03 -0.41039843421E+03  0.73674264870E+03  0.00000000000E+00 0.  1.
         -1    1    6    6    0  502 -0.29175106621E+03  0.46331449636E+02 -0.64150951419E+02  0.30229229634E+03  0.00000000000E+00 0.  1.
<mgrwt>
<rscale>  0 0.26640715E+04</rscale>
<asrwt>0</asrwt>
<pdfrwt beam="1">  1        2 0.24935749E+00 0.26640715E+04</pdfrwt>
<pdfrwt beam="2">  1       -2 0.16841572E+00 0.26640715E+04</pdfrwt>
<totfact> 0.20900857E+00</totfact>
</mgrwt>
</event>
<event>
12    1  0.2019083E-007  0.2006675E+04  0.7818608E-02  0.8603506E-01
          1   -1    0    0  501    0  0.00000000000E+00  0.00000000000E+00  0.91522066901E+03  0.91522066901E+03  0.00000000000E+00 0. -1.
         -1   -1    0    0    0  501 -0.00000000000E+00 -0.00000000000E+00 -0.10999385040E+04  0.10999385040E+04  0.00000000000E+00 0.  1.
         23    2    1    2    0    0 -0.21682769537E+03  0.50670698274E+03  0.50659034117E+03  0.75390936891E+03  0.89327190303E+02 0.  0.
        254    2    1    2    0    0  0.21682769537E+03 -0.50670698274E+03 -0.69130817621E+03  0.12612498041E+04  0.89948755305E+03 0.  0.
        -24    2    4    4    0    0 -0.93762092085E+02 -0.66937279067E+03 -0.54970418913E+03  0.87490768753E+03  0.80234053534E+02 0.  0.
         24    2    4    4    0    0  0.31058978746E+03  0.16266580793E+03 -0.14160398708E+03  0.38634211660E+03  0.79261344718E+02 0.  0.
         11    1    3    3    0    0 -0.77859282277E+02  0.10581390396E+03  0.15240938248E+03  0.20121448749E+03  0.00000000000E+00 0. -1.
        -11    1    3    3    0    0 -0.13896841309E+03  0.40089307878E+03  0.35418095870E+03  0.55269488142E+03  0.00000000000E+00 0.  1.
          4    1    6    6  502    0  0.30008248218E+03  0.13352172928E+03 -0.13075234124E+03  0.35351622741E+03  0.00000000000E+00 0. -1.
          1    1    5    5  503    0 -0.76781395343E+02 -0.56056211449E+03 -0.49581661675E+03  0.75230272120E+03  0.00000000000E+00 0. -1.
         -2    1    5    5    0  503 -0.16980696741E+02 -0.10881067617E+03 -0.53887572381E+02  0.12260496633E+03  0.00000000000E+00 0.  1.
         -3    1    6    6    0  502  0.10507305276E+02  0.29144078643E+02 -0.10851645839E+02  0.32825889197E+02  0.00000000000E+00 0.  1.
<mgrwt>
<rscale>  0 0.20066753E+04</rscale>
<asrwt>0</asrwt>
<pdfrwt beam="1">  1        1 0.14080318E+00 0.20066753E+04</pdfrwt>
<pdfrwt beam="2">  1       -1 0.16922131E+00 0.20066753E+04</pdfrwt>
<totfact> 0.40875377E+00</totfact>
</mgrwt>
</event>
<event>
12    1  0.2019083E-007  0.2562919E+04  0.7818608E-02  0.8380907E-01
          1   -1    0    0  501    0  0.00000000000E+00  0.00000000000E+00  0.32314502849E+04  0.32314502849E+04  0.00000000000E+00 0. -1.
         -1   -1    0    0    0  501 -0.00000000000E+00 -0.00000000000E+00 -0.50817399133E+03  0.50817399133E+03  0.00000000000E+00 0.  1.
         23    2    1    2    0    0 -0.77654920745E+03 -0.24511555571E+03  0.71185405272E+02  0.82321001206E+03  0.97452833683E+02 0.  0.
        254    2    1    2    0    0  0.77654920745E+03  0.24511555571E+03  0.26520908883E+04  0.29164142641E+04  0.89931961682E+03 0.  0.
        -24    2    4    4    0    0  0.37602984001E+03  0.31445077392E+02  0.23111381915E+04  0.23430781893E+04  0.79173399937E+02 0.  0.
         24    2    4    4    0    0  0.40051936743E+03  0.21367047832E+03  0.34095269675E+03  0.57333607487E+03  0.79966720147E+02 0.  0.
         13    1    3    3    0    0 -0.48245122020E+03 -0.18792111223E+03  0.12501208802E+02  0.51790906973E+03  0.00000000000E+00 0.  1.
        -13    1    3    3    0    0 -0.29409798725E+03 -0.57194443485E+02  0.58684196470E+02  0.30530094233E+03  0.00000000000E+00 0. -1.
          4    1    6    6  502    0  0.33864427703E+03  0.15185797391E+03  0.25209535218E+03  0.44865672534E+03  0.00000000000E+00 0. -1.
          3    1    5    5  503    0  0.16123124459E+03  0.32430261723E+02  0.12162306302E+04  0.12272995486E+04  0.00000000000E+00 0. -1.
         -4    1    5    5    0  503  0.21479859542E+03 -0.98518433134E+00  0.10949075613E+04  0.11157786407E+04  0.00000000000E+00 0.  1.
         -3    1    6    6    0  502  0.61875090400E+02  0.61812504414E+02  0.88857344569E+02  0.12467934952E+03  0.00000000000E+00 0.  1.
<mgrwt>
<rscale>  0 0.25629194E+04</rscale>
<asrwt>0</asrwt>
<pdfrwt beam="1">  1        1 0.49714619E+00 0.25629194E+04</pdfrwt>
<pdfrwt beam="2">  1       -1 0.78180616E-01 0.25629194E+04</pdfrwt>
<totfact> 0.58267791E-01</totfact>
</mgrwt>
</event>
<event>
12    1  0.2019083E-007  0.1600588E+04  0.7818608E-02  0.8820187E-01
         -1   -1    0    0    0  501 -0.00000000000E+00  0.00000000000E+00  0.11331033649E+04  0.11331033649E+04  0.00000000000E+00 0.  1.
          1   -1    0    0  501    0  0.00000000000E+00 -0.00000000000E+00 -0.56523545760E+03  0.56523545760E+03  0.00000000000E+00 0. -1.
         23    2    1    2    0    0 -0.10987615348E+03  0.51426461960E+03  0.34015356140E+03  0.63283874763E+03  0.90772061177E+02 0.  0.
        254    2    1    2    0    0  0.10987615348E+03 -0.51426461960E+03  0.22771434594E+03  0.10655000749E+04  0.89827374347E+03 0.  0.
        -24    2    4    4    0    0  0.29975980430E+03 -0.39564836959E+03  0.49636017068E+03  0.70647765402E+03  0.79647247006E+02 0.  0.
         24    2    4    4    0    0 -0.18988365083E+03 -0.11861625001E+03 -0.26864582474E+03  0.35902242089E+03  0.81245947178E+02 0.  0.
         13    1    3    3    0    0 -0.15509224665E+02  0.94280970966E+02  0.23318914668E+02  0.98352474892E+02  0.00000000000E+00 0. -1.
        -13    1    3    3    0    0 -0.94366928811E+02  0.41998364864E+03  0.31683464673E+03  0.53448627274E+03  0.00000000000E+00 0.  1.
          2    1    6    6  502    0 -0.64021601711E+02 -0.65080313115E+02 -0.58975000923E+02  0.10868423701E+03  0.00000000000E+00 0. -1.
          1    1    5    5  503    0  0.19514528377E+03 -0.19489457904E+03  0.28904281567E+03  0.39951386460E+03  0.00000000000E+00 0. -1.
         -2    1    5    5    0  503  0.10461452053E+03 -0.20075379055E+03  0.20731735501E+03  0.30696378942E+03  0.00000000000E+00 0.  1.
         -1    1    6    6    0  502 -0.12586204912E+03 -0.53535936891E+02 -0.20967082382E+03  0.25033818388E+03  0.00000000000E+00 0.  1.
<mgrwt>
<rscale>  0 0.16005876E+04</rscale>
<asrwt>0</asrwt>
<pdfrwt beam="1">  1        1 0.86959301E-01 0.16005876E+04</pdfrwt>
<pdfrwt beam="2">  1       -1 0.17432359E+00 0.16005876E+04</pdfrwt>
<totfact> 0.81896723E+00</totfact>
</mgrwt>
</event>
<event>
12    1  0.2019083E-007  0.2519686E+04  0.7818608E-02  0.8396006E-01
          1   -1    0    0  501    0  0.00000000000E+00  0.00000000000E+00  0.28941523156E+04  0.28941523156E+04  0.00000000000E+00 0. -1.
         -1   -1    0    0    0  501 -0.00000000000E+00 -0.00000000000E+00 -0.54841791369E+03  0.54841791369E+03  0.00000000000E+00 0.  1.
         23    2    1    2    0    0 -0.84747252830E+03 -0.49372152065E+03  0.35216146803E+03  0.10461808925E+04  0.92228705335E+02 0.  0.
        254    2    1    2    0    0  0.84747252830E+03  0.49372152065E+03  0.19935729338E+04  0.23963893368E+04  0.89798562607E+03 0.  0.
        -24    2    4    4    0    0  0.92070752895E+03  0.14308915372E+03  0.16336196655E+04  0.18823399687E+04  0.79458709525E+02 0.  0.
         24    2    4    4    0    0 -0.73235000655E+02  0.35063236693E+03  0.35995326832E+03  0.51404936803E+03  0.79837180200E+02 0.  0.
         11    1    3    3    0    0 -0.78557817783E+03 -0.46692922841E+03  0.30325403680E+03  0.96287018266E+03  0.00000000000E+00 0.  1.
        -11    1    3    3    0    0 -0.61894350466E+02 -0.26792292240E+02  0.48907431233E+02  0.83310709833E+02  0.00000000000E+00 0. -1.
          2    1    6    6  502    0 -0.85863878931E+02  0.33778006332E+03  0.34737658550E+03  0.49207567409E+03  0.00000000000E+00 0. -1.
          3    1    5    5  503    0  0.71459288868E+03  0.88075580129E+02  0.13077254159E+04  0.14928315605E+04  0.00000000000E+00 0. -1.
         -4    1    5    5    0  503  0.20611464027E+03  0.55013573591E+02  0.32589424957E+03  0.38950840827E+03  0.00000000000E+00 0.  1.
         -1    1    6    6    0  502  0.12628878276E+02  0.12852303607E+02  0.12576682818E+02  0.21973693937E+02  0.00000000000E+00 0.  1.
<mgrwt>
<rscale>  0 0.25196865E+04</rscale>
<asrwt>0</asrwt>
<pdfrwt beam="1">  1        1 0.44525420E+00 0.25196865E+04</pdfrwt>
<pdfrwt beam="2">  1       -1 0.84371988E-01 0.25196865E+04</pdfrwt>
<totfact> 0.88010636E-01</totfact>
</mgrwt>
</event>
<event>
12    1  0.2019083E-007  0.1508571E+04  0.7818608E-02  0.8878773E-01
         -2   -1    0    0    0  501 -0.00000000000E+00  0.00000000000E+00  0.13482265799E+03  0.13482265799E+03  0.00000000000E+00 0.  1.
          2   -1    0    0  501    0  0.00000000000E+00 -0.00000000000E+00 -0.42199638578E+04  0.42199638578E+04  0.00000000000E+00 0. -1.
         23    2    1    2    0    0 -0.58914159973E+02 -0.41014539915E+03 -0.20297597051E+04  0.20736583248E+04  0.91892658017E+02 0.  0.
        254    2    1    2    0    0  0.58914159973E+02  0.41014539915E+03 -0.20553814947E+04  0.22811281910E+04  0.89847793993E+03 0.  0.
        -24    2    4    4    0    0  0.13526372531E+03  0.65595092275E+03 -0.17398382409E+04  0.18660187342E+04  0.80130664534E+02 0.  0.
         24    2    4    4    0    0 -0.76349565332E+02 -0.24580552360E+03 -0.31554325375E+03  0.41510945681E+03  0.80614543268E+02 0.  0.
         13    1    3    3    0    0 -0.28643420249E+02 -0.37945784085E+03 -0.17821555776E+04  0.18223301571E+04  0.00000000000E+00 0.  1.
        -13    1    3    3    0    0 -0.30270739725E+02 -0.30687558292E+02 -0.24760412749E+03  0.25132816768E+03  0.00000000000E+00 0. -1.
          2    1    6    6  502    0 -0.50818955770E+02 -0.76522058525E+02 -0.15632452305E+03  0.18131615541E+03  0.00000000000E+00 0. -1.
          3    1    5    5  503    0  0.38478049720E+02  0.94174398384E+02 -0.20789309891E+03  0.23144960184E+03  0.00000000000E+00 0. -1.
         -4    1    5    5    0  503  0.96785675586E+02  0.56177652437E+03 -0.15319451420E+04  0.16345691324E+04  0.00000000000E+00 0.  1.
         -1    1    6    6    0  502 -0.25530609562E+02 -0.16928346508E+03 -0.15921873070E+03  0.23379330140E+03  0.00000000000E+00 0.  1.
<mgrwt>
<rscale>  0 0.15085712E+04</rscale>
<asrwt>0</asrwt>
<pdfrwt beam="1">  1        2 0.64922533E+00 0.15085712E+04</pdfrwt>
<pdfrwt beam="2">  1       -2 0.20741943E-01 0.15085712E+04</pdfrwt>
<totfact> 0.44479329E+00</totfact>
</mgrwt>
</event>
<event>
12    1  0.2019083E-007  0.1559753E+04  0.7818608E-02  0.8845662E-01
         -2   -1    0    0    0  501 -0.00000000000E+00  0.00000000000E+00  0.38346910830E+03  0.38346910830E+03  0.00000000000E+00 0.  1.
          2   -1    0    0  501    0  0.00000000000E+00 -0.00000000000E+00 -0.15860670031E+04  0.15860670031E+04  0.00000000000E+00 0. -1.
         23    2    1    2    0    0  0.84332417284E+02 -0.41068442564E+03 -0.77992093155E+03  0.88993890822E+03  0.89111990423E+02 0.  0.
        254    2    1    2    0    0 -0.84332417284E+02  0.41068442564E+03 -0.42267696325E+03  0.10795972032E+04  0.90061126563E+03 0.  0.
        -24    2    4    4    0    0  0.51786534167E+01  0.10341945948E+03 -0.65981106695E+03  0.67268637905E+03  0.80211703826E+02 0.  0.
         24    2    4    4    0    0 -0.89511070701E+02  0.30726496616E+03  0.23713410370E+03  0.40691082414E+03  0.83185602473E+02 0.  0.
         13    1    3    3    0    0  0.42530957003E+02 -0.31466225039E+03 -0.64702928419E+03  0.72074136049E+03  0.00000000000E+00 0. -1.
        -13    1    3    3    0    0  0.41801460281E+02 -0.96022175245E+02 -0.13289164735E+03  0.16919754773E+03  0.00000000000E+00 0.  1.
          4    1    6    6  502    0 -0.75341875578E+02  0.11455898585E+03  0.89485680960E+02  0.16373101890E+03  0.00000000000E+00 0. -1.
          1    1    5    5  503    0  0.26281668268E+02  0.14949728202E+02 -0.75338719111E+02  0.81179696091E+02  0.00000000000E+00 0. -1.
         -2    1    5    5    0  503 -0.21103014851E+02  0.88469731280E+02 -0.58447234784E+03  0.59150668295E+03  0.00000000000E+00 0.  1.
         -3    1    6    6    0  502 -0.14169195122E+02  0.19270598031E+03  0.14764842274E+03  0.24317980523E+03  0.00000000000E+00 0.  1.
<mgrwt>
<rscale>  0 0.15597534E+04</rscale>
<asrwt>0</asrwt>
<pdfrwt beam="1">  1        2 0.24401031E+00 0.15597534E+04</pdfrwt>
<pdfrwt beam="2">  1       -2 0.58995247E-01 0.15597534E+04</pdfrwt>
<totfact> 0.29308991E+01</totfact>
</mgrwt>
</event>
<event>
12    1  0.2019083E-007  0.3402668E+04  0.7818608E-02  0.8137252E-01
          2   -1    0    0  501    0  0.00000000000E+00  0.00000000000E+00  0.27210195254E+04  0.27210195254E+04  0.00000000000E+00 0. -1.
         -2   -1    0    0    0  501 -0.00000000000E+00 -0.00000000000E+00 -0.10637693169E+04  0.10637693169E+04  0.00000000000E+00 0.  1.
         23    2    1    2    0    0 -0.12951743597E+04 -0.85466088752E+03  0.11090060390E+04  0.19094947875E+04  0.91400734569E+02 0.  0.
        254    2    1    2    0    0  0.12951743597E+04  0.85466088752E+03  0.54824416957E+03  0.18752940548E+04  0.89901850257E+03 0.  0.
        -24    2    4    4    0    0  0.32139545685E+03  0.17897904406E+03 -0.24187867606E+03  0.44858910132E+03  0.86013661666E+02 0.  0.
         24    2    4    4    0    0  0.97377890285E+03  0.67568184346E+03  0.79012284562E+03  0.14267049535E+04  0.80010049375E+02 0.  0.
         13    1    3    3    0    0 -0.10348668060E+04 -0.63772022908E+03  0.86814112033E+03  0.14937554691E+04  0.00000000000E+00 0. -1.
        -13    1    3    3    0    0 -0.26030755370E+03 -0.21694065844E+03  0.24086491865E+03  0.41573931836E+03  0.00000000000E+00 0.  1.
          2    1    6    6  502    0  0.57144310616E+03  0.43369211627E+03  0.50677644339E+03  0.87832706828E+03  0.00000000000E+00 0. -1.
          1    1    5    5  503    0  0.31621974496E+03  0.16896402952E+03 -0.21168238861E+03  0.41635706314E+03  0.00000000000E+00 0. -1.
         -2    1    5    5    0  503  0.51757118881E+01  0.10015014544E+02 -0.30196287447E+02  0.32232038183E+02  0.00000000000E+00 0.  1.
         -1    1    6    6    0  502  0.40233579669E+03  0.24198972719E+03  0.28334640223E+03  0.54837788524E+03  0.00000000000E+00 0.  1.
<mgrwt>
<rscale>  0 0.34026678E+04</rscale>
<asrwt>0</asrwt>
<pdfrwt beam="1">  1        2 0.41861839E+00 0.34026678E+04</pdfrwt>
<pdfrwt beam="2">  1       -2 0.16365682E+00 0.34026678E+04</pdfrwt>
<totfact> 0.50577832E-01</totfact>
</mgrwt>
</event>
<event>
12    1  0.2019083E-007  0.2838071E+04  0.7818608E-02  0.8291545E-01
          2   -1    0    0  501    0  0.00000000000E+00  0.00000000000E+00  0.81460876167E+03  0.81460876167E+03  0.00000000000E+00 0. -1.
         -2   -1    0    0    0  501 -0.00000000000E+00 -0.00000000000E+00 -0.24719365568E+04  0.24719365568E+04  0.00000000000E+00 0.  1.
         23    2    1    2    0    0  0.94593325409E+03 -0.84543777129E+03 -0.88496413197E+03  0.15488359520E+04  0.78590998752E+02 0.  0.
        254    2    1    2    0    0 -0.94593325409E+03  0.84543777129E+03 -0.77236366317E+03  0.17377093665E+04  0.90196090145E+03 0.  0.
        -24    2    4    4    0    0  0.64006194427E+02 -0.10637820719E+03 -0.16511496244E+03  0.22080173477E+03  0.77957291929E+02 0.  0.
         24    2    4    4    0    0 -0.10099394485E+04  0.95181597849E+03 -0.60724870072E+03  0.15169076317E+04  0.79538870606E+02 0.  0.
         13    1    3    3    0    0  0.24862477663E+03 -0.17780326639E+03 -0.21954820470E+03  0.37633720954E+03  0.00000000000E+00 0. -1.
        -13    1    3    3    0    0  0.69730847746E+03 -0.66763450490E+03 -0.66541592727E+03  0.11724987425E+04  0.00000000000E+00 0.  1.
          2    1    6    6  502    0 -0.34163586872E+03  0.37392274666E+03 -0.21475887804E+03  0.55014058473E+03  0.00000000000E+00 0. -1.
          3    1    5    5  503    0  0.68198828646E+02 -0.11541977729E+03 -0.16217094749E+03  0.21040965146E+03  0.00000000000E+00 0. -1.
         -4    1    5    5    0  503 -0.41926342190E+01  0.90415700959E+01 -0.29440149537E+01  0.10392083311E+02  0.00000000000E+00 0.  1.
         -1    1    6    6    0  502 -0.66830357980E+03  0.57789323183E+03 -0.39248982268E+03  0.96676704695E+03  0.00000000000E+00 0.  1.
<mgrwt>
<rscale>  0 0.28380706E+04</rscale>
<asrwt>0</asrwt>
<pdfrwt beam="1">  1        2 0.12532443E+00 0.28380706E+04</pdfrwt>
<pdfrwt beam="2">  1       -2 0.38029793E+00 0.28380706E+04</pdfrwt>
<totfact> 0.29063936E-01</totfact>
</mgrwt>
</event>
<event>
12    1  0.2019083E-007  0.2766113E+04  0.7818608E-02  0.8313867E-01
         -2   -1    0    0    0  501 -0.00000000000E+00  0.00000000000E+00  0.71127012518E+03  0.71127012518E+03  0.00000000000E+00 0.  1.
          2   -1    0    0  501    0  0.00000000000E+00 -0.00000000000E+00 -0.26893381121E+04  0.26893381121E+04  0.00000000000E+00 0. -1.
         23    2    1    2    0    0 -0.14320656560E+03  0.11155406984E+04 -0.26068465082E+03  0.11581507825E+04  0.91747357589E+02 0.  0.
        254    2    1    2    0    0  0.14320656560E+03 -0.11155406984E+04 -0.17173833361E+04  0.22424574548E+04  0.90236951579E+03 0.  0.
        -24    2    4    4    0    0  0.37211337160E+03 -0.73930086305E+03 -0.56248306676E+03  0.10038396578E+04  0.79200572965E+02 0.  0.
         24    2    4    4    0    0 -0.22890680600E+03 -0.37623983537E+03 -0.11549002694E+04  0.12386177970E+04  0.80154071930E+02 0.  0.
         11    1    3    3    0    0 -0.99553417505E+02  0.52870976471E+03 -0.15876187574E+03  0.56093692286E+03  0.00000000000E+00 0. -1.
        -11    1    3    3    0    0 -0.43653148095E+02  0.58683093371E+03 -0.10192277509E+03  0.59721385967E+03  0.00000000000E+00 0.  1.
          2    1    6    6  502    0 -0.14459882646E+03 -0.16519498681E+03 -0.60531879898E+03  0.64390143087E+03  0.00000000000E+00 0. -1.
          3    1    5    5  503    0  0.21019670567E+03 -0.35795707914E+03 -0.31669278747E+03  0.52212091245E+03  0.00000000000E+00 0. -1.
         -4    1    5    5    0  503  0.16191666593E+03 -0.38134378391E+03 -0.24579027929E+03  0.48171874536E+03  0.00000000000E+00 0.  1.
         -1    1    6    6    0  502 -0.84307979542E+02 -0.21104484856E+03 -0.54958147038E+03  0.59471636610E+03  0.00000000000E+00 0.  1.
<mgrwt>
<rscale>  0 0.27661134E+04</rscale>
<asrwt>0</asrwt>
<pdfrwt beam="1">  1        2 0.41374433E+00 0.27661134E+04</pdfrwt>
<pdfrwt beam="2">  1       -2 0.10942617E+00 0.27661134E+04</pdfrwt>
<totfact> 0.15640064E+00</totfact>
</mgrwt>
</event>
<event>
12    1  0.2019083E-007  0.4153852E+04  0.7818608E-02  0.7974209E-01
         -1   -1    0    0    0  501 -0.00000000000E+00  0.00000000000E+00  0.15280368773E+04  0.15280368773E+04  0.00000000000E+00 0.  1.
          1   -1    0    0  501    0  0.00000000000E+00 -0.00000000000E+00 -0.28229831950E+04  0.28229831950E+04  0.00000000000E+00 0. -1.
         23    2    1    2    0    0  0.15501453641E+04  0.12138692220E+04 -0.81325376903E+03  0.21321825194E+04  0.91604939508E+02 0.  0.
        254    2    1    2    0    0 -0.15501453641E+04 -0.12138692220E+04 -0.48169254872E+03  0.22188375529E+04  0.90265344213E+03 0.  0.
        -24    2    4    4    0    0 -0.14940893373E+04 -0.12348531636E+04 -0.23733699793E+03  0.19544460442E+04  0.79782239452E+02 0.  0.
         24    2    4    4    0    0 -0.56056026858E+02  0.20983941614E+02 -0.24435555079E+03  0.26439150867E+03  0.81305785196E+02 0.  0.
         13    1    3    3    0    0  0.48450868341E+03  0.33233221983E+03 -0.26370219915E+03  0.64399706402E+03  0.00000000000E+00 0. -1.
        -13    1    3    3    0    0  0.10656366807E+04  0.88153700219E+03 -0.54955156988E+03  0.14881854553E+04  0.00000000000E+00 0.  1.
          2    1    6    6  502    0 -0.13164032443E+02  0.35038965352E+02 -0.38694465092E+02  0.53835698861E+02  0.00000000000E+00 0. -1.
          1    1    5    5  503    0 -0.16371561823E+02 -0.11371217655E+02  0.54542290999E+01  0.20665944027E+02  0.00000000000E+00 0. -1.
         -2    1    5    5    0  503 -0.14777177754E+04 -0.12234819460E+04 -0.24279122703E+03  0.19337801002E+04  0.00000000000E+00 0.  1.
         -1    1    6    6    0  502 -0.42891994415E+02 -0.14055023738E+02 -0.20566108569E+03  0.21055580981E+03  0.00000000000E+00 0.  1.
<mgrwt>
<rscale>  0 0.41538524E+04</rscale>
<asrwt>0</asrwt>
<pdfrwt beam="1">  1        1 0.43430510E+00 0.41538524E+04</pdfrwt>
<pdfrwt beam="2">  1       -1 0.23508260E+00 0.41538524E+04</pdfrwt>
<totfact> 0.54168456E-02</totfact>
</mgrwt>
</event>
<event>
12    1  0.2019083E-007  0.1705262E+04  0.7818608E-02  0.8758369E-01
         -2   -1    0    0    0  501 -0.00000000000E+00  0.00000000000E+00  0.64870414537E+03  0.64870414537E+03  0.00000000000E+00 0.  1.
          2   -1    0    0  501    0  0.00000000000E+00 -0.00000000000E+00 -0.11206645577E+04  0.11206645577E+04  0.00000000000E+00 0. -1.
         23    2    1    2    0    0 -0.11517773174E+03  0.47592627071E+03 -0.54991096112E+03  0.74205468325E+03  0.92040006112E+02 0.  0.
        254    2    1    2    0    0  0.11517773174E+03 -0.47592627071E+03  0.77950548775E+02  0.10273140198E+04  0.89973667385E+03 0.  0.
        -24    2    4    4    0    0  0.73306251278E+02 -0.73793253146E+03  0.90705708820E+02  0.75133461263E+03  0.79736735956E+02 0.  0.
         24    2    4    4    0    0  0.41871480457E+02  0.26200626075E+03 -0.12755160046E+02  0.27597940721E+03  0.74842752158E+02 0.  0.
         13    1    3    3    0    0 -0.27763817919E+02  0.23885786399E+03 -0.21533877428E+03  0.32279203287E+03  0.00000000000E+00 0.  1.
        -13    1    3    3    0    0 -0.87413913817E+02  0.23706840672E+03 -0.33457218684E+03  0.41926265038E+03  0.00000000000E+00 0. -1.
          2    1    6    6  502    0  0.46694768149E+02  0.25899666119E+03 -0.23090759136E+02  0.26418337389E+03  0.00000000000E+00 0. -1.
          1    1    5    5  503    0  0.62996129210E+02 -0.72714303004E+03  0.94438897208E+02  0.73595122374E+03  0.00000000000E+00 0. -1.
         -2    1    5    5    0  503  0.10310122069E+02 -0.10789501420E+02 -0.37331883876E+01  0.15383388882E+02  0.00000000000E+00 0.  1.
         -1    1    6    6    0  502 -0.48232876915E+01  0.30095995560E+01  0.10335599090E+02  0.11796033325E+02  0.00000000000E+00 0.  1.
<mgrwt>
<rscale>  0 0.17052621E+04</rscale>
<asrwt>0</asrwt>
<pdfrwt beam="1">  1        2 0.17240993E+00 0.17052621E+04</pdfrwt>
<pdfrwt beam="2">  1       -2 0.99800639E-01 0.17052621E+04</pdfrwt>
<totfact> 0.16704369E+01</totfact>
</mgrwt>
</event>
<event>
12    1  0.2019083E-007  0.1226330E+04  0.7818608E-02  0.9090117E-01
          1   -1    0    0  501    0  0.00000000000E+00  0.00000000000E+00  0.17807081799E+04  0.17807081799E+04  0.00000000000E+00 0. -1.
         -1   -1    0    0    0  501 -0.00000000000E+00 -0.00000000000E+00 -0.21113596662E+03  0.21113596662E+03  0.00000000000E+00 0.  1.
         23    2    1    2    0    0 -0.16963141548E+03  0.21016647191E+03  0.33909135956E+03  0.44336205664E+03  0.92963434242E+02 0.  0.
        254    2    1    2    0    0  0.16963141548E+03 -0.21016647191E+03  0.12304808537E+04  0.15484820899E+04  0.90042705884E+03 0.  0.
        -24    2    4    4    0    0  0.47720064308E+03 -0.34500045104E+03  0.78674198487E+03  0.98597826942E+03  0.80277219905E+02 0.  0.
         24    2    4    4    0    0 -0.30756922760E+03  0.13483397913E+03  0.44373886886E+03  0.56250382048E+03  0.82020318347E+02 0.  0.
         13    1    3    3    0    0 -0.13920897879E+03  0.10062507103E+03  0.21166066187E+03  0.27258903221E+03  0.00000000000E+00 0. -1.
        -13    1    3    3    0    0 -0.30422436689E+02  0.10954140087E+03  0.12743069769E+03  0.17077302443E+03  0.00000000000E+00 0.  1.
          4    1    6    6  502    0  0.46429926012E+01  0.17528706308E+01  0.17955112362E+01  0.52776695939E+01  0.00000000000E+00 0. -1.
          1    1    5    5  503    0  0.93446488932E+02 -0.44841091584E+02  0.18149130387E+03  0.20900254345E+03  0.00000000000E+00 0. -1.
         -2    1    5    5    0  503  0.38375415414E+03 -0.30015935945E+03  0.60525068100E+03  0.77697572597E+03  0.00000000000E+00 0.  1.
         -3    1    6    6    0  502 -0.31221222020E+03  0.13308110850E+03  0.44194335763E+03  0.55722615088E+03  0.00000000000E+00 0.  1.
<mgrwt>
<rscale>  0 0.12263304E+04</rscale>
<asrwt>0</asrwt>
<pdfrwt beam="1">  1        1 0.27395510E+00 0.12263304E+04</pdfrwt>
<pdfrwt beam="2">  1       -1 0.32482458E-01 0.12263304E+04</pdfrwt>
<totfact> 0.36799721E+01</totfact>
</mgrwt>
</event>
<event>
12    1  0.2019083E-007  0.2509737E+04  0.7818608E-02  0.8399525E-01
         -2   -1    0    0    0  501 -0.00000000000E+00  0.00000000000E+00  0.62393053833E+03  0.62393053833E+03  0.00000000000E+00 0.  1.
          2   -1    0    0  501    0  0.00000000000E+00 -0.00000000000E+00 -0.25238300478E+04  0.25238300478E+04  0.00000000000E+00 0. -1.
         23    2    1    2    0    0  0.65789833459E+03  0.14414210823E+03  0.24694885364E+03  0.72374338521E+03  0.95987422617E+02 0.  0.
        254    2    1    2    0    0 -0.65789833459E+03 -0.14414210823E+03 -0.21468483631E+04  0.24240172009E+04  0.90182832628E+03 0.  0.
        -24    2    4    4    0    0 -0.17542837395E+03 -0.46462945945E+03 -0.68633149318E+03  0.85068542769E+03  0.77195397445E+02 0.  0.
         24    2    4    4    0    0 -0.48246996065E+03  0.32048735122E+03 -0.14605168699E+04  0.15733317732E+04  0.82303924837E+02 0.  0.
         13    1    3    3    0    0  0.27817415480E+03  0.10922868136E+03  0.10141339411E+03  0.31558903931E+03  0.00000000000E+00 0.  1.
        -13    1    3    3    0    0  0.37972417980E+03  0.34913426867E+02  0.14553545953E+03  0.40815434590E+03  0.00000000000E+00 0. -1.
          2    1    6    6  502    0 -0.42918434158E+03  0.25048945665E+03 -0.12289532421E+04  0.13256206993E+04  0.00000000000E+00 0. -1.
          3    1    5    5  503    0 -0.17063037033E+03 -0.37051729217E+03 -0.54301264076E+03  0.67916162664E+03  0.00000000000E+00 0. -1.
         -4    1    5    5    0  503 -0.47980036140E+01 -0.94112167280E+02 -0.14331885242E+03  0.17152380105E+03  0.00000000000E+00 0.  1.
         -1    1    6    6    0  502 -0.53285619062E+02  0.69997894564E+02 -0.23156362777E+03  0.24771107393E+03  0.00000000000E+00 0.  1.
<mgrwt>
<rscale>  0 0.25097368E+04</rscale>
<asrwt>0</asrwt>
<pdfrwt beam="1">  1        2 0.38828155E+00 0.25097368E+04</pdfrwt>
<pdfrwt beam="2">  1       -2 0.95989312E-01 0.25097368E+04</pdfrwt>
<totfact> 0.27329895E+00</totfact>
</mgrwt>
</event>
<event>
12    1  0.2019083E-007  0.1195060E+04  0.7818608E-02  0.9117192E-01
         -1   -1    0    0    0  501 -0.00000000000E+00  0.00000000000E+00  0.14828470264E+03  0.14828470264E+03  0.00000000000E+00 0.  1.
          1   -1    0    0  501    0  0.00000000000E+00 -0.00000000000E+00 -0.24078136087E+04  0.24078136087E+04  0.00000000000E+00 0. -1.
         23    2    1    2    0    0  0.36377136159E+02 -0.21150672477E+03 -0.25066750285E+03  0.34434746408E+03  0.98400144181E+02 0.  0.
        254    2    1    2    0    0 -0.36377136159E+02  0.21150672477E+03 -0.20088614032E+04  0.22117508472E+04  0.90014403424E+03 0.  0.
        -24    2    4    4    0    0  0.37866070430E+03 -0.47699772030E+02 -0.57418688825E+03  0.69381427182E+03  0.77643183316E+02 0.  0.
         24    2    4    4    0    0 -0.41503784046E+03  0.25920649680E+03 -0.14346745149E+04  0.15179365754E+04  0.79975409731E+02 0.  0.
         11    1    3    3    0    0  0.60486850352E+02 -0.97731572070E+02 -0.89875241238E+02  0.14590297541E+03  0.00000000000E+00 0. -1.
        -11    1    3    3    0    0 -0.24109714193E+02 -0.11377515270E+03 -0.16079226162E+03  0.19844448868E+03  0.00000000000E+00 0.  1.
          4    1    6    6  502    0 -0.53003012114E+02  0.57942445327E+02 -0.29682191962E+03  0.30703403431E+03  0.00000000000E+00 0. -1.
          3    1    5    5  503    0  0.61348663133E+02  0.20904752261E+02 -0.97820816142E+02  0.11734385031E+03  0.00000000000E+00 0. -1.
         -2    1    5    5    0  503  0.31731204117E+03 -0.68604524291E+02 -0.47636607210E+03  0.57647042151E+03  0.00000000000E+00 0.  1.
         -3    1    6    6    0  502 -0.36203482835E+03  0.20126405147E+03 -0.11378525953E+04  0.12109025411E+04  0.00000000000E+00 0.  1.
<mgrwt>
<rscale>  0 0.11950597E+04</rscale>
<asrwt>0</asrwt>
<pdfrwt beam="1">  1        1 0.37043284E+00 0.11950597E+04</pdfrwt>
<pdfrwt beam="2">  1       -1 0.22813033E-01 0.11950597E+04</pdfrwt>
<totfact> 0.25585034E+01</totfact>
</mgrwt>
</event>
<event>
12    1  0.2019083E-007  0.1278519E+04  0.7818608E-02  0.9046775E-01
          3   -1    0    0  501    0  0.00000000000E+00  0.00000000000E+00  0.14169293941E+04  0.14169293941E+04  0.00000000000E+00 0. -1.
         -3   -1    0    0    0  501 -0.00000000000E+00 -0.00000000000E+00 -0.28840747008E+03  0.28840747008E+03  0.00000000000E+00 0.  1.
         23    2    1    2    0    0 -0.17794492088E+03  0.24808845413E+03  0.19085511051E+03  0.37062061948E+03  0.87873172447E+02 0.  0.
        254    2    1    2    0    0  0.17794492088E+03 -0.24808845413E+03  0.93766681352E+03  0.13347162447E+04  0.89946435438E+03 0.  0.
        -24    2    4    4    0    0 -0.24191524990E+03 -0.38338969303E+03  0.66894931356E+03  0.81183185872E+03  0.77891834401E+02 0.  0.
         24    2    4    4    0    0  0.41986017079E+03  0.13530123890E+03  0.26871749997E+03  0.52288438600E+03  0.81301894651E+02 0.  0.
         13    1    3    3    0    0 -0.78533969832E+02  0.14422495275E+03  0.14675043366E+03  0.22023648924E+03  0.00000000000E+00 0. -1.
        -13    1    3    3    0    0 -0.99410951052E+02  0.10386350138E+03  0.44104676846E+02  0.15038413024E+03  0.00000000000E+00 0.  1.
          4    1    6    6  502    0  0.38528291697E+03  0.14344036585E+03  0.25956606815E+03  0.48620222994E+03  0.00000000000E+00 0. -1.
          1    1    5    5  503    0 -0.13844444046E+03 -0.20479168915E+03  0.29665738460E+03  0.38615036304E+03  0.00000000000E+00 0. -1.
         -2    1    5    5    0  503 -0.10347080945E+03 -0.17859800388E+03  0.37229192896E+03  0.42568149568E+03  0.00000000000E+00 0.  1.
         -3    1    6    6    0  502  0.34577253819E+02 -0.81391269497E+01  0.91514318206E+01  0.36682156064E+02  0.00000000000E+00 0.  1.
<mgrwt>
<rscale>  0 0.12785195E+04</rscale>
<asrwt>0</asrwt>
<pdfrwt beam="1">  1        3 0.21798913E+00 0.12785195E+04</pdfrwt>
<pdfrwt beam="2">  1       -3 0.44370381E-01 0.12785195E+04</pdfrwt>
<totfact> 0.14863705E+00</totfact>
</mgrwt>
</event>
<event>
12    1  0.2019083E-007  0.1916480E+04  0.7818608E-02  0.8646696E-01
         -2   -1    0    0    0  501 -0.00000000000E+00  0.00000000000E+00  0.61911296152E+03  0.61911296152E+03  0.00000000000E+00 0.  1.
          2   -1    0    0  501    0  0.00000000000E+00 -0.00000000000E+00 -0.14831284288E+04  0.14831284288E+04  0.00000000000E+00 0. -1.
         23    2    1    2    0    0 -0.35548814400E+03 -0.32986626872E+03  0.28157066217E+03  0.56822759995E+03  0.91744164877E+02 0.  0.
        254    2    1    2    0    0  0.35548814400E+03  0.32986626872E+03 -0.11455861295E+04  0.15340137904E+04  0.89757849422E+03 0.  0.
        -24    2    4    4    0    0 -0.22732724086E+03  0.14877525197E+03 -0.75194269073E+03  0.80349083461E+03  0.79799505810E+02 0.  0.
         24    2    4    4    0    0  0.58281538486E+03  0.18109101675E+03 -0.39364343873E+03  0.73052295577E+03  0.78999385269E+02 0.  0.
         11    1    3    3    0    0 -0.50473663748E+02 -0.37973638934E+02  0.46557653800E+01  0.63334541423E+02  0.00000000000E+00 0. -1.
        -11    1    3    3    0    0 -0.30501448025E+03 -0.29189262979E+03  0.27691489679E+03  0.50489305853E+03  0.00000000000E+00 0.  1.
          2    1    6    6  502    0  0.41687152980E+03  0.16213303834E+03 -0.30555153071E+03  0.54169247031E+03  0.00000000000E+00 0. -1.
          1    1    5    5  503    0 -0.19229164600E+03  0.11238582713E+03 -0.68029143022E+03  0.71582335900E+03  0.00000000000E+00 0. -1.
         -2    1    5    5    0  503 -0.35035594860E+02  0.36389424839E+02 -0.71651260513E+02  0.87667475613E+02  0.00000000000E+00 0.  1.
         -1    1    6    6    0  502  0.16594385506E+03  0.18957978414E+02 -0.88091908022E+02  0.18883048545E+03  0.00000000000E+00 0.  1.
<mgrwt>
<rscale>  0 0.19164801E+04</rscale>
<asrwt>0</asrwt>
<pdfrwt beam="1">  1        2 0.22817360E+00 0.19164801E+04</pdfrwt>
<pdfrwt beam="2">  1       -2 0.95248149E-01 0.19164801E+04</pdfrwt>
<totfact> 0.11243712E+01</totfact>
</mgrwt>
</event>
<event>
12    1  0.2019083E-007  0.2545142E+04  0.7818608E-02  0.8387078E-01
          2   -1    0    0  501    0  0.00000000000E+00  0.00000000000E+00  0.11174260950E+04  0.11174260950E+04  0.00000000000E+00 0. -1.
         -2   -1    0    0    0  501 -0.00000000000E+00 -0.00000000000E+00 -0.14492566325E+04  0.14492566325E+04  0.00000000000E+00 0.  1.
         23    2    1    2    0    0 -0.89061689731E+03 -0.19207498729E+03 -0.78458049086E+03  0.12059448272E+04  0.92979142842E+02 0.  0.
        254    2    1    2    0    0  0.89061689731E+03  0.19207498729E+03  0.45274995335E+03  0.13607379003E+04  0.90362262838E+03 0.  0.
        -24    2    4    4    0    0  0.58197502006E+03  0.53232618942E+03  0.15416854432E+03  0.80734310790E+03  0.77258384045E+02 0.  0.
         24    2    4    4    0    0  0.30864187724E+03 -0.34025120213E+03  0.29858140904E+03  0.55339479239E+03  0.77873291234E+02 0.  0.
         11    1    3    3    0    0 -0.77367625355E+03 -0.19838429906E+03 -0.68601096004E+03  0.10528733602E+04  0.00000000000E+00 0. -1.
        -11    1    3    3    0    0 -0.11694064375E+03  0.63093117660E+01 -0.98569530823E+02  0.15307146691E+03  0.00000000000E+00 0.  1.
          4    1    6    6  502    0  0.24050707959E+03 -0.25428520976E+03  0.26391098609E+03  0.43835331847E+03  0.00000000000E+00 0. -1.
          1    1    5    5  503    0  0.52931233617E+03  0.46089532497E+03  0.11892703722E+03  0.71185650940E+03  0.00000000000E+00 0. -1.
         -2    1    5    5    0  503  0.52662683898E+02  0.71430864451E+02  0.35241507092E+02  0.95486598503E+02  0.00000000000E+00 0.  1.
         -3    1    6    6    0  502  0.68134797651E+02 -0.85965992368E+02  0.34670422950E+02  0.11504147392E+03  0.00000000000E+00 0.  1.
<mgrwt>
<rscale>  0 0.25451422E+04</rscale>
<asrwt>0</asrwt>
<pdfrwt beam="1">  1        2 0.17191171E+00 0.25451422E+04</pdfrwt>
<pdfrwt beam="2">  1       -2 0.22296256E+00 0.25451422E+04</pdfrwt>
<totfact> 0.17876009E+00</totfact>
</mgrwt>
</event>
<event>
12    1  0.2019083E-007  0.1876325E+04  0.7818608E-02  0.8666732E-01
         -1   -1    0    0    0  501 -0.00000000000E+00  0.00000000000E+00  0.37773365879E+03  0.37773365879E+03  0.00000000000E+00 0.  1.
          1   -1    0    0  501    0  0.00000000000E+00 -0.00000000000E+00 -0.23300774705E+04  0.23300774705E+04  0.00000000000E+00 0. -1.
         23    2    1    2    0    0  0.49977996062E+03  0.51733028220E+03 -0.72337636154E+03  0.10243931928E+04  0.93259976359E+02 0.  0.
        254    2    1    2    0    0 -0.49977996062E+03 -0.51733028220E+03 -0.12289674501E+04  0.16834179364E+04  0.89784426558E+03 0.  0.
        -24    2    4    4    0    0 -0.28150121070E+03 -0.24824626972E+03 -0.12696085732E+04  0.13258870655E+04  0.72121003324E+02 0.  0.
         24    2    4    4    0    0 -0.21827874992E+03 -0.26908401248E+03  0.40641123125E+02  0.35753087092E+03  0.78261129107E+02 0.  0.
         11    1    3    3    0    0  0.42375211650E+03  0.40814856171E+03 -0.54597663370E+03  0.80264661540E+03  0.00000000000E+00 0.  1.
        -11    1    3    3    0    0  0.76027844116E+02  0.10918172049E+03 -0.17739972784E+03  0.22174657744E+03  0.00000000000E+00 0. -1.
          4    1    6    6  502    0 -0.15485793747E+02 -0.66662009243E+02  0.26018093989E+01  0.68486514705E+02  0.00000000000E+00 0. -1.
          3    1    5    5  503    0 -0.10227363573E+03 -0.97120771941E+02 -0.36244194171E+03  0.38891708888E+03  0.00000000000E+00 0. -1.
         -4    1    5    5    0  503 -0.17922757497E+03 -0.15112549778E+03 -0.90716663153E+03  0.93696997661E+03  0.00000000000E+00 0.  1.
         -3    1    6    6    0  502 -0.20279295617E+03 -0.20242200324E+03  0.38039313727E+02  0.28904435621E+03  0.00000000000E+00 0.  1.
<mgrwt>
<rscale>  0 0.18763248E+04</rscale>
<asrwt>0</asrwt>
<pdfrwt beam="1">  1        1 0.35847346E+00 0.18763248E+04</pdfrwt>
<pdfrwt beam="2">  1       -1 0.58112870E-01 0.18763248E+04</pdfrwt>
<totfact> 0.49940218E+00</totfact>
</mgrwt>
</event>
<event>
12    1  0.2019083E-007  0.1598098E+04  0.7818608E-02  0.8821717E-01
         -1   -1    0    0    0  501 -0.00000000000E+00  0.00000000000E+00  0.16992628241E+04  0.16992628241E+04  0.00000000000E+00 0.  1.
          1   -1    0    0  501    0  0.00000000000E+00 -0.00000000000E+00 -0.37573898581E+03  0.37573898581E+03  0.00000000000E+00 0. -1.
         23    2    1    2    0    0 -0.49573663078E+03  0.21134662574E+03  0.41728296003E+03  0.68791876659E+03  0.93193118753E+02 0.  0.
        254    2    1    2    0    0  0.49573663078E+03 -0.21134662574E+03  0.90624087825E+03  0.13870830433E+04  0.90127944407E+03 0.  0.
        -24    2    4    4    0    0  0.13640801610E+03  0.13551921979E+02 -0.16681551045E+03  0.23054681290E+03  0.80830792182E+02 0.  0.
         24    2    4    4    0    0  0.35932861468E+03 -0.22489854772E+03  0.10730563887E+04  0.11565362304E+04  0.80184966457E+02 0.  0.
         13    1    3    3    0    0 -0.14979227326E+03  0.20509667170E+02  0.10096568003E+03  0.18180330063E+03  0.00000000000E+00 0.  1.
        -13    1    3    3    0    0 -0.34594435753E+03  0.19083695857E+03  0.31631728000E+03  0.50611546596E+03  0.00000000000E+00 0. -1.
          2    1    6    6  502    0  0.21312798522E+03 -0.17055426654E+03  0.74078153961E+03  0.78947424616E+03  0.00000000000E+00 0. -1.
          1    1    5    5  503    0  0.12768541434E+03  0.33172206754E+02 -0.11712227169E+03  0.17641311420E+03  0.00000000000E+00 0. -1.
         -4    1    5    5    0  503  0.87226017606E+01 -0.19620284775E+02 -0.49693238761E+02  0.54133698697E+02  0.00000000000E+00 0.  1.
         -3    1    6    6    0  502  0.14620062946E+03 -0.54344281181E+02  0.33227484908E+03  0.36706198425E+03  0.00000000000E+00 0.  1.
<mgrwt>
<rscale>  0 0.15980980E+04</rscale>
<asrwt>0</asrwt>
<pdfrwt beam="1">  1        1 0.57805999E-01 0.15980980E+04</pdfrwt>
<pdfrwt beam="2">  1       -1 0.26142505E+00 0.15980980E+04</pdfrwt>
<totfact> 0.36779196E+00</totfact>
</mgrwt>
</event>
<event>
12    1  0.2019083E-007  0.3059849E+04  0.7818608E-02  0.8226844E-01
         -2   -1    0    0    0  501 -0.00000000000E+00  0.00000000000E+00  0.74305066851E+03  0.74305066851E+03  0.00000000000E+00 0.  1.
          2   -1    0    0  501    0  0.00000000000E+00 -0.00000000000E+00 -0.31500807543E+04  0.31500807543E+04  0.00000000000E+00 0. -1.
         23    2    1    2    0    0 -0.13708079246E+04  0.24897665127E+03 -0.12033927013E+04  0.18432997700E+04  0.92175426791E+02 0.  0.
        254    2    1    2    0    0  0.13708079246E+04 -0.24897665127E+03 -0.12036373844E+04  0.20498316528E+04  0.90108995806E+03 0.  0.
        -24    2    4    4    0    0  0.52549212788E+03  0.16536970440E+03 -0.90001785753E+03  0.10582105107E+04  0.79298332204E+02 0.  0.
         24    2    4    4    0    0  0.84531579675E+03 -0.41434635566E+03 -0.30361952687E+03  0.99162114208E+03  0.69899739967E+02 0.  0.
         11    1    3    3    0    0 -0.48461869807E+03  0.12295736972E+03 -0.46824789659E+03  0.68500356929E+03  0.00000000000E+00 0. -1.
        -11    1    3    3    0    0 -0.88618922656E+03  0.12601928155E+03 -0.73514480476E+03  0.11582962007E+04  0.00000000000E+00 0.  1.
          2    1    6    6  502    0  0.58042646696E+03 -0.27563999199E+03 -0.24007089157E+03  0.68593463370E+03  0.00000000000E+00 0. -1.
          1    1    5    5  503    0  0.23560525614E+03  0.10855120908E+03 -0.37899035188E+03  0.45926777432E+03  0.00000000000E+00 0. -1.
         -2    1    5    5    0  503  0.28988687175E+03  0.56818495317E+02 -0.52102750565E+03  0.59894273638E+03  0.00000000000E+00 0.  1.
         -1    1    6    6    0  502  0.26488932978E+03 -0.13870636368E+03 -0.63548635308E+02  0.30568650838E+03  0.00000000000E+00 0.  1.
<mgrwt>
<rscale>  0 0.30598494E+04</rscale>
<asrwt>0</asrwt>
<pdfrwt beam="1">  1        2 0.48462781E+00 0.30598494E+04</pdfrwt>
<pdfrwt beam="2">  1       -2 0.11431549E+00 0.30598494E+04</pdfrwt>
<totfact> 0.71160222E-01</totfact>
</mgrwt>
</event>
<event>
12    1  0.2019083E-007  0.1577608E+04  0.7818608E-02  0.8834423E-01
         -1   -1    0    0    0  501 -0.00000000000E+00  0.00000000000E+00  0.27332693757E+03  0.27332693757E+03  0.00000000000E+00 0.  1.
          1   -1    0    0  501    0  0.00000000000E+00 -0.00000000000E+00 -0.22764391014E+04  0.22764391014E+04  0.00000000000E+00 0. -1.
         23    2    1    2    0    0 -0.64851313273E+02  0.49213407898E+03 -0.97892198437E+03  0.11014305456E+04  0.91974728778E+02 0.  0.
        254    2    1    2    0    0  0.64851313273E+02 -0.49213407898E+03 -0.10241901794E+04  0.14483354934E+04  0.89571677061E+03 0.  0.
        -24    2    4    4    0    0 -0.78377411247E+02 -0.29802408735E+03  0.67839399741E+02  0.32716221814E+03  0.86438172056E+02 0.  0.
         24    2    4    4    0    0  0.14322872452E+03 -0.19410999163E+03 -0.10920295792E+04  0.11211732752E+04  0.79421375470E+02 0.  0.
         11    1    3    3    0    0 -0.60226038004E+02  0.25528627272E+03 -0.43175183769E+03  0.50518106263E+03  0.00000000000E+00 0.  1.
        -11    1    3    3    0    0 -0.46252752697E+01  0.23684780626E+03 -0.54717014669E+03  0.59624948296E+03  0.00000000000E+00 0. -1.
          4    1    6    6  502    0  0.54775947328E+02 -0.12601543113E+03 -0.49093039857E+03  0.50979696893E+03  0.00000000000E+00 0. -1.
          1    1    5    5  503    0  0.13568895428E+01  0.46478450564E+01  0.66712118044E+01  0.82430989221E+01  0.00000000000E+00 0. -1.
         -2    1    5    5    0  503 -0.79734300789E+02 -0.30267193241E+03  0.61168187937E+02  0.31891911922E+03  0.00000000000E+00 0.  1.
         -3    1    6    6    0  502  0.88452777191E+02 -0.68094560498E+02 -0.60109918061E+03  0.61137630629E+03  0.00000000000E+00 0.  1.
<mgrwt>
<rscale>  0 0.15776085E+04</rscale>
<asrwt>0</asrwt>
<pdfrwt beam="1">  1        1 0.35022139E+00 0.15776085E+04</pdfrwt>
<pdfrwt beam="2">  1       -1 0.42050300E-01 0.15776085E+04</pdfrwt>
<totfact> 0.10328357E+01</totfact>
</mgrwt>
</event>
<event>
12    1  0.2315621E-007  0.2646935E+04  0.7818608E-02  0.8352431E-01
          2   -1    0    0  501    0  0.00000000000E+00  0.00000000000E+00  0.35060823009E+04  0.35060823009E+04  0.00000000000E+00 0. -1.
         -2   -1    0    0    0  501 -0.00000000000E+00 -0.00000000000E+00 -0.49957945219E+03  0.49957945219E+03  0.00000000000E+00 0.  1.
         23    2    1    2    0    0 -0.93975719880E+03 -0.21163551394E+03  0.23124746867E+04  0.25067188507E+04  0.90371655464E+02 0.  0.
        254    2    1    2    0    0  0.93975719880E+03  0.21163551394E+03  0.69402816193E+03  0.14989429024E+04  0.91499811559E+03 0.  0.
        -24    2    4    4    0    0  0.98377778924E+01 -0.25546913983E+03  0.50058961792E+02  0.27259507572E+03  0.80255294968E+02 0.  0.
         24    2    4    4    0    0  0.92991942090E+03  0.46710465377E+03  0.64396920014E+03  0.12263478266E+04  0.79345915049E+02 0.  0.
         13    1    3    3    0    0 -0.56111501077E+03 -0.89972994229E+02  0.14291604496E+04  0.15380002555E+04  0.00000000000E+00 0. -1.
        -13    1    3    3    0    0 -0.37864218803E+03 -0.12166251971E+03  0.88331423711E+03  0.96871859523E+03  0.00000000000E+00 0.  1.
          2    1    6    6  502    0  0.90472832344E+03  0.44928990206E+03  0.60820194735E+03  0.11791116843E+04  0.00000000000E+00 0. -1.
          1    1    5    5  503    0  0.75046853391E+01 -0.23406097156E+03  0.68766695290E+02  0.24406908262E+03  0.00000000000E+00 0. -1.
         -4    1    5    5    0  503  0.23330925534E+01 -0.21408168267E+02 -0.18707733498E+02  0.28525993095E+02  0.00000000000E+00 0.  1.
         -1    1    6    6    0  502  0.25191097469E+02  0.17814751707E+02  0.35767252793E+02  0.47236142332E+02  0.00000000000E+00 0.  1.
<mgrwt>
<rscale>  0 0.26469353E+04</rscale>
<asrwt>0</asrwt>
<pdfrwt beam="1">  1        2 0.53939726E+00 0.26469353E+04</pdfrwt>
<pdfrwt beam="2">  1       -2 0.76858379E-01 0.26469353E+04</pdfrwt>
<totfact> 0.10731522E+00</totfact>
</mgrwt>
</event>
<event>
12    1  0.2019083E-007  0.1804033E+04  0.7818608E-02  0.8704158E-01
          2   -1    0    0  501    0  0.00000000000E+00  0.00000000000E+00  0.17412226950E+04  0.17412226950E+04  0.00000000000E+00 0. -1.
         -2   -1    0    0    0  501 -0.00000000000E+00 -0.00000000000E+00 -0.46727717667E+03  0.46727717667E+03  0.00000000000E+00 0.  1.
         23    2    1    2    0    0 -0.61333938476E+03  0.99882736658E+02  0.81986411951E+03  0.10328584929E+04  0.91965916606E+02 0.  0.
        254    2    1    2    0    0  0.61333938476E+03 -0.99882736658E+02  0.45408139882E+03  0.11756413788E+04  0.88869622079E+03 0.  0.
        -24    2    4    4    0    0 -0.12773341837E+03 -0.17980113020E+03 -0.87949510827E+02  0.25039753752E+03  0.79495520344E+02 0.  0.
         24    2    4    4    0    0  0.74107280313E+03  0.79918393539E+02  0.54203090965E+03  0.92524384129E+03  0.81870688742E+02 0.  0.
         13    1    3    3    0    0 -0.30474374757E+03  0.54102883492E+02  0.48359590854E+03  0.57416101961E+03  0.00000000000E+00 0. -1.
        -13    1    3    3    0    0 -0.30859563719E+03  0.45779853166E+02  0.33626821097E+03  0.45869747324E+03  0.00000000000E+00 0.  1.
          2    1    6    6  502    0  0.33531491593E+03  0.52300063061E+02  0.29305004121E+03  0.44838567784E+03  0.00000000000E+00 0. -1.
          3    1    5    5  503    0 -0.45498665973E+02 -0.12762344007E+03 -0.65305872328E+02  0.15040853706E+03  0.00000000000E+00 0. -1.
         -4    1    5    5    0  503 -0.82234752398E+02 -0.52177690125E+02 -0.22643638499E+02  0.99989000461E+02  0.00000000000E+00 0.  1.
         -1    1    6    6    0  502  0.40575788719E+03  0.27618330478E+02  0.24898086844E+03  0.47685816345E+03  0.00000000000E+00 0.  1.
<mgrwt>
<rscale>  0 0.18040328E+04</rscale>
<asrwt>0</asrwt>
<pdfrwt beam="1">  1        2 0.26788041E+00 0.18040328E+04</pdfrwt>
<pdfrwt beam="2">  1       -2 0.71888797E-01 0.18040328E+04</pdfrwt>
<totfact> 0.15393015E+01</totfact>
</mgrwt>
</event>
<event>
12    1  0.2019083E-007  0.2412374E+04  0.7818608E-02  0.8434885E-01
          2   -1    0    0  501    0  0.00000000000E+00  0.00000000000E+00  0.90356182504E+03  0.90356182504E+03  0.00000000000E+00 0. -1.
         -2   -1    0    0    0  501 -0.00000000000E+00 -0.00000000000E+00 -0.16101694263E+04  0.16101694263E+04  0.00000000000E+00 0.  1.
         23    2    1    2    0    0  0.68654743331E+03  0.76612543669E+03 -0.43047456605E+03  0.11189764316E+04  0.92218975894E+02 0.  0.
        254    2    1    2    0    0 -0.68654743331E+03 -0.76612543669E+03 -0.27613303520E+03  0.13947548197E+04  0.90044210872E+03 0.  0.
        -24    2    4    4    0    0 -0.74475330375E+03 -0.31477387118E+03 -0.41511029914E+03  0.91235636051E+03  0.79608383282E+02 0.  0.
         24    2    4    4    0    0  0.58205870444E+02 -0.45135156551E+03  0.13897726394E+03  0.48239845924E+03  0.79293344834E+02 0.  0.
         11    1    3    3    0    0  0.42526491996E+03  0.42486002170E+03 -0.28456795053E+03  0.66508285849E+03  0.00000000000E+00 0.  1.
        -11    1    3    3    0    0  0.26128251335E+03  0.34126541500E+03 -0.14590661552E+03  0.45389357311E+03  0.00000000000E+00 0. -1.
          4    1    6    6  502    0  0.10536489337E+02 -0.26578859135E+03  0.11320511893E+03  0.28908474856E+03  0.00000000000E+00 0. -1.
          3    1    5    5  503    0 -0.11169739995E+03 -0.18758740604E+02 -0.67230523925E+02  0.13171234890E+03  0.00000000000E+00 0. -1.
         -4    1    5    5    0  503 -0.63305590380E+03 -0.29601513057E+03 -0.34787977521E+03  0.78064401161E+03  0.00000000000E+00 0.  1.
         -3    1    6    6    0  502  0.47669381107E+02 -0.18556297416E+03  0.25772145005E+02  0.19331371067E+03  0.00000000000E+00 0.  1.
<mgrwt>
<rscale>  0 0.24123745E+04</rscale>
<asrwt>0</asrwt>
<pdfrwt beam="1">  1        2 0.13900951E+00 0.24123745E+04</pdfrwt>
<pdfrwt beam="2">  1       -2 0.24771837E+00 0.24123745E+04</pdfrwt>
<totfact> 0.17383825E+00</totfact>
</mgrwt>
</event>
<event>
12    1  0.2019083E-007  0.1666358E+04  0.7818608E-02  0.8780787E-01
          1   -1    0    0  501    0  0.00000000000E+00  0.00000000000E+00  0.17279331951E+04  0.17279331951E+04  0.00000000000E+00 0. -1.
         -1   -1    0    0    0  501 -0.00000000000E+00 -0.00000000000E+00 -0.40174441988E+03  0.40174441988E+03  0.00000000000E+00 0.  1.
         23    2    1    2    0    0 -0.54534084651E+03  0.17277658770E+03  0.63076809817E+03  0.85639839014E+03  0.91112133307E+02 0.  0.
        254    2    1    2    0    0  0.54534084651E+03 -0.17277658770E+03  0.69542067704E+03  0.12732792248E+04  0.90021201847E+03 0.  0.
        -24    2    4    4    0    0  0.69759601358E+03 -0.28958661839E+03  0.28116586634E+03  0.80967663865E+03  0.77597725975E+02 0.  0.
         24    2    4    4    0    0 -0.15225516706E+03  0.11681003069E+03  0.41425481070E+03  0.46360258618E+03  0.80585920323E+02 0.  0.
         11    1    3    3    0    0 -0.21875631478E+03  0.52430637914E+02  0.31044443731E+03  0.38337846276E+03  0.00000000000E+00 0.  1.
        -11    1    3    3    0    0 -0.32658453173E+03  0.12034594978E+03  0.32032366086E+03  0.47301992738E+03  0.00000000000E+00 0. -1.
          4    1    6    6  502    0 -0.58867851349E+02  0.12950561109E+01  0.13547750430E+03  0.14772019247E+03  0.00000000000E+00 0. -1.
          3    1    5    5  503    0  0.50646090615E+03 -0.17578569657E+03  0.18230318043E+03  0.56624880589E+03  0.00000000000E+00 0. -1.
         -4    1    5    5    0  503  0.19113510742E+03 -0.11380092182E+03  0.98862685908E+02  0.24342783276E+03  0.00000000000E+00 0.  1.
         -3    1    6    6    0  502 -0.93387315715E+02  0.11551497458E+03  0.27877730640E+03  0.31588239371E+03  0.00000000000E+00 0.  1.
<mgrwt>
<rscale>  0 0.16663583E+04</rscale>
<asrwt>0</asrwt>
<pdfrwt beam="1">  1        1 0.26583587E+00 0.16663583E+04</pdfrwt>
<pdfrwt beam="2">  1       -1 0.61806835E-01 0.16663583E+04</pdfrwt>
<totfact> 0.11557324E+01</totfact>
</mgrwt>
</event>
<event>
12    1  0.2019083E-007  0.1981496E+04  0.7818608E-02  0.8615321E-01
          1   -1    0    0  501    0  0.00000000000E+00  0.00000000000E+00  0.24890516654E+04  0.24890516654E+04  0.00000000000E+00 0. -1.
         -1   -1    0    0    0  501 -0.00000000000E+00 -0.00000000000E+00 -0.39435977764E+03  0.39435977764E+03  0.00000000000E+00 0.  1.
         23    2    1    2    0    0  0.39945095947E+03  0.59761870928E+03  0.12866241004E+04  0.14766125260E+04  0.90960351777E+02 0.  0.
        254    2    1    2    0    0 -0.39945095947E+03 -0.59761870928E+03  0.80806778737E+03  0.14067989170E+04  0.89966685679E+03 0.  0.
        -24    2    4    4    0    0 -0.60080464322E+03 -0.11766040949E+03  0.34739930891E+03  0.70825673401E+03  0.78301533536E+02 0.  0.
         24    2    4    4    0    0  0.20135368376E+03 -0.47995829979E+03  0.46066847845E+03  0.69854218300E+03  0.69587778245E+02 0.  0.
         11    1    3    3    0    0  0.25902557726E+03  0.31367025135E+03  0.76134326797E+03  0.86320730299E+03  0.00000000000E+00 0. -1.
        -11    1    3    3    0    0  0.14042538221E+03  0.28394845794E+03  0.52528083239E+03  0.61340522301E+03  0.00000000000E+00 0.  1.
          4    1    6    6  502    0  0.91166908441E+02 -0.13796243964E+03  0.13199737626E+03  0.21158531917E+03  0.00000000000E+00 0. -1.
          3    1    5    5  503    0 -0.30981404619E+03 -0.99458544676E+02  0.17299189215E+03  0.36851450457E+03  0.00000000000E+00 0. -1.
         -2    1    5    5    0  503 -0.29099059703E+03 -0.18201864816E+02  0.17440741676E+03  0.33974222944E+03  0.00000000000E+00 0.  1.
         -3    1    6    6    0  502  0.11018677532E+03 -0.34199586015E+03  0.32867110219E+03  0.48695686383E+03  0.00000000000E+00 0.  1.
<mgrwt>
<rscale>  0 0.19814963E+04</rscale>
<asrwt>0</asrwt>
<pdfrwt beam="1">  1        1 0.38293102E+00 0.19814963E+04</pdfrwt>
<pdfrwt beam="2">  1       -1 0.60670736E-01 0.19814963E+04</pdfrwt>
<totfact> 0.35308546E+00</totfact>
</mgrwt>
</event>
<event>
12    1  0.2019083E-007  0.2886149E+04  0.7818608E-02  0.8277010E-01
          1   -1    0    0  501    0  0.00000000000E+00  0.00000000000E+00  0.21353802718E+04  0.21353802718E+04  0.00000000000E+00 0. -1.
         -1   -1    0    0    0  501 -0.00000000000E+00 -0.00000000000E+00 -0.97521956061E+03  0.97521956061E+03  0.00000000000E+00 0.  1.
         23    2    1    2    0    0  0.42769528490E+03  0.12232208768E+04  0.65399598413E+03  0.14541846574E+04  0.88032382839E+02 0.  0.
        254    2    1    2    0    0 -0.42769528490E+03 -0.12232208768E+04  0.50616472704E+03  0.16564151750E+04  0.89906391925E+03 0.  0.
        -24    2    4    4    0    0 -0.52012102822E+02 -0.11264307619E+04  0.18257402880E+03  0.11450572137E+04  0.79191074906E+02 0.  0.
         24    2    4    4    0    0 -0.37568318208E+03 -0.96790114875E+02  0.32359069824E+03  0.51135796133E+03  0.79182352759E+02 0.  0.
         11    1    3    3    0    0  0.10071274727E+03  0.38317589684E+03  0.22862002015E+03  0.45742096475E+03  0.00000000000E+00 0.  1.
        -11    1    3    3    0    0  0.32698253763E+03  0.84004497995E+03  0.42537596398E+03  0.99676369266E+03  0.00000000000E+00 0. -1.
          4    1    6    6  502    0 -0.37276716911E+03 -0.83452649058E+02  0.31586107148E+03  0.49566916737E+03  0.00000000000E+00 0. -1.
          1    1    5    5  503    0 -0.48482299973E+02 -0.10394386393E+04  0.18963649376E+03  0.10577075296E+04  0.00000000000E+00 0. -1.
         -2    1    5    5    0  503 -0.35298028485E+01 -0.86992122595E+02 -0.70624649634E+01  0.87349684104E+02  0.00000000000E+00 0.  1.
         -3    1    6    6    0  502 -0.29160129697E+01 -0.13337465816E+02  0.77296267602E+01  0.15688793959E+02  0.00000000000E+00 0.  1.
<mgrwt>
<rscale>  0 0.28861494E+04</rscale>
<asrwt>0</asrwt>
<pdfrwt beam="1">  1        1 0.32852004E+00 0.28861494E+04</pdfrwt>
<pdfrwt beam="2">  1       -1 0.15003378E+00 0.28861494E+04</pdfrwt>
<totfact> 0.72236900E-01</totfact>
</mgrwt>
</event>
<event>
12    1  0.2019083E-007  0.1824885E+04  0.7818608E-02  0.8693177E-01
         -2   -1    0    0    0  501 -0.00000000000E+00  0.00000000000E+00  0.12010836368E+04  0.12010836368E+04  0.00000000000E+00 0. -1.
          2   -1    0    0  501    0  0.00000000000E+00 -0.00000000000E+00 -0.69316695346E+03  0.69316695346E+03  0.00000000000E+00 0.  1.
         23    2    1    2    0    0 -0.76979932717E+02  0.68212491271E+03  0.17001903220E+03  0.71319220202E+03  0.92284013385E+02 0.  0.
        254    2    1    2    0    0  0.76979932717E+02 -0.68212491271E+03  0.33789765116E+03  0.11810583882E+04  0.89972428399E+03 0.  0.
        -24    2    4    4    0    0  0.56744586032E+02 -0.82761955468E+03  0.47984152552E+03  0.96155449382E+03  0.78518021126E+02 0.  0.
         24    2    4    4    0    0  0.20235346685E+02  0.14549464197E+03 -0.14194387437E+03  0.21950389442E+03  0.80347595486E+02 0.  0.
         13    1    3    3    0    0  0.12042679302E+01  0.35385259634E+03  0.10902713571E+03  0.37027020744E+03  0.00000000000E+00 0. -1.
        -13    1    3    3    0    0 -0.78184200647E+02  0.32827231638E+03  0.60991896490E+02  0.34292199458E+03  0.00000000000E+00 0.  1.
          4    1    6    6  502    0 -0.29222287020E+02  0.41470280180E+02 -0.57510703121E+02  0.76689029009E+02  0.00000000000E+00 0. -1.
          3    1    5    5  503    0  0.67033137556E+02 -0.51409574388E+03  0.27453267667E+03  0.58664816199E+03  0.00000000000E+00 0. -1.
         -4    1    5    5    0  503 -0.10288551525E+02 -0.31352381080E+03  0.20530884885E+03  0.37490633183E+03  0.00000000000E+00 0.  1.
         -3    1    6    6    0  502  0.49457633704E+02  0.10402436179E+03 -0.84433171245E+02  0.14281486541E+03  0.00000000000E+00 0.  1.
<mgrwt>
<rscale>  0 0.18248852E+04</rscale>
<asrwt>0</asrwt>
<pdfrwt beam="1">  1        2 0.10664107E+00 0.18248852E+04</pdfrwt>
<pdfrwt beam="2">  1       -2 0.18478210E+00 0.18248852E+04</pdfrwt>
<totfact> 0.65667621E+00</totfact>
</mgrwt>
</event>
<event>
12    1  0.2019083E-007  0.3379114E+04  0.7818608E-02  0.8143051E-01
         -2   -1    0    0    0  501 -0.00000000000E+00  0.00000000000E+00  0.10845477576E+04  0.10845477576E+04  0.00000000000E+00 0.  1.
          2   -1    0    0  501    0  0.00000000000E+00 -0.00000000000E+00 -0.26320679155E+04  0.26320679155E+04  0.00000000000E+00 0. -1.
         23    2    1    2    0    0  0.93015179612E+03 -0.11316263472E+04 -0.13347073218E+04  0.19837681509E+04  0.90176982723E+02 0.  0.
        254    2    1    2    0    0 -0.93015179612E+03  0.11316263472E+04 -0.21281283615E+03  0.17328475222E+04  0.90094987561E+03 0.  0.
        -24    2    4    4    0    0 -0.70564607200E+03  0.90085809034E+03 -0.53947597333E+03  0.12676538918E+04  0.80189686318E+02 0.  0.
         24    2    4    4    0    0 -0.22450572412E+03  0.23076825690E+03  0.32666313718E+03  0.46519363038E+03  0.77714220029E+02 0.  0.
         11    1    3    3    0    0  0.34501895669E+03 -0.47634371351E+03 -0.50064002882E+03  0.77238711300E+03  0.00000000000E+00 0. -1.
        -11    1    3    3    0    0  0.58513283944E+03 -0.65528263373E+03 -0.83406729297E+03  0.12113810379E+04  0.00000000000E+00 0.  1.
          2    1    6    6  502    0 -0.45859025205E+01  0.94249589671E+01 -0.33736583288E+01  0.11010991053E+02  0.00000000000E+00 0. -1.
          1    1    5    5  503    0 -0.33593979869E+03  0.49138194338E+03 -0.26789451654E+03  0.65274745087E+03  0.00000000000E+00 0. -1.
         -2    1    5    5    0  503 -0.36970627331E+03  0.40947614696E+03 -0.27158145679E+03  0.61490644096E+03  0.00000000000E+00 0.  1.
         -1    1    6    6    0  502 -0.21991982160E+03  0.22134329793E+03  0.33003679551E+03  0.45418263932E+03  0.00000000000E+00 0.  1.
<mgrwt>
<rscale>  0 0.33791143E+04</rscale>
<asrwt>0</asrwt>
<pdfrwt beam="1">  1        2 0.40493352E+00 0.33791143E+04</pdfrwt>
<pdfrwt beam="2">  1       -2 0.16685350E+00 0.33791143E+04</pdfrwt>
<totfact> 0.54264308E-01</totfact>
</mgrwt>
</event>
<event>
12    1  0.2019083E-007  0.1228633E+04  0.7818608E-02  0.9088157E-01
          2   -1    0    0  501    0  0.00000000000E+00  0.00000000000E+00  0.73878388211E+03  0.73878388211E+03  0.00000000000E+00 0. -1.
         -2   -1    0    0    0  501 -0.00000000000E+00 -0.00000000000E+00 -0.51081906806E+03  0.51081906806E+03  0.00000000000E+00 0.  1.
         23    2    1    2    0    0  0.26930997576E+03  0.36467742006E+02  0.40869320039E+02  0.29155992252E+03  0.97360812684E+02 0.  0.
        254    2    1    2    0    0 -0.26930997576E+03 -0.36467742006E+02  0.18709549402E+03  0.95804302765E+03  0.89943535604E+03 0.  0.
        -24    2    4    4    0    0 -0.32771645851E+03 -0.41340674988E+03  0.20167569728E+02  0.53407157353E+03  0.80761975951E+02 0.  0.
         24    2    4    4    0    0  0.58406482745E+02  0.37693900788E+03  0.16692792429E+03  0.42397145412E+03  0.79953293322E+02 0.  0.
         13    1    3    3    0    0  0.98990677299E+02  0.28787098769E+02  0.61153807123E+02  0.11986508822E+03  0.00000000000E+00 0. -1.
        -13    1    3    3    0    0  0.17031929846E+03  0.76806432372E+01 -0.20284487084E+02  0.17169483430E+03  0.00000000000E+00 0.  1.
          4    1    6    6  502    0  0.44045736566E+02  0.37182530263E+03  0.15896051062E+03  0.40677085259E+03  0.00000000000E+00 0. -1.
          3    1    5    5  503    0 -0.26690760135E+03 -0.29286551352E+03  0.37216440504E+02  0.39798861807E+03  0.00000000000E+00 0. -1.
         -4    1    5    5    0  503 -0.60808857158E+02 -0.12054123637E+03 -0.17048870776E+02  0.13608295547E+03  0.00000000000E+00 0.  1.
         -3    1    6    6    0  502  0.14360746179E+02  0.51137052501E+01  0.79674136651E+01  0.17200601522E+02  0.00000000000E+00 0.  1.
<mgrwt>
<rscale>  0 0.12286332E+04</rscale>
<asrwt>0</asrwt>
<pdfrwt beam="1">  1        2 0.11365906E+00 0.12286332E+04</pdfrwt>
<pdfrwt beam="2">  1       -2 0.78587549E-01 0.12286332E+04</pdfrwt>
<totfact> 0.54212284E+01</totfact>
</mgrwt>
</event>
<event>
12    1  0.2019083E-007  0.3472288E+04  0.7818608E-02  0.8120389E-01
         -2   -1    0    0    0  501 -0.00000000000E+00  0.00000000000E+00  0.27439235096E+04  0.27439235096E+04  0.00000000000E+00 0. -1.
          2   -1    0    0  501    0  0.00000000000E+00 -0.00000000000E+00 -0.10984984084E+04  0.10984984084E+04  0.00000000000E+00 0.  1.
         23    2    1    2    0    0  0.38510571636E+03 -0.12951858611E+04 -0.21605887635E+03  0.13714372964E+04  0.91356402626E+02 0.  0.
        254    2    1    2    0    0 -0.38510571636E+03  0.12951858611E+04  0.18614839776E+04  0.24709846216E+04  0.90267910881E+03 0.  0.
        -24    2    4    4    0    0  0.19902886209E+03  0.66547766389E+03  0.11822494335E+04  0.13733406581E+04  0.76667012862E+02 0.  0.
         24    2    4    4    0    0 -0.58413457845E+03  0.62970819725E+03  0.67923454406E+03  0.10976439635E+04  0.75611410357E+02 0.  0.
         11    1    3    3    0    0  0.63056921290E+02 -0.35346012657E+03 -0.56894649629E+02  0.36352061503E+03  0.00000000000E+00 0. -1.
        -11    1    3    3    0    0  0.32204879507E+03 -0.94172573457E+03 -0.15916422672E+03  0.10079166814E+04  0.00000000000E+00 0.  1.
          4    1    6    6  502    0 -0.22985080121E+03  0.23351300392E+03  0.30471855456E+03  0.44745179775E+03  0.00000000000E+00 0. -1.
          1    1    5    5  503    0  0.13831696122E+03  0.34369742473E+03  0.66182056876E+03  0.75846289742E+03  0.00000000000E+00 0. -1.
         -4    1    5    5    0  503  0.60711900873E+02  0.32178023916E+03  0.52042886479E+03  0.61487776064E+03  0.00000000000E+00 0.  1.
         -3    1    6    6    0  502 -0.35428377724E+03  0.39619519333E+03  0.37451598950E+03  0.65019216577E+03  0.00000000000E+00 0.  1.
<mgrwt>
<rscale>  0 0.34722878E+04</rscale>
<asrwt>0</asrwt>
<pdfrwt beam="1">  1        2 0.16899976E+00 0.34722878E+04</pdfrwt>
<pdfrwt beam="2">  1       -2 0.42214208E+00 0.34722878E+04</pdfrwt>
<totfact> 0.95329713E-02</totfact>
</mgrwt>
</event>
<event>
12    1  0.2019083E-007  0.2513447E+04  0.7818608E-02  0.8398211E-01
          1   -1    0    0  501    0  0.00000000000E+00  0.00000000000E+00  0.17001990362E+04  0.17001990362E+04  0.00000000000E+00 0. -1.
         -1   -1    0    0    0  501 -0.00000000000E+00 -0.00000000000E+00 -0.92892285365E+03  0.92892285365E+03  0.00000000000E+00 0.  1.
         23    2    1    2    0    0  0.72912722058E+03 -0.29894372800E+02 -0.51499289505E+03  0.89792225530E+03  0.92339142805E+02 0.  0.
        254    2    1    2    0    0 -0.72912722058E+03  0.29894372800E+02  0.12862690776E+04  0.17311996345E+04  0.90002436485E+03 0.  0.
        -24    2    4    4    0    0 -0.80467635685E+03  0.14584282544E+03  0.13346756286E+04  0.15673132049E+04  0.79608288932E+02 0.  0.
         24    2    4    4    0    0  0.75549136269E+02 -0.11594845264E+03 -0.48406551027E+02  0.16388642963E+03  0.73238323118E+02 0.  0.
         13    1    3    3    0    0  0.52127655305E+03  0.15924102421E+02 -0.38862996702E+03  0.65039685813E+03  0.00000000000E+00 0.  1.
        -13    1    3    3    0    0  0.20785066752E+03 -0.45818475221E+02 -0.12636292803E+03  0.24752539716E+03  0.00000000000E+00 0. -1.
          4    1    6    6  502    0  0.86672057653E+02 -0.77515535345E+02 -0.40293430478E+02  0.12306203451E+03  0.00000000000E+00 0. -1.
          1    1    5    5  503    0 -0.59050546438E+03  0.74615975672E+02  0.93733785494E+03  0.11103452173E+04  0.00000000000E+00 0. -1.
         -2    1    5    5    0  503 -0.21417089247E+03  0.71226849764E+02  0.39733777364E+03  0.45696798758E+03  0.00000000000E+00 0.  1.
         -3    1    6    6    0  502 -0.11122921383E+02 -0.38432917291E+02 -0.81131205491E+01  0.40824395117E+02  0.00000000000E+00 0.  1.
<mgrwt>
<rscale>  0 0.25134468E+04</rscale>
<asrwt>0</asrwt>
<pdfrwt beam="1">  1        1 0.26156908E+00 0.25134468E+04</pdfrwt>
<pdfrwt beam="2">  1       -1 0.14291121E+00 0.25134468E+04</pdfrwt>
<totfact> 0.16787111E+00</totfact>
</mgrwt>
</event>
<event>
12    1  0.2019083E-007  0.2605570E+04  0.7818608E-02  0.8366312E-01
         -1   -1    0    0    0  501 -0.00000000000E+00  0.00000000000E+00  0.83916825441E+03  0.83916825441E+03  0.00000000000E+00 0.  1.
          1   -1    0    0  501    0  0.00000000000E+00 -0.00000000000E+00 -0.20225361502E+04  0.20225361502E+04  0.00000000000E+00 0. -1.
         23    2    1    2    0    0 -0.56894014831E+03 -0.92690075974E+03 -0.91475076627E+03  0.14240573395E+04  0.91282151067E+02 0.  0.
        254    2    1    2    0    0  0.56894014831E+03  0.92690075974E+03 -0.26861712950E+03  0.14376470651E+04  0.90101942857E+03 0.  0.
        -24    2    4    4    0    0  0.22538875300E+03  0.74260457875E+03 -0.54648319882E+03  0.95232543807E+03  0.77577078094E+02 0.  0.
         24    2    4    4    0    0  0.34355139531E+03  0.18429618098E+03  0.27786606932E+03  0.48532162699E+03  0.79591994559E+02 0.  0.
         13    1    3    3    0    0 -0.30469294471E+02 -0.68459146364E+02 -0.92741032946E+02  0.11923058256E+03  0.00000000000E+00 0. -1.
        -13    1    3    3    0    0 -0.53847085384E+03 -0.85844161337E+03 -0.82200973332E+03  0.13048267570E+04  0.00000000000E+00 0.  1.
          4    1    6    6  502    0  0.12634407638E+02 -0.29355318930E+01 -0.21180819024E+01  0.13142749895E+02  0.00000000000E+00 0. -1.
          3    1    5    5  503    0  0.41907972709E+02  0.23033476403E+03 -0.13628784324E+03  0.27089621243E+03  0.00000000000E+00 0. -1.
         -4    1    5    5    0  503  0.18348078029E+03  0.51226981472E+03 -0.41019535559E+03  0.68142922564E+03  0.00000000000E+00 0.  1.
         -3    1    6    6    0  502  0.33091698768E+03  0.18723171288E+03  0.27998415122E+03  0.47217887710E+03  0.00000000000E+00 0.  1.
<mgrwt>
<rscale>  0 0.26055695E+04</rscale>
<asrwt>0</asrwt>
<pdfrwt beam="1">  1        1 0.31115940E+00 0.26055695E+04</pdfrwt>
<pdfrwt beam="2">  1       -1 0.12910281E+00 0.26055695E+04</pdfrwt>
<totfact> 0.13067982E+00</totfact>
</mgrwt>
</event>
<event>
12    1  0.2019083E-007  0.1897285E+04  0.7818608E-02  0.8656209E-01
         -2   -1    0    0    0  501 -0.00000000000E+00  0.00000000000E+00  0.86905090400E+03  0.86905090400E+03  0.00000000000E+00 0.  1.
          2   -1    0    0  501    0  0.00000000000E+00 -0.00000000000E+00 -0.10355238148E+04  0.10355238148E+04  0.00000000000E+00 0. -1.
         23    2    1    2    0    0  0.69161218334E+03  0.47190036758E+02  0.16774241658E+03  0.71993643676E+03  0.98064483660E+02 0.  0.
        254    2    1    2    0    0 -0.69161218334E+03 -0.47190036758E+02 -0.33421532741E+03  0.11846382821E+04  0.90061848891E+03 0.  0.
        -24    2    4    4    0    0 -0.32381288518E+03  0.38693714718E+03 -0.33334337853E+03  0.60981342639E+03  0.78609582869E+02 0.  0.
         24    2    4    4    0    0 -0.36779929815E+03 -0.43412718394E+03 -0.87194887879E+00  0.57482485568E+03  0.81731994064E+02 0.  0.
         11    1    3    3    0    0  0.50033647679E+03  0.77927305373E+02  0.11866910180E+03  0.52008807970E+03  0.00000000000E+00 0.  1.
        -11    1    3    3    0    0  0.19127570655E+03 -0.30737268615E+02  0.49073314778E+02  0.19984835706E+03  0.00000000000E+00 0. -1.
          2    1    6    6  502    0 -0.75230899578E+02 -0.44386557992E+02  0.44482640870E+01  0.87462230906E+02  0.00000000000E+00 0. -1.
          3    1    5    5  503    0 -0.17544302721E+03  0.20072283552E+03 -0.22222716212E+03  0.34706602265E+03  0.00000000000E+00 0. -1.
         -4    1    5    5    0  503 -0.14836985798E+03  0.18621431166E+03 -0.11111621641E+03  0.26274740374E+03  0.00000000000E+00 0.  1.
         -1    1    6    6    0  502 -0.29256839857E+03 -0.38974062595E+03 -0.53202129658E+01  0.48736262477E+03  0.00000000000E+00 0.  1.
<mgrwt>
<rscale>  0 0.18972853E+04</rscale>
<asrwt>0</asrwt>
<pdfrwt beam="1">  1        2 0.15931136E+00 0.18972853E+04</pdfrwt>
<pdfrwt beam="2">  1       -2 0.13370014E+00 0.18972853E+04</pdfrwt>
<totfact> 0.90563256E+00</totfact>
</mgrwt>
</event>
<event>
12    1  0.2019083E-007  0.1574724E+04  0.7818608E-02  0.8836228E-01
          1   -1    0    0  501    0  0.00000000000E+00  0.00000000000E+00  0.50665046651E+03  0.50665046651E+03  0.00000000000E+00 0. -1.
         -1   -1    0    0    0  501 -0.00000000000E+00 -0.00000000000E+00 -0.12236028369E+04  0.12236028369E+04  0.00000000000E+00 0.  1.
         23    2    1    2    0    0  0.24198273224E+03  0.30082738062E+03 -0.63453441526E+03  0.74848137181E+03  0.92399589643E+02 0.  0.
        254    2    1    2    0    0 -0.24198273224E+03 -0.30082738062E+03 -0.82417955164E+02  0.98177193163E+03  0.89890525127E+03 0.  0.
        -24    2    4    4    0    0  0.29879753252E+03  0.46417146143E+02  0.60628421953E+02  0.31859299657E+03  0.79944824872E+02 0.  0.
         24    2    4    4    0    0 -0.54078026475E+03 -0.34724452676E+03 -0.14304637712E+03  0.66317893505E+03  0.79510865777E+02 0.  0.
         11    1    3    3    0    0  0.14481625254E+03  0.22610717467E+03 -0.49192251066E+03  0.56043193871E+03  0.00000000000E+00 0.  1.
        -11    1    3    3    0    0  0.97166479698E+02  0.74720205952E+02 -0.14261190460E+03  0.18804943309E+03  0.00000000000E+00 0. -1.
          2    1    6    6  502    0 -0.45315862809E+03 -0.26120681098E+03 -0.96646138337E+02  0.53190433009E+03  0.00000000000E+00 0. -1.
          3    1    5    5  503    0  0.24712123483E+03  0.16272498796E+02  0.24886886020E+02  0.24890370832E+03  0.00000000000E+00 0. -1.
         -4    1    5    5    0  503  0.51676297687E+02  0.30144647347E+02  0.35741535933E+02  0.69689288253E+02  0.00000000000E+00 0.  1.
         -1    1    6    6    0  502 -0.87621636665E+02 -0.86037715783E+02 -0.46400238779E+02  0.13127460496E+03  0.00000000000E+00 0.  1.
<mgrwt>
<rscale>  0 0.15747240E+04</rscale>
<asrwt>0</asrwt>
<pdfrwt beam="1">  1        1 0.77946227E-01 0.15747240E+04</pdfrwt>
<pdfrwt beam="2">  1       -1 0.18824659E+00 0.15747240E+04</pdfrwt>
<totfact> 0.76055186E+00</totfact>
</mgrwt>
</event>
<event>
12    1  0.2019083E-007  0.1858550E+04  0.7818608E-02  0.8675768E-01
         -2   -1    0    0    0  501 -0.00000000000E+00  0.00000000000E+00  0.26150962962E+03  0.26150962962E+03  0.00000000000E+00 0.  1.
          2   -1    0    0  501    0  0.00000000000E+00 -0.00000000000E+00 -0.33021822884E+04  0.33021822884E+04  0.00000000000E+00 0. -1.
         23    2    1    2    0    0 -0.63418394566E+03 -0.23071034166E+02 -0.57111158159E+03  0.85877285879E+03  0.92740685857E+02 0.  0.
        254    2    1    2    0    0  0.63418394566E+03  0.23071034166E+02 -0.24695610772E+04  0.27049190593E+04  0.90284752505E+03 0.  0.
        -24    2    4    4    0    0  0.66146787800E+03 -0.28253537094E+03 -0.20823219937E+04  0.22044342585E+04  0.78099458422E+02 0.  0.
         24    2    4    4    0    0 -0.27283932340E+02  0.30560640511E+03 -0.38723908357E+03  0.50048480075E+03  0.79945232066E+02 0.  0.
         11    1    3    3    0    0 -0.23669575853E+03  0.32563078991E+02 -0.18951923199E+03  0.30496356424E+03  0.00000000000E+00 0.  1.
        -11    1    3    3    0    0 -0.39748818713E+03 -0.55634113157E+02 -0.38159234960E+03  0.55380929455E+03  0.00000000000E+00 0. -1.
          2    1    6    6  502    0  0.10543849446E+02  0.10573073511E+03 -0.18678378381E+03  0.21489146796E+03  0.00000000000E+00 0. -1.
          1    1    5    5  503    0  0.82751416232E+02 -0.41030567655E+02 -0.19746313768E+03  0.21799769520E+03  0.00000000000E+00 0. -1.
         -2    1    5    5    0  503  0.57871646177E+03 -0.24150480329E+03 -0.18848588560E+04  0.19864365633E+04  0.00000000000E+00 0.  1.
         -1    1    6    6    0  502 -0.37827781786E+02  0.19987566999E+03 -0.20045529976E+03  0.28559333279E+03  0.00000000000E+00 0.  1.
<mgrwt>
<rscale>  0 0.18585505E+04</rscale>
<asrwt>0</asrwt>
<pdfrwt beam="1">  1        2 0.50802804E+00 0.18585505E+04</pdfrwt>
<pdfrwt beam="2">  1       -2 0.40232251E-01 0.18585505E+04</pdfrwt>
<totfact> 0.61338829E+00</totfact>
</mgrwt>
</event>
<event>
12    1  0.2019083E-007  0.2958908E+04  0.7818608E-02  0.8255563E-01
          1   -1    0    0  501    0  0.00000000000E+00  0.00000000000E+00  0.32503387094E+04  0.32503387094E+04  0.00000000000E+00 0. -1.
         -1   -1    0    0    0  501 -0.00000000000E+00 -0.00000000000E+00 -0.67340180300E+03  0.67340180300E+03  0.00000000000E+00 0.  1.
         23    2    1    2    0    0  0.30319521286E+03  0.12991207132E+04  0.95095023776E+03  0.16408406055E+04  0.91703726901E+02 0.  0.
        254    2    1    2    0    0 -0.30319521286E+03 -0.12991207132E+04  0.16259866687E+04  0.22828999069E+04  0.88778227822E+03 0.  0.
        -24    2    4    4    0    0  0.72607952741E+02  0.32884682935E+02  0.45323175722E+03  0.46703453378E+03  0.79680065354E+02 0.  0.
         24    2    4    4    0    0 -0.37580316560E+03 -0.13320053961E+04  0.11727549115E+04  0.18158653731E+04  0.80910915531E+02 0.  0.
         11    1    3    3    0    0  0.12751526115E+03  0.37766119788E+03  0.30457701988E+03  0.50165255232E+03  0.00000000000E+00 0. -1.
        -11    1    3    3    0    0  0.17567995171E+03  0.92145951534E+03  0.64637321788E+03  0.11391880532E+04  0.00000000000E+00 0.  1.
          4    1    6    6  502    0 -0.30476383949E+03 -0.96595988409E+03  0.83336992200E+03  0.13116649429E+04  0.00000000000E+00 0. -1.
          1    1    5    5  503    0  0.81784250086E+02  0.26354184568E+02  0.44464631052E+03  0.45287255168E+03  0.00000000000E+00 0. -1.
         -2    1    5    5    0  503 -0.91762973456E+01  0.65304983674E+01  0.85854467028E+01  0.14161982100E+02  0.00000000000E+00 0.  1.
         -3    1    6    6    0  502 -0.71039326104E+02 -0.36604551206E+03  0.33938498946E+03  0.50420043021E+03  0.00000000000E+00 0.  1.
<mgrwt>
<rscale>  0 0.29589079E+04</rscale>
<asrwt>0</asrwt>
<pdfrwt beam="1">  1        1 0.50005210E+00 0.29589079E+04</pdfrwt>
<pdfrwt beam="2">  1       -1 0.10360028E+00 0.29589079E+04</pdfrwt>
<totfact> 0.29198042E-01</totfact>
</mgrwt>
</event>
<event>
12    1  0.2019083E-007  0.1949962E+04  0.7818608E-02  0.8630379E-01
         -1   -1    0    0    0  501 -0.00000000000E+00  0.00000000000E+00  0.72552312347E+03  0.72552312347E+03  0.00000000000E+00 0.  1.
          1   -1    0    0  501    0  0.00000000000E+00 -0.00000000000E+00 -0.13102105738E+04  0.13102105738E+04  0.00000000000E+00 0. -1.
         23    2    1    2    0    0  0.38616176986E+03 -0.64821176549E+03 -0.35727872526E+03  0.84000955029E+03  0.93105056994E+02 0.  0.
        254    2    1    2    0    0 -0.38616176986E+03  0.64821176549E+03 -0.22740872504E+03  0.11957241469E+04  0.89930089622E+03 0.  0.
        -24    2    4    4    0    0 -0.15042120571E+02  0.76877397687E+03 -0.18455219582E+03  0.79532358939E+03  0.85090575050E+02 0.  0.
         24    2    4    4    0    0 -0.37111964929E+03 -0.12056221138E+03 -0.42856529225E+02  0.40040055755E+03  0.78859897863E+02 0.  0.
         11    1    3    3    0    0  0.12746450023E+03 -0.23276216988E+03 -0.17436216609E+03  0.31753360690E+03  0.00000000000E+00 0. -1.
        -11    1    3    3    0    0  0.25869726963E+03 -0.41544959561E+03 -0.18291655917E+03  0.52247594339E+03  0.00000000000E+00 0.  1.
          4    1    6    6  502    0 -0.18021095192E+03 -0.69269741230E+02 -0.59489226426E+02  0.20202290044E+03  0.00000000000E+00 0. -1.
          1    1    5    5  503    0 -0.26121051136E+02  0.67646241311E+03 -0.13621409220E+03  0.69053456436E+03  0.00000000000E+00 0. -1.
         -2    1    5    5    0  503  0.11078930565E+02  0.92311563753E+02 -0.48338103613E+02  0.10478902503E+03  0.00000000000E+00 0.  1.
         -3    1    6    6    0  502 -0.19090869737E+03 -0.51292470147E+02  0.16632697201E+02  0.19837765711E+03  0.00000000000E+00 0.  1.
<mgrwt>
<rscale>  0 0.19499621E+04</rscale>
<asrwt>0</asrwt>
<pdfrwt beam="1">  1        1 0.20157086E+00 0.19499621E+04</pdfrwt>
<pdfrwt beam="2">  1       -1 0.11161894E+00 0.19499621E+04</pdfrwt>
<totfact> 0.61090570E+00</totfact>
</mgrwt>
</event>
<event>
12    1  0.2019083E-007  0.2632668E+04  0.7818608E-02  0.8357189E-01
          1   -1    0    0  501    0  0.00000000000E+00  0.00000000000E+00  0.14179603432E+04  0.14179603432E+04  0.00000000000E+00 0. -1.
         -1   -1    0    0    0  501 -0.00000000000E+00 -0.00000000000E+00 -0.12219912706E+04  0.12219912706E+04  0.00000000000E+00 0.  1.
         23    2    1    2    0    0 -0.94184779174E+03  0.57534517308E+03  0.44378271596E+03  0.11929467295E+04  0.89885868953E+02 0.  0.
        254    2    1    2    0    0  0.94184779174E+03 -0.57534517308E+03 -0.24781364339E+03  0.14470048843E+04  0.90239248792E+03 0.  0.
        -24    2    4    4    0    0 -0.11649142969E+03 -0.22471866386E+02  0.12848952874E+03  0.19256208965E+03  0.80593805013E+02 0.  0.
         24    2    4    4    0    0  0.10583392214E+04 -0.55287330669E+03 -0.37630317212E+03  0.12544427946E+04  0.79194991926E+02 0.  0.
         11    1    3    3    0    0 -0.45400087286E+03  0.22516709669E+03  0.20831744995E+03  0.54791712324E+03  0.00000000000E+00 0.  1.
        -11    1    3    3    0    0 -0.48784691889E+03  0.35017807639E+03  0.23546526601E+03  0.64502960626E+03  0.00000000000E+00 0. -1.
          4    1    6    6  502    0  0.12719186865E+03 -0.95952262929E+02 -0.56475770846E+02  0.16903881479E+03  0.00000000000E+00 0. -1.
          3    1    5    5  503    0  0.60736708011E+01 -0.18180104226E+02  0.84365274840E+01  0.20942317510E+02  0.00000000000E+00 0. -1.
         -4    1    5    5    0  503 -0.12256510049E+03 -0.42917621600E+01  0.12005300125E+03  0.17161977214E+03  0.00000000000E+00 0.  1.
         -3    1    6    6    0  502  0.93114735278E+03 -0.45692104376E+03 -0.31982740128E+03  0.10854039798E+04  0.00000000000E+00 0.  1.
<mgrwt>
<rscale>  0 0.26326680E+04</rscale>
<asrwt>0</asrwt>
<pdfrwt beam="1">  1        1 0.21814775E+00 0.26326680E+04</pdfrwt>
<pdfrwt beam="2">  1       -1 0.18799866E+00 0.26326680E+04</pdfrwt>
<totfact> 0.11964058E+00</totfact>
</mgrwt>
</event>
<event>
12    1  0.2019083E-007  0.3134497E+04  0.7818608E-02  0.8206334E-01
         -2   -1    0    0    0  501 -0.00000000000E+00  0.00000000000E+00  0.10105164675E+04  0.10105164675E+04  0.00000000000E+00 0.  1.
          2   -1    0    0  501    0  0.00000000000E+00 -0.00000000000E+00 -0.24307052374E+04  0.24307052374E+04  0.00000000000E+00 0. -1.
         23    2    1    2    0    0 -0.67092740671E+03  0.12605296682E+04 -0.82607002679E+03  0.16521776569E+04  0.90668027746E+02 0.  0.
        254    2    1    2    0    0  0.67092740671E+03 -0.12605296682E+04 -0.59411874309E+03  0.17890440479E+04  0.89923461619E+03 0.  0.
        -24    2    4    4    0    0  0.17953247655E+03 -0.62139095913E+03  0.17221902557E+03  0.67392626751E+03  0.78476665667E+02 0.  0.
         24    2    4    4    0    0  0.49139493016E+03 -0.63913870911E+03 -0.76633776867E+03  0.11151177804E+04  0.79036837303E+02 0.  0.
         11    1    3    3    0    0 -0.47292645816E+03  0.97142192048E+03 -0.62499257386E+03  0.12481729447E+04  0.00000000000E+00 0.  1.
        -11    1    3    3    0    0 -0.19800094854E+03  0.28910774776E+03 -0.20107745293E+03  0.40400471224E+03  0.00000000000E+00 0. -1.
          2    1    6    6  502    0  0.25031324549E+03 -0.37924424835E+03 -0.46012636960E+03  0.64668322753E+03  0.00000000000E+00 0. -1.
          1    1    5    5  503    0  0.79481474672E+02 -0.16310119310E+03  0.65140952653E+02  0.19277615962E+03  0.00000000000E+00 0. -1.
         -2    1    5    5    0  503  0.10005100188E+03 -0.45828976603E+03  0.10707807292E+03  0.48115010789E+03  0.00000000000E+00 0.  1.
         -1    1    6    6    0  502  0.24108168467E+03 -0.25989446076E+03 -0.30621139907E+03  0.46843455289E+03  0.00000000000E+00 0.  1.
<mgrwt>
<rscale>  0 0.31344969E+04</rscale>
<asrwt>0</asrwt>
<pdfrwt beam="1">  1        2 0.37395465E+00 0.31344969E+04</pdfrwt>
<pdfrwt beam="2">  1       -2 0.15546407E+00 0.31344969E+04</pdfrwt>
<totfact> 0.87994947E-01</totfact>
</mgrwt>
</event>
<event>
12    1  0.2019083E-007  0.3784420E+04  0.7818608E-02  0.8049507E-01
          2   -1    0    0  501    0  0.00000000000E+00  0.00000000000E+00  0.18236338244E+04  0.18236338244E+04  0.00000000000E+00 0. -1.
         -2   -1    0    0    0  501 -0.00000000000E+00 -0.00000000000E+00 -0.19633644222E+04  0.19633644222E+04  0.00000000000E+00 0.  1.
         23    2    1    2    0    0  0.41720817514E+01  0.14947299136E+04  0.90944313079E+03  0.17521001690E+04  0.92375716059E+02 0.  0.
        254    2    1    2    0    0 -0.41720817514E+01 -0.14947299136E+04 -0.10491737285E+04  0.20348980776E+04  0.89766906625E+03 0.  0.
        -24    2    4    4    0    0  0.14830570283E+03 -0.19164274943E+03  0.11404047589E+03  0.27973262796E+03  0.80768732242E+02 0.  0.
         24    2    4    4    0    0 -0.15247778458E+03 -0.13030871642E+04 -0.11632142044E+04  0.17551654496E+04  0.79074887560E+02 0.  0.
         11    1    3    3    0    0  0.29634726603E+02  0.99141631192E+03  0.64296002862E+03  0.11820245848E+04  0.00000000000E+00 0. -1.
        -11    1    3    3    0    0 -0.25462644852E+02  0.50331360172E+03  0.26648310216E+03  0.57007558420E+03  0.00000000000E+00 0.  1.
          4    1    6    6  502    0 -0.15139728411E+02 -0.24188017737E+03 -0.17878704145E+03  0.30116446964E+03  0.00000000000E+00 0. -1.
          1    1    5    5  503    0  0.36772210711E+00  0.62255466488E+01  0.97298070237E+01  0.11556893845E+02  0.00000000000E+00 0. -1.
         -2    1    5    5    0  503  0.14793798072E+03 -0.19786829608E+03  0.10431066886E+03  0.26817573412E+03  0.00000000000E+00 0.  1.
         -3    1    6    6    0  502 -0.13733805617E+03 -0.10612069868E+04 -0.98442716298E+03  0.14540009800E+04  0.00000000000E+00 0.  1.
<mgrwt>
<rscale>  0 0.37844195E+04</rscale>
<asrwt>0</asrwt>
<pdfrwt beam="1">  1        2 0.28055905E+00 0.37844195E+04</pdfrwt>
<pdfrwt beam="2">  1       -2 0.30205606E+00 0.37844195E+04</pdfrwt>
<totfact> 0.20751707E-01</totfact>
</mgrwt>
</event>
<event>
12    1  0.2019083E-007  0.1969231E+04  0.7818608E-02  0.8621143E-01
         -1   -1    0    0    0  501 -0.00000000000E+00  0.00000000000E+00  0.11909014593E+04  0.11909014593E+04  0.00000000000E+00 0.  1.
          1   -1    0    0  501    0  0.00000000000E+00 -0.00000000000E+00 -0.81406199353E+03  0.81406199353E+03  0.00000000000E+00 0. -1.
         23    2    1    2    0    0  0.47579037765E+02  0.65064419642E+03  0.57767267019E+03  0.87637218825E+03  0.93385562441E+02 0.  0.
        254    2    1    2    0    0 -0.47579037765E+02 -0.65064419642E+03 -0.20083320442E+03  0.11285912646E+04  0.89876728430E+03 0.  0.
        -24    2    4    4    0    0  0.33257964561E+03 -0.20753322405E+03  0.16721158945E+03  0.43377660464E+03  0.80766127343E+02 0.  0.
         24    2    4    4    0    0 -0.38015868338E+03 -0.44311097237E+03 -0.36804479387E+03  0.69481465995E+03  0.80265079589E+02 0.  0.
         11    1    3    3    0    0 -0.24629241566E+02  0.77932543523E+02  0.67986455522E+02  0.10631198904E+03  0.00000000000E+00 0. -1.
        -11    1    3    3    0    0  0.72208279331E+02  0.57271165290E+03  0.50968621467E+03  0.77006019920E+03  0.00000000000E+00 0.  1.
          4    1    6    6  502    0 -0.15183324848E+03 -0.21289368942E+03 -0.12642992301E+03  0.29045065634E+03  0.00000000000E+00 0. -1.
          3    1    5    5  503    0  0.13686193261E+02  0.54153667493E+01 -0.15986729920E+01  0.14805196329E+02  0.00000000000E+00 0. -1.
         -4    1    5    5    0  503  0.31889345235E+03 -0.21294859080E+03  0.16881026244E+03  0.41897140831E+03  0.00000000000E+00 0.  1.
         -3    1    6    6    0  502 -0.22832543490E+03 -0.23021728296E+03 -0.24161487086E+03  0.40436400361E+03  0.00000000000E+00 0.  1.
<mgrwt>
<rscale>  0 0.19692309E+04</rscale>
<asrwt>0</asrwt>
<pdfrwt beam="1">  1        1 0.12524031E+00 0.19692309E+04</pdfrwt>
<pdfrwt beam="2">  1       -1 0.18321561E+00 0.19692309E+04</pdfrwt>
<totfact> 0.39456764E+00</totfact>
</mgrwt>
</event>
<event>
12    1  0.2019083E-007  0.1742830E+04  0.7818608E-02  0.8737307E-01
         -1   -1    0    0    0  501 -0.00000000000E+00  0.00000000000E+00  0.12427021739E+04  0.12427021739E+04  0.00000000000E+00 0.  1.
          1   -1    0    0  501    0  0.00000000000E+00 -0.00000000000E+00 -0.61105858712E+03  0.61105858712E+03  0.00000000000E+00 0. -1.
         23    2    1    2    0    0  0.59581260365E+03  0.21412735759E+03  0.19483432654E+03  0.66866219490E+03  0.91134692389E+02 0.  0.
        254    2    1    2    0    0 -0.59581260365E+03 -0.21412735759E+03  0.43680926024E+03  0.11850985661E+04  0.90156147748E+03 0.  0.
        -24    2    4    4    0    0 -0.49705132460E+03  0.16657289998E+03  0.55392522265E+03  0.76704739251E+03  0.81987802571E+02 0.  0.
         24    2    4    4    0    0 -0.98761279046E+02 -0.38070025757E+03 -0.11711596241E+03  0.41805117362E+03  0.79775677781E+02 0.  0.
         13    1    3    3    0    0  0.38171608867E+03  0.14582662331E+03  0.16997092776E+03  0.44256377246E+03  0.00000000000E+00 0.  1.
        -13    1    3    3    0    0  0.21409651498E+03  0.68300734280E+02  0.24863398784E+02  0.22609842244E+03  0.00000000000E+00 0. -1.
          4    1    6    6  502    0 -0.84340277176E+02 -0.36990376431E+03 -0.98137059901E+02  0.39188386001E+03  0.00000000000E+00 0. -1.
          1    1    5    5  503    0 -0.48754798774E+03  0.15224928942E+03  0.51931209699E+03  0.72840094767E+03  0.00000000000E+00 0. -1.
         -2    1    5    5    0  503 -0.95033368566E+01  0.14323610560E+02  0.34613125660E+02  0.38646444841E+02  0.00000000000E+00 0.  1.
         -3    1    6    6    0  502 -0.14421001870E+02 -0.10796493254E+02 -0.18978902506E+02  0.26167313615E+02  0.00000000000E+00 0.  1.
<mgrwt>
<rscale>  0 0.17428297E+04</rscale>
<asrwt>0</asrwt>
<pdfrwt beam="1">  1        1 0.94009013E-01 0.17428297E+04</pdfrwt>
<pdfrwt beam="2">  1       -1 0.19118495E+00 0.17428297E+04</pdfrwt>
<totfact> 0.54810801E+00</totfact>
</mgrwt>
</event>
<event>
12    1  0.2019083E-007  0.3547318E+04  0.7818608E-02  0.8102667E-01
          2   -1    0    0  501    0  0.00000000000E+00  0.00000000000E+00  0.24068026622E+04  0.24068026622E+04  0.00000000000E+00 0. -1.
         -2   -1    0    0    0  501 -0.00000000000E+00 -0.00000000000E+00 -0.13070727340E+04  0.13070727340E+04  0.00000000000E+00 0.  1.
         23    2    1    2    0    0  0.12120406958E+04  0.97091686078E+03  0.11269776201E+04  0.19209817541E+04  0.91488493269E+02 0.  0.
        254    2    1    2    0    0 -0.12120406958E+04 -0.97091686078E+03 -0.27247691940E+02  0.17928936422E+04  0.89554618896E+03 0.  0.
        -24    2    4    4    0    0 -0.12588454626E+04 -0.58105846874E+03 -0.62818798727E+02  0.13901062493E+04  0.78283715199E+02 0.  0.
         24    2    4    4    0    0  0.46804766804E+02 -0.38985839205E+03  0.35571106787E+02  0.40278739286E+03  0.82414368672E+02 0.  0.
         11    1    3    3    0    0  0.10222660923E+04  0.82030791155E+03  0.99085598631E+03  0.16430850918E+04  0.00000000000E+00 0. -1.
        -11    1    3    3    0    0  0.18977460352E+03  0.15060894923E+03  0.13612163381E+03  0.27789666231E+03  0.00000000000E+00 0.  1.
          4    1    6    6  502    0  0.56750992408E+02 -0.36082930319E+03  0.14479035199E+02  0.36555177970E+03  0.00000000000E+00 0. -1.
          1    1    5    5  503    0 -0.26464404590E+03 -0.10623683657E+03 -0.41153432799E+02  0.28812556552E+03  0.00000000000E+00 0. -1.
         -2    1    5    5    0  503 -0.99420141671E+03 -0.47482163216E+03 -0.21665365929E+02  0.11019806838E+04  0.00000000000E+00 0.  1.
         -3    1    6    6    0  502 -0.99462256035E+01 -0.29029088853E+02  0.21092071588E+02  0.37235613158E+02  0.00000000000E+00 0.  1.
<mgrwt>
<rscale>  0 0.35473179E+04</rscale>
<asrwt>0</asrwt>
<pdfrwt beam="1">  1        2 0.37027733E+00 0.35473179E+04</pdfrwt>
<pdfrwt beam="2">  1       -2 0.20108811E+00 0.35473179E+04</pdfrwt>
<totfact> 0.42191108E-01</totfact>
</mgrwt>
</event>
<event>
12    1  0.2019083E-007  0.1490718E+04  0.7818608E-02  0.8890649E-01
         -1   -1    0    0    0  501 -0.00000000000E+00  0.00000000000E+00  0.46761783824E+03  0.46761783824E+03  0.00000000000E+00 0.  1.
          1   -1    0    0  501    0  0.00000000000E+00 -0.00000000000E+00 -0.11880635151E+04  0.11880635151E+04  0.00000000000E+00 0. -1.
         23    2    1    2    0    0 -0.18507944927E+03 -0.42829509656E+03 -0.19756701239E+03  0.51483651683E+03  0.91284294369E+02 0.  0.
        254    2    1    2    0    0  0.18507944927E+03  0.42829509656E+03 -0.52287866450E+03  0.11408448365E+04  0.90024094053E+03 0.  0.
        -24    2    4    4    0    0 -0.26772510226E+03 -0.16073119854E+02  0.47100465440E+02  0.28412533435E+03  0.81078210443E+02 0.  0.
         24    2    4    4    0    0  0.45280455153E+03  0.44436821641E+03 -0.56997912994E+03  0.85671950220E+03  0.81222061247E+02 0.  0.
         11    1    3    3    0    0 -0.11984140908E+03 -0.24197142790E+03 -0.16003993774E+03  0.31388678998E+03  0.00000000000E+00 0. -1.
        -11    1    3    3    0    0 -0.65238040193E+02 -0.18632366865E+03 -0.37527074645E+02  0.20094972685E+03  0.00000000000E+00 0.  1.
          4    1    6    6  502    0  0.39357431146E+03  0.35715511137E+03 -0.50339053541E+03  0.73202632695E+03  0.00000000000E+00 0. -1.
          1    1    5    5  503    0 -0.22731227586E+03  0.82927899906E+01  0.16881837892E+02  0.22808910007E+03  0.00000000000E+00 0. -1.
         -2    1    5    5    0  503 -0.40412826407E+02 -0.24365909845E+02  0.30218627548E+02  0.56036234275E+02  0.00000000000E+00 0.  1.
         -1    1    6    6    0  502  0.59230240079E+02  0.87213105044E+02 -0.66588594534E+02  0.12469317525E+03  0.00000000000E+00 0.  1.
<mgrwt>
<rscale>  0 0.14907175E+04</rscale>
<asrwt>0</asrwt>
<pdfrwt beam="1">  1        1 0.18277900E+00 0.14907175E+04</pdfrwt>
<pdfrwt beam="2">  1       -1 0.71941207E-01 0.14907175E+04</pdfrwt>
<totfact> 0.20583323E+01</totfact>
</mgrwt>
</event>
<event>
12    1  0.2019083E-007  0.1496943E+04  0.7818608E-02  0.8886488E-01
          2   -1    0    0  501    0  0.00000000000E+00  0.00000000000E+00  0.22143810062E+03  0.22143810062E+03  0.00000000000E+00 0. -1.
         -2   -1    0    0    0  501 -0.00000000000E+00 -0.00000000000E+00 -0.25298709812E+04  0.25298709812E+04  0.00000000000E+00 0.  1.
         23    2    1    2    0    0 -0.10109737338E+03  0.44444867631E+03 -0.97850460939E+03  0.10826325577E+04  0.82865430915E+02 0.  0.
        254    2    1    2    0    0  0.10109737338E+03 -0.44444867631E+03 -0.13299282712E+04  0.16686765241E+04  0.89889756413E+03 0.  0.
        -24    2    4    4    0    0 -0.20973419650E+03  0.24633375884E+02 -0.44233569659E+01  0.22634127169E+03  0.81336146934E+02 0.  0.
         24    2    4    4    0    0  0.31083156988E+03 -0.46908205219E+03 -0.13255049142E+04  0.14423352524E+04  0.81935744259E+02 0.  0.
         11    1    3    3    0    0 -0.76963271966E+02  0.15853710451E+03 -0.38402514716E+03  0.42253126794E+03  0.00000000000E+00 0.  1.
        -11    1    3    3    0    0 -0.24134101413E+02  0.28591157180E+03 -0.59447946223E+03  0.66010128977E+03  0.00000000000E+00 0. -1.
          2    1    6    6  502    0  0.31350967690E+03 -0.45842869807E+03 -0.13133616167E+04  0.14259607025E+04  0.00000000000E+00 0. -1.
          1    1    5    5  503    0 -0.18461351827E+03  0.11097441997E+02  0.23479114979E+02  0.18643114865E+03  0.00000000000E+00 0. -1.
         -2    1    5    5    0  503 -0.25120678224E+02  0.13535933887E+02 -0.27902471944E+02  0.39910123042E+02  0.00000000000E+00 0.  1.
         -1    1    6    6    0  502 -0.26781070238E+01 -0.10653354127E+02 -0.12143297507E+02  0.16374549940E+02  0.00000000000E+00 0.  1.
<mgrwt>
<rscale>  0 0.14969433E+04</rscale>
<asrwt>0</asrwt>
<pdfrwt beam="1">  1        2 0.34067399E-01 0.14969433E+04</pdfrwt>
<pdfrwt beam="2">  1       -2 0.38921094E+00 0.14969433E+04</pdfrwt>
<totfact> 0.13129463E+00</totfact>
</mgrwt>
</event>
<event>
12    1  0.2019083E-007  0.1509915E+04  0.7818608E-02  0.8877886E-01
         -1   -1    0    0    0  501 -0.00000000000E+00  0.00000000000E+00  0.58775646142E+03  0.58775646142E+03  0.00000000000E+00 0.  1.
          1   -1    0    0  501    0  0.00000000000E+00 -0.00000000000E+00 -0.96972314676E+03  0.96972314676E+03  0.00000000000E+00 0. -1.
         23    2    1    2    0    0 -0.12081591372E+03 -0.33455053751E+03 -0.45897050003E+03  0.58721073927E+03  0.87418449175E+02 0.  0.
        254    2    1    2    0    0  0.12081591372E+03  0.33455053751E+03  0.77003814698E+02  0.97026886891E+03  0.89942845371E+03 0.  0.
        -24    2    4    4    0    0  0.49506016592E+03  0.22152979983E+03  0.14087363872E+03  0.56615058175E+03  0.80753198374E+02 0.  0.
         24    2    4    4    0    0 -0.37424425219E+03  0.11302073768E+03 -0.63869824018E+02  0.40411828715E+03  0.79998675892E+02 0.  0.
         13    1    3    3    0    0 -0.17875056562E+02 -0.17798321941E+03 -0.22063353433E+03  0.28403644222E+03  0.00000000000E+00 0. -1.
        -13    1    3    3    0    0 -0.10294085716E+03 -0.15656731809E+03 -0.23833696571E+03  0.30317429705E+03  0.00000000000E+00 0.  1.
          4    1    6    6  502    0 -0.31715719470E+03  0.81852610618E+02 -0.25355925775E+02  0.32852923612E+03  0.00000000000E+00 0. -1.
          1    1    5    5  503    0  0.40089939018E+03  0.19474500300E+03  0.85981208536E+02  0.45391486587E+03  0.00000000000E+00 0. -1.
         -2    1    5    5    0  503  0.94160775734E+02  0.26784796831E+02  0.54892430180E+02  0.11223571588E+03  0.00000000000E+00 0.  1.
         -3    1    6    6    0  502 -0.57087057497E+02  0.31168127060E+02 -0.38513898243E+02  0.75589051032E+02  0.00000000000E+00 0.  1.
<mgrwt>
<rscale>  0 0.15099153E+04</rscale>
<asrwt>0</asrwt>
<pdfrwt beam="1">  1        1 0.14918817E+00 0.15099153E+04</pdfrwt>
<pdfrwt beam="2">  1       -1 0.90424072E-01 0.15099153E+04</pdfrwt>
<totfact> 0.18476137E+01</totfact>
</mgrwt>
</event>
<event>
12    1  0.2019083E-007  0.1780354E+04  0.7818608E-02  0.8716817E-01
         -2   -1    0    0    0  501 -0.00000000000E+00  0.00000000000E+00  0.50329911535E+03  0.50329911535E+03  0.00000000000E+00 0.  1.
          2   -1    0    0  501    0  0.00000000000E+00 -0.00000000000E+00 -0.15744414378E+04  0.15744414378E+04  0.00000000000E+00 0. -1.
         23    2    1    2    0    0  0.15986028591E+03  0.25826537689E+03  0.28344665323E+03  0.42530024735E+03  0.91005380376E+02 0.  0.
        254    2    1    2    0    0 -0.15986028591E+03 -0.25826537689E+03 -0.13545889757E+04  0.16524403058E+04  0.89632101131E+03 0.  0.
        -24    2    4    4    0    0 -0.43326721505E+02 -0.54904400453E+03 -0.11276785089E+04  0.12575623382E+04  0.80484106908E+02 0.  0.
         24    2    4    4    0    0 -0.11653356441E+03  0.29077862764E+03 -0.22691046685E+03  0.39487796761E+03  0.79422713447E+02 0.  0.
         13    1    3    3    0    0  0.95900722705E+02  0.88683599515E+02  0.81553646827E+02  0.15398937219E+03  0.00000000000E+00 0. -1.
        -13    1    3    3    0    0  0.63959563209E+02  0.16958177737E+03  0.20189300641E+03  0.27131087516E+03  0.00000000000E+00 0.  1.
          4    1    6    6  502    0 -0.25837641008E+02  0.17033599909E+03 -0.11573236892E+03  0.20754738614E+03  0.00000000000E+00 0. -1.
          3    1    5    5  503    0 -0.46463275384E+02 -0.13983747757E+03 -0.29306578601E+03  0.32802577798E+03  0.00000000000E+00 0. -1.
         -4    1    5    5    0  503  0.31365538787E+01 -0.40920652696E+03 -0.83461272286E+03  0.92953656024E+03  0.00000000000E+00 0.  1.
         -3    1    6    6    0  502 -0.90695923401E+02  0.12044262855E+03 -0.11117809793E+03  0.18733058147E+03  0.00000000000E+00 0.  1.
<mgrwt>
<rscale>  0 0.17803539E+04</rscale>
<asrwt>0</asrwt>
<pdfrwt beam="1">  1        2 0.24222176E+00 0.17803539E+04</pdfrwt>
<pdfrwt beam="2">  1       -2 0.77430634E-01 0.17803539E+04</pdfrwt>
<totfact> 0.16208316E+01</totfact>
</mgrwt>
</event>
<event>
12    1  0.2019083E-007  0.2485664E+04  0.7818608E-02  0.8408111E-01
          2   -1    0    0  501    0  0.00000000000E+00  0.00000000000E+00  0.38104525753E+04  0.38104525753E+04  0.00000000000E+00 0. -1.
         -2   -1    0    0    0  501 -0.00000000000E+00 -0.00000000000E+00 -0.40536682613E+03  0.40536682613E+03  0.00000000000E+00 0.  1.
         23    2    1    2    0    0 -0.34316833883E+03 -0.38911570686E+03  0.30911183263E+04  0.31356799553E+04  0.91108354524E+02 0.  0.
        254    2    1    2    0    0  0.34316833883E+03  0.38911570686E+03  0.31396742286E+03  0.10801394462E+04  0.89384010792E+03 0.  0.
        -24    2    4    4    0    0  0.50580165354E+03  0.11777790352E+03  0.48013565966E+03  0.71184126415E+03  0.80503331581E+02 0.  0.
         24    2    4    4    0    0 -0.16263331470E+03  0.27133780334E+03 -0.16616823680E+03  0.36829818205E+03  0.89206891037E+02 0.  0.
         11    1    3    3    0    0 -0.19151974357E+03 -0.26552870736E+03  0.17488793167E+04  0.17792594445E+04  0.00000000000E+00 0.  1.
        -11    1    3    3    0    0 -0.15164859527E+03 -0.12358699950E+03  0.13422390096E+04  0.13564205107E+04  0.00000000000E+00 0. -1.
          2    1    6    6  502    0 -0.13596656240E+02  0.94749152316E+01  0.99178233894E+01  0.19313371025E+02  0.00000000000E+00 0. -1.
          3    1    5    5  503    0  0.10052255316E+03  0.11129616802E+01  0.62873734562E+02  0.11857119749E+03  0.00000000000E+00 0. -1.
         -4    1    5    5    0  503  0.40527910038E+03  0.11666494184E+03  0.41726192510E+03  0.59327006666E+03  0.00000000000E+00 0.  1.
         -1    1    6    6    0  502 -0.14903665846E+03  0.26186288810E+03 -0.17608606019E+03  0.34898481102E+03  0.00000000000E+00 0.  1.
<mgrwt>
<rscale>  0 0.24856637E+04</rscale>
<asrwt>0</asrwt>
<pdfrwt beam="1">  1        2 0.58622345E+00 0.24856637E+04</pdfrwt>
<pdfrwt beam="2">  1       -2 0.62364130E-01 0.24856637E+04</pdfrwt>
<totfact> 0.10299273E+00</totfact>
</mgrwt>
</event>
<event>
12    1  0.2019083E-007  0.2681971E+04  0.7818608E-02  0.8340878E-01
         -1   -1    0    0    0  501 -0.00000000000E+00  0.00000000000E+00  0.68869897593E+03  0.68869897593E+03  0.00000000000E+00 0.  1.
          1   -1    0    0  501    0  0.00000000000E+00 -0.00000000000E+00 -0.26110722002E+04  0.26110722002E+04  0.00000000000E+00 0. -1.
         23    2    1    2    0    0 -0.18102962005E+03  0.29613195202E+03 -0.22519540694E+04  0.22802196798E+04  0.87400235897E+02 0.  0.
        254    2    1    2    0    0  0.18102962005E+03 -0.29613195202E+03  0.32958084510E+03  0.10195514963E+04  0.90021989750E+03 0.  0.
        -24    2    4    4    0    0  0.45343177778E+02  0.31750516579E+03  0.10163526793E+03  0.34602811574E+03  0.80871472854E+02 0.  0.
         24    2    4    4    0    0  0.13568644227E+03 -0.61363711782E+03  0.22794557717E+03  0.67352338058E+03  0.81934333809E+02 0.  0.
         11    1    3    3    0    0 -0.14347923292E+03  0.28110098425E+03 -0.20614847764E+04  0.20855031855E+04  0.00000000000E+00 0. -1.
        -11    1    3    3    0    0 -0.37550387129E+02  0.15030967770E+02 -0.19046929299E+03  0.19471649427E+03  0.00000000000E+00 0.  1.
          4    1    6    6  502    0  0.10538821165E+03 -0.29123853451E+03  0.12067860632E+03  0.33240018826E+03  0.00000000000E+00 0. -1.
          1    1    5    5  503    0  0.26814630738E+02  0.85747435774E+02  0.64467055068E+02  0.11057869755E+03  0.00000000000E+00 0. -1.
         -2    1    5    5    0  503  0.18528547040E+02  0.23175773002E+03  0.37168212863E+02  0.23544941819E+03  0.00000000000E+00 0.  1.
         -3    1    6    6    0  502  0.30298230628E+02 -0.32239858331E+03  0.10726697085E+03  0.34112319231E+03  0.00000000000E+00 0.  1.
<mgrwt>
<rscale>  0 0.26819715E+04</rscale>
<asrwt>0</asrwt>
<pdfrwt beam="1">  1        1 0.40170341E+00 0.26819715E+04</pdfrwt>
<pdfrwt beam="2">  1       -1 0.10595369E+00 0.26819715E+04</pdfrwt>
<totfact> 0.82582534E-01</totfact>
</mgrwt>
</event>
<event>
12    1  0.2019083E-007  0.4057988E+04  0.7818608E-02  0.7992950E-01
          1   -1    0    0  501    0  0.00000000000E+00  0.00000000000E+00  0.42388363099E+04  0.42388363099E+04  0.00000000000E+00 0. -1.
         -1   -1    0    0    0  501 -0.00000000000E+00 -0.00000000000E+00 -0.97121391259E+03  0.97121391259E+03  0.00000000000E+00 0.  1.
         23    2    1    2    0    0 -0.18064982137E+04  0.63186887121E+03  0.12535884812E+04  0.22896486197E+04  0.91173761920E+02 0.  0.
        254    2    1    2    0    0  0.18064982137E+04 -0.63186887121E+03  0.20140339160E+04  0.29204016028E+04  0.89984378636E+03 0.  0.
        -24    2    4    4    0    0  0.36754492368E+03 -0.36298554610E+03  0.14017394024E+03  0.54116106824E+03  0.79742025622E+02 0.  0.
         24    2    4    4    0    0  0.14389532900E+04 -0.26888332511E+03  0.18738599758E+04  0.23792405345E+04  0.80928973493E+02 0.  0.
         13    1    3    3    0    0 -0.13642477094E+04  0.48748346986E+03  0.90291129204E+03  0.17070620221E+04  0.00000000000E+00 0.  1.
        -13    1    3    3    0    0 -0.44225050435E+03  0.14438540135E+03  0.35067718921E+03  0.58258659764E+03  0.00000000000E+00 0. -1.
          4    1    6    6  502    0  0.13479131586E+04 -0.23567085358E+03  0.17688834970E+04  0.22363719414E+04  0.00000000000E+00 0. -1.
          1    1    5    5  503    0  0.26214378137E+03 -0.30533920787E+03  0.11289996393E+03  0.41796865412E+03  0.00000000000E+00 0. -1.
         -2    1    5    5    0  503  0.10540114231E+03 -0.57646338238E+02  0.27273976309E+02  0.12319241412E+03  0.00000000000E+00 0.  1.
         -3    1    6    6    0  502  0.91040131413E+02 -0.33212471522E+02  0.10497647885E+03  0.14286859314E+03  0.00000000000E+00 0.  1.
<mgrwt>
<rscale>  0 0.40579881E+04</rscale>
<asrwt>0</asrwt>
<pdfrwt beam="1">  1        1 0.65212866E+00 0.40579881E+04</pdfrwt>
<pdfrwt beam="2">  1       -1 0.14941753E+00 0.40579881E+04</pdfrwt>
<totfact> 0.15903850E-02</totfact>
</mgrwt>
</event>
<event>
12    1  0.2019083E-007  0.1118886E+04  0.7818608E-02  0.9186977E-01
          2   -1    0    0  501    0  0.00000000000E+00  0.00000000000E+00  0.47776645603E+03  0.47776645603E+03  0.00000000000E+00 0. -1.
         -2   -1    0    0    0  501 -0.00000000000E+00 -0.00000000000E+00 -0.65508300083E+03  0.65508300083E+03  0.00000000000E+00 0.  1.
         23    2    1    2    0    0 -0.11271701972E+03 -0.52401802721E+02 -0.16234598574E+03  0.22436974836E+03  0.92382300414E+02 0.  0.
        254    2    1    2    0    0  0.11271701972E+03  0.52401802721E+02 -0.14970559053E+02  0.90847970850E+03  0.89981119556E+03 0.  0.
        -24    2    4    4    0    0  0.28876032828E+03  0.38616897916E+03 -0.13121458918E+03  0.50576291897E+03  0.77909268636E+02 0.  0.
         24    2    4    4    0    0 -0.17604330856E+03 -0.33376717644E+03  0.11624403013E+03  0.40271678952E+03  0.79223503231E+02 0.  0.
         13    1    3    3    0    0 -0.83843882063E+02  0.51770121546E+01 -0.12281016995E+03  0.14879158530E+03  0.00000000000E+00 0.  1.
        -13    1    3    3    0    0 -0.28873137656E+02 -0.57578814875E+02 -0.39535815794E+02  0.75578163056E+02  0.00000000000E+00 0. -1.
          4    1    6    6  502    0 -0.11339294919E+02 -0.87365524084E+02  0.14043641396E+02  0.89210639900E+02  0.00000000000E+00 0. -1.
          1    1    5    5  503    0  0.10512313848E+03  0.15190464102E+03 -0.12017607935E+02  0.18512243815E+03  0.00000000000E+00 0. -1.
         -2    1    5    5    0  503  0.18363718980E+03  0.23426433814E+03 -0.11919698125E+03  0.32064048082E+03  0.00000000000E+00 0.  1.
         -3    1    6    6    0  502 -0.16470401364E+03 -0.24640165236E+03  0.10220038873E+03  0.31350614962E+03  0.00000000000E+00 0.  1.
<mgrwt>
<rscale>  0 0.11188864E+04</rscale>
<asrwt>0</asrwt>
<pdfrwt beam="1">  1        2 0.73502532E-01 0.11188864E+04</pdfrwt>
<pdfrwt beam="2">  1       -2 0.10078200E+00 0.11188864E+04</pdfrwt>
<totfact> 0.52215507E+01</totfact>
</mgrwt>
</event>
<event>
12    1  0.2019083E-007  0.1697419E+04  0.7818608E-02  0.8762838E-01
         -2   -1    0    0    0  501 -0.00000000000E+00  0.00000000000E+00  0.24682641004E+03  0.24682641004E+03  0.00000000000E+00 0. -1.
          2   -1    0    0  501    0  0.00000000000E+00 -0.00000000000E+00 -0.29182766098E+04  0.29182766098E+04  0.00000000000E+00 0.  1.
         23    2    1    2    0    0  0.31171746697E+03 -0.51082579067E+03 -0.76382243156E+03  0.97464792857E+03  0.91668479185E+02 0.  0.
        254    2    1    2    0    0 -0.31171746697E+03  0.51082579067E+03 -0.19076277682E+04  0.21904550913E+04  0.89495197485E+03 0.  0.
        -24    2    4    4    0    0 -0.50722573108E+03  0.18590206907E+03 -0.16149154839E+04  0.17047747277E+04  0.80419715441E+02 0.  0.
         24    2    4    4    0    0  0.19550826411E+03  0.32492372160E+03 -0.29271228435E+03  0.48568036359E+03  0.80037665942E+02 0.  0.
         11    1    3    3    0    0  0.15567088524E+03 -0.31805430651E+03 -0.49836382925E+03  0.61135789249E+03  0.00000000000E+00 0.  1.
        -11    1    3    3    0    0  0.15604658173E+03 -0.19277148416E+03 -0.26545860231E+03  0.36329003608E+03  0.00000000000E+00 0. -1.
          4    1    6    6  502    0  0.14489595380E+03  0.26915235757E+03 -0.26768883021E+03  0.40631901117E+03  0.00000000000E+00 0. -1.
          3    1    5    5  503    0 -0.44706963595E+03  0.14197817132E+03 -0.14456220761E+04  0.15198198076E+04  0.00000000000E+00 0. -1.
         -4    1    5    5    0  503 -0.60156095133E+02  0.43923897748E+02 -0.16929340774E+03  0.18495492013E+03  0.00000000000E+00 0.  1.
         -3    1    6    6    0  502  0.50612310319E+02  0.55771364028E+02 -0.25023454134E+02  0.79361352421E+02  0.00000000000E+00 0.  1.
<mgrwt>
<rscale>  0 0.16974189E+04</rscale>
<asrwt>0</asrwt>
<pdfrwt beam="1">  1        2 0.44896563E+00 0.16974189E+04</pdfrwt>
<pdfrwt beam="2">  1       -2 0.37973294E-01 0.16974189E+04</pdfrwt>
<totfact> 0.12247269E+01</totfact>
</mgrwt>
</event>
<event>
12    1  0.2019083E-007  0.1347259E+04  0.7818608E-02  0.8992906E-01
          1   -1    0    0  501    0  0.00000000000E+00  0.00000000000E+00  0.22097498101E+03  0.22097498101E+03  0.00000000000E+00 0. -1.
         -1   -1    0    0    0  501 -0.00000000000E+00 -0.00000000000E+00 -0.20535194975E+04  0.20535194975E+04  0.00000000000E+00 0.  1.
         23    2    1    2    0    0  0.31100167317E+03 -0.98142094337E+02 -0.80063665602E+03  0.86764298883E+03  0.73697962655E+02 0.  0.
        254    2    1    2    0    0 -0.31100167317E+03  0.98142094337E+02 -0.10319078605E+04  0.14068514897E+04  0.89891232616E+03 0.  0.
        -24    2    4    4    0    0  0.12445137341E+02  0.44507432345E+03 -0.65323022130E+03  0.79459877994E+03  0.80196410304E+02 0.  0.
         24    2    4    4    0    0 -0.32344681051E+03 -0.34693222911E+03 -0.37867763918E+03  0.61225270975E+03  0.80478663974E+02 0.  0.
         13    1    3    3    0    0  0.81881678270E+02  0.57488234065E+01 -0.17385311247E+03  0.19225650294E+03  0.00000000000E+00 0. -1.
        -13    1    3    3    0    0  0.22911999490E+03 -0.10389091774E+03 -0.62678354355E+03  0.67538648589E+03  0.00000000000E+00 0.  1.
          4    1    6    6  502    0 -0.66572340149E+02 -0.11258617409E+03 -0.76098936515E+02  0.15132273856E+03  0.00000000000E+00 0. -1.
          3    1    5    5  503    0 -0.10846618856E+02  0.36646438579E+03 -0.57032179180E+03  0.67799759689E+03  0.00000000000E+00 0. -1.
         -4    1    5    5    0  503  0.23291756197E+02  0.78609937657E+02 -0.82908429499E+02  0.11660118304E+03  0.00000000000E+00 0.  1.
         -3    1    6    6    0  502 -0.25687447036E+03 -0.23434605503E+03 -0.30257870266E+03  0.46092997118E+03  0.00000000000E+00 0.  1.
<mgrwt>
<rscale>  0 0.13472586E+04</rscale>
<asrwt>0</asrwt>
<pdfrwt beam="1">  1        1 0.33996150E-01 0.13472586E+04</pdfrwt>
<pdfrwt beam="2">  1       -1 0.31592608E+00 0.13472586E+04</pdfrwt>
<totfact> 0.33447118E+00</totfact>
</mgrwt>
</event>
<event>
12    1  0.2019083E-007  0.3028061E+04  0.7818608E-02  0.8235763E-01
         -2   -1    0    0    0  501 -0.00000000000E+00  0.00000000000E+00  0.21370259288E+04  0.21370259288E+04  0.00000000000E+00 0.  1.
          2   -1    0    0  501    0  0.00000000000E+00 -0.00000000000E+00 -0.10726534407E+04  0.10726534407E+04  0.00000000000E+00 0. -1.
         23    2    1    2    0    0 -0.64815491710E+03  0.12039089567E+04  0.67541709297E+03  0.15274986500E+04  0.86961505630E+02 0.  0.
        254    2    1    2    0    0  0.64815491710E+03 -0.12039089567E+04  0.38895539509E+03  0.16821807195E+04  0.89941319823E+03 0.  0.
        -24    2    4    4    0    0  0.73920233335E+03 -0.44601138203E+03  0.16344084338E+03  0.88213666705E+03  0.78140562624E+02 0.  0.
         24    2    4    4    0    0 -0.91047416246E+02 -0.75789757470E+03  0.22551455171E+03  0.80004405249E+03  0.80717452620E+02 0.  0.
         11    1    3    3    0    0 -0.47440076288E+03  0.83475179452E+03  0.51057459547E+03  0.10874525552E+04  0.00000000000E+00 0.  1.
        -11    1    3    3    0    0 -0.17375415423E+03  0.36915716221E+03  0.16484249750E+03  0.44004609475E+03  0.00000000000E+00 0. -1.
          2    1    6    6  502    0  0.80053295126E+01 -0.10625679383E+03  0.12171274122E+02  0.10725078764E+03  0.00000000000E+00 0. -1.
          3    1    5    5  503    0  0.16840841892E+03 -0.98433525324E+02  0.40930790020E+01  0.19510845129E+03  0.00000000000E+00 0. -1.
         -4    1    5    5    0  503  0.57079391443E+03 -0.34757785671E+03  0.15934776438E+03  0.68702821575E+03  0.00000000000E+00 0.  1.
         -1    1    6    6    0  502 -0.99052745758E+02 -0.65164078086E+03  0.21334327759E+03  0.69279326485E+03  0.00000000000E+00 0.  1.
<mgrwt>
<rscale>  0 0.30280609E+04</rscale>
<asrwt>0</asrwt>
<pdfrwt beam="1">  1        2 0.16502361E+00 0.30280609E+04</pdfrwt>
<pdfrwt beam="2">  1       -2 0.32877322E+00 0.30280609E+04</pdfrwt>
<totfact> 0.40869314E-01</totfact>
</mgrwt>
</event>
<event>
12    1  0.2019083E-007  0.1873017E+04  0.7818608E-02  0.8668406E-01
         -3   -1    0    0    0  501 -0.00000000000E+00  0.00000000000E+00  0.11486878518E+04  0.11486878518E+04  0.00000000000E+00 0.  1.
          3   -1    0    0  501    0  0.00000000000E+00 -0.00000000000E+00 -0.76352141731E+03  0.76352141731E+03  0.00000000000E+00 0. -1.
         23    2    1    2    0    0  0.18772240025E+03 -0.68629091614E+03  0.22963181911E+03  0.75328249285E+03  0.92026194944E+02 0.  0.
        254    2    1    2    0    0 -0.18772240025E+03  0.68629091614E+03  0.15553461540E+03  0.11589267763E+04  0.90149061840E+03 0.  0.
        -24    2    4    4    0    0  0.22959879586E+03  0.67999674395E+03  0.12663963882E+03  0.73317802778E+03  0.80007771164E+02 0.  0.
         24    2    4    4    0    0 -0.41732119611E+03  0.62941721835E+01  0.28894976578E+02  0.42574874851E+03  0.78933388744E+02 0.  0.
         11    1    3    3    0    0  0.16906159768E+03 -0.49123458007E+03  0.14156740782E+03  0.53845572467E+03  0.00000000000E+00 0.  1.
        -11    1    3    3    0    0  0.18660802571E+02 -0.19505633606E+03  0.88064411293E+02  0.21482676818E+03  0.00000000000E+00 0. -1.
          2    1    6    6  502    0 -0.58500247343E+02  0.27266196307E+02 -0.49119962093E+01  0.64729066940E+02  0.00000000000E+00 0. -1.
          1    1    5    5  503    0  0.16195146940E+03  0.44511718610E+03  0.12014882321E+03  0.48866484171E+03  0.00000000000E+00 0. -1.
         -2    1    5    5    0  503  0.67647326464E+02  0.23487955785E+03  0.64908156092E+01  0.24451318607E+03  0.00000000000E+00 0.  1.
         -3    1    6    6    0  502 -0.35882094877E+03 -0.20972024124E+02  0.33806972787E+02  0.36101968157E+03  0.00000000000E+00 0.  1.
<mgrwt>
<rscale>  0 0.18730166E+04</rscale>
<asrwt>0</asrwt>
<pdfrwt beam="1">  1        3 0.11746483E+00 0.18730166E+04</pdfrwt>
<pdfrwt beam="2">  1       -3 0.17672121E+00 0.18730166E+04</pdfrwt>
<totfact> 0.30456913E-01</totfact>
</mgrwt>
</event>
<event>
12    1  0.2019083E-007  0.1296346E+04  0.7818608E-02  0.9032468E-01
          1   -1    0    0  501    0  0.00000000000E+00  0.00000000000E+00  0.31706735956E+04  0.31706735956E+04  0.00000000000E+00 0. -1.
         -1   -1    0    0    0  501 -0.00000000000E+00 -0.00000000000E+00 -0.13250439924E+03  0.13250439924E+03  0.00000000000E+00 0.  1.
         23    2    1    2    0    0 -0.30003892722E+03  0.11115146793E+03  0.95552387458E+03  0.10115442908E+04  0.88419288885E+02 0.  0.
        254    2    1    2    0    0  0.30003892722E+03 -0.11115146793E+03  0.20826453218E+04  0.22916337041E+04  0.90099694262E+03 0.  0.
        -24    2    4    4    0    0  0.28017209365E+03 -0.12024531934E+03  0.13661449019E+03  0.34385815231E+03  0.81360746675E+02 0.  0.
         24    2    4    4    0    0  0.19866833573E+02  0.90938514118E+01  0.19460308316E+04  0.19477755518E+04  0.79474607918E+02 0.  0.
         13    1    3    3    0    0 -0.17737296519E+03  0.26778079937E+02  0.44625685521E+03  0.48096092894E+03  0.00000000000E+00 0.  1.
        -13    1    3    3    0    0 -0.12266596203E+03  0.84373387996E+02  0.50926701937E+03  0.53058336184E+03  0.00000000000E+00 0. -1.
          4    1    6    6  502    0  0.43338200798E+02  0.16643825780E+02  0.71909089416E+03  0.72058790626E+03  0.00000000000E+00 0. -1.
          3    1    5    5  503    0  0.11803886764E+03 -0.94835620857E+02  0.63349130225E+02  0.16413433997E+03  0.00000000000E+00 0. -1.
         -4    1    5    5    0  503  0.16213322600E+03 -0.25409698487E+02  0.73265359965E+02  0.17972381234E+03  0.00000000000E+00 0.  1.
         -3    1    6    6    0  502 -0.23471367225E+02 -0.75499743681E+01  0.12269399374E+04  0.12271876455E+04  0.00000000000E+00 0.  1.
<mgrwt>
<rscale>  0 0.12963459E+04</rscale>
<asrwt>0</asrwt>
<pdfrwt beam="1">  1        1 0.48779588E+00 0.12963459E+04</pdfrwt>
<pdfrwt beam="2">  1       -1 0.20385295E-01 0.12963459E+04</pdfrwt>
<totfact> 0.88156519E+00</totfact>
</mgrwt>
</event>
<event>
12    1  0.2019083E-007  0.1475190E+04  0.7818608E-02  0.8901121E-01
          2   -1    0    0  501    0  0.00000000000E+00  0.00000000000E+00  0.18958113941E+04  0.18958113941E+04  0.00000000000E+00 0. -1.
         -2   -1    0    0    0  501 -0.00000000000E+00 -0.00000000000E+00 -0.28697282205E+03  0.28697282205E+03  0.00000000000E+00 0.  1.
         23    2    1    2    0    0 -0.53508286429E+01  0.40220326007E+02  0.11865707355E+04  0.11908830634E+04  0.92768821592E+02 0.  0.
        254    2    1    2    0    0  0.53508286429E+01 -0.40220326007E+02  0.42226783656E+03  0.99190115280E+03  0.89661110027E+03 0.  0.
        -24    2    4    4    0    0  0.41490076435E+03 -0.16188060687E+02  0.38610069154E+03  0.57262674862E+03  0.80143319496E+02 0.  0.
         24    2    4    4    0    0 -0.40954993571E+03 -0.24032265320E+02  0.36167145027E+02  0.41927440418E+03  0.78576485046E+02 0.  0.
         13    1    3    3    0    0 -0.26603011297E+02  0.35961943591E+02  0.24420674887E+03  0.24826984874E+03  0.00000000000E+00 0.  1.
        -13    1    3    3    0    0  0.21252182654E+02  0.42583824167E+01  0.94236398664E+03  0.94261321464E+03  0.00000000000E+00 0. -1.
          2    1    6    6  502    0 -0.26763833326E+02 -0.22404320464E+02  0.19318758768E+01  0.34956952014E+02  0.00000000000E+00 0. -1.
          1    1    5    5  503    0  0.52438697672E+02  0.24935907649E+02  0.50807549660E+02  0.77155839741E+02  0.00000000000E+00 0. -1.
         -2    1    5    5    0  503  0.36246206668E+03 -0.41123968336E+02  0.33529314188E+03  0.49547090888E+03  0.00000000000E+00 0.  1.
         -1    1    6    6    0  502 -0.38278610239E+03 -0.16279448562E+01  0.34235269150E+02  0.38431745216E+03  0.00000000000E+00 0.  1.
<mgrwt>
<rscale>  0 0.14751899E+04</rscale>
<asrwt>0</asrwt>
<pdfrwt beam="1">  1        2 0.29166328E+00 0.14751899E+04</pdfrwt>
<pdfrwt beam="2">  1       -2 0.44149666E-01 0.14751899E+04</pdfrwt>
<totfact> 0.35959024E+01</totfact>
</mgrwt>
</event>
<event>
12    1  0.2019083E-007  0.1323144E+04  0.7818608E-02  0.9011411E-01
         -2   -1    0    0    0  501 -0.00000000000E+00  0.00000000000E+00  0.21626201461E+03  0.21626201461E+03  0.00000000000E+00 0.  1.
          2   -1    0    0  501    0  0.00000000000E+00 -0.00000000000E+00 -0.20238285162E+04  0.20238285162E+04  0.00000000000E+00 0. -1.
         23    2    1    2    0    0  0.32486375361E+03  0.11755869844E+03 -0.55243602578E+03  0.65780918208E+03  0.90392762204E+02 0.  0.
        254    2    1    2    0    0 -0.32486375361E+03 -0.11755869844E+03 -0.12551304758E+04  0.15822813488E+04  0.89939159950E+03 0.  0.
        -24    2    4    4    0    0 -0.30768499240E+03  0.15319420304E+03 -0.12496415496E+04  0.12986086957E+04  0.81498610768E+02 0.  0.
         24    2    4    4    0    0 -0.17178761211E+02 -0.27075290149E+03 -0.54889261892E+01  0.28367265305E+03  0.82691004813E+02 0.  0.
         13    1    3    3    0    0  0.10269504450E+02 -0.78343456465E+01 -0.45327454386E+01  0.13688881422E+02  0.00000000000E+00 0.  1.
        -13    1    3    3    0    0  0.31459424916E+03  0.12539304409E+03 -0.54790328034E+03  0.64412030065E+03  0.00000000000E+00 0. -1.
          2    1    6    6  502    0 -0.36686010060E+02 -0.50108553610E+02 -0.12411760859E+00  0.62102704323E+02  0.00000000000E+00 0. -1.
          3    1    5    5  503    0 -0.91539680719E+02  0.26581549035E+02 -0.47506094712E+03  0.48452966408E+03  0.00000000000E+00 0. -1.
         -4    1    5    5    0  503 -0.21614531168E+03  0.12661265401E+03 -0.77458060253E+03  0.81407903162E+03  0.00000000000E+00 0.  1.
         -1    1    6    6    0  502  0.19507248849E+02 -0.22064434788E+03 -0.53648085806E+01  0.22156994873E+03  0.00000000000E+00 0.  1.
<mgrwt>
<rscale>  0 0.13231436E+04</rscale>
<asrwt>0</asrwt>
<pdfrwt beam="1">  1        2 0.31135825E+00 0.13231436E+04</pdfrwt>
<pdfrwt beam="2">  1       -2 0.33271078E-01 0.13231436E+04</pdfrwt>
<totfact> 0.53560836E+01</totfact>
</mgrwt>
</event>
<event>
12    1  0.2019083E-007  0.3112096E+04  0.7818608E-02  0.8212426E-01
          1   -1    0    0  501    0  0.00000000000E+00  0.00000000000E+00  0.99720123528E+03  0.99720123528E+03  0.00000000000E+00 0. -1.
         -1   -1    0    0    0  501 -0.00000000000E+00 -0.00000000000E+00 -0.24280816337E+04  0.24280816337E+04  0.00000000000E+00 0.  1.
         23    2    1    2    0    0 -0.52794122854E+03 -0.66449277586E+03  0.60398587422E+03  0.10456598849E+04  0.91285643410E+02 0.  0.
        254    2    1    2    0    0  0.52794122854E+03  0.66449277586E+03 -0.20348662726E+04  0.23796229840E+04  0.89535032742E+03 0.  0.
        -24    2    4    4    0    0  0.40984994865E+03  0.81197645316E+03 -0.19575354652E+04  0.21600158291E+04  0.80252995303E+02 0.  0.
         24    2    4    4    0    0  0.11809127990E+03 -0.14748367731E+03 -0.77330807373E+02  0.21960715498E+03  0.80933696866E+02 0.  0.
         13    1    3    3    0    0 -0.37486701012E+03 -0.52856491721E+03  0.47880636789E+03  0.80570570615E+03  0.00000000000E+00 0. -1.
        -13    1    3    3    0    0 -0.15307421842E+03 -0.13592785864E+03  0.12517950633E+03  0.23995417876E+03  0.00000000000E+00 0.  1.
          2    1    6    6  502    0  0.10709101197E+03 -0.11158716210E+03 -0.91240682032E+02  0.17956904424E+03  0.00000000000E+00 0. -1.
          1    1    5    5  503    0  0.23675062928E+03  0.44734187969E+03 -0.99678907803E+03  0.11179240063E+04  0.00000000000E+00 0. -1.
         -2    1    5    5    0  503  0.17309931937E+03  0.36463457348E+03 -0.96074638720E+03  0.10420918228E+04  0.00000000000E+00 0.  1.
         -1    1    6    6    0  502  0.11000267920E+02 -0.35896515208E+02  0.13909874659E+02  0.40038110738E+02  0.00000000000E+00 0.  1.
<mgrwt>
<rscale>  0 0.31120964E+04</rscale>
<asrwt>0</asrwt>
<pdfrwt beam="1">  1        1 0.15341558E+00 0.31120964E+04</pdfrwt>
<pdfrwt beam="2">  1       -1 0.37355102E+00 0.31120964E+04</pdfrwt>
<totfact> 0.13856649E-01</totfact>
</mgrwt>
</event>
<event>
12    1  0.2019083E-007  0.1305235E+04  0.7818608E-02  0.9025424E-01
          1   -1    0    0  501    0  0.00000000000E+00  0.00000000000E+00  0.20531784537E+03  0.20531784537E+03  0.00000000000E+00 0. -1.
         -1   -1    0    0    0  501 -0.00000000000E+00 -0.00000000000E+00 -0.20743922925E+04  0.20743922925E+04  0.00000000000E+00 0.  1.
         23    2    1    2    0    0 -0.10509328137E+03  0.31598873134E+03 -0.52680318241E+03  0.63009920647E+03  0.92789767056E+02 0.  0.
        254    2    1    2    0    0  0.10509328137E+03 -0.31598873134E+03 -0.13422712647E+04  0.16496109314E+04  0.89923890083E+03 0.  0.
        -24    2    4    4    0    0 -0.26853371405E+03 -0.47013010496E+03 -0.74807219091E+03  0.92690326455E+03  0.80031168038E+02 0.  0.
         24    2    4    4    0    0  0.37362699542E+03  0.15414137362E+03 -0.59419907379E+03  0.72270766682E+03  0.76662491646E+02 0.  0.
         13    1    3    3    0    0 -0.71164079316E+02  0.86007362318E+02 -0.14346929906E+03  0.18178292640E+03  0.00000000000E+00 0. -1.
        -13    1    3    3    0    0 -0.33929202057E+02  0.22998136902E+03 -0.38333388335E+03  0.44831628007E+03  0.00000000000E+00 0.  1.
          4    1    6    6  502    0  0.18091290569E+03  0.10205946897E+03 -0.35337527124E+03  0.40990205778E+03  0.00000000000E+00 0. -1.
          1    1    5    5  503    0 -0.22293447859E+03 -0.43756249031E+03 -0.66396430969E+03  0.82583855518E+03  0.00000000000E+00 0. -1.
         -2    1    5    5    0  503 -0.45599235462E+02 -0.32567614645E+02 -0.84107881214E+02  0.10106470937E+03  0.00000000000E+00 0.  1.
         -3    1    6    6    0  502  0.19271408973E+03  0.52081904653E+02 -0.24082380255E+03  0.31280560904E+03  0.00000000000E+00 0.  1.
<mgrwt>
<rscale>  0 0.13052352E+04</rscale>
<asrwt>0</asrwt>
<pdfrwt beam="1">  1        1 0.31587361E-01 0.13052352E+04</pdfrwt>
<pdfrwt beam="2">  1       -1 0.31913727E+00 0.13052352E+04</pdfrwt>
<totfact> 0.35224408E+00</totfact>
</mgrwt>
</event>
<event>
12    1  0.2019083E-007  0.2235529E+04  0.7818608E-02  0.8503784E-01
         -1   -1    0    0    0  501 -0.00000000000E+00  0.00000000000E+00  0.12480790190E+04  0.12480790190E+04  0.00000000000E+00 0.  1.
          1   -1    0    0  501    0  0.00000000000E+00 -0.00000000000E+00 -0.10010566872E+04  0.10010566872E+04  0.00000000000E+00 0. -1.
         23    2    1    2    0    0 -0.63498343269E+03  0.28623482594E+03 -0.52227827479E+03  0.87540664115E+03  0.91803353321E+02 0.  0.
        254    2    1    2    0    0  0.63498343269E+03 -0.28623482594E+03  0.76930060653E+03  0.13737290651E+04  0.90009654238E+03 0.  0.
        -24    2    4    4    0    0  0.35503557473E+03 -0.54224846810E+03  0.19591504073E+03  0.68174551415E+03  0.79439174231E+02 0.  0.
         24    2    4    4    0    0  0.27994785796E+03  0.25601364216E+03  0.57338556580E+03  0.69198355090E+03  0.78462981755E+02 0.  0.
         13    1    3    3    0    0 -0.26885505997E+03  0.10881124381E+03 -0.27268496939E+03  0.39809549430E+03  0.00000000000E+00 0.  1.
        -13    1    3    3    0    0 -0.36612837272E+03  0.17742358213E+03 -0.24959330540E+03  0.47731114685E+03  0.00000000000E+00 0. -1.
          2    1    6    6  502    0  0.24402676436E+03  0.18036539849E+03  0.44011037862E+03  0.53458197133E+03  0.00000000000E+00 0. -1.
          1    1    5    5  503    0  0.76459678030E+02 -0.17363342784E+03  0.38210569057E+02  0.19353216068E+03  0.00000000000E+00 0. -1.
         -2    1    5    5    0  503  0.27857589670E+03 -0.36861504026E+03  0.15770447167E+03  0.48821335347E+03  0.00000000000E+00 0.  1.
         -1    1    6    6    0  502  0.35921093593E+02  0.75648243671E+02  0.13327518718E+03  0.15740157957E+03  0.00000000000E+00 0.  1.
<mgrwt>
<rscale>  0 0.22355293E+04</rscale>
<asrwt>0</asrwt>
<pdfrwt beam="1">  1        1 0.15400872E+00 0.22355293E+04</pdfrwt>
<pdfrwt beam="2">  1       -1 0.19201216E+00 0.22355293E+04</pdfrwt>
<totfact> 0.23479211E+00</totfact>
</mgrwt>
</event>
<event>
12    1  0.2019083E-007  0.1495518E+04  0.7818608E-02  0.8887439E-01
          2   -1    0    0  501    0  0.00000000000E+00  0.00000000000E+00  0.48496816954E+03  0.48496816954E+03  0.00000000000E+00 0.  1.
         -2   -1    0    0    0  501 -0.00000000000E+00 -0.00000000000E+00 -0.11529482134E+04  0.11529482134E+04  0.00000000000E+00 0. -1.
         23    2    1    2    0    0 -0.37505938956E+03  0.29023450537E+02  0.93591383723E+02  0.39989628931E+03  0.98212976341E+02 0.  0.
        254    2    1    2    0    0  0.37505938956E+03 -0.29023450537E+02 -0.76157142756E+03  0.12380200936E+04  0.90066131622E+03 0.  0.
        -24    2    4    4    0    0  0.62319405516E+03 -0.14474257948E+03 -0.68920735400E+03  0.94363879889E+03  0.78269797817E+02 0.  0.
         24    2    4    4    0    0 -0.24813466561E+03  0.11571912895E+03 -0.72364073562E+02  0.29438129472E+03  0.80386929670E+02 0.  0.
         13    1    3    3    0    0 -0.19709975025E+03  0.45726972699E+02  0.89137483852E+02  0.22109897921E+03  0.00000000000E+00 0.  1.
        -13    1    3    3    0    0 -0.17795963931E+03 -0.16703522162E+02  0.44538998713E+01  0.17879731010E+03  0.00000000000E+00 0. -1.
          4    1    6    6  502    0 -0.62313689080E+02  0.27027187144E+02 -0.55637455924E+02  0.87800861006E+02  0.00000000000E+00 0. -1.
          1    1    5    5  503    0  0.47745742878E+03 -0.11704745538E+03 -0.47911718128E+03  0.68645391434E+03  0.00000000000E+00 0. -1.
         -2    1    5    5    0  503  0.14573662639E+03 -0.27695124103E+02 -0.21009017272E+03  0.25718488455E+03  0.00000000000E+00 0.  1.
         -3    1    6    6    0  502 -0.18582097653E+03  0.88691941803E+02 -0.16726617637E+02  0.20658043372E+03  0.00000000000E+00 0.  1.
<mgrwt>
<rscale>  0 0.14955175E+04</rscale>
<asrwt>0</asrwt>
<pdfrwt beam="1">  1        2 0.74610489E-01 0.14955175E+04</pdfrwt>
<pdfrwt beam="2">  1       -2 0.17737665E+00 0.14955175E+04</pdfrwt>
<totfact> 0.11647975E+01</totfact>
</mgrwt>
</event>
<event>
12    1  0.2019083E-007  0.1507436E+04  0.7818608E-02  0.8879523E-01
         -1   -1    0    0    0  501 -0.00000000000E+00  0.00000000000E+00  0.78027443239E+03  0.78027443239E+03  0.00000000000E+00 0.  1.
          1   -1    0    0  501    0  0.00000000000E+00 -0.00000000000E+00 -0.72806563134E+03  0.72806563134E+03  0.00000000000E+00 0. -1.
         23    2    1    2    0    0 -0.45270669909E+03 -0.15381867220E+02 -0.13899863030E+03  0.48255349632E+03  0.91418271399E+02 0.  0.
        254    2    1    2    0    0  0.45270669909E+03  0.15381867220E+02  0.19120743136E+03  0.10257865674E+04  0.90027653687E+03 0.  0.
        -24    2    4    4    0    0 -0.12065767319E+03 -0.69405181245E+02 -0.24716051570E+03  0.29480771570E+03  0.80298913022E+02 0.  0.
         24    2    4    4    0    0  0.57336437228E+03  0.84787048465E+02  0.43836794706E+03  0.73097885171E+03  0.78918170615E+02 0.  0.
         11    1    3    3    0    0 -0.95418411518E+02  0.30680171730E+02 -0.13812251610E+02  0.10117669934E+03  0.00000000000E+00 0.  1.
        -11    1    3    3    0    0 -0.35728828757E+03 -0.46062038950E+02 -0.12518637869E+03  0.38137679699E+03  0.00000000000E+00 0. -1.
          4    1    6    6  502    0  0.55668428973E+03  0.91780803721E+02  0.43536203930E+03  0.71264382382E+03  0.00000000000E+00 0. -1.
          1    1    5    5  503    0 -0.13216915723E+03 -0.65095430238E+02 -0.23595902545E+03  0.27817757432E+03  0.00000000000E+00 0. -1.
         -2    1    5    5    0  503  0.11511484044E+02 -0.43097510074E+01 -0.11201490250E+02  0.16630141384E+02  0.00000000000E+00 0.  1.
         -3    1    6    6    0  502  0.16680082543E+02 -0.69937552559E+01  0.30059077625E+01  0.18335027889E+02  0.00000000000E+00 0.  1.
<mgrwt>
<rscale>  0 0.15074362E+04</rscale>
<asrwt>0</asrwt>
<pdfrwt beam="1">  1        1 0.11201010E+00 0.15074362E+04</pdfrwt>
<pdfrwt beam="2">  1       -1 0.12004222E+00 0.15074362E+04</pdfrwt>
<totfact> 0.15342842E+01</totfact>
</mgrwt>
</event>
<event>
12    1  0.2019083E-007  0.2450335E+04  0.7818608E-02  0.8420896E-01
          1   -1    0    0  501    0  0.00000000000E+00  0.00000000000E+00  0.12027403227E+04  0.12027403227E+04  0.00000000000E+00 0. -1.
         -1   -1    0    0    0  501 -0.00000000000E+00 -0.00000000000E+00 -0.12480131510E+04  0.12480131510E+04  0.00000000000E+00 0.  1.
         23    2    1    2    0    0  0.15729822789E+03 -0.61953721488E+03 -0.86498261266E+03  0.10793479569E+04  0.90708317333E+02 0.  0.
        254    2    1    2    0    0 -0.15729822789E+03  0.61953721488E+03  0.81970978441E+03  0.13714055167E+04  0.89457244958E+03 0.  0.
        -24    2    4    4    0    0 -0.24509532808E+03 -0.93856791003E+01  0.66426513249E+03  0.71268101918E+03  0.80661378837E+02 0.  0.
         24    2    4    4    0    0  0.87797100190E+02  0.62892289398E+03  0.15544465192E+03  0.65872449755E+03  0.80638616654E+02 0.  0.
         13    1    3    3    0    0  0.18058047442E+02 -0.16392733634E+03 -0.17093803536E+03  0.23752489682E+03  0.00000000000E+00 0. -1.
        -13    1    3    3    0    0  0.13924018044E+03 -0.45560987854E+03 -0.69404457729E+03  0.84182306012E+03  0.00000000000E+00 0.  1.
          2    1    6    6  502    0 -0.51305027848E+00  0.22178922210E+02 -0.89642528482E+01  0.23927508022E+02  0.00000000000E+00 0. -1.
          3    1    5    5  503    0 -0.12732202577E+03  0.17352544892E+02  0.43458581031E+03  0.45318521113E+03  0.00000000000E+00 0. -1.
         -4    1    5    5    0  503 -0.11777330231E+03 -0.26738223992E+02  0.22967932218E+03  0.25949580805E+03  0.00000000000E+00 0.  1.
         -1    1    6    6    0  502  0.88310150469E+02  0.60674397177E+03  0.16440890477E+03  0.63479698953E+03  0.00000000000E+00 0.  1.
<mgrwt>
<rscale>  0 0.24503353E+04</rscale>
<asrwt>0</asrwt>
<pdfrwt beam="1">  1        1 0.18503697E+00 0.24503353E+04</pdfrwt>
<pdfrwt beam="2">  1       -1 0.19200202E+00 0.24503353E+04</pdfrwt>
<totfact> 0.16236113E+00</totfact>
</mgrwt>
</event>
<event>
12    1  0.2019083E-007  0.3029881E+04  0.7818608E-02  0.8235249E-01
          2   -1    0    0  501    0  0.00000000000E+00  0.00000000000E+00  0.19197630071E+04  0.19197630071E+04  0.00000000000E+00 0. -1.
         -2   -1    0    0    0  501 -0.00000000000E+00 -0.00000000000E+00 -0.11954831599E+04  0.11954831599E+04  0.00000000000E+00 0.  1.
         23    2    1    2    0    0 -0.58444675707E+03  0.55487379595E+03 -0.81915853323E+03  0.11535405102E+04  0.10085665472E+03 0.  0.
        254    2    1    2    0    0  0.58444675707E+03 -0.55487379595E+03  0.15434383805E+04  0.19617056568E+04  0.90367256694E+03 0.  0.
        -24    2    4    4    0    0  0.37877555789E+03  0.15935917419E+03  0.31062483463E+03  0.52016725260E+03  0.72248966376E+02 0.  0.
         24    2    4    4    0    0  0.20567119918E+03 -0.71423297014E+03  0.12328135459E+04  0.14415384042E+04  0.75989170883E+02 0.  0.
         13    1    3    3    0    0 -0.24986589663E+03  0.18226020624E+03 -0.27279758385E+03  0.41239576966E+03  0.00000000000E+00 0. -1.
        -13    1    3    3    0    0 -0.33458086044E+03  0.37261358971E+03 -0.54636094938E+03  0.74114474053E+03  0.00000000000E+00 0.  1.
          4    1    6    6  502    0  0.61588090517E+01 -0.19818559748E+02  0.15292394664E+02  0.25779130590E+02  0.00000000000E+00 0. -1.
          3    1    5    5  503    0  0.16759460728E+03  0.54398080898E+02  0.17393842458E+03  0.24759175903E+03  0.00000000000E+00 0. -1.
         -2    1    5    5    0  503  0.21118095061E+03  0.10496109329E+03  0.13668641004E+03  0.27257549357E+03  0.00000000000E+00 0.  1.
         -3    1    6    6    0  502  0.19951239013E+03 -0.69441441039E+03  0.12175211512E+04  0.14157592736E+04  0.00000000000E+00 0.  1.
<mgrwt>
<rscale>  0 0.30298808E+04</rscale>
<asrwt>0</asrwt>
<pdfrwt beam="1">  1        2 0.29534815E+00 0.30298808E+04</pdfrwt>
<pdfrwt beam="2">  1       -2 0.18392049E+00 0.30298808E+04</pdfrwt>
<totfact> 0.10775595E+00</totfact>
</mgrwt>
</event>
<event>
12    1  0.2019083E-007  0.1134745E+04  0.7818608E-02  0.9171973E-01
         -2   -1    0    0    0  501 -0.00000000000E+00  0.00000000000E+00  0.34779388156E+03  0.34779388156E+03  0.00000000000E+00 0.  1.
          2   -1    0    0  501    0  0.00000000000E+00 -0.00000000000E+00 -0.92558165613E+03  0.92558165613E+03  0.00000000000E+00 0. -1.
         23    2    1    2    0    0 -0.83780040674E+01 -0.17035773707E+03 -0.75463611452E+01  0.19424481442E+03  0.92639898695E+02 0.  0.
        254    2    1    2    0    0  0.83780040674E+01  0.17035773707E+03 -0.57024141342E+03  0.10791307233E+04  0.90014215477E+03 0.  0.
        -24    2    4    4    0    0  0.11972317025E+03 -0.29053187308E+03 -0.49597556849E+03  0.59247779907E+03  0.79345895161E+02 0.  0.
         24    2    4    4    0    0 -0.11134516618E+03  0.46088961015E+03 -0.74265844927E+02  0.48665292420E+03  0.80614354438E+02 0.  0.
         11    1    3    3    0    0 -0.44861825411E+02 -0.13876506702E+03 -0.57518587292E+01  0.14595002940E+03  0.00000000000E+00 0.  1.
        -11    1    3    3    0    0  0.36483821343E+02 -0.31592670050E+02 -0.17945024159E+01  0.48294785015E+02  0.00000000000E+00 0. -1.
          4    1    6    6  502    0 -0.56131844197E+02  0.99191808816E+02 -0.31689678166E+02  0.11829638444E+03  0.00000000000E+00 0. -1.
          1    1    5    5  503    0  0.50900572914E+02 -0.52402826388E+02 -0.80742287136E+02  0.10888636953E+03  0.00000000000E+00 0. -1.
         -2    1    5    5    0  503  0.68822597332E+02 -0.23812904669E+03 -0.41523328136E+03  0.48359142954E+03  0.00000000000E+00 0.  1.
         -3    1    6    6    0  502 -0.55213321982E+02  0.36169780133E+03 -0.42576166761E+02  0.36835653976E+03  0.00000000000E+00 0.  1.
<mgrwt>
<rscale>  0 0.11347451E+04</rscale>
<asrwt>0</asrwt>
<pdfrwt beam="1">  1        2 0.14239718E+00 0.11347451E+04</pdfrwt>
<pdfrwt beam="2">  1       -2 0.53506750E-01 0.11347451E+04</pdfrwt>
<totfact> 0.91917474E+01</totfact>
</mgrwt>
</event>
<event>
12    1  0.2354367E-007  0.2440579E+04  0.7818608E-02  0.8424466E-01
         -2   -1    0    0    0  501 -0.00000000000E+00  0.00000000000E+00  0.99645250522E+03  0.99645250522E+03  0.00000000000E+00 0.  1.
          2   -1    0    0  501    0  0.00000000000E+00 -0.00000000000E+00 -0.14944081907E+04  0.14944081907E+04  0.00000000000E+00 0. -1.
         23    2    1    2    0    0 -0.71012468504E+03  0.73801037303E+03 -0.46223878493E+03  0.11274393097E+04  0.92294765995E+02 0.  0.
        254    2    1    2    0    0  0.71012468504E+03 -0.73801037303E+03 -0.35716900533E+02  0.13634213862E+04  0.89928071273E+03 0.  0.
        -24    2    4    4    0    0 -0.94368551490E+02 -0.46166368129E+03 -0.14903645471E+03  0.50145093119E+03  0.84866915950E+02 0.  0.
         24    2    4    4    0    0  0.80449323653E+03 -0.27634669173E+03  0.11331955417E+03  0.86197045499E+03  0.81085647612E+02 0.  0.
         11    1    3    3    0    0 -0.36226534977E+03  0.33085079842E+03 -0.25780543520E+03  0.55422204655E+03  0.00000000000E+00 0. -1.
        -11    1    3    3    0    0 -0.34785933527E+03  0.40715957461E+03 -0.20443334973E+03  0.57321726318E+03  0.00000000000E+00 0.  1.
          4    1    6    6  502    0  0.14997596410E+03 -0.36332550432E+02  0.48838028095E+02  0.16185795321E+03  0.00000000000E+00 0. -1.
          3    1    5    5  503    0  0.14361055182E+02 -0.25430691514E+02 -0.84529768880E+01  0.30404157530E+02  0.00000000000E+00 0. -1.
         -4    1    5    5    0  503 -0.10872960667E+03 -0.43623298978E+03 -0.14058347782E+03  0.47104677366E+03  0.00000000000E+00 0.  1.
         -3    1    6    6    0  502  0.65451727244E+03 -0.24001414130E+03  0.64481526080E+02  0.70011250178E+03  0.00000000000E+00 0.  1.
<mgrwt>
<rscale>  0 0.24405793E+04</rscale>
<asrwt>0</asrwt>
<pdfrwt beam="1">  1        2 0.22990895E+00 0.24405793E+04</pdfrwt>
<pdfrwt beam="2">  1       -2 0.15330039E+00 0.24405793E+04</pdfrwt>
<totfact> 0.32407935E+00</totfact>
</mgrwt>
</event>
<event>
12    1  0.2019083E-007  0.2660028E+04  0.7818608E-02  0.8348092E-01
          2   -1    0    0  501    0  0.00000000000E+00  0.00000000000E+00  0.25881597565E+04  0.25881597565E+04  0.00000000000E+00 0. -1.
         -2   -1    0    0    0  501 -0.00000000000E+00 -0.00000000000E+00 -0.68347304378E+03  0.68347304378E+03  0.00000000000E+00 0.  1.
         23    2    1    2    0    0  0.10353884297E+04  0.23948341074E+03  0.22603559801E+03  0.10905726581E+04  0.94207890434E+02 0.  0.
        254    2    1    2    0    0 -0.10353884297E+04 -0.23948341074E+03  0.16786511147E+04  0.21810601421E+04  0.89987347678E+03 0.  0.
        -24    2    4    4    0    0 -0.67066738612E+03  0.44224376087E+02  0.32891234954E+03  0.75206256089E+03  0.75261036215E+02 0.  0.
         24    2    4    4    0    0 -0.36472104363E+03 -0.28370778683E+03  0.13497387651E+04  0.14289975812E+04  0.82023198241E+02 0.  0.
         11    1    3    3    0    0  0.60453078238E+03  0.11563013608E+03  0.89680991660E+02  0.62198912810E+03  0.00000000000E+00 0. -1.
        -11    1    3    3    0    0  0.43085764737E+03  0.12385327466E+03  0.13635460635E+03  0.46858353003E+03  0.00000000000E+00 0.  1.
          4    1    6    6  502    0 -0.59764363171E+02 -0.13821652709E+02  0.20504251030E+03  0.21402160690E+03  0.00000000000E+00 0. -1.
          3    1    5    5  503    0 -0.29971274817E+02  0.13787903776E+02  0.45797418528E+01  0.33307020884E+02  0.00000000000E+00 0. -1.
         -4    1    5    5    0  503 -0.64069611130E+03  0.30436472311E+02  0.32433260769E+03  0.71875554001E+03  0.00000000000E+00 0.  1.
         -1    1    6    6    0  502 -0.30495668046E+03 -0.26988613412E+03  0.11446962548E+04  0.12149759743E+04  0.00000000000E+00 0.  1.
<mgrwt>
<rscale>  0 0.26600281E+04</rscale>
<asrwt>0</asrwt>
<pdfrwt beam="1">  1        2 0.39817842E+00 0.26600281E+04</pdfrwt>
<pdfrwt beam="2">  1       -2 0.10514970E+00 0.26600281E+04</pdfrwt>
<totfact> 0.19934158E+00</totfact>
</mgrwt>
</event>
<event>
12    1  0.2019083E-007  0.1216519E+04  0.7818608E-02  0.9098519E-01
         -2   -1    0    0    0  501 -0.00000000000E+00  0.00000000000E+00  0.43742629455E+03  0.43742629455E+03  0.00000000000E+00 0. -1.
          2   -1    0    0  501    0  0.00000000000E+00 -0.00000000000E+00 -0.84581016675E+03  0.84581016675E+03  0.00000000000E+00 0.  1.
         23    2    1    2    0    0 -0.85665198530E+01  0.12155153556E+03 -0.33524095095E+03  0.36813291653E+03  0.91033993568E+02 0.  0.
        254    2    1    2    0    0  0.85665198530E+01 -0.12155153556E+03 -0.73142921252E+02  0.91510354477E+03  0.90400024870E+03 0.  0.
        -24    2    4    4    0    0 -0.25534814848E+03 -0.15830764940E+03 -0.38673759845E+03  0.49703239604E+03  0.84919043026E+02 0.  0.
         24    2    4    4    0    0  0.26391466833E+03  0.36756113838E+02  0.31359467720E+03  0.41807114873E+03  0.73755676191E+02 0.  0.
         11    1    3    3    0    0  0.18883226488E+02 -0.70457416900E+01 -0.35607248409E+02  0.40915704294E+02  0.00000000000E+00 0. -1.
        -11    1    3    3    0    0 -0.27449746341E+02  0.12859727725E+03 -0.29963370254E+03  0.32721721224E+03  0.00000000000E+00 0.  1.
          4    1    6    6  502    0  0.23118215441E+03  0.25811922975E+02  0.30294512998E+03  0.38195182374E+03  0.00000000000E+00 0. -1.
          3    1    5    5  503    0 -0.62528323897E+02 -0.85086082086E+02 -0.14246633909E+03  0.17733045545E+03  0.00000000000E+00 0. -1.
         -4    1    5    5    0  503 -0.19281982458E+03 -0.73221567312E+02 -0.24427125936E+03  0.31970194059E+03  0.00000000000E+00 0.  1.
         -3    1    6    6    0  502  0.32732513926E+02  0.10944190864E+02  0.10649547216E+02  0.36119324987E+02  0.00000000000E+00 0.  1.
<mgrwt>
<rscale>  0 0.12165190E+04</rscale>
<asrwt>0</asrwt>
<pdfrwt beam="1">  1        2 0.13012464E+00 0.12165190E+04</pdfrwt>
<pdfrwt beam="2">  1       -2 0.67296354E-01 0.12165190E+04</pdfrwt>
<totfact> 0.63816256E+01</totfact>
</mgrwt>
</event>
<event>
12    1  0.2019083E-007  0.2586335E+04  0.7818608E-02  0.8372858E-01
          1   -1    0    0  501    0  0.00000000000E+00  0.00000000000E+00  0.15401986704E+04  0.15401986704E+04  0.00000000000E+00 0. -1.
         -1   -1    0    0    0  501 -0.00000000000E+00 -0.00000000000E+00 -0.10857574377E+04  0.10857574377E+04  0.00000000000E+00 0.  1.
         23    2    1    2    0    0 -0.10558854123E+04 -0.39743601145E+03  0.34179816985E+03  0.11822747433E+04  0.89989958868E+02 0.  0.
        254    2    1    2    0    0  0.10558854123E+04  0.39743601145E+03  0.11264306287E+03  0.14436813648E+04  0.89368788537E+03 0.  0.
        -24    2    4    4    0    0  0.19785214377E+03  0.78412133693E+02 -0.34826995640E+03  0.41567830669E+03  0.78756324325E+02 0.  0.
         24    2    4    4    0    0  0.85803326853E+03  0.31902387776E+03  0.46091301926E+03  0.10280030581E+04  0.79700387341E+02 0.  0.
         13    1    3    3    0    0 -0.70467283774E+03 -0.28197274542E+03  0.27050832311E+03  0.80575876681E+03  0.00000000000E+00 0.  1.
        -13    1    3    3    0    0 -0.35121257455E+03 -0.11546326603E+03  0.71289846737E+02  0.37651597652E+03  0.00000000000E+00 0. -1.
          4    1    6    6  502    0  0.69154072043E+03  0.25797683058E+03  0.33525907191E+03  0.81066593516E+03  0.00000000000E+00 0. -1.
          1    1    5    5  503    0  0.12018160990E+03  0.50614520425E+02 -0.27894714755E+03  0.30792362716E+03  0.00000000000E+00 0. -1.
         -2    1    5    5    0  503  0.77670533869E+02  0.27797613268E+02 -0.69322808846E+02  0.10775467953E+03  0.00000000000E+00 0.  1.
         -3    1    6    6    0  502  0.16649254810E+03  0.61047047176E+02  0.12565394735E+03  0.21733712298E+03  0.00000000000E+00 0.  1.
<mgrwt>
<rscale>  0 0.25863350E+04</rscale>
<asrwt>0</asrwt>
<pdfrwt beam="1">  1        1 0.23695364E+00 0.25863350E+04</pdfrwt>
<pdfrwt beam="2">  1       -1 0.16703960E+00 0.25863350E+04</pdfrwt>
<totfact> 0.14001128E+00</totfact>
</mgrwt>
</event>
<event>
12    1  0.2019083E-007  0.1936839E+04  0.7818608E-02  0.8636733E-01
          1   -1    0    0  501    0  0.00000000000E+00  0.00000000000E+00  0.29727714969E+04  0.29727714969E+04  0.00000000000E+00 0. -1.
         -1   -1    0    0    0  501 -0.00000000000E+00 -0.00000000000E+00 -0.31547556011E+03  0.31547556011E+03  0.00000000000E+00 0.  1.
         23    2    1    2    0    0  0.51828802119E+03 -0.48862765832E+03  0.61450599172E+03  0.94562234959E+03  0.95940360682E+02 0.  0.
        254    2    1    2    0    0 -0.51828802119E+03  0.48862765832E+03  0.20427899451E+04  0.23426247074E+04  0.89862133221E+03 0.  0.
        -24    2    4    4    0    0 -0.48465223468E+03  0.65430719985E+03  0.19837383119E+04  0.21458151778E+04  0.79368674724E+02 0.  0.
         24    2    4    4    0    0 -0.33635786513E+02 -0.16567954153E+03  0.59051633167E+02  0.19680952967E+03  0.81644466906E+02 0.  0.
         13    1    3    3    0    0  0.17404344818E+03 -0.11041623978E+03  0.15216966226E+03  0.25620006631E+03  0.00000000000E+00 0. -1.
        -13    1    3    3    0    0  0.34424457301E+03 -0.37821141854E+03  0.46233632945E+03  0.68942228329E+03  0.00000000000E+00 0.  1.
          4    1    6    6  502    0 -0.30006671797E+02 -0.11601492450E+03  0.35226140778E+00  0.11983316380E+03  0.00000000000E+00 0. -1.
          1    1    5    5  503    0 -0.22292958267E+03  0.24303833637E+03  0.84831611047E+03  0.91016781698E+03  0.00000000000E+00 0. -1.
         -2    1    5    5    0  503 -0.26172265201E+03  0.41126886348E+03  0.11354222015E+04  0.12356473608E+04  0.00000000000E+00 0.  1.
         -3    1    6    6    0  502 -0.36291147158E+01 -0.49664617030E+02  0.58699371759E+02  0.76976365874E+02  0.00000000000E+00 0.  1.
<mgrwt>
<rscale>  0 0.19368394E+04</rscale>
<asrwt>0</asrwt>
<pdfrwt beam="1">  1        1 0.45734944E+00 0.19368394E+04</pdfrwt>
<pdfrwt beam="2">  1       -1 0.48534704E-01 0.19368394E+04</pdfrwt>
<totfact> 0.24840227E+00</totfact>
</mgrwt>
</event>
<event>
12    1  0.2094322E-007  0.3299387E+04  0.7818608E-02  0.8163051E-01
         -1   -1    0    0    0  501 -0.00000000000E+00  0.00000000000E+00  0.88031032049E+03  0.88031032049E+03  0.00000000000E+00 0.  1.
          1   -1    0    0  501    0  0.00000000000E+00 -0.00000000000E+00 -0.30915107183E+04  0.30915107183E+04  0.00000000000E+00 0. -1.
         23    2    1    2    0    0  0.75691769479E+03 -0.13029828417E+04 -0.73046806419E+03  0.16768818607E+04  0.87524278553E+02 0.  0.
        254    2    1    2    0    0 -0.75691769479E+03  0.13029828417E+04 -0.14807323337E+04  0.22949391781E+04  0.89637542629E+03 0.  0.
        -24    2    4    4    0    0  0.76686370729E+02  0.17602797772E+03  0.53853040740E+02  0.21491003026E+03  0.80121924063E+02 0.  0.
         24    2    4    4    0    0 -0.83360406552E+03  0.11269548640E+04 -0.15345853744E+04  0.20800291479E+04  0.81522887009E+02 0.  0.
         11    1    3    3    0    0  0.40150334944E+03 -0.71644350643E+03 -0.35164027184E+03  0.89339079820E+03  0.00000000000E+00 0.  1.
        -11    1    3    3    0    0  0.35541434534E+03 -0.58653933532E+03 -0.37882779235E+03  0.78349106249E+03  0.00000000000E+00 0. -1.
          4    1    6    6  502    0 -0.33206034630E+03  0.39182180516E+03 -0.53251620547E+03  0.73983911067E+03  0.00000000000E+00 0. -1.
          1    1    5    5  503    0  0.65010156693E+02  0.13257646756E+03  0.39388544142E+01  0.14771037472E+03  0.00000000000E+00 0. -1.
         -2    1    5    5    0  503  0.11676214036E+02  0.43451510155E+02  0.49914186326E+02  0.67199655546E+02  0.00000000000E+00 0.  1.
         -3    1    6    6    0  502 -0.50154371921E+03  0.73513305887E+03 -0.10020691689E+04  0.13401900372E+04  0.00000000000E+00 0.  1.
<mgrwt>
<rscale>  0 0.32993871E+04</rscale>
<asrwt>0</asrwt>
<pdfrwt beam="1">  1        1 0.47561703E+00 0.32993871E+04</pdfrwt>
<pdfrwt beam="2">  1       -1 0.13543236E+00 0.32993871E+04</pdfrwt>
<totfact> 0.19389699E-01</totfact>
</mgrwt>
</event>
<event>
12    1  0.2019083E-007  0.2665736E+04  0.7818608E-02  0.8346209E-01
         -1   -1    0    0    0  501 -0.00000000000E+00  0.00000000000E+00  0.72210427735E+03  0.72210427735E+03  0.00000000000E+00 0.  1.
          1   -1    0    0  501    0  0.00000000000E+00 -0.00000000000E+00 -0.24602215657E+04  0.24602215657E+04  0.00000000000E+00 0. -1.
         23    2    1    2    0    0  0.82080327984E+03 -0.60052175830E+03 -0.59692613722E+02  0.10228178013E+04  0.90822024459E+02 0.  0.
        254    2    1    2    0    0 -0.82080327984E+03  0.60052175830E+03 -0.16784246746E+04  0.21595080417E+04  0.90112218241E+03 0.  0.
        -24    2    4    4    0    0 -0.16007755099E+03  0.24266854543E+03  0.18339246036E+02  0.30207364158E+03  0.79995698135E+02 0.  0.
         24    2    4    4    0    0 -0.66072572884E+03  0.35785321287E+03 -0.16967639206E+04  0.18574344002E+04  0.80233021816E+02 0.  0.
         13    1    3    3    0    0  0.22216463506E+03 -0.11440707322E+03 -0.17985254413E+02  0.25053856560E+03  0.00000000000E+00 0.  1.
        -13    1    3    3    0    0  0.59863864477E+03 -0.48611468507E+03 -0.41707359309E+02  0.77227923569E+03  0.00000000000E+00 0. -1.
          4    1    6    6  502    0 -0.66329572402E+02  0.64434260724E+02 -0.19017583970E+03  0.21146686770E+03  0.00000000000E+00 0. -1.
          1    1    5    5  503    0 -0.12025280374E+03  0.11315068721E+03 -0.15145803734E+01  0.16512452507E+03  0.00000000000E+00 0. -1.
         -2    1    5    5    0  503 -0.39824747248E+02  0.12951785822E+03  0.19853826410E+02  0.13694911651E+03  0.00000000000E+00 0.  1.
         -3    1    6    6    0  502 -0.59439615644E+03  0.29341895214E+03 -0.15065880809E+04  0.16459675325E+04  0.00000000000E+00 0.  1.
<mgrwt>
<rscale>  0 0.26657356E+04</rscale>
<asrwt>0</asrwt>
<pdfrwt beam="1">  1        1 0.37849562E+00 0.26657356E+04</pdfrwt>
<pdfrwt beam="2">  1       -1 0.11109297E+00 0.26657356E+04</pdfrwt>
<totfact> 0.94204118E-01</totfact>
</mgrwt>
</event>
<event>
12    1  0.2019083E-007  0.1838609E+04  0.7818608E-02  0.8686033E-01
         -1   -1    0    0    0  501 -0.00000000000E+00  0.00000000000E+00  0.77489128315E+03  0.77489128315E+03  0.00000000000E+00 0.  1.
          1   -1    0    0  501    0  0.00000000000E+00 -0.00000000000E+00 -0.10906311032E+04  0.10906311032E+04  0.00000000000E+00 0. -1.
         23    2    1    2    0    0  0.32990060182E+03 -0.31846588679E+03  0.40832501451E+03  0.62152560325E+03  0.96487459761E+02 0.  0.
        254    2    1    2    0    0 -0.32990060182E+03  0.31846588679E+03 -0.72406483455E+03  0.12439967831E+04  0.90166689171E+03 0.  0.
        -24    2    4    4    0    0 -0.42735396376E+02  0.38050534159E+03 -0.83311873398E+03  0.92025812390E+03  0.78597459349E+02 0.  0.
         24    2    4    4    0    0 -0.28716520544E+03 -0.62039454804E+02  0.10905389943E+03  0.32373865919E+03  0.81247875714E+02 0.  0.
         11    1    3    3    0    0  0.16123961963E+03 -0.22079094834E+03  0.24886383905E+03  0.36970267540E+03  0.00000000000E+00 0.  1.
        -11    1    3    3    0    0  0.16866098219E+03 -0.97674938444E+02  0.15946117546E+03  0.25182292785E+03  0.00000000000E+00 0. -1.
          4    1    6    6  502    0 -0.25518974649E+02 -0.32138299857E+02  0.89279358835E+01  0.41997576406E+02  0.00000000000E+00 0. -1.
          1    1    5    5  503    0  0.20723730483E+02  0.75348280670E+02 -0.14132651835E+03  0.16149309952E+03  0.00000000000E+00 0. -1.
         -2    1    5    5    0  503 -0.63459126860E+02  0.30515706092E+03 -0.69179221564E+03  0.75876502438E+03  0.00000000000E+00 0.  1.
         -3    1    6    6    0  502 -0.26164623079E+03 -0.29901154947E+02  0.10012596355E+03  0.28174108279E+03  0.00000000000E+00 0.  1.
<mgrwt>
<rscale>  0 0.18386088E+04</rscale>
<asrwt>0</asrwt>
<pdfrwt beam="1">  1        1 0.16778940E+00 0.18386088E+04</pdfrwt>
<pdfrwt beam="2">  1       -1 0.11921404E+00 0.18386088E+04</pdfrwt>
<totfact> 0.76263828E+00</totfact>
</mgrwt>
</event>
<event>
12    1  0.2019083E-007  0.1933535E+04  0.7818608E-02  0.8638342E-01
         -1   -1    0    0    0  501 -0.00000000000E+00  0.00000000000E+00  0.13647647420E+04  0.13647647420E+04  0.00000000000E+00 0. -1.
          1   -1    0    0  501    0  0.00000000000E+00 -0.00000000000E+00 -0.68483519042E+03  0.68483519042E+03  0.00000000000E+00 0.  1.
         23    2    1    2    0    0  0.54312499099E+03  0.47164322274E+03  0.28030613340E+02  0.72548022364E+03  0.90020854312E+02 0.  0.
        254    2    1    2    0    0 -0.54312499099E+03 -0.47164322274E+03  0.65189893826E+03  0.13241197088E+04  0.90049358250E+03 0.  0.
        -24    2    4    4    0    0 -0.48901890623E+03 -0.23508342751E+03 -0.74118107238E+02  0.55448421702E+03  0.86922635491E+02 0.  0.
         24    2    4    4    0    0 -0.54106084754E+02 -0.23655979523E+03  0.72601704550E+03  0.76963549178E+03  0.79687105131E+02 0.  0.
         13    1    3    3    0    0  0.31993876711E+03  0.23861265070E+03  0.49073944782E+02  0.40212568164E+03  0.00000000000E+00 0. -1.
        -13    1    3    3    0    0  0.22318622387E+03  0.23303057204E+03 -0.21043331442E+02  0.32335454200E+03  0.00000000000E+00 0.  1.
          4    1    6    6  502    0  0.16180693941E+02 -0.72996915272E+02  0.26807840628E+03  0.27830989276E+03  0.00000000000E+00 0. -1.
          1    1    5    5  503    0 -0.18593081302E+03 -0.12172406407E+03  0.12252647719E+01  0.22223527236E+03  0.00000000000E+00 0. -1.
         -2    1    5    5    0  503 -0.30308809321E+03 -0.11335936344E+03 -0.75343372010E+02  0.33224894466E+03  0.00000000000E+00 0.  1.
         -3    1    6    6    0  502 -0.70286778695E+02 -0.16356287996E+03  0.45793863921E+03  0.49132559901E+03  0.00000000000E+00 0.  1.
<mgrwt>
<rscale>  0 0.19335345E+04</rscale>
<asrwt>0</asrwt>
<pdfrwt beam="1">  1        1 0.10535926E+00 0.19335345E+04</pdfrwt>
<pdfrwt beam="2">  1       -1 0.20996381E+00 0.19335345E+04</pdfrwt>
<totfact> 0.33794565E+00</totfact>
</mgrwt>
</event>
<event>
12    1  0.2019083E-007  0.1539756E+04  0.7818608E-02  0.8858438E-01
          1   -1    0    0  501    0  0.00000000000E+00  0.00000000000E+00  0.13436812736E+04  0.13436812736E+04  0.00000000000E+00 0. -1.
         -1   -1    0    0    0  501 -0.00000000000E+00 -0.00000000000E+00 -0.44111067450E+03  0.44111067450E+03  0.00000000000E+00 0.  1.
         23    2    1    2    0    0  0.25875481712E+03 -0.41458627480E+03  0.43994050156E+03  0.66156763508E+03  0.72720397635E+02 0.  0.
        254    2    1    2    0    0 -0.25875481712E+03  0.41458627480E+03  0.46263009750E+03  0.11232243130E+04  0.89931663808E+03 0.  0.
        -24    2    4    4    0    0 -0.41420520266E+02  0.25330755376E+03  0.70298465613E+03  0.75269913717E+03  0.80549289594E+02 0.  0.
         24    2    4    4    0    0 -0.21733429685E+03  0.16127872104E+03 -0.24035455863E+03  0.37052517581E+03  0.79205868520E+02 0.  0.
         11    1    3    3    0    0  0.11821868256E+03 -0.22179899348E+03  0.26851778343E+03  0.36779376073E+03  0.00000000000E+00 0. -1.
        -11    1    3    3    0    0  0.14053613456E+03 -0.19278728132E+03  0.17142271813E+03  0.29377387435E+03  0.00000000000E+00 0.  1.
          4    1    6    6  502    0 -0.11041890395E+02  0.37737475349E+02 -0.51373916971E+02  0.64694047131E+02  0.00000000000E+00 0. -1.
          3    1    5    5  503    0 -0.25084173157E+02  0.15660788925E+02  0.57402647784E+02  0.64571975542E+02  0.00000000000E+00 0. -1.
         -4    1    5    5    0  503 -0.16336347109E+02  0.23764676483E+03  0.64558200835E+03  0.68812716163E+03  0.00000000000E+00 0.  1.
         -3    1    6    6    0  502 -0.20629240646E+03  0.12354124569E+03 -0.18898064166E+03  0.30583112868E+03  0.00000000000E+00 0.  1.
<mgrwt>
<rscale>  0 0.15397560E+04</rscale>
<asrwt>0</asrwt>
<pdfrwt beam="1">  1        1 0.20672019E+00 0.15397560E+04</pdfrwt>
<pdfrwt beam="2">  1       -1 0.67863182E-01 0.15397560E+04</pdfrwt>
<totfact> 0.17849498E+01</totfact>
</mgrwt>
</event>
<event>
12    1  0.2019083E-007  0.2152021E+04  0.7818608E-02  0.8538668E-01
          2   -1    0    0  501    0  0.00000000000E+00  0.00000000000E+00  0.22275243676E+04  0.22275243676E+04  0.00000000000E+00 0. -1.
         -2   -1    0    0    0  501 -0.00000000000E+00 -0.00000000000E+00 -0.51976907864E+03  0.51976907864E+03  0.00000000000E+00 0.  1.
         23    2    1    2    0    0  0.70459015758E+03  0.51970113440E+03  0.87397880606E+03  0.12403740565E+04  0.90290018176E+02 0.  0.
        254    2    1    2    0    0 -0.70459015758E+03 -0.51970113440E+03  0.83377648286E+03  0.15069193897E+04  0.89949222586E+03 0.  0.
        -24    2    4    4    0    0 -0.67229463237E+03  0.49861835970E+02  0.42481804229E+03  0.80115815300E+03  0.83172962375E+02 0.  0.
         24    2    4    4    0    0 -0.32295525216E+02 -0.56956297037E+03  0.40895844057E+03  0.70576123668E+03  0.73531890552E+02 0.  0.
         11    1    3    3    0    0  0.21675765273E+03  0.14565274381E+03  0.20631788109E+03  0.33281476809E+03  0.00000000000E+00 0.  1.
        -11    1    3    3    0    0  0.48783250485E+03  0.37404839059E+03  0.66766092497E+03  0.90755928843E+03  0.00000000000E+00 0. -1.
          2    1    6    6  502    0  0.18710301885E+02 -0.19833054381E+03  0.11993940915E+03  0.23253073318E+03  0.00000000000E+00 0. -1.
          3    1    5    5  503    0 -0.97547309941E+01 -0.75955596251E+01  0.66094516455E+00  0.12380797684E+02  0.00000000000E+00 0. -1.
         -4    1    5    5    0  503 -0.66253990137E+03  0.57457395596E+02  0.42415709713E+03  0.78877735532E+03  0.00000000000E+00 0.  1.
         -1    1    6    6    0  502 -0.51005827101E+02 -0.37123242656E+03  0.28901903142E+03  0.47323050351E+03  0.00000000000E+00 0.  1.
<mgrwt>
<rscale>  0 0.21520207E+04</rscale>
<asrwt>0</asrwt>
<pdfrwt beam="1">  1        2 0.34269605E+00 0.21520207E+04</pdfrwt>
<pdfrwt beam="2">  1       -2 0.79964475E-01 0.21520207E+04</pdfrwt>
<totfact> 0.63260699E+00</totfact>
</mgrwt>
</event>
<event>
12    1  0.2019083E-007  0.2077511E+04  0.7818608E-02  0.8571215E-01
          2   -1    0    0  501    0  0.00000000000E+00  0.00000000000E+00  0.26879189319E+04  0.26879189319E+04  0.00000000000E+00 0.  1.
         -2   -1    0    0    0  501 -0.00000000000E+00 -0.00000000000E+00 -0.40143071436E+03  0.40143071436E+03  0.00000000000E+00 0. -1.
         23    2    1    2    0    0  0.23260648635E+03  0.26246685847E+03  0.20674939529E+04  0.20990230704E+04  0.91498498337E+02 0.  0.
        254    2    1    2    0    0 -0.23260648635E+03 -0.26246685847E+03  0.21899426461E+03  0.99032657590E+03  0.89988533143E+03 0.  0.
        -24    2    4    4    0    0  0.10666285687E+03 -0.33419292754E+03 -0.22270002396E+03  0.42320102247E+03  0.80261615288E+02 0.  0.
         24    2    4    4    0    0 -0.33926934322E+03  0.71726069076E+02  0.44169428857E+03  0.56712555343E+03  0.79304681861E+02 0.  0.
         11    1    3    3    0    0  0.88919861905E+02  0.14426994310E+03  0.78347366719E+03  0.80159312965E+03  0.00000000000E+00 0. -1.
        -11    1    3    3    0    0  0.14368662444E+03  0.11819691537E+03  0.12840202857E+04  0.12974299407E+04  0.00000000000E+00 0.  1.
          4    1    6    6  502    0 -0.15153575159E+03 -0.74931277184E+01  0.19879027932E+03  0.25007360141E+03  0.00000000000E+00 0. -1.
          1    1    5    5  503    0  0.69693365382E+02 -0.23471015207E+03 -0.19635737257E+03  0.31385066262E+03  0.00000000000E+00 0. -1.
         -2    1    5    5    0  503  0.36969491490E+02 -0.99482775472E+02 -0.26342651393E+02  0.10935035985E+03  0.00000000000E+00 0.  1.
         -3    1    6    6    0  502 -0.18773359163E+03  0.79219196794E+02  0.24290400925E+03  0.31705195202E+03  0.00000000000E+00 0.  1.
<mgrwt>
<rscale>  0 0.20775112E+04</rscale>
<asrwt>0</asrwt>
<pdfrwt beam="1">  1        2 0.41352598E+00 0.20775112E+04</pdfrwt>
<pdfrwt beam="2">  1       -2 0.61758573E-01 0.20775112E+04</pdfrwt>
<totfact> 0.60765635E+00</totfact>
</mgrwt>
</event>
<event>
12    1  0.2019083E-007  0.1996119E+04  0.7818608E-02  0.8608437E-01
          1   -1    0    0  501    0  0.00000000000E+00  0.00000000000E+00  0.18117604597E+04  0.18117604597E+04  0.00000000000E+00 0. -1.
         -1   -1    0    0    0  501 -0.00000000000E+00 -0.00000000000E+00 -0.54980954774E+03  0.54980954774E+03  0.00000000000E+00 0.  1.
         23    2    1    2    0    0  0.28466616012E+03 -0.12581296364E+03 -0.35739643055E+03  0.48261102282E+03  0.91200143849E+02 0.  0.
        254    2    1    2    0    0 -0.28466616012E+03  0.12581296364E+03  0.16193473425E+04  0.18789589846E+04  0.90074265229E+03 0.  0.
        -24    2    4    4    0    0  0.22659360343E+03  0.22904581264E+03  0.26419743205E+03  0.42466220513E+03  0.82043037277E+02 0.  0.
         24    2    4    4    0    0 -0.51125976355E+03 -0.10323284899E+03  0.13551499105E+04  0.14542967795E+04  0.80649092202E+02 0.  0.
         13    1    3    3    0    0  0.15467042037E+03 -0.97265003851E+02 -0.25959440096E+03  0.31744711831E+03  0.00000000000E+00 0.  1.
        -13    1    3    3    0    0  0.12999573975E+03 -0.28547959790E+02 -0.97802029589E+02  0.16516390451E+03  0.00000000000E+00 0. -1.
          4    1    6    6  502    0 -0.50823286376E+03 -0.11012875446E+03  0.13302766948E+04  0.14283084650E+04  0.00000000000E+00 0. -1.
          1    1    5    5  503    0  0.21642129130E+03  0.23590503306E+03  0.25283077498E+03  0.40793720195E+03  0.00000000000E+00 0. -1.
         -2    1    5    5    0  503  0.10172312125E+02 -0.68592204225E+01  0.11366657066E+02  0.16725003187E+02  0.00000000000E+00 0.  1.
         -3    1    6    6    0  502 -0.30268997929E+01  0.68959054633E+01  0.24873215655E+02  0.25988314519E+02  0.00000000000E+00 0.  1.
<mgrwt>
<rscale>  0 0.19961194E+04</rscale>
<asrwt>0</asrwt>
<pdfrwt beam="1">  1        1 0.27873237E+00 0.19961194E+04</pdfrwt>
<pdfrwt beam="2">  1       -1 0.84586085E-01 0.19961194E+04</pdfrwt>
<totfact> 0.51350060E+00</totfact>
</mgrwt>
</event>
<event>
12    1  0.2019083E-007  0.3571974E+04  0.7818608E-02  0.8096942E-01
          2   -1    0    0  501    0  0.00000000000E+00  0.00000000000E+00  0.31394811511E+04  0.31394811511E+04  0.00000000000E+00 0. -1.
         -2   -1    0    0    0  501 -0.00000000000E+00 -0.00000000000E+00 -0.10160117667E+04  0.10160117667E+04  0.00000000000E+00 0.  1.
         23    2    1    2    0    0  0.85888388842E+03 -0.13529670233E+04  0.44397525715E+03  0.16653939085E+04  0.90672716861E+02 0.  0.
        254    2    1    2    0    0 -0.85888388842E+03  0.13529670233E+04  0.16794941272E+04  0.24900990093E+04  0.90093909490E+03 0.  0.
        -24    2    4    4    0    0 -0.43030311011E+03  0.33981287586E+03  0.11292835641E+04  0.12578513051E+04  0.79214774681E+02 0.  0.
         24    2    4    4    0    0 -0.42858077832E+03  0.10131541475E+04  0.55021056312E+03  0.12322477042E+04  0.74430709846E+02 0.  0.
         13    1    3    3    0    0  0.36401958508E+03 -0.61870802373E+03  0.15940792146E+03  0.73533717597E+03  0.00000000000E+00 0. -1.
        -13    1    3    3    0    0  0.49486430334E+03 -0.73425899959E+03  0.28456733570E+03  0.93005673254E+03  0.00000000000E+00 0.  1.
          4    1    6    6  502    0 -0.41054961887E+03  0.99656818043E+03  0.53383667709E+03  0.12027804145E+04  0.00000000000E+00 0. -1.
          3    1    5    5  503    0 -0.20609600156E+03  0.16058736129E+03  0.44890292077E+03  0.51940128489E+03  0.00000000000E+00 0. -1.
         -4    1    5    5    0  503 -0.22420710855E+03  0.17922551457E+03  0.68038064331E+03  0.73845002023E+03  0.00000000000E+00 0.  1.
         -3    1    6    6    0  502 -0.18031159447E+02  0.16585967026E+02  0.16373886032E+02  0.29467289610E+02  0.00000000000E+00 0.  1.
<mgrwt>
<rscale>  0 0.35719741E+04</rscale>
<asrwt>0</asrwt>
<pdfrwt beam="1">  1        2 0.48299710E+00 0.35719741E+04</pdfrwt>
<pdfrwt beam="2">  1       -2 0.15630950E+00 0.35719741E+04</pdfrwt>
<totfact> 0.31090097E-01</totfact>
</mgrwt>
</event>
<event>
12    1  0.2019083E-007  0.2084059E+04  0.7818608E-02  0.8568298E-01
          2   -1    0    0  501    0  0.00000000000E+00  0.00000000000E+00  0.56518513907E+03  0.56518513907E+03  0.00000000000E+00 0. -1.
         -2   -1    0    0    0  501 -0.00000000000E+00 -0.00000000000E+00 -0.19211851326E+04  0.19211851326E+04  0.00000000000E+00 0.  1.
         23    2    1    2    0    0 -0.41800617520E+01 -0.73419126563E+03 -0.10536737699E+04  0.12874396804E+04  0.90654451996E+02 0.  0.
        254    2    1    2    0    0  0.41800617520E+01  0.73419126563E+03 -0.30232622360E+03  0.11989305913E+04  0.89832017114E+03 0.  0.
        -24    2    4    4    0    0 -0.14435847443E+03 -0.10581452223E+03  0.13400682961E+03  0.23754905685E+03  0.80222451802E+02 0.  0.
         24    2    4    4    0    0  0.14853853618E+03  0.84000578787E+03 -0.43633305322E+03  0.96138153447E+03  0.78705153007E+02 0.  0.
         13    1    3    3    0    0 -0.80373178387E+01 -0.64938267430E+02 -0.56258299815E+02  0.86293530191E+02  0.00000000000E+00 0. -1.
        -13    1    3    3    0    0  0.38572560867E+01 -0.66925299820E+03 -0.99741547012E+03  0.12011461502E+04  0.00000000000E+00 0.  1.
          4    1    6    6  502    0 -0.61784919201E+01  0.75734213676E+02 -0.26557665886E+02  0.80493195370E+02  0.00000000000E+00 0. -1.
          1    1    5    5  503    0 -0.70139408339E+02 -0.53631959292E+02  0.17717999000E+02  0.90054711971E+02  0.00000000000E+00 0. -1.
         -2    1    5    5    0  503 -0.74219066092E+02 -0.52182562942E+02  0.11628883061E+03  0.14749434488E+03  0.00000000000E+00 0.  1.
         -3    1    6    6    0  502  0.15471702810E+03  0.76427157419E+03 -0.40977538733E+03  0.88088833910E+03  0.00000000000E+00 0.  1.
<mgrwt>
<rscale>  0 0.20840588E+04</rscale>
<asrwt>0</asrwt>
<pdfrwt beam="1">  1        2 0.86951560E-01 0.20840588E+04</pdfrwt>
<pdfrwt beam="2">  1       -2 0.29556694E+00 0.20840588E+04</pdfrwt>
<totfact> 0.16649667E+00</totfact>
</mgrwt>
</event>
<event>
12    1  0.2019083E-007  0.2896484E+04  0.7818608E-02  0.8273924E-01
          2   -1    0    0  501    0  0.00000000000E+00  0.00000000000E+00  0.34056864119E+04  0.34056864119E+04  0.00000000000E+00 0.  1.
         -2   -1    0    0    0  501 -0.00000000000E+00 -0.00000000000E+00 -0.61585371654E+03  0.61585371654E+03  0.00000000000E+00 0. -1.
         23    2    1    2    0    0 -0.19292005070E+03 -0.55687596238E+03 -0.35764385289E+03  0.69546985662E+03  0.91870629266E+02 0.  0.
        254    2    1    2    0    0  0.19292005070E+03  0.55687596238E+03  0.31474765482E+04  0.33260702718E+04  0.89933633750E+03 0.  0.
        -24    2    4    4    0    0  0.33245891099E+01  0.77151495939E+03  0.21872212348E+04  0.23207024704E+04  0.80478819235E+02 0.  0.
         24    2    4    4    0    0  0.18959546159E+03 -0.21463899701E+03  0.96025531337E+03  0.10053678014E+04  0.81595411691E+02 0.  0.
         13    1    3    3    0    0 -0.31773006167E+02 -0.73312081382E+02 -0.14997341355E+02  0.81296404872E+02  0.00000000000E+00 0.  1.
        -13    1    3    3    0    0 -0.16114704453E+03 -0.48356388099E+03 -0.34264651153E+03  0.61417345175E+03  0.00000000000E+00 0. -1.
          2    1    6    6  502    0  0.12848016793E+03 -0.13328697504E+03  0.73902537457E+03  0.76186027296E+03  0.00000000000E+00 0. -1.
          3    1    5    5  503    0 -0.15327410192E+02  0.50069764345E+03  0.13133468435E+04  0.14056361517E+04  0.00000000000E+00 0. -1.
         -4    1    5    5    0  503  0.18651999302E+02  0.27081731594E+03  0.87387439132E+03  0.91506631863E+03  0.00000000000E+00 0.  1.
         -3    1    6    6    0  502  0.61115293665E+02 -0.81352021973E+02  0.22122993880E+03  0.24350752847E+03  0.00000000000E+00 0.  1.
<mgrwt>
<rscale>  0 0.28964838E+04</rscale>
<asrwt>0</asrwt>
<pdfrwt beam="1">  1        2 0.52395174E+00 0.28964838E+04</pdfrwt>
<pdfrwt beam="2">  1       -2 0.94746728E-01 0.28964838E+04</pdfrwt>
<totfact> 0.76463699E-01</totfact>
</mgrwt>
</event>
<event>
12    1  0.2019083E-007  0.2541989E+04  0.7818608E-02  0.8388177E-01
         -2   -1    0    0    0  501 -0.00000000000E+00  0.00000000000E+00  0.88997453435E+03  0.88997453435E+03  0.00000000000E+00 0.  1.
          2   -1    0    0  501    0  0.00000000000E+00 -0.00000000000E+00 -0.18151389783E+04  0.18151389783E+04  0.00000000000E+00 0. -1.
         23    2    1    2    0    0 -0.31931831144E+03 -0.10557165571E+04 -0.52758479165E+03  0.12263422038E+04  0.95225288270E+02 0.  0.
        254    2    1    2    0    0  0.31931831144E+03  0.10557165571E+04 -0.39757965228E+03  0.14787713088E+04  0.90121771565E+03 0.  0.
        -24    2    4    4    0    0  0.45720337941E+02 -0.45058090377E+02  0.17699490160E+03  0.20455743102E+03  0.79974787179E+02 0.  0.
         24    2    4    4    0    0  0.27359797350E+03  0.11007746475E+04 -0.57457455388E+03  0.12742138778E+04  0.83213056985E+02 0.  0.
         11    1    3    3    0    0 -0.14992163881E+03 -0.39899913341E+03 -0.24483354171E+03  0.49154884741E+03  0.00000000000E+00 0. -1.
        -11    1    3    3    0    0 -0.16939667263E+03 -0.65671742366E+03 -0.28275124994E+03  0.73479335638E+03  0.00000000000E+00 0.  1.
          4    1    6    6  502    0  0.23876423593E+03  0.82501292548E+03 -0.45009762801E+03  0.96966105537E+03  0.00000000000E+00 0. -1.
          3    1    5    5  503    0  0.18547543332E+02 -0.78590646887E+01  0.14962206794E+03  0.15097198243E+03  0.00000000000E+00 0. -1.
         -4    1    5    5    0  503  0.27172794609E+02 -0.37199025688E+02  0.27372833655E+02  0.53585448597E+02  0.00000000000E+00 0.  1.
         -3    1    6    6    0  502  0.34833737571E+02  0.27576172197E+03 -0.12447692587E+03  0.30455282244E+03  0.00000000000E+00 0.  1.
<mgrwt>
<rscale>  0 0.25419894E+04</rscale>
<asrwt>0</asrwt>
<pdfrwt beam="1">  1        2 0.27925215E+00 0.25419894E+04</pdfrwt>
<pdfrwt beam="2">  1       -2 0.13691916E+00 0.25419894E+04</pdfrwt>
<totfact> 0.28624970E+00</totfact>
</mgrwt>
</event>
<event>
12    1  0.2019083E-007  0.1441485E+04  0.7818608E-02  0.8924325E-01
          2   -1    0    0  501    0  0.00000000000E+00  0.00000000000E+00  0.14336882455E+04  0.14336882455E+04  0.00000000000E+00 0. -1.
         -2   -1    0    0    0  501 -0.00000000000E+00 -0.00000000000E+00 -0.36233095623E+03  0.36233095623E+03  0.00000000000E+00 0.  1.
         23    2    1    2    0    0 -0.13683506647E+03 -0.24242341186E+03  0.71685224786E+03  0.77426887571E+03  0.90123252265E+02 0.  0.
        254    2    1    2    0    0  0.13683506647E+03  0.24242341186E+03  0.35450504137E+03  0.10217503260E+04  0.91695526512E+03 0.  0.
        -24    2    4    4    0    0 -0.69248459372E+02  0.16653645669E+03  0.63035221803E+03  0.66046859066E+03  0.79656135654E+02 0.  0.
         24    2    4    4    0    0  0.20608352585E+03  0.75886955167E+02 -0.27584717666E+03  0.36128173531E+03  0.78762794566E+02 0.  0.
         13    1    3    3    0    0 -0.42660271954E+02 -0.15491693391E+02  0.85618528695E+02  0.96904199203E+02  0.00000000000E+00 0.  1.
        -13    1    3    3    0    0 -0.94174794520E+02 -0.22693171847E+03  0.63123371917E+03  0.67736467651E+03  0.00000000000E+00 0. -1.
          2    1    6    6  502    0  0.20525609582E+02  0.25768951509E+02 -0.12464814641E+02  0.35223729426E+02  0.00000000000E+00 0. -1.
          1    1    5    5  503    0  0.56387181429E+00  0.16790312489E+02  0.17970953863E+03  0.18049307693E+03  0.00000000000E+00 0. -1.
         -2    1    5    5    0  503 -0.69812331186E+02  0.14974614421E+03  0.45064267940E+03  0.47997551374E+03  0.00000000000E+00 0.  1.
         -1    1    6    6    0  502  0.18555791626E+03  0.50118003657E+02 -0.26338236202E+03  0.32605800588E+03  0.00000000000E+00 0.  1.
<mgrwt>
<rscale>  0 0.14414848E+04</rscale>
<asrwt>0</asrwt>
<pdfrwt beam="1">  1        2 0.22056742E+00 0.14414848E+04</pdfrwt>
<pdfrwt beam="2">  1       -2 0.55743225E-01 0.14414848E+04</pdfrwt>
<totfact> 0.40604344E+01</totfact>
</mgrwt>
</event>
<event>
12    1  0.2019083E-007  0.3064266E+04  0.7818608E-02  0.8225614E-01
         -2   -1    0    0    0  501 -0.00000000000E+00  0.00000000000E+00  0.16587356378E+04  0.16587356378E+04  0.00000000000E+00 0.  1.
          2   -1    0    0  501    0  0.00000000000E+00 -0.00000000000E+00 -0.14151935625E+04  0.14151935625E+04  0.00000000000E+00 0. -1.
         23    2    1    2    0    0  0.38527526979E+03  0.13327350446E+04  0.29013087552E+03  0.14202326073E+04  0.90912052496E+02 0.  0.
        254    2    1    2    0    0 -0.38527526979E+03 -0.13327350446E+04 -0.46588800239E+02  0.16536965929E+04  0.89884491023E+03 0.  0.
        -24    2    4    4    0    0  0.79137958232E+02 -0.84960561272E+03 -0.33431897582E+03  0.91983450561E+03  0.78954585083E+02 0.  0.
         24    2    4    4    0    0 -0.46441322803E+03 -0.48312943186E+03  0.28773017558E+03  0.73386208734E+03  0.81677506118E+02 0.  0.
         11    1    3    3    0    0  0.34490022252E+03  0.10736968066E+04  0.24841043075E+03  0.11547678287E+04  0.00000000000E+00 0.  1.
        -11    1    3    3    0    0  0.40375047274E+02  0.25903823798E+03  0.41720444774E+02  0.26546477862E+03  0.00000000000E+00 0. -1.
          2    1    6    6  502    0 -0.37269557285E+03 -0.34927881350E+03  0.19336111859E+03  0.54615584018E+03  0.00000000000E+00 0. -1.
          1    1    5    5  503    0  0.78245735365E+02 -0.42950359061E+03 -0.15920363946E+03  0.46469509172E+03  0.00000000000E+00 0. -1.
         -2    1    5    5    0  503  0.89222286650E+00 -0.42010202211E+03 -0.17511533636E+03  0.45513941388E+03  0.00000000000E+00 0.  1.
         -1    1    6    6    0  502 -0.91717655173E+02 -0.13385061836E+03  0.94369056987E+02  0.18770624716E+03  0.00000000000E+00 0.  1.
<mgrwt>
<rscale>  0 0.30642663E+04</rscale>
<asrwt>0</asrwt>
<pdfrwt beam="1">  1        2 0.21772209E+00 0.30642663E+04</pdfrwt>
<pdfrwt beam="2">  1       -2 0.25519010E+00 0.30642663E+04</pdfrwt>
<totfact> 0.72117717E-01</totfact>
</mgrwt>
</event>
<event>
12    1  0.2019083E-007  0.1534291E+04  0.7818608E-02  0.8861964E-01
          1   -1    0    0  501    0  0.00000000000E+00  0.00000000000E+00  0.21955059527E+04  0.21955059527E+04  0.00000000000E+00 0. -1.
         -1   -1    0    0    0  501 -0.00000000000E+00 -0.00000000000E+00 -0.26805328196E+03  0.26805328196E+03  0.00000000000E+00 0.  1.
         23    2    1    2    0    0  0.22280295901E+03  0.42100703027E+03  0.86794570699E+03  0.99415325472E+03  0.90126941033E+02 0.  0.
        254    2    1    2    0    0 -0.22280295901E+03 -0.42100703027E+03  0.10595069638E+04  0.14694059800E+04  0.89983934653E+03 0.  0.
        -24    2    4    4    0    0  0.33745306332E+03 -0.89938262665E+02  0.31129774987E+03  0.47451192527E+03  0.79320975265E+02 0.  0.
         24    2    4    4    0    0 -0.56025602233E+03 -0.33106876761E+03  0.74820921389E+03  0.99489405468E+03  0.80646220266E+02 0.  0.
         13    1    3    3    0    0  0.88527823961E+02  0.23605409800E+03  0.39032057869E+03  0.46465994764E+03  0.00000000000E+00 0. -1.
        -13    1    3    3    0    0  0.13427513505E+03  0.18495293227E+03  0.47762512831E+03  0.52949330708E+03  0.00000000000E+00 0.  1.
          4    1    6    6  502    0 -0.40506003615E+03 -0.22016841910E+03  0.57713455155E+03  0.73866911147E+03  0.00000000000E+00 0. -1.
          3    1    5    5  503    0  0.31926187734E+03 -0.65366666910E+02  0.27045175086E+03  0.42349155483E+03  0.00000000000E+00 0. -1.
         -4    1    5    5    0  503  0.18191185976E+02 -0.24571595755E+02  0.40845999010E+02  0.51020370444E+02  0.00000000000E+00 0.  1.
         -3    1    6    6    0  502 -0.15519598618E+03 -0.11090034850E+03  0.17107466234E+03  0.25622494320E+03  0.00000000000E+00 0.  1.
<mgrwt>
<rscale>  0 0.15342915E+04</rscale>
<asrwt>0</asrwt>
<pdfrwt beam="1">  1        1 0.33777013E+00 0.15342915E+04</pdfrwt>
<pdfrwt beam="2">  1       -1 0.41238968E-01 0.15342915E+04</pdfrwt>
<totfact> 0.12201791E+01</totfact>
</mgrwt>
</event>
<event>
12    1  0.2019083E-007  0.2085183E+04  0.7818608E-02  0.8567799E-01
          2   -1    0    0  501    0  0.00000000000E+00  0.00000000000E+00  0.17096315406E+04  0.17096315406E+04  0.00000000000E+00 0. -1.
         -2   -1    0    0    0  501 -0.00000000000E+00 -0.00000000000E+00 -0.63580768469E+03  0.63580768469E+03  0.00000000000E+00 0.  1.
         23    2    1    2    0    0  0.33734836470E+03  0.37897599482E+03  0.11970287653E+04  0.13036655579E+04  0.96121266639E+02 0.  0.
        254    2    1    2    0    0 -0.33734836470E+03 -0.37897599482E+03 -0.12320490941E+03  0.10417736674E+04  0.90149109848E+03 0.  0.
        -24    2    4    4    0    0  0.29295254891E+03 -0.22603520623E+03 -0.82452420257E+02  0.38693500504E+03  0.77506039482E+02 0.  0.
         24    2    4    4    0    0 -0.63030091361E+03 -0.15294078860E+03 -0.40752489157E+02  0.65483866239E+03  0.80515724383E+02 0.  0.
         11    1    3    3    0    0  0.30302703325E+03  0.34823076493E+03  0.11427605940E+04  0.12324738633E+04  0.00000000000E+00 0. -1.
        -11    1    3    3    0    0  0.34321331454E+02  0.30745229891E+02  0.54268171310E+02  0.71191694538E+02  0.00000000000E+00 0.  1.
          2    1    6    6  502    0 -0.17071786730E+03 -0.25630342058E+02 -0.43149830130E+02  0.17794216052E+03  0.00000000000E+00 0. -1.
          1    1    5    5  503    0  0.14169711513E+03 -0.15489347399E+03 -0.32127746618E+02  0.21237290982E+03  0.00000000000E+00 0. -1.
         -2    1    5    5    0  503  0.15125543378E+03 -0.71141732232E+02 -0.50324673639E+02  0.17456209522E+03  0.00000000000E+00 0.  1.
         -1    1    6    6    0  502 -0.45958304632E+03 -0.12731044654E+03  0.23973409724E+01  0.47689650188E+03  0.00000000000E+00 0.  1.
<mgrwt>
<rscale>  0 0.20851828E+04</rscale>
<asrwt>0</asrwt>
<pdfrwt beam="1">  1        2 0.26302024E+00 0.20851828E+04</pdfrwt>
<pdfrwt beam="2">  1       -2 0.97816567E-01 0.20851828E+04</pdfrwt>
<totfact> 0.77778831E+00</totfact>
</mgrwt>
</event>
<event>
12    1  0.2019083E-007  0.1395806E+04  0.7818608E-02  0.8956860E-01
         -2   -1    0    0    0  501 -0.00000000000E+00  0.00000000000E+00  0.46373751811E+03  0.46373751811E+03  0.00000000000E+00 0. -1.
          2   -1    0    0  501    0  0.00000000000E+00 -0.00000000000E+00 -0.10503102267E+04  0.10503102267E+04  0.00000000000E+00 0.  1.
         23    2    1    2    0    0 -0.32950010255E+03  0.11576156417E+02  0.71740377623E+02  0.34971884532E+03  0.91936195321E+02 0.  0.
        254    2    1    2    0    0  0.32950010255E+03 -0.11576156417E+02 -0.65831308622E+03  0.11643288995E+04  0.90198743991E+03 0.  0.
        -24    2    4    4    0    0  0.63783894151E+03 -0.36534255254E+01 -0.43612760214E+03  0.77659699039E+03  0.77741477398E+02 0.  0.
         24    2    4    4    0    0 -0.30833883896E+03 -0.79227308917E+01 -0.22218548408E+03  0.38773190912E+03  0.76380853202E+02 0.  0.
         13    1    3    3    0    0 -0.11877366220E+03  0.27357503304E+01  0.71782510219E+02  0.13880704569E+03  0.00000000000E+00 0. -1.
        -13    1    3    3    0    0 -0.21072644036E+03  0.88404060867E+01 -0.42132596410E-01  0.21091179962E+03  0.00000000000E+00 0.  1.
          2    1    6    6  502    0 -0.16782595292E+03 -0.48605359527E+00 -0.74102955173E+02  0.18345853670E+03  0.00000000000E+00 0. -1.
          3    1    5    5  503    0 -0.18791498464E+01 -0.49564390853E+00 -0.44311374996E+01  0.48385789825E+01  0.00000000000E+00 0. -1.
         -4    1    5    5    0  503  0.63971809136E+03 -0.31577816168E+01 -0.43169646464E+03  0.77175841141E+03  0.00000000000E+00 0.  1.
         -1    1    6    6    0  502 -0.14051288604E+03 -0.74366772964E+01 -0.14808252890E+03  0.20427337242E+03  0.00000000000E+00 0.  1.
<mgrwt>
<rscale>  0 0.13958055E+04</rscale>
<asrwt>0</asrwt>
<pdfrwt beam="1">  1        2 0.16158619E+00 0.13958055E+04</pdfrwt>
<pdfrwt beam="2">  1       -2 0.71344234E-01 0.13958055E+04</pdfrwt>
<totfact> 0.40626118E+01</totfact>
</mgrwt>
</event>
<event>
12    1  0.2019083E-007  0.3051322E+04  0.7818608E-02  0.8229225E-01
          1   -1    0    0  501    0  0.00000000000E+00  0.00000000000E+00  0.11966746928E+04  0.11966746928E+04  0.00000000000E+00 0. -1.
         -1   -1    0    0    0  501 -0.00000000000E+00 -0.00000000000E+00 -0.19450917720E+04  0.19450917720E+04  0.00000000000E+00 0.  1.
         23    2    1    2    0    0  0.13692375208E+04  0.17547111268E+03 -0.51617624672E+03  0.14765439225E+04  0.90236011170E+02 0.  0.
        254    2    1    2    0    0 -0.13692375208E+04 -0.17547111268E+03 -0.23224083251E+03  0.16652225423E+04  0.90190288349E+03 0.  0.
        -24    2    4    4    0    0 -0.12007291813E+03 -0.46296241468E+02 -0.36970178216E+03  0.39942245771E+03  0.79360218898E+02 0.  0.
         24    2    4    4    0    0 -0.12491646027E+04 -0.12917487121E+03  0.13746094965E+03  0.12658000846E+04  0.79094813242E+02 0.  0.
         11    1    3    3    0    0  0.82409928842E+03  0.65280377552E+02 -0.28836185687E+03  0.87553053937E+03  0.00000000000E+00 0. -1.
        -11    1    3    3    0    0  0.54513823238E+03  0.11019073512E+03 -0.22781438985E+03  0.60101338315E+03  0.00000000000E+00 0.  1.
          2    1    6    6  502    0 -0.11521256492E+04 -0.10051398688E+03  0.13724348926E+03  0.11646168247E+04  0.00000000000E+00 0. -1.
          1    1    5    5  503    0  0.19709538856E+01 -0.50474343483E+01 -0.10395705057E+03  0.10409817297E+03  0.00000000000E+00 0. -1.
         -2    1    5    5    0  503 -0.12204387201E+03 -0.41248807120E+02 -0.26574473160E+03  0.29532428474E+03  0.00000000000E+00 0.  1.
         -1    1    6    6    0  502 -0.97038953479E+02 -0.28660884325E+02  0.21746039187E+00  0.10118325984E+03  0.00000000000E+00 0.  1.
<mgrwt>
<rscale>  0 0.30513224E+04</rscale>
<asrwt>0</asrwt>
<pdfrwt beam="1">  1        1 0.18410380E+00 0.30513224E+04</pdfrwt>
<pdfrwt beam="2">  1       -1 0.29924488E+00 0.30513224E+04</pdfrwt>
<totfact> 0.30407333E-01</totfact>
</mgrwt>
</event>
<event>
12    1  0.2019083E-007  0.2074196E+04  0.7818608E-02  0.8572696E-01
          1   -1    0    0  501    0  0.00000000000E+00  0.00000000000E+00  0.47339732452E+03  0.47339732452E+03  0.00000000000E+00 0. -1.
         -1   -1    0    0    0  501 -0.00000000000E+00 -0.00000000000E+00 -0.22720282275E+04  0.22720282275E+04  0.00000000000E+00 0.  1.
         23    2    1    2    0    0 -0.56520679776E+02  0.82456989415E+03 -0.93529669530E+03  0.12519128510E+04  0.96931834943E+02 0.  0.
        254    2    1    2    0    0  0.56520679776E+02 -0.82456989415E+03 -0.86333420763E+03  0.14935127010E+04  0.89561383218E+03 0.  0.
        -24    2    4    4    0    0 -0.11719620079E+03 -0.96063571690E+03 -0.77535304050E+03  0.12426223253E+04  0.79887269437E+02 0.  0.
         24    2    4    4    0    0  0.17371688057E+03  0.13606582275E+03 -0.87981167134E+02  0.25089037571E+03  0.80708315186E+02 0.  0.
         13    1    3    3    0    0 -0.89784610254E+01  0.67542366432E+03 -0.75006570676E+03  0.10093940279E+04  0.00000000000E+00 0. -1.
        -13    1    3    3    0    0 -0.47542218751E+02  0.14914622984E+03 -0.18523098854E+03  0.24251882309E+03  0.00000000000E+00 0.  1.
          2    1    6    6  502    0  0.41416622236E+02  0.65417580090E+02 -0.60846382044E+02  0.98473745690E+02  0.00000000000E+00 0. -1.
          3    1    5    5  503    0 -0.23898959517E+02 -0.52230590636E+03 -0.41129819523E+03  0.66523742039E+03  0.00000000000E+00 0. -1.
         -4    1    5    5    0  503 -0.93297241278E+02 -0.43832981054E+03 -0.36405484527E+03  0.57738490490E+03  0.00000000000E+00 0.  1.
         -1    1    6    6    0  502  0.13230025833E+03  0.70648242658E+02 -0.27134785089E+02  0.15241663002E+03  0.00000000000E+00 0.  1.
<mgrwt>
<rscale>  0 0.20741958E+04</rscale>
<asrwt>0</asrwt>
<pdfrwt beam="1">  1        1 0.72830357E-01 0.20741958E+04</pdfrwt>
<pdfrwt beam="2">  1       -1 0.34954281E+00 0.20741958E+04</pdfrwt>
<totfact> 0.69005893E-01</totfact>
</mgrwt>
</event>
<event>
12    1  0.2019083E-007  0.2600074E+04  0.7818608E-02  0.8368176E-01
          3   -1    0    0  501    0  0.00000000000E+00  0.00000000000E+00  0.13101155368E+04  0.13101155368E+04  0.00000000000E+00 0. -1.
         -3   -1    0    0    0  501 -0.00000000000E+00 -0.00000000000E+00 -0.12900362900E+04  0.12900362900E+04  0.00000000000E+00 0.  1.
         23    2    1    2    0    0  0.80019176213E+03 -0.36152222255E+03 -0.72266550188E+03  0.11407416688E+04  0.89671365422E+02 0.  0.
        254    2    1    2    0    0 -0.80019176213E+03  0.36152222255E+03  0.74274474863E+03  0.14594101580E+04  0.89844480853E+03 0.  0.
        -24    2    4    4    0    0 -0.20035629952E+02  0.11671450128E+03 -0.17605572666E+03  0.22646855950E+03  0.79175048318E+02 0.  0.
         24    2    4    4    0    0 -0.78015613217E+03  0.24480772127E+03  0.91880047529E+03  0.12329415985E+04  0.85885160891E+02 0.  0.
         13    1    3    3    0    0  0.39438905803E+03 -0.14882749968E+03 -0.29994803554E+03  0.51735981462E+03  0.00000000000E+00 0. -1.
        -13    1    3    3    0    0  0.40580270409E+03 -0.21269472287E+03 -0.42271746633E+03  0.62338185419E+03  0.00000000000E+00 0.  1.
          2    1    6    6  502    0 -0.39427956391E+03  0.11967301862E+03  0.39881197239E+03  0.57343613003E+03  0.00000000000E+00 0. -1.
          3    1    5    5  503    0  0.42398022662E+01 -0.44092440656E+01  0.45731391198E+01  0.76374706478E+01  0.00000000000E+00 0. -1.
         -4    1    5    5    0  503 -0.24275432218E+02  0.12112374534E+03 -0.18062886578E+03  0.21883108885E+03  0.00000000000E+00 0.  1.
         -1    1    6    6    0  502 -0.38587656826E+03  0.12513470266E+03  0.51998850290E+03  0.65950546843E+03  0.00000000000E+00 0.  1.
<mgrwt>
<rscale>  0 0.26000743E+04</rscale>
<asrwt>0</asrwt>
<pdfrwt beam="1">  1        3 0.20155624E+00 0.26000743E+04</pdfrwt>
<pdfrwt beam="2">  1       -3 0.19846712E+00 0.26000743E+04</pdfrwt>
<totfact> 0.49635231E-02</totfact>
</mgrwt>
</event>
<event>
12    1  0.2019083E-007  0.1640312E+04  0.7818608E-02  0.8796158E-01
          4   -1    0    0  501    0  0.00000000000E+00  0.00000000000E+00  0.68173747350E+03  0.68173747350E+03  0.00000000000E+00 0. -1.
         -4   -1    0    0    0  501 -0.00000000000E+00 -0.00000000000E+00 -0.98667914745E+03  0.98667914745E+03  0.00000000000E+00 0.  1.
         23    2    1    2    0    0 -0.50081520764E+03 -0.25267161224E+03 -0.77542290420E+01  0.56804097718E+03  0.89171788471E+02 0.  0.
        254    2    1    2    0    0  0.50081520764E+03  0.25267161224E+03 -0.29718744491E+03  0.11003756438E+04  0.89880329560E+03 0.  0.
        -24    2    4    4    0    0  0.24219995066E+03  0.54278462607E+01 -0.58251497177E+03  0.63594470879E+03  0.80073108397E+02 0.  0.
         24    2    4    4    0    0  0.25861525698E+03  0.24724376597E+03  0.28532752686E+03  0.46443093499E+03  0.79202050713E+02 0.  0.
         13    1    3    3    0    0 -0.26512517821E+03 -0.12274555290E+03 -0.47486568413E+02  0.29599460309E+03  0.00000000000E+00 0.  1.
        -13    1    3    3    0    0 -0.23569002943E+03 -0.12992605933E+03  0.39732339371E+02  0.27204637409E+03  0.00000000000E+00 0. -1.
          2    1    6    6  502    0  0.27526965646E+02  0.67189070329E+02  0.69982113008E+02  0.10084444035E+03  0.00000000000E+00 0. -1.
          1    1    5    5  503    0  0.26785275986E+02  0.24768535125E+02 -0.57142252246E+02  0.67795046527E+02  0.00000000000E+00 0. -1.
         -2    1    5    5    0  503  0.21541467467E+03 -0.19340688864E+02 -0.52537271952E+03  0.56814966226E+03  0.00000000000E+00 0.  1.
         -1    1    6    6    0  502  0.23108829133E+03  0.18005469565E+03  0.21534541385E+03  0.36358649463E+03  0.00000000000E+00 0.  1.
<mgrwt>
<rscale>  0 0.16403123E+04</rscale>
<asrwt>0</asrwt>
<pdfrwt beam="1">  1        4 0.10488269E+00 0.16403123E+04</pdfrwt>
<pdfrwt beam="2">  1       -4 0.15179679E+00 0.16403123E+04</pdfrwt>
<totfact> 0.40623405E-01</totfact>
</mgrwt>
</event>
<event>
12    1  0.2019083E-007  0.4112663E+04  0.7818608E-02  0.7982197E-01
         -2   -1    0    0    0  501 -0.00000000000E+00  0.00000000000E+00  0.10124901354E+04  0.10124901354E+04  0.00000000000E+00 0. -1.
          2   -1    0    0  501    0  0.00000000000E+00 -0.00000000000E+00 -0.41763357360E+04  0.41763357360E+04  0.00000000000E+00 0.  1.
         23    2    1    2    0    0  0.89864169949E+03  0.14887688424E+04 -0.26401365859E+04  0.31627667183E+04  0.93715270338E+02 0.  0.
        254    2    1    2    0    0 -0.89864169949E+03 -0.14887688424E+04 -0.52370901463E+03  0.20260591531E+04  0.89813973846E+03 0.  0.
        -24    2    4    4    0    0 -0.30867981801E+02 -0.70898033274E+02 -0.33283572073E+03  0.35087823235E+03  0.79727997108E+02 0.  0.
         24    2    4    4    0    0 -0.86777371769E+03 -0.14178708091E+04 -0.19087329390E+03  0.16751809208E+04  0.80060268145E+02 0.  0.
         11    1    3    3    0    0  0.69467775962E+03  0.11989111049E+04 -0.20494548063E+04  0.24739098670E+04  0.00000000000E+00 0. -1.
        -11    1    3    3    0    0  0.20396393986E+03  0.28985773752E+03 -0.59068177958E+03  0.68885685124E+03  0.00000000000E+00 0.  1.
          4    1    6    6  502    0 -0.71264586743E+03 -0.11463945526E+04 -0.18490468432E+03  0.13624515936E+04  0.00000000000E+00 0. -1.
          3    1    5    5  503    0  0.24156813786E+02 -0.30324987679E+02 -0.16823037373E+03  0.17264013199E+03  0.00000000000E+00 0. -1.
         -4    1    5    5    0  503 -0.55024795587E+02 -0.40573045595E+02 -0.16460534700E+03  0.17823810036E+03  0.00000000000E+00 0.  1.
         -3    1    6    6    0  502 -0.15512785026E+03 -0.27147625651E+03 -0.59686095785E+01  0.31272932717E+03  0.00000000000E+00 0.  1.
<mgrwt>
<rscale>  0 0.41126628E+04</rscale>
<asrwt>0</asrwt>
<pdfrwt beam="1">  1        2 0.64251318E+00 0.41126628E+04</pdfrwt>
<pdfrwt beam="2">  1       -2 0.15576771E+00 0.41126628E+04</pdfrwt>
<totfact> 0.51368231E-02</totfact>
</mgrwt>
</event>
<event>
12    1  0.2019083E-007  0.1877217E+04  0.7818608E-02  0.8666281E-01
         -2   -1    0    0    0  501 -0.00000000000E+00  0.00000000000E+00  0.34295690520E+03  0.34295690520E+03  0.00000000000E+00 0. -1.
          2   -1    0    0  501    0  0.00000000000E+00 -0.00000000000E+00 -0.25687943839E+04  0.25687943839E+04  0.00000000000E+00 0.  1.
         23    2    1    2    0    0 -0.17881173490E+03  0.59834122179E+03 -0.30462718165E+03  0.70059722518E+03  0.89737940154E+02 0.  0.
        254    2    1    2    0    0  0.17881173490E+03 -0.59834122179E+03 -0.19212102971E+04  0.22111540640E+04  0.89898133168E+03 0.  0.
        -24    2    4    4    0    0 -0.11999383628E+03 -0.35596803049E+03 -0.17333511523E+04  0.17754708938E+04  0.81724646624E+02 0.  0.
         24    2    4    4    0    0  0.29880557118E+03 -0.24237319129E+03 -0.18785914477E+03  0.43568317020E+03  0.80617822444E+02 0.  0.
         11    1    3    3    0    0 -0.32966986187E+02  0.13124354081E+03 -0.10838883134E+03  0.17337770313E+03  0.00000000000E+00 0.  1.
        -11    1    3    3    0    0 -0.14584474872E+03  0.46709768097E+03 -0.19623835031E+03  0.52721952205E+03  0.00000000000E+00 0. -1.
          4    1    6    6  502    0  0.11467146013E+03 -0.14473025254E+03 -0.90841520533E+02  0.20578768579E+03  0.00000000000E+00 0. -1.
          1    1    5    5  503    0 -0.26310851086E+02 -0.36033783342E+02 -0.33354010090E+03  0.33651105976E+03  0.00000000000E+00 0. -1.
         -2    1    5    5    0  503 -0.93682985194E+02 -0.31993424715E+03 -0.13998110514E+04  0.14389598340E+04  0.00000000000E+00 0.  1.
         -3    1    6    6    0  502  0.18413411105E+03 -0.97642938747E+02 -0.97017624240E+02  0.22989548441E+03  0.00000000000E+00 0.  1.
<mgrwt>
<rscale>  0 0.18772168E+04</rscale>
<asrwt>0</asrwt>
<pdfrwt beam="1">  1        2 0.39519912E+00 0.18772168E+04</pdfrwt>
<pdfrwt beam="2">  1       -2 0.52762602E-01 0.18772168E+04</pdfrwt>
<totfact> 0.10103356E+01</totfact>
</mgrwt>
</event>
<event>
12    1  0.2019083E-007  0.2029489E+04  0.7818608E-02  0.8592957E-01
         -2   -1    0    0    0  501 -0.00000000000E+00  0.00000000000E+00  0.32930419431E+03  0.32930419431E+03  0.00000000000E+00 0.  1.
          2   -1    0    0  501    0  0.00000000000E+00 -0.00000000000E+00 -0.31269143546E+04  0.31269143546E+04  0.00000000000E+00 0. -1.
         23    2    1    2    0    0 -0.68759854766E+03 -0.16643209859E+03 -0.44857214800E+03  0.84264115120E+03  0.91300227570E+02 0.  0.
        254    2    1    2    0    0  0.68759854766E+03  0.16643209859E+03 -0.23490380123E+04  0.26135773978E+04  0.90128565089E+03 0.  0.
        -24    2    4    4    0    0  0.18799974837E+03  0.15213786885E+03 -0.47346442533E+02  0.25690562757E+03  0.72587735394E+02 0.  0.
         24    2    4    4    0    0  0.49959879929E+03  0.14294229737E+02 -0.23016915698E+04  0.23566717702E+04  0.79463605838E+02 0.  0.
         13    1    3    3    0    0 -0.34043469570E+03 -0.10387361589E+03 -0.27323803126E+03  0.44871430982E+03  0.00000000000E+00 0. -1.
        -13    1    3    3    0    0 -0.34716385196E+03 -0.62558482703E+02 -0.17533411674E+03  0.39392684138E+03  0.00000000000E+00 0.  1.
          4    1    6    6  502    0  0.46891102549E+03  0.13340505556E+02 -0.20429795259E+04  0.20961442847E+04  0.00000000000E+00 0. -1.
          3    1    5    5  503    0  0.19438770129E+03  0.14308785438E+03 -0.46360155409E+02  0.24578441060E+03  0.00000000000E+00 0. -1.
         -4    1    5    5    0  503 -0.63879529238E+01  0.90500144757E+01 -0.98628712347E+00  0.11121216968E+02  0.00000000000E+00 0.  1.
         -3    1    6    6    0  502  0.30687773802E+02  0.95372418142E+00 -0.25871204387E+03  0.26052748548E+03  0.00000000000E+00 0.  1.
<mgrwt>
<rscale>  0 0.20294886E+04</rscale>
<asrwt>0</asrwt>
<pdfrwt beam="1">  1        2 0.48106373E+00 0.20294886E+04</pdfrwt>
<pdfrwt beam="2">  1       -2 0.50662185E-01 0.20294886E+04</pdfrwt>
<totfact> 0.49518739E+00</totfact>
</mgrwt>
</event>
<event>
12    1  0.2019083E-007  0.1894106E+04  0.7818608E-02  0.8657796E-01
          2   -1    0    0  501    0  0.00000000000E+00  0.00000000000E+00  0.87558249708E+03  0.87558249708E+03  0.00000000000E+00 0. -1.
         -2   -1    0    0    0  501 -0.00000000000E+00 -0.00000000000E+00 -0.10243576013E+04  0.10243576013E+04  0.00000000000E+00 0.  1.
         23    2    1    2    0    0  0.71201421669E+03  0.31388989815E+02  0.10326601808E+03  0.72606244876E+03  0.92484028651E+02 0.  0.
        254    2    1    2    0    0 -0.71201421669E+03 -0.31388989815E+02 -0.25204112233E+03  0.11738776497E+04  0.89806152102E+03 0.  0.
        -24    2    4    4    0    0 -0.85669443871E+03  0.14722294437E+03 -0.81477516081E+02  0.87672284907E+03  0.80027568948E+02 0.  0.
         24    2    4    4    0    0  0.14468022201E+03 -0.17861193419E+03 -0.17056360625E+03  0.29715480058E+03  0.79840103043E+02 0.  0.
         13    1    3    3    0    0  0.46788829222E+03  0.20653803615E+02  0.23200825854E+02  0.46891823586E+03  0.00000000000E+00 0. -1.
        -13    1    3    3    0    0  0.24412592447E+03  0.10735186200E+02  0.80065192228E+02  0.25714421290E+03  0.00000000000E+00 0.  1.
          4    1    6    6  502    0  0.13709450606E+03 -0.17317444619E+03 -0.13163429447E+03  0.25712230531E+03  0.00000000000E+00 0. -1.
          1    1    5    5  503    0 -0.65609674676E+03  0.14337439977E+03 -0.77628898529E+02  0.67605133349E+03  0.00000000000E+00 0. -1.
         -2    1    5    5    0  503 -0.20059769194E+03  0.38485446003E+01 -0.38486175514E+01  0.20067151558E+03  0.00000000000E+00 0.  1.
         -3    1    6    6    0  502  0.75857159533E+01 -0.54374880002E+01 -0.38929311780E+02  0.40032495275E+02  0.00000000000E+00 0.  1.
<mgrwt>
<rscale>  0 0.18941062E+04</rscale>
<asrwt>0</asrwt>
<pdfrwt beam="1">  1        2 0.13470500E+00 0.18941062E+04</pdfrwt>
<pdfrwt beam="2">  1       -2 0.15759348E+00 0.18941062E+04</pdfrwt>
<totfact> 0.74914511E+00</totfact>
</mgrwt>
</event>
<event>
12    1  0.2019083E-007  0.2810170E+04  0.7818608E-02  0.8300118E-01
         -2   -1    0    0    0  501 -0.00000000000E+00  0.00000000000E+00  0.12511231535E+04  0.12511231535E+04  0.00000000000E+00 0.  1.
          2   -1    0    0  501    0  0.00000000000E+00 -0.00000000000E+00 -0.15779936014E+04  0.15779936014E+04  0.00000000000E+00 0. -1.
         23    2    1    2    0    0  0.11233295217E+04  0.51646745584E+03 -0.38379315309E+03  0.12977924170E+04  0.91433724843E+02 0.  0.
        254    2    1    2    0    0 -0.11233295217E+04 -0.51646745584E+03  0.56922705146E+02  0.15313243378E+04  0.90172400764E+03 0.  0.
        -24    2    4    4    0    0 -0.47091225766E+03 -0.48770156956E+03  0.39811783559E+03  0.79019754142E+03  0.79392493892E+02 0.  0.
         24    2    4    4    0    0 -0.65241726406E+03 -0.28765886285E+02 -0.34119513044E+03  0.74112679641E+03  0.79868946777E+02 0.  0.
         11    1    3    3    0    0  0.10299265775E+04  0.48070557527E+03 -0.32660102491E+03  0.11825797371E+04  0.00000000000E+00 0.  1.
        -11    1    3    3    0    0  0.93402944252E+02  0.35761880569E+02 -0.57192128182E+02  0.11521267996E+03  0.00000000000E+00 0. -1.
          4    1    6    6  502    0 -0.51142045262E+03 -0.35496869578E+02 -0.30045095293E+03  0.59420676724E+03  0.00000000000E+00 0. -1.
          3    1    5    5  503    0 -0.42427977741E+03 -0.46767772044E+03  0.37518973040E+03  0.73450875659E+03  0.00000000000E+00 0. -1.
         -4    1    5    5    0  503 -0.46632480252E+02 -0.20023849122E+02  0.22928105187E+02  0.55688784828E+02  0.00000000000E+00 0.  1.
         -3    1    6    6    0  502 -0.14099681143E+03  0.67309832938E+01 -0.40744177516E+02  0.14692002917E+03  0.00000000000E+00 0.  1.
<mgrwt>
<rscale>  0 0.28101703E+04</rscale>
<asrwt>0</asrwt>
<pdfrwt beam="1">  1        2 0.24276825E+00 0.28101703E+04</pdfrwt>
<pdfrwt beam="2">  1       -2 0.19248049E+00 0.28101703E+04</pdfrwt>
<totfact> 0.14883002E+00</totfact>
</mgrwt>
</event>
<event>
12    1  0.2019083E-007  0.2314218E+04  0.7818608E-02  0.8472336E-01
         -2   -1    0    0    0  501 -0.00000000000E+00  0.00000000000E+00  0.76047371454E+03  0.76047371454E+03  0.00000000000E+00 0. -1.
          2   -1    0    0  501    0  0.00000000000E+00 -0.00000000000E+00 -0.17606154458E+04  0.17606154458E+04  0.00000000000E+00 0.  1.
         23    2    1    2    0    0  0.25052877240E+03 -0.21362766655E+02  0.60767814334E+03  0.66391193729E+03  0.91023628712E+02 0.  0.
        254    2    1    2    0    0 -0.25052877240E+03  0.21362766655E+02 -0.16078198746E+04  0.18571772230E+04  0.89487510583E+03 0.  0.
        -24    2    4    4    0    0 -0.98176042860E+02  0.17990218847E+03 -0.16066581659E+04  0.16215241256E+04  0.77373735703E+02 0.  0.
         24    2    4    4    0    0 -0.15235272954E+03 -0.15853942182E+03 -0.11617086885E+01  0.23565309745E+03  0.84763968182E+02 0.  0.
         11    1    3    3    0    0  0.11720145371E+03  0.65367518619E+01  0.17851645779E+03  0.21365166879E+03  0.00000000000E+00 0.  1.
        -11    1    3    3    0    0  0.13332731869E+03 -0.27899518516E+02  0.42916168555E+03  0.45026026850E+03  0.00000000000E+00 0. -1.
          2    1    6    6  502    0  0.22958363036E+01 -0.41754570760E+02  0.14892543252E+01  0.41844150394E+02  0.00000000000E+00 0. -1.
          1    1    5    5  503    0 -0.57043608713E+02  0.46142178969E+02 -0.74151048386E+03  0.74513144589E+03  0.00000000000E+00 0. -1.
         -2    1    5    5    0  503 -0.41132434147E+02  0.13376000950E+03 -0.86514768206E+03  0.87639267971E+03  0.00000000000E+00 0.  1.
         -1    1    6    6    0  502 -0.15464856585E+03 -0.11678485106E+03 -0.26509630137E+01  0.19380894706E+03  0.00000000000E+00 0.  1.
<mgrwt>
<rscale>  0 0.23142185E+04</rscale>
<asrwt>0</asrwt>
<pdfrwt beam="1">  1        2 0.27086391E+00 0.23142185E+04</pdfrwt>
<pdfrwt beam="2">  1       -2 0.11699596E+00 0.23142185E+04</pdfrwt>
<totfact> 0.46459902E+00</totfact>
</mgrwt>
</event>
<event>
12    1  0.2019083E-007  0.4032402E+04  0.7818608E-02  0.7998042E-01
         -1   -1    0    0    0  501 -0.00000000000E+00  0.00000000000E+00  0.27394642518E+04  0.27394642518E+04  0.00000000000E+00 0.  1.
          1   -1    0    0  501    0  0.00000000000E+00 -0.00000000000E+00 -0.14838914068E+04  0.14838914068E+04  0.00000000000E+00 0. -1.
         23    2    1    2    0    0  0.17115778553E+04  0.11845349161E+03 -0.29295954819E+03  0.17431603077E+04  0.96190316982E+02 0.  0.
        254    2    1    2    0    0 -0.17115778553E+04 -0.11845349161E+03  0.15485323932E+04  0.24801953509E+04  0.89993689852E+03 0.  0.
        -24    2    4    4    0    0 -0.16172402687E+04 -0.15353526535E+03  0.16497486430E+04  0.23167197574E+04  0.80502701216E+02 0.  0.
         24    2    4    4    0    0 -0.94337586596E+02  0.35081773741E+02 -0.10121624975E+03  0.16347559350E+03  0.79682051692E+02 0.  0.
         13    1    3    3    0    0  0.94346760951E+03  0.27381716626E+02 -0.19074025230E+03  0.96294482316E+03  0.00000000000E+00 0. -1.
        -13    1    3    3    0    0  0.76811024578E+03  0.91071774983E+02 -0.10221929589E+03  0.78021548455E+03  0.00000000000E+00 0.  1.
          2    1    6    6  502    0  0.83874373672E+01 -0.12373749364E+01  0.61765879208E+01  0.10489539583E+02  0.00000000000E+00 0. -1.
          3    1    5    5  503    0 -0.10055439864E+04 -0.10085797226E+03  0.97070845609E+03  0.14012729734E+04  0.00000000000E+00 0. -1.
         -4    1    5    5    0  503 -0.61169628225E+03 -0.52677293091E+02  0.67904018691E+03  0.91544678402E+03  0.00000000000E+00 0.  1.
         -1    1    6    6    0  502 -0.10272502396E+03  0.36319148678E+02 -0.10739283767E+03  0.15298605391E+03  0.00000000000E+00 0.  1.
<mgrwt>
<rscale>  0 0.40324025E+04</rscale>
<asrwt>0</asrwt>
<pdfrwt beam="1">  1        1 0.22829099E+00 0.40324025E+04</pdfrwt>
<pdfrwt beam="2">  1       -1 0.42145604E+00 0.40324025E+04</pdfrwt>
<totfact> 0.26678926E-02</totfact>
</mgrwt>
</event>
<event>
12    1  0.2019083E-007  0.1892573E+04  0.7818608E-02  0.8658562E-01
          2   -1    0    0  501    0  0.00000000000E+00  0.00000000000E+00  0.85470024963E+03  0.85470024963E+03  0.00000000000E+00 0. -1.
         -2   -1    0    0    0  501 -0.00000000000E+00 -0.00000000000E+00 -0.10476864523E+04  0.10476864523E+04  0.00000000000E+00 0.  1.
         23    2    1    2    0    0 -0.28440899242E+03 -0.64278870913E+03  0.12466756601E+03  0.71971497690E+03  0.91552424387E+02 0.  0.
        254    2    1    2    0    0  0.28440899242E+03  0.64278870913E+03 -0.31765376871E+03  0.11826717251E+04  0.89651697859E+03 0.  0.
        -24    2    4    4    0    0  0.43136487721E+03  0.64091277394E+03  0.50786724213E+02  0.77806491382E+03  0.77206720362E+02 0.  0.
         24    2    4    4    0    0 -0.14695588478E+03  0.18759351868E+01 -0.36844049293E+03  0.40460681123E+03  0.79741605603E+02 0.  0.
         13    1    3    3    0    0 -0.19269812787E+03 -0.48028511439E+03  0.12797487265E+03  0.53308904286E+03  0.00000000000E+00 0. -1.
        -13    1    3    3    0    0 -0.91710864555E+02 -0.16250359474E+03 -0.33073066407E+01  0.18662593405E+03  0.00000000000E+00 0.  1.
          2    1    6    6  502    0 -0.29229392782E+02  0.42196875996E+01 -0.17248492493E+02  0.34200492089E+02  0.00000000000E+00 0. -1.
          1    1    5    5  503    0  0.13984151197E+03  0.25848147574E+03 -0.52903016866E+01  0.29393249065E+03  0.00000000000E+00 0. -1.
         -2    1    5    5    0  503  0.29152336524E+03  0.38243129820E+03  0.56077025900E+02  0.48413242316E+03  0.00000000000E+00 0.  1.
         -1    1    6    6    0  502 -0.11772649200E+03 -0.23437524128E+01 -0.35119200043E+03  0.37040631914E+03  0.00000000000E+00 0.  1.
<mgrwt>
<rscale>  0 0.18925727E+04</rscale>
<asrwt>0</asrwt>
<pdfrwt beam="1">  1        2 0.13149235E+00 0.18925727E+04</pdfrwt>
<pdfrwt beam="2">  1       -2 0.16118253E+00 0.18925727E+04</pdfrwt>
<totfact> 0.72850283E+00</totfact>
</mgrwt>
</event>
<event>
12    1  0.2019083E-007  0.1111233E+04  0.7818608E-02  0.9194312E-01
          3   -1    0    0  501    0  0.00000000000E+00  0.00000000000E+00  0.23001313699E+04  0.23001313699E+04  0.00000000000E+00 0. -1.
         -3   -1    0    0    0  501 -0.00000000000E+00 -0.00000000000E+00 -0.13421386513E+03  0.13421386513E+03  0.00000000000E+00 0.  1.
         23    2    1    2    0    0 -0.16480488235E+03  0.20487395662E+02  0.29759030433E+03  0.35363519207E+03  0.94432394936E+02 0.  0.
        254    2    1    2    0    0  0.16480488235E+03 -0.20487395662E+02  0.18683272004E+04  0.20807100429E+04  0.90062610016E+03 0.  0.
        -24    2    4    4    0    0 -0.16707381239E+03 -0.15337167003E+03  0.78306980350E+02  0.25320421138E+03  0.80894137813E+02 0.  0.
         24    2    4    4    0    0  0.33187869474E+03  0.13288427437E+03  0.17900202201E+04  0.18275058315E+04  0.88337295024E+02 0.  0.
         11    1    3    3    0    0  0.81582929525E+01  0.29450271308E+01  0.52120191696E+02  0.52836969171E+02  0.00000000000E+00 0. -1.
        -11    1    3    3    0    0 -0.17296317530E+03  0.17542368531E+02  0.24547011264E+03  0.30079822290E+03  0.00000000000E+00 0.  1.
          4    1    6    6  502    0  0.25945717874E+03  0.11478655542E+03  0.12164019285E+04  0.12490506926E+04  0.00000000000E+00 0. -1.
          3    1    5    5  503    0 -0.13076410826E+03 -0.13398413823E+03  0.93575433180E+02  0.20930208551E+03  0.00000000000E+00 0. -1.
         -4    1    5    5    0  503 -0.36309704136E+02 -0.19387531808E+02 -0.15268452829E+02  0.43902125870E+02  0.00000000000E+00 0.  1.
         -3    1    6    6    0  502  0.72421515999E+02  0.18097718953E+02  0.57361829152E+03  0.57845513895E+03  0.00000000000E+00 0.  1.
<mgrwt>
<rscale>  0 0.11112327E+04</rscale>
<asrwt>0</asrwt>
<pdfrwt beam="1">  1        3 0.35386634E+00 0.11112327E+04</pdfrwt>
<pdfrwt beam="2">  1       -3 0.20648289E-01 0.11112327E+04</pdfrwt>
<totfact> 0.11285359E+00</totfact>
</mgrwt>
</event>
<event>
12    1  0.2019083E-007  0.1975957E+04  0.7818608E-02  0.8617945E-01
         -1   -1    0    0    0  501 -0.00000000000E+00  0.00000000000E+00  0.35866876779E+03  0.35866876779E+03  0.00000000000E+00 0. -1.
          1   -1    0    0  501    0  0.00000000000E+00 -0.00000000000E+00 -0.27214556373E+04  0.27214556373E+04  0.00000000000E+00 0.  1.
         23    2    1    2    0    0 -0.35511922822E+03  0.68145805295E+03 -0.74371128286E+03  0.10740295495E+04  0.99690805576E+02 0.  0.
        254    2    1    2    0    0  0.35511922822E+03 -0.68145805295E+03 -0.16190755867E+04  0.20060948556E+04  0.90139673301E+03 0.  0.
        -24    2    4    4    0    0  0.65041739144E+03 -0.52394197407E+03 -0.11736092294E+04  0.14432581111E+04  0.89874226423E+02 0.  0.
         24    2    4    4    0    0 -0.29529816322E+03 -0.15751607888E+03 -0.44546635722E+03  0.56283674452E+03  0.79577668142E+02 0.  0.
         13    1    3    3    0    0 -0.26447719062E+03  0.51466922347E+03 -0.49732018617E+03  0.76299407698E+03  0.00000000000E+00 0. -1.
        -13    1    3    3    0    0 -0.90642037603E+02  0.16678882948E+03 -0.24639109669E+03  0.31103547249E+03  0.00000000000E+00 0.  1.
          2    1    6    6  502    0 -0.21326123621E+02 -0.11403169737E+02 -0.78471706708E+02  0.82113607778E+02  0.00000000000E+00 0. -1.
          1    1    5    5  503    0  0.28138504952E+03 -0.22243125399E+03 -0.42870878023E+03  0.55896728624E+03  0.00000000000E+00 0. -1.
         -2    1    5    5    0  503  0.36903234192E+03 -0.30151072008E+03 -0.74490044921E+03  0.88429082487E+03  0.00000000000E+00 0.  1.
         -3    1    6    6    0  502 -0.27397203959E+03 -0.14611290914E+03 -0.36699465051E+03  0.48072313674E+03  0.00000000000E+00 0.  1.
<mgrwt>
<rscale>  0 0.19759566E+04</rscale>
<asrwt>0</asrwt>
<pdfrwt beam="1">  1        1 0.41868550E+00 0.19759566E+04</pdfrwt>
<pdfrwt beam="2">  1       -1 0.55179808E-01 0.19759566E+04</pdfrwt>
<totfact> 0.29278410E+00</totfact>
</mgrwt>
</event>
<event>
12    1  0.2019083E-007  0.1302248E+04  0.7818608E-02  0.9027784E-01
          2   -1    0    0  501    0  0.00000000000E+00  0.00000000000E+00  0.19999718601E+04  0.19999718601E+04  0.00000000000E+00 0. -1.
         -2   -1    0    0    0  501 -0.00000000000E+00 -0.00000000000E+00 -0.21198421653E+03  0.21198421653E+03  0.00000000000E+00 0.  1.
         23    2    1    2    0    0 -0.12055560560E+03  0.32534606165E+02  0.99805568751E+03  0.10100699225E+04  0.92379317576E+02 0.  0.
        254    2    1    2    0    0  0.12055560560E+03 -0.32534606165E+02  0.78993195611E+03  0.12018861542E+04  0.89718764910E+03 0.  0.
        -24    2    4    4    0    0  0.45598338026E+03  0.15392839084E+03  0.58014304480E+03  0.75765232806E+03  0.76526499969E+02 0.  0.
         24    2    4    4    0    0 -0.33542777467E+03 -0.18646299701E+03  0.20978891132E+03  0.44423382613E+03  0.77795010714E+02 0.  0.
         11    1    3    3    0    0 -0.34973594672E-01  0.21733256431E+02  0.52758033689E+02  0.57059142799E+02  0.00000000000E+00 0.  1.
        -11    1    3    3    0    0 -0.12052063200E+03  0.10801349734E+02  0.94529765382E+03  0.95301077969E+03  0.00000000000E+00 0. -1.
          4    1    6    6  502    0 -0.16162473653E+02 -0.14659020639E+02 -0.55956270123E+01  0.22526062291E+02  0.00000000000E+00 0. -1.
          3    1    5    5  503    0  0.95330557438E+02  0.28931031341E+02  0.75957446819E+02  0.12527750589E+03  0.00000000000E+00 0. -1.
         -2    1    5    5    0  503  0.36065282283E+03  0.12499735950E+03  0.50418559798E+03  0.63237482216E+03  0.00000000000E+00 0.  1.
         -3    1    6    6    0  502 -0.31926530102E+03 -0.17180397637E+03  0.21538453833E+03  0.42170776384E+03  0.00000000000E+00 0.  1.
<mgrwt>
<rscale>  0 0.13022480E+04</rscale>
<asrwt>0</asrwt>
<pdfrwt beam="1">  1        2 0.30768797E+00 0.13022480E+04</pdfrwt>
<pdfrwt beam="2">  1       -2 0.32612958E-01 0.13022480E+04</pdfrwt>
<totfact> 0.57437193E+01</totfact>
</mgrwt>
</event>
<event>
12    1  0.2019083E-007  0.1967580E+04  0.7818608E-02  0.8621930E-01
         -2   -1    0    0    0  501 -0.00000000000E+00  0.00000000000E+00  0.19030008242E+04  0.19030008242E+04  0.00000000000E+00 0. -1.
          2   -1    0    0  501    0  0.00000000000E+00 -0.00000000000E+00 -0.50858787891E+03  0.50858787891E+03  0.00000000000E+00 0.  1.
         23    2    1    2    0    0  0.77165608307E+03  0.84199070579E+02  0.59851310554E+03  0.98179083964E+03  0.56149098543E+02 0.  0.
        254    2    1    2    0    0 -0.77165608307E+03 -0.84199070579E+02  0.79589983971E+03  0.14297978634E+04  0.89906772905E+03 0.  0.
        -24    2    4    4    0    0 -0.85743183435E+03 -0.10352376388E+03  0.29693965359E+03  0.91700512732E+03  0.82575573916E+02 0.  0.
         24    2    4    4    0    0  0.85775751278E+02  0.19324693303E+02  0.49896018612E+03  0.51279273612E+03  0.79146696757E+02 0.  0.
         11    1    3    3    0    0  0.34736601534E+03  0.52029817989E+02  0.24027544361E+03  0.42556144018E+03  0.00000000000E+00 0. -1.
        -11    1    3    3    0    0  0.42429006774E+03  0.32169252589E+02  0.35823766193E+03  0.55622939945E+03  0.00000000000E+00 0.  1.
          2    1    6    6  502    0  0.92721327286E+02  0.26601407788E+02  0.33736166927E+03  0.35088142630E+03  0.00000000000E+00 0. -1.
          1    1    5    5  503    0 -0.42457804216E+03 -0.26868136954E+02  0.18138950164E+03  0.46248303966E+03  0.00000000000E+00 0. -1.
         -2    1    5    5    0  503 -0.43285379218E+03 -0.76655626927E+02  0.11555015195E+03  0.45452208765E+03  0.00000000000E+00 0.  1.
         -1    1    6    6    0  502 -0.69455760089E+01 -0.72767144853E+01  0.16159851685E+03  0.16191130982E+03  0.00000000000E+00 0.  1.
<mgrwt>
<rscale>  0 0.19675804E+04</rscale>
<asrwt>0</asrwt>
<pdfrwt beam="1">  1        2 0.78244290E-01 0.19675804E+04</pdfrwt>
<pdfrwt beam="2">  1       -2 0.29276935E+00 0.19675804E+04</pdfrwt>
<totfact> 0.19806993E+00</totfact>
</mgrwt>
</event>
<event>
12    1  0.2019083E-007  0.4116571E+04  0.7818608E-02  0.7981435E-01
         -1   -1    0    0    0  501 -0.00000000000E+00  0.00000000000E+00  0.10613325955E+04  0.10613325955E+04  0.00000000000E+00 0.  1.
          1   -1    0    0  501    0  0.00000000000E+00 -0.00000000000E+00 -0.39917162686E+04  0.39917162686E+04  0.00000000000E+00 0. -1.
         23    2    1    2    0    0  0.13955217232E+04  0.12222613675E+04 -0.21566742506E+04  0.28462651064E+04  0.92614805403E+02 0.  0.
        254    2    1    2    0    0 -0.13955217232E+04 -0.12222613675E+04 -0.77370942260E+03  0.22067837577E+04  0.91096901830E+03 0.  0.
        -24    2    4    4    0    0 -0.12974560069E+04 -0.13257438824E+04 -0.56586343891E+03  0.19410817536E+04  0.81289674514E+02 0.  0.
         24    2    4    4    0    0 -0.98065716355E+02  0.10348251499E+03 -0.20784598369E+03  0.26570200408E+03  0.84095697873E+02 0.  0.
         13    1    3    3    0    0  0.56421951743E+03  0.45016678794E+03 -0.79180316718E+03  0.10714224453E+04  0.00000000000E+00 0. -1.
        -13    1    3    3    0    0  0.83130220580E+03  0.77209457952E+03 -0.13648710834E+04  0.17748426610E+04  0.00000000000E+00 0.  1.
          2    1    6    6  502    0 -0.51371420200E+02  0.91490705386E+02 -0.18423961655E+03  0.21202313151E+03  0.00000000000E+00 0. -1.
          1    1    5    5  503    0 -0.11617799903E+04 -0.11926113869E+04 -0.48196224815E+03  0.17333038610E+04  0.00000000000E+00 0. -1.
         -2    1    5    5    0  503 -0.13567601653E+03 -0.13313249557E+03 -0.83901190764E+02  0.20777789259E+03  0.00000000000E+00 0.  1.
         -1    1    6    6    0  502 -0.46694296155E+02  0.11991809607E+02 -0.23606367134E+02  0.53678872570E+02  0.00000000000E+00 0.  1.
<mgrwt>
<rscale>  0 0.41165707E+04</rscale>
<asrwt>0</asrwt>
<pdfrwt beam="1">  1        1 0.61411021E+00 0.41165707E+04</pdfrwt>
<pdfrwt beam="2">  1       -1 0.16328193E+00 0.41165707E+04</pdfrwt>
<totfact> 0.20811874E-02</totfact>
</mgrwt>
</event>
<event>
12    1  0.2019083E-007  0.2220508E+04  0.7818608E-02  0.8509940E-01
         -2   -1    0    0    0  501 -0.00000000000E+00  0.00000000000E+00  0.37823156618E+03  0.37823156618E+03  0.00000000000E+00 0.  1.
          2   -1    0    0  501    0  0.00000000000E+00 -0.00000000000E+00 -0.32590193415E+04  0.32590193415E+04  0.00000000000E+00 0. -1.
         23    2    1    2    0    0  0.21093005485E+03 -0.90475399205E+03 -0.10909754067E+04  0.14356126452E+04  0.87664444795E+02 0.  0.
        254    2    1    2    0    0 -0.21093005485E+03  0.90475399205E+03 -0.17898123686E+04  0.22016382625E+04  0.88357877396E+03 0.  0.
        -24    2    4    4    0    0 -0.48257574022E+02  0.23149671065E+03 -0.13595664289E+04  0.13822531352E+04  0.79267488097E+02 0.  0.
         24    2    4    4    0    0 -0.16267248083E+03  0.67325728140E+03 -0.43024593970E+03  0.81938512726E+03  0.80887051938E+02 0.  0.
         11    1    3    3    0    0  0.55544941996E+02 -0.19010433847E+03 -0.28769780126E+03  0.34927771893E+03  0.00000000000E+00 0. -1.
        -11    1    3    3    0    0  0.15538511286E+03 -0.71464965358E+03 -0.80327760542E+03  0.10863349263E+04  0.00000000000E+00 0.  1.
          4    1    6    6  502    0 -0.13635852340E+03  0.40564232273E+03 -0.27902257001E+03  0.51087467687E+03  0.00000000000E+00 0. -1.
          3    1    5    5  503    0  0.12139099415E+02  0.62857481208E+02 -0.23742988161E+03  0.24590927058E+03  0.00000000000E+00 0. -1.
         -4    1    5    5    0  503 -0.60396673437E+02  0.16863922944E+03 -0.11221365473E+04  0.11363438646E+04  0.00000000000E+00 0.  1.
         -3    1    6    6    0  502 -0.26313957434E+02  0.26761495867E+03 -0.15122336969E+03  0.30851045039E+03  0.00000000000E+00 0.  1.
<mgrwt>
<rscale>  0 0.22205080E+04</rscale>
<asrwt>0</asrwt>
<pdfrwt beam="1">  1        2 0.50138759E+00 0.22205080E+04</pdfrwt>
<pdfrwt beam="2">  1       -2 0.58189471E-01 0.22205080E+04</pdfrwt>
<totfact> 0.29963461E+00</totfact>
</mgrwt>
</event>
<event>
12    1  0.2019083E-007  0.4336278E+04  0.7818608E-02  0.7939944E-01
         -1   -1    0    0    0  501 -0.00000000000E+00  0.00000000000E+00  0.22319796437E+04  0.22319796437E+04  0.00000000000E+00 0.  1.
          1   -1    0    0  501    0  0.00000000000E+00 -0.00000000000E+00 -0.21061241215E+04  0.21061241215E+04  0.00000000000E+00 0. -1.
         23    2    1    2    0    0 -0.12628263587E+04  0.14087342438E+04  0.90923538584E+03  0.21012827753E+04  0.97045006975E+02 0.  0.
        254    2    1    2    0    0  0.12628263587E+04 -0.14087342438E+04 -0.78337986358E+03  0.22368209899E+04  0.90023416308E+03 0.  0.
        -24    2    4    4    0    0  0.52846767431E+03 -0.43844643827E+03  0.14190968648E+03  0.70589032029E+03  0.81421269567E+02 0.  0.
         24    2    4    4    0    0  0.73435868438E+03 -0.97028780548E+03 -0.92528955006E+03  0.15309306696E+04  0.82745760282E+02 0.  0.
         11    1    3    3    0    0 -0.62522533745E+03  0.71452130759E+03  0.40394302369E+03  0.10318029792E+04  0.00000000000E+00 0. -1.
        -11    1    3    3    0    0 -0.63760102124E+03  0.69421293616E+03  0.50529236215E+03  0.10694797961E+04  0.00000000000E+00 0.  1.
          2    1    6    6  502    0  0.60869432263E+03 -0.84103332337E+03 -0.81188956519E+03  0.13179569399E+04  0.00000000000E+00 0. -1.
          3    1    5    5  503    0  0.43118123147E+03 -0.38851225599E+03  0.10090222998E+03  0.58910125398E+03  0.00000000000E+00 0. -1.
         -4    1    5    5    0  503  0.97286442843E+02 -0.49934182280E+02  0.41007456499E+02  0.11678906631E+03  0.00000000000E+00 0.  1.
         -1    1    6    6    0  502  0.12566436175E+03 -0.12925448211E+03 -0.11339998487E+03  0.21297372967E+03  0.00000000000E+00 0.  1.
<mgrwt>
<rscale>  0 0.43362777E+04</rscale>
<asrwt>0</asrwt>
<pdfrwt beam="1">  1        1 0.32401910E+00 0.43362777E+04</pdfrwt>
<pdfrwt beam="2">  1       -1 0.34338148E+00 0.43362777E+04</pdfrwt>
<totfact> 0.33031341E-02</totfact>
</mgrwt>
</event>
<event>
12    1  0.2019083E-007  0.3323969E+04  0.7818608E-02  0.8156823E-01
          2   -1    0    0  501    0  0.00000000000E+00  0.00000000000E+00  0.32327655764E+04  0.32327655764E+04  0.00000000000E+00 0. -1.
         -2   -1    0    0    0  501 -0.00000000000E+00 -0.00000000000E+00 -0.85443662003E+03  0.85443662003E+03  0.00000000000E+00 0.  1.
         23    2    1    2    0    0 -0.10517871305E+04  0.87605538856E+03  0.19682531223E+04  0.23992584023E+04  0.93227227147E+02 0.  0.
        254    2    1    2    0    0  0.10517871305E+04 -0.87605538856E+03  0.41007583406E+03  0.16879437941E+04  0.89847807478E+03 0.  0.
        -24    2    4    4    0    0  0.26682853216E+03 -0.46536317452E+02  0.46250336602E+03  0.54147686489E+03  0.76972314603E+02 0.  0.
         24    2    4    4    0    0  0.78495859829E+03 -0.82951907111E+03 -0.52427531956E+02  0.11464669292E+04  0.85882963295E+02 0.  0.
         13    1    3    3    0    0 -0.56196926516E+03  0.42886305930E+03  0.10775477442E+04  0.12887366371E+04  0.00000000000E+00 0. -1.
        -13    1    3    3    0    0 -0.48981786529E+03  0.44719232926E+03  0.89070537812E+03  0.11105217653E+04  0.00000000000E+00 0.  1.
          4    1    6    6  502    0  0.55686282297E+03 -0.54375655742E+03 -0.61347273977E+02  0.78072458996E+03  0.00000000000E+00 0. -1.
          1    1    5    5  503    0  0.15507470399E+03 -0.64241435750E+02  0.25906796020E+03  0.30869294434E+03  0.00000000000E+00 0. -1.
         -2    1    5    5    0  503  0.11175382817E+03  0.17705118298E+02  0.20343540581E+03  0.23278392054E+03  0.00000000000E+00 0.  1.
         -3    1    6    6    0  502  0.22809577532E+03 -0.28576251369E+03  0.89197420210E+01  0.36574233929E+03  0.00000000000E+00 0.  1.
<mgrwt>
<rscale>  0 0.33239695E+04</rscale>
<asrwt>0</asrwt>
<pdfrwt beam="1">  1        2 0.49734854E+00 0.33239695E+04</pdfrwt>
<pdfrwt beam="2">  1       -2 0.13145179E+00 0.33239695E+04</pdfrwt>
<totfact> 0.43393499E-01</totfact>
</mgrwt>
</event>
<event>
12    1  0.2019083E-007  0.2110501E+04  0.7818608E-02  0.8556632E-01
          2   -1    0    0  501    0  0.00000000000E+00  0.00000000000E+00  0.13505989694E+04  0.13505989694E+04  0.00000000000E+00 0. -1.
         -2   -1    0    0    0  501 -0.00000000000E+00 -0.00000000000E+00 -0.82448840407E+03  0.82448840407E+03  0.00000000000E+00 0.  1.
         23    2    1    2    0    0 -0.75926515990E+03  0.10010464458E+03  0.61975457643E+03  0.98953421821E+03  0.92615933214E+02 0.  0.
        254    2    1    2    0    0  0.75926515990E+03 -0.10010464458E+03 -0.93644011136E+02  0.11855531552E+04  0.90014585493E+03 0.  0.
        -24    2    4    4    0    0  0.58948795541E+03 -0.44343296111E+03 -0.22101450193E+03  0.77392903704E+03  0.77394468475E+02 0.  0.
         24    2    4    4    0    0  0.16977720449E+03  0.34332831653E+03  0.12737049079E+03  0.41162411819E+03  0.80700313810E+02 0.  0.
         13    1    3    3    0    0 -0.41583893956E+03  0.12371640675E+02  0.31027314777E+03  0.51898411090E+03  0.00000000000E+00 0. -1.
        -13    1    3    3    0    0 -0.34342622035E+03  0.87733003901E+02  0.30948142867E+03  0.47055010730E+03  0.00000000000E+00 0.  1.
          4    1    6    6  502    0  0.43464612538E+02  0.17841774809E+03  0.63351988871E+02  0.19425637665E+03  0.00000000000E+00 0. -1.
          1    1    5    5  503    0  0.16852127205E+03 -0.85671975353E+02 -0.64163256942E+02  0.19963975064E+03  0.00000000000E+00 0. -1.
         -2    1    5    5    0  503  0.42096668336E+03 -0.35776098575E+03 -0.15685124499E+03  0.57428928640E+03  0.00000000000E+00 0.  1.
         -3    1    6    6    0  502  0.12631259196E+03  0.16491056844E+03  0.64018501922E+02  0.21736774153E+03  0.00000000000E+00 0.  1.
<mgrwt>
<rscale>  0 0.21105006E+04</rscale>
<asrwt>0</asrwt>
<pdfrwt beam="1">  1        2 0.20778446E+00 0.21105006E+04</pdfrwt>
<pdfrwt beam="2">  1       -2 0.12684437E+00 0.21105006E+04</pdfrwt>
<totfact> 0.65751657E+00</totfact>
</mgrwt>
</event>
<event>
12    1  0.2019083E-007  0.1776526E+04  0.7818608E-02  0.8718883E-01
          2   -1    0    0  501    0  0.00000000000E+00  0.00000000000E+00  0.84259718310E+03  0.84259718310E+03  0.00000000000E+00 0.  1.
         -2   -1    0    0    0  501 -0.00000000000E+00 -0.00000000000E+00 -0.93640393320E+03  0.93640393320E+03  0.00000000000E+00 0. -1.
         23    2    1    2    0    0 -0.25344767825E+02 -0.65663283740E+03 -0.40216621798E+02  0.66538377529E+03  0.96483943452E+02 0.  0.
        254    2    1    2    0    0  0.25344767825E+02  0.65663283740E+03 -0.53590128296E+02  0.11136173410E+04  0.89747570437E+03 0.  0.
        -24    2    4    4    0    0 -0.32595536732E+03  0.44810157040E+03 -0.29440234110E+03  0.63246760136E+03  0.79376378398E+02 0.  0.
         24    2    4    4    0    0  0.35130013514E+03  0.20853126700E+03  0.24081221281E+03  0.48114973965E+03  0.81347869408E+02 0.  0.
         13    1    3    3    0    0 -0.60175523685E+02 -0.40719749952E+03 -0.39677430658E+02  0.41352774487E+03  0.00000000000E+00 0. -1.
        -13    1    3    3    0    0  0.34830755860E+02 -0.24943533788E+03 -0.53919113971E+00  0.25185603043E+03  0.00000000000E+00 0.  1.
          2    1    6    6  502    0  0.44184902744E+02  0.62294523924E+02  0.42208220045E+02  0.87260799795E+02  0.00000000000E+00 0. -1.
          3    1    5    5  503    0 -0.21059371941E+03  0.28898115631E+03 -0.14617503316E+03  0.38629905989E+03  0.00000000000E+00 0. -1.
         -4    1    5    5    0  503 -0.11536164791E+03  0.15912041409E+03 -0.14822730794E+03  0.24616854147E+03  0.00000000000E+00 0.  1.
         -1    1    6    6    0  502  0.30711523240E+03  0.14623674307E+03  0.19860399276E+03  0.39388893985E+03  0.00000000000E+00 0.  1.
<mgrwt>
<rscale>  0 0.17765262E+04</rscale>
<asrwt>0</asrwt>
<pdfrwt beam="1">  1        2 0.12963034E+00 0.17765262E+04</pdfrwt>
<pdfrwt beam="2">  1       -2 0.14406214E+00 0.17765262E+04</pdfrwt>
<totfact> 0.10123122E+01</totfact>
</mgrwt>
</event>
<event>
12    1  0.2019083E-007  0.1560210E+04  0.7818608E-02  0.8845372E-01
         -2   -1    0    0    0  501 -0.00000000000E+00  0.00000000000E+00  0.44487926866E+03  0.44487926866E+03  0.00000000000E+00 0.  1.
          2   -1    0    0  501    0  0.00000000000E+00 -0.00000000000E+00 -0.13679306209E+04  0.13679306209E+04  0.00000000000E+00 0. -1.
         23    2    1    2    0    0  0.26861758459E+03  0.29816368778E+03 -0.68597103873E+03  0.79966650423E+03  0.88618624204E+02 0.  0.
        254    2    1    2    0    0 -0.26861758459E+03 -0.29816368778E+03 -0.23708031352E+03  0.10131433853E+04  0.89955291826E+03 0.  0.
        -24    2    4    4    0    0  0.29565737762E+02 -0.41616284515E+03  0.19710024764E+03  0.46726149977E+03  0.73614910295E+02 0.  0.
         24    2    4    4    0    0 -0.29818332235E+03  0.11799915737E+03 -0.43418056116E+03  0.54588188557E+03  0.81468880169E+02 0.  0.
         11    1    3    3    0    0  0.20750047366E+03  0.27743524694E+03 -0.57745003395E+03  0.67340575029E+03  0.00000000000E+00 0. -1.
        -11    1    3    3    0    0  0.61117110928E+02  0.20728440837E+02 -0.10852100478E+03  0.12626075394E+03  0.00000000000E+00 0.  1.
          4    1    6    6  502    0 -0.55007625907E+02  0.25141191387E+02 -0.14328525164E+03  0.15552678789E+03  0.00000000000E+00 0. -1.
          3    1    5    5  503    0 -0.89331070561E+01 -0.85539163791E+02  0.70262187606E+02  0.11105639986E+03  0.00000000000E+00 0. -1.
         -4    1    5    5    0  503  0.38498844818E+02 -0.33062368136E+03  0.12683806004E+03  0.35620509991E+03  0.00000000000E+00 0.  1.
         -3    1    6    6    0  502 -0.24317569644E+03  0.92857965978E+02 -0.29089530952E+03  0.39035509768E+03  0.00000000000E+00 0.  1.
<mgrwt>
<rscale>  0 0.15602102E+04</rscale>
<asrwt>0</asrwt>
<pdfrwt beam="1">  1        2 0.21045086E+00 0.15602102E+04</pdfrwt>
<pdfrwt beam="2">  1       -2 0.68442965E-01 0.15602102E+04</pdfrwt>
<totfact> 0.28351403E+01</totfact>
</mgrwt>
</event>
<event>
12    1  0.2019083E-007  0.1550567E+04  0.7818608E-02  0.8851506E-01
          1   -1    0    0  501    0  0.00000000000E+00  0.00000000000E+00  0.86603628914E+03  0.86603628914E+03  0.00000000000E+00 0. -1.
         -1   -1    0    0    0  501 -0.00000000000E+00 -0.00000000000E+00 -0.69404084342E+03  0.69404084342E+03  0.00000000000E+00 0.  1.
         23    2    1    2    0    0 -0.11140898433E+03 -0.18530130519E+02  0.55739378212E+03  0.57596131245E+03  0.91039977845E+02 0.  0.
        254    2    1    2    0    0  0.11140898433E+03  0.18530130519E+02 -0.38539833640E+03  0.98411582011E+03  0.89844128476E+03 0.  0.
        -24    2    4    4    0    0  0.24136559753E+03  0.36500676747E+03 -0.16762703436E+01  0.44535952135E+03  0.82794935834E+02 0.  0.
         24    2    4    4    0    0 -0.12995661320E+03 -0.34647663695E+03 -0.38372206605E+03  0.53875629876E+03  0.77980409138E+02 0.  0.
         13    1    3    3    0    0 -0.78852408044E+02  0.27362971896E+02  0.40500725130E+03  0.41351820769E+03  0.00000000000E+00 0.  1.
        -13    1    3    3    0    0 -0.32556576282E+02 -0.45893102415E+02  0.15238653083E+03  0.16244310477E+03  0.00000000000E+00 0. -1.
          4    1    6    6  502    0 -0.12725277319E+03 -0.33669077078E+03 -0.38658650927E+03  0.52820741434E+03  0.00000000000E+00 0. -1.
          3    1    5    5  503    0  0.24511367369E+03  0.35148019384E+03 -0.10755360173E+02  0.42864287870E+03  0.00000000000E+00 0. -1.
         -4    1    5    5    0  503 -0.37480761582E+01  0.13526573632E+02  0.90790898290E+01  0.16716642643E+02  0.00000000000E+00 0.  1.
         -3    1    6    6    0  502 -0.27038400136E+01 -0.97858661687E+01  0.28644432200E+01  0.10548884417E+02  0.00000000000E+00 0.  1.
<mgrwt>
<rscale>  0 0.15505671E+04</rscale>
<asrwt>0</asrwt>
<pdfrwt beam="1">  1        1 0.13323635E+00 0.15505671E+04</pdfrwt>
<pdfrwt beam="2">  1       -1 0.10677551E+00 0.15505671E+04</pdfrwt>
<totfact> 0.15316817E+01</totfact>
</mgrwt>
</event>
<event>
12    1  0.2019083E-007  0.2968905E+04  0.7818608E-02  0.8252666E-01
          1   -1    0    0  501    0  0.00000000000E+00  0.00000000000E+00  0.29358802702E+04  0.29358802702E+04  0.00000000000E+00 0. -1.
         -1   -1    0    0    0  501 -0.00000000000E+00 -0.00000000000E+00 -0.75057554042E+03  0.75057554042E+03  0.00000000000E+00 0.  1.
         23    2    1    2    0    0 -0.11640495236E+04  0.23423421285E+03  0.20520563352E+03  0.12085462189E+04  0.92723520881E+02 0.  0.
        254    2    1    2    0    0  0.11640495236E+04 -0.23423421285E+03  0.19800990963E+04  0.24779095917E+04  0.89964801665E+03 0.  0.
        -24    2    4    4    0    0  0.98511017495E+03 -0.52458455024E+03  0.16699587342E+04  0.20101811562E+04  0.80219072151E+02 0.  0.
         24    2    4    4    0    0  0.17893934865E+03  0.29035033738E+03  0.31014036209E+03  0.46772843558E+03  0.79121655288E+02 0.  0.
         11    1    3    3    0    0 -0.49542457130E+03  0.14393198774E+03  0.73541846753E+02  0.52112409862E+03  0.00000000000E+00 0.  1.
        -11    1    3    3    0    0 -0.66862495230E+03  0.90302225109E+02  0.13166378676E+03  0.68742212027E+03  0.00000000000E+00 0. -1.
          4    1    6    6  502    0  0.11254556856E+03  0.22882657197E+03  0.19362894795E+03  0.32018787379E+03  0.00000000000E+00 0. -1.
          3    1    5    5  503    0  0.46529062993E+03 -0.20254098024E+03  0.75897274833E+03  0.91299389465E+03  0.00000000000E+00 0. -1.
         -4    1    5    5    0  503  0.51981954502E+03 -0.32204357000E+03  0.91098598587E+03  0.10971872615E+04  0.00000000000E+00 0.  1.
         -3    1    6    6    0  502  0.66393780089E+02  0.61523765414E+02  0.11651141414E+03  0.14754056178E+03  0.00000000000E+00 0.  1.
<mgrwt>
<rscale>  0 0.29689055E+04</rscale>
<asrwt>0</asrwt>
<pdfrwt beam="1">  1        1 0.45167388E+00 0.29689055E+04</pdfrwt>
<pdfrwt beam="2">  1       -1 0.11547316E+00 0.29689055E+04</pdfrwt>
<totfact> 0.38570697E-01</totfact>
</mgrwt>
</event>
<event>
12    1  0.2019083E-007  0.2349167E+04  0.7818608E-02  0.8458784E-01
         -2   -1    0    0    0  501 -0.00000000000E+00  0.00000000000E+00  0.54892406640E+03  0.54892406640E+03  0.00000000000E+00 0.  1.
          2   -1    0    0  501    0  0.00000000000E+00 -0.00000000000E+00 -0.25133649567E+04  0.25133649567E+04  0.00000000000E+00 0. -1.
         23    2    1    2    0    0  0.90351525473E+03  0.27117611609E+03 -0.12692337315E+04  0.15840719298E+04  0.91941895367E+02 0.  0.
        254    2    1    2    0    0 -0.90351525473E+03 -0.27117611609E+03 -0.69520715878E+03  0.14782170933E+04  0.90107517989E+03 0.  0.
        -24    2    4    4    0    0 -0.80319546305E+03  0.18709416619E+03 -0.41974331512E+03  0.92856836492E+03  0.76990771220E+02 0.  0.
         24    2    4    4    0    0 -0.10031979168E+03 -0.45827028228E+03 -0.27546384366E+03  0.54964872838E+03  0.78470906829E+02 0.  0.
         13    1    3    3    0    0  0.18559422715E+03  0.17657599548E+02 -0.25079485495E+03  0.31249810758E+03  0.00000000000E+00 0.  1.
        -13    1    3    3    0    0  0.71792102759E+03  0.25351851655E+03 -0.10184388766E+04  0.12715738223E+04  0.00000000000E+00 0. -1.
          4    1    6    6  502    0 -0.10167515130E+03 -0.40499701557E+03 -0.21715244073E+03  0.47065443962E+03  0.00000000000E+00 0. -1.
          3    1    5    5  503    0 -0.43369405710E+03  0.94932575852E+02 -0.26831637389E+03  0.51874502949E+03  0.00000000000E+00 0. -1.
         -4    1    5    5    0  503 -0.36950140595E+03  0.92161590334E+02 -0.15142694123E+03  0.40982333543E+03  0.00000000000E+00 0.  1.
         -1    1    6    6    0  502  0.13553596221E+01 -0.53273266706E+02 -0.58311402925E+02  0.78994288757E+02  0.00000000000E+00 0.  1.
<mgrwt>
<rscale>  0 0.23491671E+04</rscale>
<asrwt>0</asrwt>
<pdfrwt beam="1">  1        2 0.38667153E+00 0.23491671E+04</pdfrwt>
<pdfrwt beam="2">  1       -2 0.84449858E-01 0.23491671E+04</pdfrwt>
<totfact> 0.37756204E+00</totfact>
</mgrwt>
</event>
<event>
12    1  0.2019083E-007  0.1891417E+04  0.7818608E-02  0.8659141E-01
         -2   -1    0    0    0  501 -0.00000000000E+00  0.00000000000E+00  0.29876095194E+03  0.29876095194E+03  0.00000000000E+00 0.  1.
          2   -1    0    0  501    0  0.00000000000E+00 -0.00000000000E+00 -0.29935783478E+04  0.29935783478E+04  0.00000000000E+00 0. -1.
         23    2    1    2    0    0  0.37779184633E+03 -0.51116973686E+03 -0.42759807128E+03  0.77151417791E+03  0.91503208279E+02 0.  0.
        254    2    1    2    0    0 -0.37779184633E+03  0.51116973686E+03 -0.22672193246E+04  0.25208251219E+04  0.90014146116E+03 0.  0.
        -24    2    4    4    0    0  0.59963191828E+02  0.26849142727E+03 -0.11314626086E+03  0.30793633667E+03  0.79620852834E+02 0.  0.
         24    2    4    4    0    0 -0.43775503815E+03  0.24267830959E+03 -0.21540730638E+04  0.22128887852E+04  0.79522174751E+02 0.  0.
         13    1    3    3    0    0  0.23309368303E+03 -0.31116139920E+03 -0.31409041241E+03  0.49980683127E+03  0.00000000000E+00 0. -1.
        -13    1    3    3    0    0  0.14469816330E+03 -0.20000833766E+03 -0.11350765887E+03  0.27170734664E+03  0.00000000000E+00 0.  1.
          4    1    6    6  502    0 -0.16058880067E+03  0.12528766165E+03 -0.77190657936E+03  0.79832670525E+03  0.00000000000E+00 0. -1.
          1    1    5    5  503    0  0.25421462102E+02  0.90065678920E+02 -0.80173486598E+02  0.12323094258E+03  0.00000000000E+00 0. -1.
         -2    1    5    5    0  503  0.34541729726E+02  0.17842574835E+03 -0.32972774262E+02  0.18470539410E+03  0.00000000000E+00 0.  1.
         -3    1    6    6    0  502 -0.27716623748E+03  0.11739064794E+03 -0.13821664844E+04  0.14145620799E+04  0.00000000000E+00 0.  1.
<mgrwt>
<rscale>  0 0.18914167E+04</rscale>
<asrwt>0</asrwt>
<pdfrwt beam="1">  1        2 0.46055053E+00 0.18914167E+04</pdfrwt>
<pdfrwt beam="2">  1       -2 0.45963222E-01 0.18914167E+04</pdfrwt>
<totfact> 0.74151597E+00</totfact>
</mgrwt>
</event>
<event>
12    1  0.2019083E-007  0.2587757E+04  0.7818608E-02  0.8372372E-01
         -2   -1    0    0    0  501 -0.00000000000E+00  0.00000000000E+00  0.66899897657E+03  0.66899897657E+03  0.00000000000E+00 0.  1.
          2   -1    0    0  501    0  0.00000000000E+00 -0.00000000000E+00 -0.25024274057E+04  0.25024274057E+04  0.00000000000E+00 0. -1.
         23    2    1    2    0    0  0.36791764549E+03  0.82706075013E+03 -0.16460810968E+04  0.18808096974E+04  0.92028595875E+02 0.  0.
        254    2    1    2    0    0 -0.36791764549E+03 -0.82706075013E+03 -0.18734733232E+03  0.12906166848E+04  0.90066615675E+03 0.  0.
        -24    2    4    4    0    0 -0.10806340576E+03  0.17492041551E+03 -0.11638348058E+03  0.24929333904E+03  0.79543716974E+02 0.  0.
         24    2    4    4    0    0 -0.25985423973E+03 -0.10019811656E+04 -0.70963851746E+02  0.10413233458E+04  0.88475759396E+02 0.  0.
         11    1    3    3    0    0  0.14185784003E+03  0.42404294717E+03 -0.77432249345E+03  0.89415400893E+03  0.00000000000E+00 0.  1.
        -11    1    3    3    0    0  0.22605980546E+03  0.40301780296E+03 -0.87175860333E+03  0.98665568849E+03  0.00000000000E+00 0. -1.
          4    1    6    6  502    0 -0.16978556687E+03 -0.73355187159E+03 -0.85681440347E+02  0.75780392995E+03  0.00000000000E+00 0. -1.
          1    1    5    5  503    0 -0.95303501246E+02  0.18215490242E+03 -0.10581247922E+03  0.23121298966E+03  0.00000000000E+00 0. -1.
         -2    1    5    5    0  503 -0.12759904513E+02 -0.72344869128E+01 -0.10571001353E+02  0.18080349379E+02  0.00000000000E+00 0.  1.
         -3    1    6    6    0  502 -0.90068672864E+02 -0.26842929405E+03  0.14717588600E+02  0.28351941583E+03  0.00000000000E+00 0.  1.
<mgrwt>
<rscale>  0 0.25877568E+04</rscale>
<asrwt>0</asrwt>
<pdfrwt beam="1">  1        2 0.38498884E+00 0.25877568E+04</pdfrwt>
<pdfrwt beam="2">  1       -2 0.10292292E+00 0.25877568E+04</pdfrwt>
<totfact> 0.23687954E+00</totfact>
</mgrwt>
</event>
<event>
12    1  0.2019083E-007  0.3689154E+04  0.7818608E-02  0.8070370E-01
         -2   -1    0    0    0  501 -0.00000000000E+00  0.00000000000E+00  0.10721177955E+04  0.10721177955E+04  0.00000000000E+00 0.  1.
          2   -1    0    0  501    0  0.00000000000E+00 -0.00000000000E+00 -0.31735913705E+04  0.31735913705E+04  0.00000000000E+00 0. -1.
         23    2    1    2    0    0 -0.60786387467E+03  0.16110211107E+04 -0.12240573619E+04  0.21146047585E+04  0.91374779576E+02 0.  0.
        254    2    1    2    0    0  0.60786387467E+03 -0.16110211107E+04 -0.87741621312E+03  0.21311044075E+04  0.89825345837E+03 0.  0.
        -24    2    4    4    0    0  0.30451279805E+02  0.61774441330E+02 -0.21405535558E+03  0.23950620089E+03  0.82463100656E+02 0.  0.
         24    2    4    4    0    0  0.57741259486E+03 -0.16727955520E+04 -0.66336085754E+03  0.18915982066E+04  0.80286265427E+02 0.  0.
         13    1    3    3    0    0 -0.49504013056E+03  0.12090718080E+04 -0.94531588380E+03  0.16126194492E+04  0.00000000000E+00 0. -1.
        -13    1    3    3    0    0 -0.11282374411E+03  0.40194930270E+03 -0.27874147807E+03  0.50198530932E+03  0.00000000000E+00 0.  1.
          2    1    6    6  502    0  0.49799263882E+03 -0.14673753970E+04 -0.60734103543E+03  0.16643468261E+04  0.00000000000E+00 0. -1.
          1    1    5    5  503    0  0.22317016025E+02  0.78861163661E+02 -0.13262242544E+03  0.15590330358E+03  0.00000000000E+00 0. -1.
         -2    1    5    5    0  503  0.81342637806E+01 -0.17086722332E+02 -0.81432930145E+02  0.83602897314E+02  0.00000000000E+00 0.  1.
         -1    1    6    6    0  502  0.79419956049E+02 -0.20542015499E+03 -0.56019822106E+02  0.22725138055E+03  0.00000000000E+00 0.  1.
<mgrwt>
<rscale>  0 0.36891537E+04</rscale>
<asrwt>0</asrwt>
<pdfrwt beam="1">  1        2 0.48824481E+00 0.36891537E+04</pdfrwt>
<pdfrwt beam="2">  1       -2 0.16494120E+00 0.36891537E+04</pdfrwt>
<totfact> 0.25272664E-01</totfact>
</mgrwt>
</event>
<event>
12    1  0.2019083E-007  0.3563312E+04  0.7818608E-02  0.8098947E-01
         -1   -1    0    0    0  501 -0.00000000000E+00  0.00000000000E+00  0.21861800327E+04  0.21861800327E+04  0.00000000000E+00 0.  1.
          1   -1    0    0  501    0  0.00000000000E+00 -0.00000000000E+00 -0.14519841936E+04  0.14519841936E+04  0.00000000000E+00 0. -1.
         23    2    1    2    0    0  0.16639909506E+04  0.84320757739E+02  0.35748949869E+03  0.17064714906E+04  0.90941369712E+02 0.  0.
        254    2    1    2    0    0 -0.16639909506E+04 -0.84320757739E+02  0.37670634038E+03  0.19316927356E+04  0.90197188652E+03 0.  0.
        -24    2    4    4    0    0 -0.49558525199E+03  0.37938349280E+03  0.19306530909E+03  0.65876688055E+03  0.84634583565E+02 0.  0.
         24    2    4    4    0    0 -0.11684056986E+04 -0.46370425054E+03  0.18364103129E+03  0.12729258551E+04  0.80141721952E+02 0.  0.
         11    1    3    3    0    0  0.12361825618E+04  0.99866867354E+02  0.27998377344E+03  0.12714211067E+04  0.00000000000E+00 0.  1.
        -11    1    3    3    0    0  0.42780838882E+03 -0.15546109615E+02  0.77505725252E+02  0.43505038388E+03  0.00000000000E+00 0. -1.
          2    1    6    6  502    0 -0.16450563861E+03 -0.38484159240E+02  0.35897928389E+02  0.17271883774E+03  0.00000000000E+00 0. -1.
          3    1    5    5  503    0 -0.23764931031E+02  0.36636448632E+02  0.30807576236E+02  0.53442567948E+02  0.00000000000E+00 0. -1.
         -4    1    5    5    0  503 -0.47182032095E+03  0.34274704417E+03  0.16225773285E+03  0.60532431260E+03  0.00000000000E+00 0.  1.
         -1    1    6    6    0  502 -0.10039000600E+04 -0.42522009130E+03  0.14774310290E+03  0.11002070173E+04  0.00000000000E+00 0.  1.
<mgrwt>
<rscale>  0 0.35633124E+04</rscale>
<asrwt>0</asrwt>
<pdfrwt beam="1">  1        1 0.22338219E+00 0.35633124E+04</pdfrwt>
<pdfrwt beam="2">  1       -1 0.33633539E+00 0.35633124E+04</pdfrwt>
<totfact> 0.10962959E-01</totfact>
</mgrwt>
</event>
<event>
12    1  0.2019083E-007  0.1989064E+04  0.7818608E-02  0.8611751E-01
         -2   -1    0    0    0  501 -0.00000000000E+00  0.00000000000E+00  0.13340525439E+04  0.13340525439E+04  0.00000000000E+00 0.  1.
          2   -1    0    0  501    0  0.00000000000E+00 -0.00000000000E+00 -0.74142072085E+03  0.74142072085E+03  0.00000000000E+00 0. -1.
         23    2    1    2    0    0  0.21564178824E+03 -0.44733490477E+03 -0.40104154966E+03  0.64487493769E+03  0.91757631032E+02 0.  0.
        254    2    1    2    0    0 -0.21564178824E+03  0.44733490477E+03  0.99367337273E+03  0.14305983271E+04  0.90145155384E+03 0.  0.
        -24    2    4    4    0    0 -0.39051179451E+03  0.30483413908E+03  0.10678195298E+04  0.11801770826E+04  0.84593641331E+02 0.  0.
         24    2    4    4    0    0  0.17487000627E+03  0.14250076569E+03 -0.74146157027E+02  0.25042124449E+03  0.79543445836E+02 0.  0.
         11    1    3    3    0    0  0.11895335953E+02 -0.90616633538E+02 -0.48108740962E+02  0.10328273935E+03  0.00000000000E+00 0. -1.
        -11    1    3    3    0    0  0.20374645229E+03 -0.35671827123E+03 -0.35293280869E+03  0.54159219834E+03  0.00000000000E+00 0.  1.
          4    1    6    6  502    0  0.14958688397E+03  0.75466271868E+02 -0.52559153888E+02  0.17559572518E+03  0.00000000000E+00 0. -1.
          1    1    5    5  503    0 -0.37474933117E+03  0.28902691915E+03  0.96299367550E+03  0.10730006711E+04  0.00000000000E+00 0. -1.
         -2    1    5    5    0  503 -0.15762463337E+02  0.15807219928E+02  0.10482585426E+03  0.10717641146E+03  0.00000000000E+00 0.  1.
         -3    1    6    6    0  502  0.25283122301E+02  0.67034493821E+02 -0.21587003139E+02  0.74825519308E+02  0.00000000000E+00 0.  1.
<mgrwt>
<rscale>  0 0.19890643E+04</rscale>
<asrwt>0</asrwt>
<pdfrwt beam="1">  1        2 0.11406473E+00 0.19890643E+04</pdfrwt>
<pdfrwt beam="2">  1       -2 0.20523885E+00 0.19890643E+04</pdfrwt>
<totfact> 0.43481876E+00</totfact>
</mgrwt>
</event>
<event>
12    1  0.2019083E-007  0.1560642E+04  0.7818608E-02  0.8845099E-01
         -3   -1    0    0    0  501 -0.00000000000E+00  0.00000000000E+00  0.28503697328E+04  0.28503697328E+04  0.00000000000E+00 0.  1.
          3   -1    0    0  501    0  0.00000000000E+00 -0.00000000000E+00 -0.21362169642E+03  0.21362169642E+03  0.00000000000E+00 0. -1.
         23    2    1    2    0    0  0.34425917295E+03 -0.15216158536E+03  0.20235613202E+03  0.44141500281E+03  0.11059690013E+03 0.  0.
        254    2    1    2    0    0 -0.34425917295E+03  0.15216158536E+03  0.24343919044E+04  0.26225764264E+04  0.89998646775E+03 0.  0.
        -24    2    4    4    0    0 -0.45035529040E+03 -0.26686695776E+03  0.11775110521E+04  0.12911069019E+04  0.79918042372E+02 0.  0.
         24    2    4    4    0    0  0.10609611745E+03  0.41902854312E+03  0.12568808523E+04  0.13314695246E+04  0.78868954147E+02 0.  0.
         11    1    3    3    0    0  0.23605018512E+03 -0.15746618949E+03  0.15283478773E+03  0.32229452845E+03  0.00000000000E+00 0. -1.
        -11    1    3    3    0    0  0.10820898783E+03  0.53046041234E+01  0.49521344288E+02  0.11912047436E+03  0.00000000000E+00 0.  1.
          2    1    6    6  502    0  0.73336714521E+02  0.36406227092E+03  0.11282951398E+04  0.11878423857E+04  0.00000000000E+00 0. -1.
          3    1    5    5  503    0 -0.34587330673E+03 -0.19397960403E+03  0.96549909170E+03  0.10437647854E+04  0.00000000000E+00 0. -1.
         -4    1    5    5    0  503 -0.10448198367E+03 -0.72887353728E+02  0.21201196042E+03  0.24734211652E+03  0.00000000000E+00 0.  1.
         -1    1    6    6    0  502  0.32759402928E+02  0.54966272203E+02  0.12858571246E+03  0.14362713883E+03  0.00000000000E+00 0.  1.
<mgrwt>
<rscale>  0 0.15606419E+04</rscale>
<asrwt>0</asrwt>
<pdfrwt beam="1">  1        3 0.32864879E-01 0.15606419E+04</pdfrwt>
<pdfrwt beam="2">  1       -3 0.43851839E+00 0.15606419E+04</pdfrwt>
<totfact> 0.15090007E-01</totfact>
</mgrwt>
</event>
<event>
12    1  0.2019083E-007  0.1406842E+04  0.7818608E-02  0.8948881E-01
         -2   -1    0    0    0  501 -0.00000000000E+00  0.00000000000E+00  0.55451620168E+03  0.55451620168E+03  0.00000000000E+00 0.  1.
          2   -1    0    0  501    0  0.00000000000E+00 -0.00000000000E+00 -0.89231113596E+03  0.89231113596E+03  0.00000000000E+00 0. -1.
         23    2    1    2    0    0  0.34437982276E+03  0.21095277363E+03 -0.15486165397E+03  0.44179204665E+03  0.89997475431E+02 0.  0.
        254    2    1    2    0    0 -0.34437982276E+03 -0.21095277363E+03 -0.18293328031E+03  0.10050352910E+04  0.90196054019E+03 0.  0.
        -24    2    4    4    0    0  0.15821428217E+03 -0.39893051399E+03 -0.12518084726E+02  0.43655920856E+03  0.79056473827E+02 0.  0.
         24    2    4    4    0    0 -0.50259410493E+03  0.18797774036E+03 -0.17041519558E+03  0.56847608243E+03  0.78659088664E+02 0.  0.
         13    1    3    3    0    0  0.87685256595E+02  0.85311918978E+02 -0.13899667626E+02  0.12312606752E+03  0.00000000000E+00 0.  1.
        -13    1    3    3    0    0  0.25669456617E+03  0.12564085465E+03 -0.14096198635E+03  0.31866597913E+03  0.00000000000E+00 0. -1.
          2    1    6    6  502    0 -0.15939545204E+03  0.23183782751E+02 -0.62393936310E+02  0.17273506072E+03  0.00000000000E+00 0. -1.
          3    1    5    5  503    0  0.28032712252E+02 -0.24735844619E+02  0.12907486206E+02  0.39551209405E+02  0.00000000000E+00 0. -1.
         -4    1    5    5    0  503  0.13018156992E+03 -0.37419466937E+03 -0.25425570932E+02  0.39700799915E+03  0.00000000000E+00 0.  1.
         -1    1    6    6    0  502 -0.34319865289E+03  0.16479395761E+03 -0.10802125927E+03  0.39574102171E+03  0.00000000000E+00 0.  1.
<mgrwt>
<rscale>  0 0.14068418E+04</rscale>
<asrwt>0</asrwt>
<pdfrwt beam="1">  1        2 0.13727863E+00 0.14068418E+04</pdfrwt>
<pdfrwt beam="2">  1       -2 0.85310186E-01 0.14068418E+04</pdfrwt>
<totfact> 0.34508777E+01</totfact>
</mgrwt>
</event>
<event>
12    1  0.2019083E-007  0.2123426E+04  0.7818608E-02  0.8550994E-01
         -2   -1    0    0    0  501 -0.00000000000E+00  0.00000000000E+00  0.98184922857E+03  0.98184922857E+03  0.00000000000E+00 0.  1.
          2   -1    0    0  501    0  0.00000000000E+00 -0.00000000000E+00 -0.11480725152E+04  0.11480725152E+04  0.00000000000E+00 0. -1.
         23    2    1    2    0    0 -0.56532252825E+03  0.22159272688E+03 -0.69027358984E+03  0.92364684505E+03  0.89179414579E+02 0.  0.
        254    2    1    2    0    0  0.56532252825E+03 -0.22159272688E+03  0.52405030324E+03  0.12062748987E+04  0.90098696624E+03 0.  0.
        -24    2    4    4    0    0 -0.19156744371E+03 -0.37239796924E+02  0.34298967273E+03  0.40256729668E+03  0.79584073711E+02 0.  0.
         24    2    4    4    0    0  0.75688997197E+03 -0.18435292996E+03  0.18106063051E+03  0.80370760202E+03  0.79338043666E+02 0.  0.
         11    1    3    3    0    0 -0.79855480824E+02  0.30069888819E+02 -0.55098918596E+02  0.10157256944E+03  0.00000000000E+00 0.  1.
        -11    1    3    3    0    0 -0.48546704743E+03  0.19152283807E+03 -0.63517467125E+03  0.82207427562E+03  0.00000000000E+00 0. -1.
          2    1    6    6  502    0  0.48696573286E+03 -0.13880408706E+03  0.84074863705E+02  0.51329405049E+03  0.00000000000E+00 0. -1.
          1    1    5    5  503    0 -0.13754158771E+03 -0.48462887893E+02  0.29647059320E+03  0.33039544865E+03  0.00000000000E+00 0. -1.
         -2    1    5    5    0  503 -0.54025856005E+02  0.11223090969E+02  0.46519079525E+02  0.72171848028E+02  0.00000000000E+00 0.  1.
         -1    1    6    6    0  502  0.26992423911E+03 -0.45548842897E+02  0.96985766801E+02  0.29041355152E+03  0.00000000000E+00 0.  1.
<mgrwt>
<rscale>  0 0.21234256E+04</rscale>
<asrwt>0</asrwt>
<pdfrwt beam="1">  1        2 0.17662654E+00 0.21234256E+04</pdfrwt>
<pdfrwt beam="2">  1       -2 0.15105373E+00 0.21234256E+04</pdfrwt>
<totfact> 0.55070090E+00</totfact>
</mgrwt>
</event>
<event>
12    1  0.2413240E-007  0.2267655E+04  0.7818608E-02  0.8490784E-01
         -1   -1    0    0    0  501 -0.00000000000E+00  0.00000000000E+00  0.14367934617E+04  0.14367934617E+04  0.00000000000E+00 0.  1.
          1   -1    0    0  501    0  0.00000000000E+00 -0.00000000000E+00 -0.89474610364E+03  0.89474610364E+03  0.00000000000E+00 0. -1.
         23    2    1    2    0    0 -0.98313863394E+02  0.65751691683E+03 -0.48174233446E+03  0.82580211322E+03  0.88765656302E+02 0.  0.
        254    2    1    2    0    0  0.98313863394E+02 -0.65751691683E+03  0.10237896925E+04  0.15057374521E+04  0.88153606194E+03 0.  0.
        -24    2    4    4    0    0 -0.92337744523E+02  0.17360107553E+03  0.37675478873E+03  0.43236326734E+03  0.79562752724E+02 0.  0.
         24    2    4    4    0    0  0.19065160792E+03 -0.83111799235E+03  0.64703490374E+03  0.10733741847E+04  0.79829950426E+02 0.  0.
         11    1    3    3    0    0 -0.44531482614E+02  0.40631378244E+03 -0.34441133132E+03  0.53450267341E+03  0.00000000000E+00 0. -1.
        -11    1    3    3    0    0 -0.53782380781E+02  0.25120313439E+03 -0.13733100314E+03  0.29129943981E+03  0.00000000000E+00 0.  1.
          4    1    6    6  502    0  0.14808863795E+02 -0.11897258609E+03  0.12388282855E+03  0.17239702404E+03  0.00000000000E+00 0. -1.
          3    1    5    5  503    0 -0.19659590815E+02  0.24752482624E+02  0.16068713168E+02  0.35459673574E+02  0.00000000000E+00 0. -1.
         -4    1    5    5    0  503 -0.72678153709E+02  0.14884859290E+03  0.36068607556E+03  0.39690359376E+03  0.00000000000E+00 0.  1.
         -3    1    6    6    0  502  0.17584274412E+03 -0.71214540626E+03  0.52315207519E+03  0.90097716069E+03  0.00000000000E+00 0.  1.
<mgrwt>
<rscale>  0 0.22676555E+04</rscale>
<asrwt>0</asrwt>
<pdfrwt beam="1">  1        1 0.13765325E+00 0.22676555E+04</pdfrwt>
<pdfrwt beam="2">  1       -1 0.22104515E+00 0.22676555E+04</pdfrwt>
<totfact> 0.18038207E+00</totfact>
</mgrwt>
</event>
<event>
12    1  0.2019083E-007  0.1845763E+04  0.7818608E-02  0.8682335E-01
          2   -1    0    0  501    0  0.00000000000E+00  0.00000000000E+00  0.20323609504E+04  0.20323609504E+04  0.00000000000E+00 0. -1.
         -2   -1    0    0    0  501 -0.00000000000E+00 -0.00000000000E+00 -0.41907450882E+03  0.41907450882E+03  0.00000000000E+00 0.  1.
         23    2    1    2    0    0  0.50005628913E+03  0.46768368137E+03  0.41302288248E+03  0.80485305059E+03  0.91739923002E+02 0.  0.
        254    2    1    2    0    0 -0.50005628913E+03 -0.46768368137E+03  0.12002635591E+04  0.16465824086E+04  0.89544218070E+03 0.  0.
        -24    2    4    4    0    0 -0.63095261511E+03 -0.44605038361E+02  0.91035433970E+03  0.11113614700E+04  0.79299944664E+02 0.  0.
         24    2    4    4    0    0  0.13089632598E+03 -0.42307864301E+03  0.28990921938E+03  0.53522093862E+03  0.79276171199E+02 0.  0.
         13    1    3    3    0    0  0.21591061049E+03  0.25924489464E+03  0.18020087188E+03  0.38248877283E+03  0.00000000000E+00 0.  1.
        -13    1    3    3    0    0  0.28414567864E+03  0.20843878674E+03  0.23282201060E+03  0.42236427776E+03  0.00000000000E+00 0. -1.
          4    1    6    6  502    0  0.59890259067E+02 -0.82714599951E+02  0.61302516360E+02  0.11910729066E+03  0.00000000000E+00 0. -1.
          3    1    5    5  503    0 -0.17391058595E+02  0.63564394512E+01  0.11260900581E+02  0.21671666374E+02  0.00000000000E+00 0. -1.
         -4    1    5    5    0  503 -0.61356155652E+03 -0.50961477812E+02  0.89909343912E+03  0.10896898036E+04  0.00000000000E+00 0.  1.
         -3    1    6    6    0  502  0.71006066914E+02 -0.34036404306E+03  0.22860670302E+03  0.41611364796E+03  0.00000000000E+00 0.  1.
<mgrwt>
<rscale>  0 0.18457634E+04</rscale>
<asrwt>0</asrwt>
<pdfrwt beam="1">  1        2 0.31267091E+00 0.18457634E+04</pdfrwt>
<pdfrwt beam="2">  1       -2 0.64473003E-01 0.18457634E+04</pdfrwt>
<totfact> 0.13394523E+01</totfact>
</mgrwt>
</event>
<event>
12    1  0.2088614E-007  0.3115212E+04  0.7818608E-02  0.8211575E-01
          1   -1    0    0  501    0  0.00000000000E+00  0.00000000000E+00  0.28724763595E+04  0.28724763595E+04  0.00000000000E+00 0. -1.
         -1   -1    0    0    0  501 -0.00000000000E+00 -0.00000000000E+00 -0.84461516841E+03  0.84461516841E+03  0.00000000000E+00 0.  1.
         23    2    1    2    0    0 -0.13608794556E+04  0.37529693464E+03  0.11770857063E+04  0.18400309392E+04  0.85687896501E+02 0.  0.
        254    2    1    2    0    0  0.13608794556E+04 -0.37529693464E+03  0.85077548480E+03  0.18770605887E+04  0.89816303997E+03 0.  0.
        -24    2    4    4    0    0  0.13644741594E+04 -0.22926882933E+03  0.95244790902E+03  0.16816210814E+04  0.79614786810E+02 0.  0.
         24    2    4    4    0    0 -0.35947038449E+01 -0.14602810531E+03 -0.10167242422E+03  0.19543950728E+03  0.80760075047E+02 0.  0.
         13    1    3    3    0    0 -0.79641619237E+03  0.24943778013E+03  0.73516390771E+03  0.11121888009E+04  0.00000000000E+00 0. -1.
        -13    1    3    3    0    0 -0.56446326320E+03  0.12585915450E+03  0.44192179862E+03  0.72784213835E+03  0.00000000000E+00 0.  1.
          2    1    6    6  502    0 -0.39778080982E+02 -0.60114508003E+02 -0.57871187526E+02  0.92439840679E+02  0.00000000000E+00 0. -1.
          1    1    5    5  503    0  0.48963683431E+03 -0.11287029675E+03  0.31712786715E+03  0.59418348810E+03  0.00000000000E+00 0. -1.
         -2    1    5    5    0  503  0.87483732510E+03 -0.11639853258E+03  0.63532004187E+03  0.10874375933E+04  0.00000000000E+00 0.  1.
         -1    1    6    6    0  502  0.36183377137E+02 -0.85913597307E+02 -0.43801236692E+02  0.10299966660E+03  0.00000000000E+00 0.  1.
<mgrwt>
<rscale>  0 0.31152124E+04</rscale>
<asrwt>0</asrwt>
<pdfrwt beam="1">  1        1 0.44191944E+00 0.31152124E+04</pdfrwt>
<pdfrwt beam="2">  1       -1 0.12994080E+00 0.31152124E+04</pdfrwt>
<totfact> 0.31618646E-01</totfact>
</mgrwt>
</event>
<event>
12    1  0.2019083E-007  0.1410675E+04  0.7818608E-02  0.8946128E-01
         -3   -1    0    0    0  501 -0.00000000000E+00  0.00000000000E+00  0.73833701621E+03  0.73833701621E+03  0.00000000000E+00 0.  1.
          3   -1    0    0  501    0  0.00000000000E+00 -0.00000000000E+00 -0.67381266706E+03  0.67381266706E+03  0.00000000000E+00 0. -1.
         23    2    1    2    0    0 -0.40501470653E+03  0.51725238238E+02 -0.11855733536E+02  0.41860391653E+03  0.91521952217E+02 0.  0.
        254    2    1    2    0    0  0.40501470653E+03 -0.51725238238E+02  0.76380082683E+02  0.99354576674E+03  0.90254465861E+03 0.  0.
        -24    2    4    4    0    0  0.33324745731E+02  0.15512949787E+03 -0.34626670916E+03  0.38861746912E+03  0.77118114908E+02 0.  0.
         24    2    4    4    0    0  0.37168996080E+03 -0.20685473611E+03  0.42264679184E+03  0.60492829762E+03  0.79784871951E+02 0.  0.
         13    1    3    3    0    0 -0.24835249577E+03  0.28174556704E+02 -0.51725171137E+02  0.25524157406E+03  0.00000000000E+00 0. -1.
        -13    1    3    3    0    0 -0.15666221076E+03  0.23550681533E+02  0.39869437601E+02  0.16336234247E+03  0.00000000000E+00 0.  1.
          2    1    6    6  502    0  0.37271512563E+03 -0.19550263725E+03  0.40624977122E+03  0.58495873586E+03  0.00000000000E+00 0. -1.
          3    1    5    5  503    0 -0.12613364778E+02  0.11417974418E+03 -0.22451805251E+03  0.25219926022E+03  0.00000000000E+00 0. -1.
         -4    1    5    5    0  503  0.45938110509E+02  0.40949753694E+02 -0.12174865665E+03  0.13641820890E+03  0.00000000000E+00 0.  1.
         -1    1    6    6    0  502 -0.10251648256E+01 -0.11352098864E+02  0.16397020624E+02  0.19969561760E+02  0.00000000000E+00 0.  1.
<mgrwt>
<rscale>  0 0.14106748E+04</rscale>
<asrwt>0</asrwt>
<pdfrwt beam="1">  1        3 0.10366349E+00 0.14106748E+04</pdfrwt>
<pdfrwt beam="2">  1       -3 0.11359031E+00 0.14106748E+04</pdfrwt>
<totfact> 0.13226968E+00</totfact>
</mgrwt>
</event>
<event>
12    1  0.2019083E-007  0.1545494E+04  0.7818608E-02  0.8854751E-01
         -2   -1    0    0    0  501 -0.00000000000E+00  0.00000000000E+00  0.24875228103E+03  0.24875228103E+03  0.00000000000E+00 0. -1.
          2   -1    0    0  501    0  0.00000000000E+00 -0.00000000000E+00 -0.24005334450E+04  0.24005334450E+04  0.00000000000E+00 0.  1.
         23    2    1    2    0    0  0.39724022478E+03 -0.20589831747E+03 -0.11223588374E+04  0.12122538609E+04  0.98367423860E+02 0.  0.
        254    2    1    2    0    0 -0.39724022478E+03  0.20589831747E+03 -0.10294223266E+04  0.14370318651E+04  0.89730504380E+03 0.  0.
        -24    2    4    4    0    0 -0.50626933782E+03  0.42966614145E+03 -0.46352704080E+03  0.81369254488E+03  0.79477069204E+02 0.  0.
         24    2    4    4    0    0  0.10902911303E+03 -0.22376782398E+03 -0.56589528580E+03  0.62333932026E+03  0.79718549643E+02 0.  0.
         13    1    3    3    0    0  0.13511307071E+03 -0.11664382692E+03 -0.37702421395E+03  0.41714335922E+03  0.00000000000E+00 0. -1.
        -13    1    3    3    0    0  0.26212715408E+03 -0.89254490548E+02 -0.74533462343E+03  0.79511050167E+03  0.00000000000E+00 0.  1.
          4    1    6    6  502    0  0.54837171688E+02 -0.66924751856E+02 -0.12304498799E+03  0.15041976891E+03  0.00000000000E+00 0. -1.
          3    1    5    5  503    0 -0.12086267916E+03  0.11494182256E+03 -0.15829394307E+03  0.22994865123E+03  0.00000000000E+00 0. -1.
         -4    1    5    5    0  503 -0.38540665866E+03  0.31472431888E+03 -0.30523309773E+03  0.58374389366E+03  0.00000000000E+00 0.  1.
         -3    1    6    6    0  502  0.54191941347E+02 -0.15684307212E+03 -0.44285029781E+03  0.47291955135E+03  0.00000000000E+00 0.  1.
<mgrwt>
<rscale>  0 0.15454943E+04</rscale>
<asrwt>0</asrwt>
<pdfrwt beam="1">  1        2 0.36931283E+00 0.15454943E+04</pdfrwt>
<pdfrwt beam="2">  1       -2 0.38269582E-01 0.15454943E+04</pdfrwt>
<totfact> 0.24710906E+01</totfact>
</mgrwt>
</event>
<event>
12    1  0.2019083E-007  0.1421376E+04  0.7818608E-02  0.8938489E-01
         -1   -1    0    0    0  501 -0.00000000000E+00  0.00000000000E+00  0.60299474871E+03  0.60299474871E+03  0.00000000000E+00 0.  1.
          1   -1    0    0  501    0  0.00000000000E+00 -0.00000000000E+00 -0.83761537296E+03  0.83761537296E+03  0.00000000000E+00 0. -1.
         23    2    1    2    0    0 -0.26679379549E+03 -0.22982623349E+03  0.13046894184E+03  0.38674172329E+03  0.92455334296E+02 0.  0.
        254    2    1    2    0    0  0.26679379549E+03  0.22982623349E+03 -0.36508956610E+03  0.10538683984E+04  0.92376900950E+03 0.  0.
        -24    2    4    4    0    0  0.25625335722E+03  0.25428651262E+03 -0.65512969689E+03  0.75209532975E+03  0.78262709448E+02 0.  0.
         24    2    4    4    0    0  0.10540438268E+02 -0.24460279138E+02  0.29004013080E+03  0.30177306863E+03  0.78957592302E+02 0.  0.
         11    1    3    3    0    0 -0.14277098264E+03 -0.13861435407E+03  0.25981433248E+02  0.20068016223E+03  0.00000000000E+00 0. -1.
        -11    1    3    3    0    0 -0.12402281284E+03 -0.91211879421E+02  0.10448750860E+03  0.18606156106E+03  0.00000000000E+00 0.  1.
          4    1    6    6  502    0  0.71710888122E+00 -0.57963311040E+01  0.27681881126E+03  0.27688041817E+03  0.00000000000E+00 0. -1.
          1    1    5    5  503    0  0.25215322723E+03  0.24793627533E+03 -0.60006257108E+03  0.69651183467E+03  0.00000000000E+00 0. -1.
         -2    1    5    5    0  503  0.41001299851E+01  0.63502372984E+01 -0.55067125814E+02  0.55583495077E+02  0.00000000000E+00 0.  1.
         -3    1    6    6    0  502  0.98233293869E+01 -0.18663948034E+02  0.13221319537E+02  0.24892650456E+02  0.00000000000E+00 0.  1.
<mgrwt>
<rscale>  0 0.14213763E+04</rscale>
<asrwt>0</asrwt>
<pdfrwt beam="1">  1        1 0.12886390E+00 0.14213763E+04</pdfrwt>
<pdfrwt beam="2">  1       -1 0.92768423E-01 0.14213763E+04</pdfrwt>
<totfact> 0.22564924E+01</totfact>
</mgrwt>
</event>
<event>
12    1  0.2019083E-007  0.1642566E+04  0.7818608E-02  0.8794816E-01
          1   -1    0    0  501    0  0.00000000000E+00  0.00000000000E+00  0.24638436908E+04  0.24638436908E+04  0.00000000000E+00 0. -1.
         -1   -1    0    0    0  501 -0.00000000000E+00 -0.00000000000E+00 -0.27376171216E+03  0.27376171216E+03  0.00000000000E+00 0.  1.
         23    2    1    2    0    0  0.26839878566E+03  0.19839930973E+03  0.15333091581E+04  0.15718087178E+04  0.90252295680E+02 0.  0.
        254    2    1    2    0    0 -0.26839878566E+03 -0.19839930973E+03  0.65677282053E+03  0.11657966851E+04  0.90351047531E+03 0.  0.
        -24    2    4    4    0    0 -0.43899091442E+03 -0.43963696057E+03  0.57068846310E+03  0.84737951662E+03  0.79831342364E+02 0.  0.
         24    2    4    4    0    0  0.17059212876E+03  0.24123765084E+03  0.86084357424E+02  0.31841716849E+03  0.81741654145E+02 0.  0.
         11    1    3    3    0    0  0.15180735174E+03  0.56487014301E+02  0.73864381344E+03  0.75619503963E+03  0.00000000000E+00 0. -1.
        -11    1    3    3    0    0  0.11659143392E+03  0.14191229543E+03  0.79466534463E+03  0.81561367817E+03  0.00000000000E+00 0.  1.
          2    1    6    6  502    0  0.32012676561E+02  0.47153909966E+01  0.11228852046E+02  0.34251036351E+02  0.00000000000E+00 0. -1.
          1    1    5    5  503    0 -0.14510417689E+02  0.17181737747E+00  0.19609944525E+02  0.24395320596E+02  0.00000000000E+00 0. -1.
         -2    1    5    5    0  503 -0.42448049673E+03 -0.43980877795E+03  0.55107851858E+03  0.82298419602E+03  0.00000000000E+00 0.  1.
         -1    1    6    6    0  502  0.13857945220E+03  0.23652225984E+03  0.74855505378E+02  0.28416613214E+03  0.00000000000E+00 0.  1.
<mgrwt>
<rscale>  0 0.16425664E+04</rscale>
<asrwt>0</asrwt>
<pdfrwt beam="1">  1        1 0.37905286E+00 0.16425664E+04</pdfrwt>
<pdfrwt beam="2">  1       -1 0.42117188E-01 0.16425664E+04</pdfrwt>
<totfact> 0.76142112E+00</totfact>
</mgrwt>
</event>
<event>
12    1  0.2019083E-007  0.1292529E+04  0.7818608E-02  0.9035511E-01
          1   -1    0    0  501    0  0.00000000000E+00  0.00000000000E+00  0.10419310567E+04  0.10419310567E+04  0.00000000000E+00 0. -1.
         -1   -1    0    0    0  501 -0.00000000000E+00 -0.00000000000E+00 -0.40084991422E+03  0.40084991422E+03  0.00000000000E+00 0.  1.
         23    2    1    2    0    0 -0.31371499871E+03  0.84036305553E+02  0.13309444586E+03  0.35874338326E+03  0.74185459835E+02 0.  0.
        254    2    1    2    0    0  0.31371499871E+03 -0.84036305553E+02  0.50798669665E+03  0.10840375877E+04  0.90089278301E+03 0.  0.
        -24    2    4    4    0    0  0.62298319530E+02  0.26760308974E+03 -0.12582241587E+03  0.31269562386E+03  0.80341636733E+02 0.  0.
         24    2    4    4    0    0  0.25141667918E+03 -0.35163939529E+03  0.63380911252E+03  0.77134196383E+03  0.79961385412E+02 0.  0.
         11    1    3    3    0    0 -0.27484450362E+03  0.69310949841E+02  0.14076080208E+03  0.31647608495E+03  0.00000000000E+00 0. -1.
        -11    1    3    3    0    0 -0.38870495084E+02  0.14725355712E+02 -0.76663562294E+01  0.42267298313E+02  0.00000000000E+00 0.  1.
          4    1    6    6  502    0  0.12087100007E+03 -0.16302664540E+03  0.36791528533E+03  0.42017751362E+03  0.00000000000E+00 0. -1.
          3    1    5    5  503    0 -0.18264940038E+02  0.28879303705E+02 -0.11872803236E+02  0.36174378692E+02  0.00000000000E+00 0. -1.
         -4    1    5    5    0  503  0.80563259568E+02  0.23872378603E+03 -0.11394961263E+03  0.27652124517E+03  0.00000000000E+00 0.  1.
         -3    1    6    6    0  502  0.13054567910E+03 -0.18861274988E+03  0.26589382719E+03  0.35116445021E+03  0.00000000000E+00 0.  1.
<mgrwt>
<rscale>  0 0.12925293E+04</rscale>
<asrwt>0</asrwt>
<pdfrwt beam="1">  1        1 0.16029708E+00 0.12925293E+04</pdfrwt>
<pdfrwt beam="2">  1       -1 0.61669218E-01 0.12925293E+04</pdfrwt>
<totfact> 0.36806541E+01</totfact>
</mgrwt>
</event>
<event>
12    1  0.2019083E-007  0.3114212E+04  0.7818608E-02  0.8211848E-01
         -1   -1    0    0    0  501 -0.00000000000E+00  0.00000000000E+00  0.78781009484E+03  0.78781009484E+03  0.00000000000E+00 0. -1.
          1   -1    0    0  501    0  0.00000000000E+00 -0.00000000000E+00 -0.30776179194E+04  0.30776179194E+04  0.00000000000E+00 0.  1.
         23    2    1    2    0    0  0.49838748277E+03  0.13112480331E+04 -0.73466889775E+03  0.15861594615E+04  0.91662210156E+02 0.  0.
        254    2    1    2    0    0 -0.49838748277E+03 -0.13112480331E+04 -0.15551389268E+04  0.22792685527E+04  0.89935897537E+03 0.  0.
        -24    2    4    4    0    0 -0.25528996760E+03 -0.13256929910E+04 -0.10474672616E+04  0.17106401856E+04  0.80419565412E+02 0.  0.
         24    2    4    4    0    0 -0.24309751517E+03  0.14444957930E+02 -0.50767166518E+03  0.56862836712E+03  0.79389177958E+02 0.  0.
         11    1    3    3    0    0  0.62906766387E+02  0.20002466308E+03 -0.14496087667E+03  0.25491328499E+03  0.00000000000E+00 0. -1.
        -11    1    3    3    0    0  0.43548071638E+03  0.11112233700E+04 -0.58970802107E+03  0.13312461765E+04  0.00000000000E+00 0.  1.
          2    1    6    6  502    0 -0.42832036866E+02  0.32890375136E+02 -0.87845841714E+02  0.10311766127E+03  0.00000000000E+00 0. -1.
          3    1    5    5  503    0 -0.22094634412E+03 -0.11593876041E+04 -0.94802090204E+03  0.15138495745E+04  0.00000000000E+00 0. -1.
         -4    1    5    5    0  503 -0.34343623486E+02 -0.16630538687E+03 -0.99446359596E+02  0.19679061109E+03  0.00000000000E+00 0.  1.
         -1    1    6    6    0  502 -0.20026547830E+03 -0.18445417206E+02 -0.41982582347E+03  0.46551070585E+03  0.00000000000E+00 0.  1.
<mgrwt>
<rscale>  0 0.31142116E+04</rscale>
<asrwt>0</asrwt>
<pdfrwt beam="1">  1        1 0.47347968E+00 0.31142116E+04</pdfrwt>
<pdfrwt beam="2">  1       -1 0.12120155E+00 0.31142116E+04</pdfrwt>
<totfact> 0.26668317E-01</totfact>
</mgrwt>
</event>
<event>
12    1  0.2019083E-007  0.3391746E+04  0.7818608E-02  0.8139935E-01
          2   -1    0    0  501    0  0.00000000000E+00  0.00000000000E+00  0.13682100033E+04  0.13682100033E+04  0.00000000000E+00 0. -1.
         -2   -1    0    0    0  501 -0.00000000000E+00 -0.00000000000E+00 -0.21020061072E+04  0.21020061072E+04  0.00000000000E+00 0.  1.
         23    2    1    2    0    0 -0.35698959821E+03  0.14696360110E+04 -0.79170205587E+03  0.17095211507E+04  0.91645192664E+02 0.  0.
        254    2    1    2    0    0  0.35698959821E+03 -0.14696360110E+04  0.57905951883E+02  0.17606949598E+04  0.89967886737E+03 0.  0.
        -24    2    4    4    0    0  0.44262031587E+03 -0.10070321662E+04 -0.32343719836E+03  0.11494908398E+04  0.81798788363E+02 0.  0.
         24    2    4    4    0    0 -0.85630717661E+02 -0.46260384479E+03  0.38134315024E+03  0.61120412004E+03  0.82540542142E+02 0.  0.
         13    1    3    3    0    0 -0.28337717320E+03  0.11774954315E+04 -0.59188636205E+03  0.13480087459E+04  0.00000000000E+00 0. -1.
        -13    1    3    3    0    0 -0.73612425012E+02  0.29214057946E+03 -0.19981569383E+03  0.36151240474E+03  0.00000000000E+00 0.  1.
          2    1    6    6  502    0 -0.38027358287E+02 -0.25563001712E+03  0.15755067033E+03  0.30267969763E+03  0.00000000000E+00 0. -1.
          1    1    5    5  503    0  0.94498963701E+02 -0.14979628759E+03 -0.67270554894E+02  0.18945793589E+03  0.00000000000E+00 0. -1.
         -2    1    5    5    0  503  0.34812135217E+03 -0.85723587859E+03 -0.25616664346E+03  0.96003290392E+03  0.00000000000E+00 0.  1.
         -1    1    6    6    0  502 -0.47603359374E+02 -0.20697382766E+03  0.22379247990E+03  0.30852442241E+03  0.00000000000E+00 0.  1.
<mgrwt>
<rscale>  0 0.33917463E+04</rscale>
<asrwt>0</asrwt>
<pdfrwt beam="1">  1        2 0.21049385E+00 0.33917463E+04</pdfrwt>
<pdfrwt beam="2">  1       -2 0.32338555E+00 0.33917463E+04</pdfrwt>
<totfact> 0.28539876E-01</totfact>
</mgrwt>
</event>
<event>
12    1  0.2019083E-007  0.3276707E+04  0.7818608E-02  0.8168848E-01
          2   -1    0    0  501    0  0.00000000000E+00  0.00000000000E+00  0.32436659715E+04  0.32436659715E+04  0.00000000000E+00 0. -1.
         -2   -1    0    0    0  501 -0.00000000000E+00 -0.00000000000E+00 -0.82752091366E+03  0.82752091366E+03  0.00000000000E+00 0.  1.
         23    2    1    2    0    0  0.66939629212E+03 -0.11855355516E+04  0.19412963335E+04  0.23722641798E+04  0.73620269279E+02 0.  0.
        254    2    1    2    0    0 -0.66939629212E+03  0.11855355516E+04  0.47484872435E+03  0.16989227054E+04  0.89848266989E+03 0.  0.
        -24    2    4    4    0    0 -0.86675349760E+03  0.76889669604E+03  0.37921330870E+03  0.12213407006E+04  0.73529712199E+02 0.  0.
         24    2    4    4    0    0  0.19735720548E+03  0.41663885555E+03  0.95635415655E+02  0.47758200489E+03  0.80003975860E+02 0.  0.
         13    1    3    3    0    0  0.41152944916E+03 -0.67277728218E+03  0.10821789699E+04  0.13390657496E+04  0.00000000000E+00 0. -1.
        -13    1    3    3    0    0  0.25786684296E+03 -0.51275826941E+03  0.85911736363E+03  0.10331984301E+04  0.00000000000E+00 0.  1.
          2    1    6    6  502    0  0.14242215272E+03  0.21007549960E+03  0.42545950208E+02  0.25734401682E+03  0.00000000000E+00 0. -1.
          3    1    5    5  503    0 -0.51150485475E+03  0.49534966594E+03  0.21402089526E+03  0.74351425782E+03  0.00000000000E+00 0. -1.
         -4    1    5    5    0  503 -0.35524864285E+03  0.27354703010E+03  0.16519241344E+03  0.47782644274E+03  0.00000000000E+00 0.  1.
         -1    1    6    6    0  502  0.54935052767E+02  0.20656335595E+03  0.53089465447E+02  0.22023798806E+03  0.00000000000E+00 0.  1.
<mgrwt>
<rscale>  0 0.32767065E+04</rscale>
<asrwt>0</asrwt>
<pdfrwt beam="1">  1        2 0.49902553E+00 0.32767065E+04</pdfrwt>
<pdfrwt beam="2">  1       -2 0.12731091E+00 0.32767065E+04</pdfrwt>
<totfact> 0.46463392E-01</totfact>
</mgrwt>
</event>
<event>
12    1  0.2019083E-007  0.2888811E+04  0.7818608E-02  0.8276214E-01
          2   -1    0    0  501    0  0.00000000000E+00  0.00000000000E+00  0.11274822886E+04  0.11274822886E+04  0.00000000000E+00 0. -1.
         -2   -1    0    0    0  501 -0.00000000000E+00 -0.00000000000E+00 -0.18504127466E+04  0.18504127466E+04  0.00000000000E+00 0.  1.
         23    2    1    2    0    0  0.63823389322E+03 -0.11330476156E+04 -0.40415695667E+03  0.13645230685E+04  0.86260982856E+02 0.  0.
        254    2    1    2    0    0 -0.63823389322E+03  0.11330476156E+04 -0.31877350131E+03  0.16133719666E+04  0.90011841204E+03 0.  0.
        -24    2    4    4    0    0  0.22370387997E+03  0.25142768159E+03 -0.75126099277E+02  0.35401122157E+03  0.80129328124E+02 0.  0.
         24    2    4    4    0    0 -0.86193777319E+03  0.88161993405E+03 -0.24364740204E+03  0.12593607450E+04  0.80218430552E+02 0.  0.
         13    1    3    3    0    0  0.13676129160E+03 -0.22313157788E+03 -0.11661728128E+03  0.28651516926E+03  0.00000000000E+00 0.  1.
        -13    1    3    3    0    0  0.50147260162E+03 -0.90991603776E+03 -0.28753967539E+03  0.10780078993E+04  0.00000000000E+00 0. -1.
          4    1    6    6  502    0 -0.38262186234E+02  0.18546780433E+02 -0.74746583962E+01  0.43172311474E+02  0.00000000000E+00 0. -1.
          1    1    5    5  503    0  0.55419982074E+02  0.19240595465E+02 -0.55068075161E+01  0.58922829667E+02  0.00000000000E+00 0. -1.
         -2    1    5    5    0  503  0.16828389790E+03  0.23218708612E+03 -0.69619291761E+02  0.29508839191E+03  0.00000000000E+00 0.  1.
         -3    1    6    6    0  502 -0.82367558696E+03  0.86307315362E+03 -0.23617274364E+03  0.12161884335E+04  0.00000000000E+00 0.  1.
<mgrwt>
<rscale>  0 0.28888112E+04</rscale>
<asrwt>0</asrwt>
<pdfrwt beam="1">  1        2 0.17345881E+00 0.28888112E+04</pdfrwt>
<pdfrwt beam="2">  1       -2 0.28467888E+00 0.28888112E+04</pdfrwt>
<totfact> 0.71378576E-01</totfact>
</mgrwt>
</event>
<event>
12    1  0.2019083E-007  0.1976932E+04  0.7818608E-02  0.8617482E-01
          1   -1    0    0  501    0  0.00000000000E+00  0.00000000000E+00  0.18993429207E+04  0.18993429207E+04  0.00000000000E+00 0. -1.
         -1   -1    0    0    0  501 -0.00000000000E+00 -0.00000000000E+00 -0.51442272184E+03  0.51442272184E+03  0.00000000000E+00 0.  1.
         23    2    1    2    0    0 -0.45288093170E+03 -0.63513440540E+03  0.58488458233E+03  0.97921515661E+03  0.90969759097E+02 0.  0.
        254    2    1    2    0    0  0.45288093170E+03  0.63513440540E+03  0.80003561654E+03  0.14345504859E+04  0.89965618862E+03 0.  0.
        -24    2    4    4    0    0 -0.12077752479E+03  0.58871273472E+03  0.35119557560E+03  0.70065818000E+03  0.80085319274E+02 0.  0.
         24    2    4    4    0    0  0.57365845648E+03  0.46421670678E+02  0.44884004094E+03  0.73389230593E+03  0.76821469323E+02 0.  0.
         11    1    3    3    0    0 -0.40291672158E+03 -0.50712358200E+03  0.49144219329E+03  0.81303852387E+03  0.00000000000E+00 0. -1.
        -11    1    3    3    0    0 -0.49964210120E+02 -0.12801082339E+03  0.93442389040E+02  0.16617663274E+03  0.00000000000E+00 0.  1.
          2    1    6    6  502    0  0.33883161569E+03  0.65248772518E+02  0.26614247743E+03  0.43577067868E+03  0.00000000000E+00 0. -1.
          3    1    5    5  503    0 -0.11542500380E+03  0.41787538376E+03  0.22682964092E+03  0.48927952528E+03  0.00000000000E+00 0. -1.
         -4    1    5    5    0  503 -0.53525209878E+01  0.17083735096E+03  0.12436593467E+03  0.21137865472E+03  0.00000000000E+00 0.  1.
         -1    1    6    6    0  502  0.23482684079E+03 -0.18827101840E+02  0.18269756351E+03  0.29812162725E+03  0.00000000000E+00 0.  1.
<mgrwt>
<rscale>  0 0.19769321E+04</rscale>
<asrwt>0</asrwt>
<pdfrwt beam="1">  1        1 0.29220660E+00 0.19769321E+04</pdfrwt>
<pdfrwt beam="2">  1       -1 0.79141958E-01 0.19769321E+04</pdfrwt>
<totfact> 0.51738229E+00</totfact>
</mgrwt>
</event>
<event>
12    1  0.2019083E-007  0.1607421E+04  0.7818608E-02  0.8816002E-01
          2   -1    0    0  501    0  0.00000000000E+00  0.00000000000E+00  0.36168021960E+04  0.36168021960E+04  0.00000000000E+00 0. -1.
         -2   -1    0    0    0  501 -0.00000000000E+00 -0.00000000000E+00 -0.17859708904E+03  0.17859708904E+03  0.00000000000E+00 0.  1.
         23    2    1    2    0    0  0.24612973088E+03  0.33215854481E+03  0.20318611924E+04  0.20755393225E+04  0.92165236886E+02 0.  0.
        254    2    1    2    0    0 -0.24612973088E+03 -0.33215854481E+03  0.14063439145E+04  0.17198599625E+04  0.89955874809E+03 0.  0.
        -24    2    4    4    0    0  0.29064048511E+03  0.73809896930E+02  0.49150639874E+03  0.58124424234E+03  0.79665154098E+02 0.  0.
         24    2    4    4    0    0 -0.53677021599E+03 -0.40596844174E+03  0.91483751578E+03  0.11386157201E+04  0.81150707782E+02 0.  0.
         13    1    3    3    0    0  0.22058179686E+02  0.35385539838E+02  0.10228994221E+03  0.11046235557E+03  0.00000000000E+00 0.  1.
        -13    1    3    3    0    0  0.22407155119E+03  0.29677300497E+03  0.19295712502E+04  0.19650769670E+04  0.00000000000E+00 0. -1.
          4    1    6    6  502    0 -0.52144948378E+03 -0.40772692690E+03  0.90007782451E+03  0.11172693951E+04  0.00000000000E+00 0. -1.
          1    1    5    5  503    0  0.21910023409E+03  0.27104920924E+02  0.30936817629E+03  0.38006349182E+03  0.00000000000E+00 0. -1.
         -2    1    5    5    0  503  0.71540251024E+02  0.46704976005E+02  0.18213822245E+03  0.20118075052E+03  0.00000000000E+00 0.  1.
         -3    1    6    6    0  502 -0.15320732217E+02  0.17584851634E+01  0.14759691270E+02  0.21346325026E+02  0.00000000000E+00 0.  1.
<mgrwt>
<rscale>  0 0.16074207E+04</rscale>
<asrwt>0</asrwt>
<pdfrwt beam="1">  1        2 0.55643105E+00 0.16074207E+04</pdfrwt>
<pdfrwt beam="2">  1       -2 0.27476478E-01 0.16074207E+04</pdfrwt>
<totfact> 0.78718817E+00</totfact>
</mgrwt>
</event>
<event>
12    1  0.2019083E-007  0.1950148E+04  0.7818608E-02  0.8630290E-01
         -1   -1    0    0    0  501 -0.00000000000E+00  0.00000000000E+00  0.59696147643E+03  0.59696147643E+03  0.00000000000E+00 0.  1.
          1   -1    0    0  501    0  0.00000000000E+00 -0.00000000000E+00 -0.15926807711E+04  0.15926807711E+04  0.00000000000E+00 0. -1.
         23    2    1    2    0    0  0.53477797964E+03 -0.35101382090E+03  0.76485054993E+02  0.65124181831E+03  0.95224746291E+02 0.  0.
        254    2    1    2    0    0 -0.53477797964E+03  0.35101382090E+03 -0.10722043497E+04  0.15384004292E+04  0.89880783442E+03 0.  0.
        -24    2    4    4    0    0 -0.47518203137E+03  0.17642353395E+03 -0.11968472485E+04  0.13018871910E+04  0.74455999094E+02 0.  0.
         24    2    4    4    0    0 -0.59595948270E+02  0.17459028695E+03  0.12464289877E+03  0.23651323819E+03  0.79807357303E+02 0.  0.
         11    1    3    3    0    0  0.81527593696E+02 -0.25073006822E+02  0.32343721938E+02  0.91222368714E+02  0.00000000000E+00 0.  1.
        -11    1    3    3    0    0  0.45325038594E+03 -0.32594081408E+03  0.44141333054E+02  0.56001944960E+03  0.00000000000E+00 0. -1.
          2    1    6    6  502    0 -0.74439328926E+02  0.16303218260E+03  0.12352485257E+03  0.21766739640E+03  0.00000000000E+00 0. -1.
          1    1    5    5  503    0 -0.36762192236E+03  0.11090299561E+03 -0.95262260258E+03  0.10271003725E+04  0.00000000000E+00 0. -1.
         -2    1    5    5    0  503 -0.10756010900E+03  0.65520538348E+02 -0.24422464588E+03  0.27478681855E+03  0.00000000000E+00 0.  1.
         -1    1    6    6    0  502  0.14843380656E+02  0.11558104348E+02  0.11180461980E+01  0.18845841789E+02  0.00000000000E+00 0.  1.
<mgrwt>
<rscale>  0 0.19501478E+04</rscale>
<asrwt>0</asrwt>
<pdfrwt beam="1">  1        1 0.24502780E+00 0.19501478E+04</pdfrwt>
<pdfrwt beam="2">  1       -1 0.91840230E-01 0.19501478E+04</pdfrwt>
<totfact> 0.60734803E+00</totfact>
</mgrwt>
</event>
<event>
12    1  0.2019083E-007  0.3194548E+04  0.7818608E-02  0.8190259E-01
          2   -1    0    0  501    0  0.00000000000E+00  0.00000000000E+00  0.34503316194E+04  0.34503316194E+04  0.00000000000E+00 0.  1.
         -2   -1    0    0    0  501 -0.00000000000E+00 -0.00000000000E+00 -0.73943147486E+03  0.73943147486E+03  0.00000000000E+00 0. -1.
         23    2    1    2    0    0  0.11631123388E+04 -0.32231547666E+03  0.23465025350E+04  0.26405484817E+04  0.98511716308E+02 0.  0.
        254    2    1    2    0    0 -0.11631123388E+04  0.32231547666E+03  0.36439760958E+03  0.15492146126E+04  0.90031256731E+03 0.  0.
        -24    2    4    4    0    0 -0.16497347842E+03 -0.24962130071E+03  0.23461166437E+03  0.38881075020E+03  0.81265761936E+02 0.  0.
         24    2    4    4    0    0 -0.99813886039E+03  0.57193677736E+03  0.12978594521E+03  0.11604038624E+04  0.79371722857E+02 0.  0.
         11    1    3    3    0    0  0.65023376766E+03 -0.14513763560E+03  0.12154140134E+04  0.13860375572E+04  0.00000000000E+00 0. -1.
        -11    1    3    3    0    0  0.51287857115E+03 -0.17717784106E+03  0.11310885215E+04  0.12545109245E+04  0.00000000000E+00 0.  1.
          2    1    6    6  502    0 -0.17726609330E+03  0.13771340962E+03  0.23982774891E+02  0.22575080180E+03  0.00000000000E+00 0. -1.
          1    1    5    5  503    0 -0.12439168781E+03 -0.13036991617E+03  0.10734059669E+03  0.20974177156E+03  0.00000000000E+00 0. -1.
         -2    1    5    5    0  503 -0.40581790612E+02 -0.11925138453E+03  0.12727106768E+03  0.17906897864E+03  0.00000000000E+00 0.  1.
         -1    1    6    6    0  502 -0.82087276709E+03  0.43422336775E+03  0.10580317032E+03  0.93465306060E+03  0.00000000000E+00 0.  1.
<mgrwt>
<rscale>  0 0.31945477E+04</rscale>
<asrwt>0</asrwt>
<pdfrwt beam="1">  1        2 0.53082024E+00 0.31945477E+04</pdfrwt>
<pdfrwt beam="2">  1       -2 0.11375869E+00 0.31945477E+04</pdfrwt>
<totfact> 0.44851008E-01</totfact>
</mgrwt>
</event>
<event>
12    1  0.2019083E-007  0.1834964E+04  0.7818608E-02  0.8687924E-01
          2   -1    0    0  501    0  0.00000000000E+00  0.00000000000E+00  0.67426041722E+03  0.67426041722E+03  0.00000000000E+00 0. -1.
         -2   -1    0    0    0  501 -0.00000000000E+00 -0.00000000000E+00 -0.12484396949E+04  0.12484396949E+04  0.00000000000E+00 0.  1.
         23    2    1    2    0    0 -0.41687039728E+03  0.48380424274E+03  0.65323628200E+02  0.64845365864E+03  0.91528670789E+02 0.  0.
        254    2    1    2    0    0  0.41687039728E+03 -0.48380424274E+03 -0.63950290592E+03  0.12742464535E+04  0.89827199902E+03 0.  0.
        -24    2    4    4    0    0 -0.25625984665E+03  0.39944126224E+01 -0.14446079374E+03  0.30343512764E+03  0.74289241614E+02 0.  0.
         24    2    4    4    0    0  0.67313024393E+03 -0.48779865536E+03 -0.49504211217E+03  0.97081132589E+03  0.79725053644E+02 0.  0.
         11    1    3    3    0    0 -0.23439910887E+03  0.23044607350E+03  0.70503047295E+02  0.33618300777E+03  0.00000000000E+00 0. -1.
        -11    1    3    3    0    0 -0.18247128841E+03  0.25335816924E+03 -0.51794190946E+01  0.31227065087E+03  0.00000000000E+00 0.  1.
          2    1    6    6  502    0  0.60691742438E+02 -0.71995782968E+02 -0.68715004936E+02  0.11657028896E+03  0.00000000000E+00 0. -1.
          3    1    5    5  503    0 -0.15966705030E+02 -0.46989019260E+01  0.82636299765E+01  0.18582328412E+02  0.00000000000E+00 0. -1.
         -4    1    5    5    0  503 -0.24029314162E+03  0.86933145484E+01 -0.15272442372E+03  0.28485279923E+03  0.00000000000E+00 0.  1.
         -1    1    6    6    0  502  0.61243850149E+03 -0.41580287240E+03 -0.42632710724E+03  0.85424103692E+03  0.00000000000E+00 0.  1.
<mgrwt>
<rscale>  0 0.18349643E+04</rscale>
<asrwt>0</asrwt>
<pdfrwt beam="1">  1        2 0.10373237E+00 0.18349643E+04</pdfrwt>
<pdfrwt beam="2">  1       -2 0.19206764E+00 0.18349643E+04</pdfrwt>
<totfact> 0.60667371E+00</totfact>
</mgrwt>
</event>
<event>
12    1  0.2339282E-007  0.2501363E+04  0.7818608E-02  0.8402500E-01
          2   -1    0    0  501    0  0.00000000000E+00  0.00000000000E+00  0.13373184101E+04  0.13373184101E+04  0.00000000000E+00 0. -1.
         -2   -1    0    0    0  501 -0.00000000000E+00 -0.00000000000E+00 -0.11696576587E+04  0.11696576587E+04  0.00000000000E+00 0.  1.
         23    2    1    2    0    0 -0.88912390684E+03  0.47448524583E+03  0.48272530493E+03  0.11209884369E+04  0.88959459240E+02 0.  0.
        254    2    1    2    0    0  0.88912390684E+03 -0.47448524583E+03 -0.31506455355E+03  0.13859876319E+04  0.89778531544E+03 0.  0.
        -24    2    4    4    0    0  0.84052645178E+03  0.98244915290E-01 -0.31789532272E+03  0.90200236346E+03  0.77885182738E+02 0.  0.
         24    2    4    4    0    0  0.48597455061E+02 -0.47458349075E+03  0.28307691665E+01  0.48398526843E+03  0.81501683862E+02 0.  0.
         13    1    3    3    0    0 -0.55081411869E+03  0.33804993345E+03  0.28895765609E+03  0.70793395021E+03  0.00000000000E+00 0.  1.
        -13    1    3    3    0    0 -0.33830978816E+03  0.13643531238E+03  0.19376764884E+03  0.41305448668E+03  0.00000000000E+00 0. -1.
          2    1    6    6  502    0  0.10629675854E+02 -0.77919681769E+01  0.83819637359E+01  0.15619285928E+02  0.00000000000E+00 0. -1.
          3    1    5    5  503    0  0.12586829015E+03  0.25517231669E+02 -0.36448417921E+02  0.13350072189E+03  0.00000000000E+00 0. -1.
         -4    1    5    5    0  503  0.71465816163E+03 -0.25418986753E+02 -0.28144690479E+03  0.76850164157E+03  0.00000000000E+00 0.  1.
         -1    1    6    6    0  502  0.37967779207E+02 -0.46679152257E+03 -0.55511945694E+01  0.46836598250E+03  0.00000000000E+00 0.  1.
<mgrwt>
<rscale>  0 0.25013634E+04</rscale>
<asrwt>0</asrwt>
<pdfrwt beam="1">  1        2 0.20574129E+00 0.25013634E+04</pdfrwt>
<pdfrwt beam="2">  1       -2 0.17994733E+00 0.25013634E+04</pdfrwt>
<totfact> 0.25452232E+00</totfact>
</mgrwt>
</event>
<event>
12    1  0.2019083E-007  0.1422450E+04  0.7818608E-02  0.8937727E-01
          1   -1    0    0  501    0  0.00000000000E+00  0.00000000000E+00  0.10269888149E+04  0.10269888149E+04  0.00000000000E+00 0. -1.
         -1   -1    0    0    0  501 -0.00000000000E+00 -0.00000000000E+00 -0.49254767592E+03  0.49254767592E+03  0.00000000000E+00 0.  1.
         23    2    1    2    0    0  0.25677240275E+03  0.19715119959E+03 -0.12484435562E+03  0.35881210372E+03  0.91429482840E+02 0.  0.
        254    2    1    2    0    0 -0.25677240275E+03 -0.19715119959E+03  0.65928549460E+03  0.11607243871E+04  0.89878978471E+03 0.  0.
        -24    2    4    4    0    0  0.17243870531E+03 -0.22078052597E+03 -0.79196909008E+02  0.30222166158E+03  0.81158083985E+02 0.  0.
         24    2    4    4    0    0 -0.42921110807E+03  0.23629326381E+02  0.73848240361E+03  0.85850272552E+03  0.83006920992E+02 0.  0.
         11    1    3    3    0    0  0.24674865877E+03  0.20070832747E+03 -0.10268927211E+03  0.33423617388E+03  0.00000000000E+00 0.  1.
        -11    1    3    3    0    0  0.10023743983E+02 -0.35571278875E+01 -0.22155083512E+02  0.24575929843E+02  0.00000000000E+00 0. -1.
          2    1    6    6  502    0 -0.33279192610E+03  0.22476413702E+02  0.49773468427E+03  0.59916230787E+03  0.00000000000E+00 0. -1.
          3    1    5    5  503    0  0.11258280980E+03 -0.13038336742E+03 -0.78657708653E+01  0.17244298163E+03  0.00000000000E+00 0. -1.
         -4    1    5    5    0  503  0.59855895512E+02 -0.90397158549E+02 -0.71331138143E+02  0.12977867995E+03  0.00000000000E+00 0.  1.
         -1    1    6    6    0  502 -0.96419181968E+02  0.11529126797E+01  0.24074771934E+03  0.25934041765E+03  0.00000000000E+00 0.  1.
<mgrwt>
<rscale>  0 0.14224499E+04</rscale>
<asrwt>0</asrwt>
<pdfrwt beam="1">  1        1 0.15799828E+00 0.14224499E+04</pdfrwt>
<pdfrwt beam="2">  1       -1 0.75776566E-01 0.14224499E+04</pdfrwt>
<totfact> 0.24556369E+01</totfact>
</mgrwt>
</event>
<event>
12    1  0.2019083E-007  0.1694675E+04  0.7818608E-02  0.8764407E-01
         -2   -1    0    0    0  501 -0.00000000000E+00  0.00000000000E+00  0.33261145263E+03  0.33261145263E+03  0.00000000000E+00 0.  1.
          2   -1    0    0  501    0  0.00000000000E+00 -0.00000000000E+00 -0.21586180739E+04  0.21586180739E+04  0.00000000000E+00 0. -1.
         23    2    1    2    0    0 -0.53384500882E+02  0.53714581813E+03 -0.25549408223E+03  0.60369067952E+03  0.88259138983E+02 0.  0.
        254    2    1    2    0    0  0.53384500882E+02 -0.53714581813E+03 -0.15705125390E+04  0.18875388470E+04  0.89717207314E+03 0.  0.
        -24    2    4    4    0    0 -0.98017802563E+02 -0.74244674439E+03 -0.95503037952E+03  0.12163002404E+04  0.80427551583E+02 0.  0.
         24    2    4    4    0    0  0.15140230344E+03  0.20530092626E+03 -0.61548215948E+03  0.67123860660E+03  0.81681396552E+02 0.  0.
         13    1    3    3    0    0  0.75111592591E+01  0.48322851348E+02 -0.28408512592E+00  0.48903948513E+02  0.00000000000E+00 0.  1.
        -13    1    3    3    0    0 -0.60895660141E+02  0.48882296678E+03 -0.25520999711E+03  0.55478673101E+03  0.00000000000E+00 0. -1.
          2    1    6    6  502    0  0.36357921499E+02  0.38972328861E+02 -0.22808363335E+03  0.23422827472E+03  0.00000000000E+00 0. -1.
          1    1    5    5  503    0  0.85167199439E+00 -0.26380780915E+03 -0.35899903270E+03  0.44550599434E+03  0.00000000000E+00 0. -1.
         -2    1    5    5    0  503 -0.98869474558E+02 -0.47863893524E+03 -0.59603134682E+03  0.77079424604E+03  0.00000000000E+00 0.  1.
         -1    1    6    6    0  502  0.11504438195E+03  0.16632859740E+03 -0.38739852613E+03  0.43701033189E+03  0.00000000000E+00 0.  1.
<mgrwt>
<rscale>  0 0.16946753E+04</rscale>
<asrwt>0</asrwt>
<pdfrwt beam="1">  1        2 0.33209508E+00 0.16946753E+04</pdfrwt>
<pdfrwt beam="2">  1       -2 0.51170994E-01 0.16946753E+04</pdfrwt>
<totfact> 0.18724931E+01</totfact>
</mgrwt>
</event>
<event>
12    1  0.2019083E-007  0.2323979E+04  0.7818608E-02  0.8468526E-01
         -2   -1    0    0    0  501 -0.00000000000E+00  0.00000000000E+00  0.60651645966E+03  0.60651645966E+03  0.00000000000E+00 0.  1.
          2   -1    0    0  501    0  0.00000000000E+00 -0.00000000000E+00 -0.22261879220E+04  0.22261879220E+04  0.00000000000E+00 0. -1.
         23    2    1    2    0    0 -0.81684222791E+03  0.40883655657E+03 -0.11378805078E+04  0.14620909907E+04  0.92517347097E+02 0.  0.
        254    2    1    2    0    0  0.81684222791E+03 -0.40883655657E+03 -0.48179095450E+03  0.13706133910E+04  0.90115480829E+03 0.  0.
        -24    2    4    4    0    0  0.60174497146E+03 -0.43794087215E+03 -0.72034309198E+03  0.10387213334E+04  0.78476876756E+02 0.  0.
         24    2    4    4    0    0  0.21509725645E+03  0.29104315585E+02  0.23855213748E+03  0.33189205758E+03  0.78302775636E+02 0.  0.
         11    1    3    3    0    0 -0.23805055816E+03  0.74279600248E+02 -0.32347828033E+03  0.40844060168E+03  0.00000000000E+00 0. -1.
        -11    1    3    3    0    0 -0.57879166975E+03  0.33455695632E+03 -0.81440222752E+03  0.10536503890E+04  0.00000000000E+00 0.  1.
          2    1    6    6  502    0 -0.64930796522E+01 -0.23242075910E+01  0.82887221207E+01  0.10782622069E+02  0.00000000000E+00 0. -1.
          3    1    5    5  503    0  0.12375487025E+03 -0.52974118432E+02 -0.12756818440E+03  0.18545934003E+03  0.00000000000E+00 0. -1.
         -4    1    5    5    0  503  0.47799010121E+03 -0.38496675372E+03 -0.59277490758E+03  0.85326199340E+03  0.00000000000E+00 0.  1.
         -1    1    6    6    0  502  0.22159033610E+03  0.31428523175E+02  0.23026341536E+03  0.32110943551E+03  0.00000000000E+00 0.  1.
<mgrwt>
<rscale>  0 0.23239790E+04</rscale>
<asrwt>0</asrwt>
<pdfrwt beam="1">  1        2 0.34249045E+00 0.23239790E+04</pdfrwt>
<pdfrwt beam="2">  1       -2 0.93310224E-01 0.23239790E+04</pdfrwt>
<totfact> 0.43887446E+00</totfact>
</mgrwt>
</event>
<event>
12    1  0.2019083E-007  0.1549137E+04  0.7818608E-02  0.8852419E-01
         -2   -1    0    0    0  501 -0.00000000000E+00  0.00000000000E+00  0.59849714815E+03  0.59849714815E+03  0.00000000000E+00 0. -1.
          2   -1    0    0  501    0  0.00000000000E+00 -0.00000000000E+00 -0.10024382157E+04  0.10024382157E+04  0.00000000000E+00 0.  1.
         23    2    1    2    0    0 -0.35408658214E+03  0.25480098804E+03 -0.40472118034E+03  0.60201049413E+03  0.91195120867E+02 0.  0.
        254    2    1    2    0    0  0.35408658214E+03 -0.25480098804E+03  0.78011277111E+00  0.99892486973E+03  0.89863754408E+03 0.  0.
        -24    2    4    4    0    0  0.22051301204E+03 -0.44642519664E+03 -0.31745217625E+03  0.59613250803E+03  0.81710698526E+02 0.  0.
         24    2    4    4    0    0  0.13357357010E+03  0.19162420860E+03  0.31823228902E+03  0.40279236170E+03  0.80050989461E+02 0.  0.
         13    1    3    3    0    0 -0.80619866306E+02  0.73867179081E+02 -0.15573875133E+03  0.19029051909E+03  0.00000000000E+00 0.  1.
        -13    1    3    3    0    0 -0.27346671584E+03  0.18093380896E+03 -0.24898242900E+03  0.41171997504E+03  0.00000000000E+00 0. -1.
          2    1    6    6  502    0  0.97285607204E+02  0.10482725746E+03  0.24453669756E+03  0.28328685061E+03  0.00000000000E+00 0. -1.
          3    1    5    5  503    0  0.11499876666E+03 -0.17204352292E+03 -0.16688410559E+03  0.26584581022E+03  0.00000000000E+00 0. -1.
         -4    1    5    5    0  503  0.10551424538E+03 -0.27438167371E+03 -0.15056807066E+03  0.33028669781E+03  0.00000000000E+00 0.  1.
         -1    1    6    6    0  502  0.36287962898E+02  0.86796951142E+02  0.73695591457E+02  0.11950551108E+03  0.00000000000E+00 0.  1.
<mgrwt>
<rscale>  0 0.15491371E+04</rscale>
<asrwt>0</asrwt>
<pdfrwt beam="1">  1        2 0.15422126E+00 0.15491371E+04</pdfrwt>
<pdfrwt beam="2">  1       -2 0.92076485E-01 0.15491371E+04</pdfrwt>
<totfact> 0.24224283E+01</totfact>
</mgrwt>
</event>
<event>
12    1  0.2019083E-007  0.1432613E+04  0.7818608E-02  0.8930544E-01
         -2   -1    0    0    0  501 -0.00000000000E+00  0.00000000000E+00  0.50118851231E+03  0.50118851231E+03  0.00000000000E+00 0. -1.
          2   -1    0    0  501    0  0.00000000000E+00 -0.00000000000E+00 -0.10237565648E+04  0.10237565648E+04  0.00000000000E+00 0.  1.
         23    2    1    2    0    0 -0.23600666987E+03 -0.31093263096E+03  0.20716810274E+02  0.40147680219E+03  0.91521512481E+02 0.  0.
        254    2    1    2    0    0  0.23600666987E+03  0.31093263096E+03 -0.54328486280E+03  0.11234682750E+04  0.90257646405E+03 0.  0.
        -24    2    4    4    0    0  0.43337714273E+03 -0.57676356281E+00 -0.59767690067E+03  0.74253606461E+03  0.79536464275E+02 0.  0.
         24    2    4    4    0    0 -0.19737047286E+03  0.31150939453E+03  0.54392037872E+02  0.38093221035E+03  0.78470686665E+02 0.  0.
         11    1    3    3    0    0 -0.21937421812E+03 -0.30259168092E+03  0.38517642027E+02  0.37572647190E+03  0.00000000000E+00 0. -1.
        -11    1    3    3    0    0 -0.16632451748E+02 -0.83409500385E+01 -0.17800831754E+02  0.25750330285E+02  0.00000000000E+00 0.  1.
          4    1    6    6  502    0 -0.19129667146E+03  0.28856091157E+03  0.69054724291E+02  0.35303026944E+03  0.00000000000E+00 0. -1.
          3    1    5    5  503    0  0.38528614061E+03 -0.14929848277E+02 -0.55944166121E+03  0.67944336247E+03  0.00000000000E+00 0. -1.
         -4    1    5    5    0  503  0.48091002118E+02  0.14353084714E+02 -0.38235239467E+02  0.63092702135E+02  0.00000000000E+00 0.  1.
         -3    1    6    6    0  502 -0.60738014011E+01  0.22948482958E+02 -0.14662686419E+02  0.27901940910E+02  0.00000000000E+00 0.  1.
<mgrwt>
<rscale>  0 0.14326130E+04</rscale>
<asrwt>0</asrwt>
<pdfrwt beam="1">  1        2 0.15750101E+00 0.14326130E+04</pdfrwt>
<pdfrwt beam="2">  1       -2 0.77105926E-01 0.14326130E+04</pdfrwt>
<totfact> 0.35464958E+01</totfact>
</mgrwt>
</event>
<event>
12    1  0.2019083E-007  0.1774003E+04  0.7818608E-02  0.8720248E-01
         -1   -1    0    0    0  501 -0.00000000000E+00  0.00000000000E+00  0.75372727330E+03  0.75372727330E+03  0.00000000000E+00 0.  1.
          1   -1    0    0  501    0  0.00000000000E+00 -0.00000000000E+00 -0.10438408223E+04  0.10438408223E+04  0.00000000000E+00 0. -1.
         23    2    1    2    0    0  0.29754523135E+03  0.46871815778E+02  0.48279003910E+03  0.57516496153E+03  0.83656316533E+02 0.  0.
        254    2    1    2    0    0 -0.29754523135E+03 -0.46871815778E+02 -0.77290358809E+03  0.12224031341E+04  0.89786376131E+03 0.  0.
        -24    2    4    4    0    0 -0.60808647367E+03  0.20161701740E+02 -0.56738842875E+03  0.83583465472E+03  0.80711134749E+02 0.  0.
         24    2    4    4    0    0  0.31054124232E+03 -0.67033517518E+02 -0.20551515933E+03  0.38656847934E+03  0.79179245102E+02 0.  0.
         11    1    3    3    0    0  0.29777603874E+03  0.40653127380E+02  0.48307781582E+03  0.56893534092E+03  0.00000000000E+00 0.  1.
        -11    1    3    3    0    0 -0.23080738462E+00  0.62186883971E+01 -0.28777671864E+00  0.62296206039E+01  0.00000000000E+00 0. -1.
          2    1    6    6  502    0  0.16869218850E+03  0.40152693790E+01 -0.10356154130E+03  0.19798527644E+03  0.00000000000E+00 0. -1.
          1    1    5    5  503    0 -0.21866106193E+03 -0.20836815551E+02 -0.24087963822E+03  0.32599054127E+03  0.00000000000E+00 0. -1.
         -2    1    5    5    0  503 -0.38942541174E+03  0.40998517291E+02 -0.32650879054E+03  0.50984411345E+03  0.00000000000E+00 0.  1.
         -1    1    6    6    0  502  0.14184905381E+03 -0.71048786897E+02 -0.10195361803E+03  0.18858320290E+03  0.00000000000E+00 0.  1.
<mgrwt>
<rscale>  0 0.17740026E+04</rscale>
<asrwt>0</asrwt>
<pdfrwt beam="1">  1        1 0.16059089E+00 0.17740026E+04</pdfrwt>
<pdfrwt beam="2">  1       -1 0.11595804E+00 0.17740026E+04</pdfrwt>
<totfact> 0.89039015E+00</totfact>
</mgrwt>
</event>
<event>
12    1  0.2019083E-007  0.1888883E+04  0.7818608E-02  0.8660410E-01
          1   -1    0    0  501    0  0.00000000000E+00  0.00000000000E+00  0.24629777313E+04  0.24629777313E+04  0.00000000000E+00 0. -1.
         -1   -1    0    0    0  501 -0.00000000000E+00 -0.00000000000E+00 -0.36215100457E+03  0.36215100457E+03  0.00000000000E+00 0.  1.
         23    2    1    2    0    0 -0.43726898054E+03 -0.33500745001E+03  0.10543297877E+03  0.56783938788E+03  0.88833014717E+02 0.  0.
        254    2    1    2    0    0  0.43726898054E+03  0.33500745001E+03  0.19953937479E+04  0.22572893480E+04  0.90018044761E+03 0.  0.
        -24    2    4    4    0    0 -0.20231795224E+03 -0.13600272669E+03  0.47264968790E+03  0.53806125136E+03  0.81748928304E+02 0.  0.
         24    2    4    4    0    0  0.63958693278E+03  0.47101017671E+03  0.15227440600E+04  0.17192280966E+04  0.77934232900E+02 0.  0.
         11    1    3    3    0    0 -0.23983562017E+03 -0.23835610700E+03  0.65548033062E+02  0.34442895216E+03  0.00000000000E+00 0. -1.
        -11    1    3    3    0    0 -0.19743336037E+03 -0.96651343013E+02  0.39884945709E+02  0.22341043572E+03  0.00000000000E+00 0.  1.
          2    1    6    6  502    0  0.18806688791E+03  0.97183171564E+02  0.38564585057E+03  0.43992777274E+03  0.00000000000E+00 0. -1.
          3    1    5    5  503    0 -0.13901895662E+02 -0.81237883040E+01  0.10042195588E+03  0.10170461082E+03  0.00000000000E+00 0. -1.
         -4    1    5    5    0  503 -0.18841605658E+03 -0.12787893839E+03  0.37222773202E+03  0.43635664054E+03  0.00000000000E+00 0.  1.
         -1    1    6    6    0  502  0.45152004487E+03  0.37382700514E+03  0.11370982094E+04  0.12793003239E+04  0.00000000000E+00 0.  1.
<mgrwt>
<rscale>  0 0.18888831E+04</rscale>
<asrwt>0</asrwt>
<pdfrwt beam="1">  1        1 0.37891964E+00 0.18888831E+04</pdfrwt>
<pdfrwt beam="2">  1       -1 0.55715541E-01 0.18888831E+04</pdfrwt>
<totfact> 0.43883496E+00</totfact>
</mgrwt>
</event>
<event>
12    1  0.2019083E-007  0.4786181E+04  0.7818608E-02  0.7862365E-01
         -2   -1    0    0    0  501 -0.00000000000E+00  0.00000000000E+00  0.18717251482E+04  0.18717251482E+04  0.00000000000E+00 0.  1.
          2   -1    0    0  501    0  0.00000000000E+00 -0.00000000000E+00 -0.30596805557E+04  0.30596805557E+04  0.00000000000E+00 0. -1.
         23    2    1    2    0    0 -0.22027991036E+04 -0.59939523459E+03 -0.22383702249E+03  0.22958607039E+04  0.96305873691E+02 0.  0.
        254    2    1    2    0    0  0.22027991036E+04  0.59939523459E+03 -0.96411838499E+03  0.26355450000E+04  0.89720379431E+03 0.  0.
        -24    2    4    4    0    0  0.21061182481E+04  0.73962176791E+03 -0.99573496773E+03  0.24454672571E+04  0.77765964041E+02 0.  0.
         24    2    4    4    0    0  0.96680855490E+02 -0.14022653332E+03  0.31616582746E+02  0.19007774284E+03  0.78225772941E+02 0.  0.
         13    1    3    3    0    0 -0.20528641899E+04 -0.58122920038E+03 -0.19928946557E+03  0.21428474179E+04  0.00000000000E+00 0. -1.
        -13    1    3    3    0    0 -0.14993491371E+03 -0.18166034210E+02 -0.24547556918E+02  0.15301328602E+03  0.00000000000E+00 0.  1.
          4    1    6    6  502    0  0.48932114625E+02 -0.11790201755E+03  0.45585962354E+02  0.13554821116E+03  0.00000000000E+00 0. -1.
          1    1    5    5  503    0  0.20564126579E+04  0.71455306603E+03 -0.98125911759E+03  0.23879465153E+04  0.00000000000E+00 0. -1.
         -2    1    5    5    0  503  0.49705590152E+02  0.25068701874E+02 -0.14475850145E+02  0.57520741854E+02  0.00000000000E+00 0.  1.
         -3    1    6    6    0  502  0.47748740865E+02 -0.22324515768E+02 -0.13969379608E+02  0.54529531679E+02  0.00000000000E+00 0.  1.
<mgrwt>
<rscale>  0 0.47861805E+04</rscale>
<asrwt>0</asrwt>
<pdfrwt beam="1">  1        2 0.47072008E+00 0.47861805E+04</pdfrwt>
<pdfrwt beam="2">  1       -2 0.28795772E+00 0.47861805E+04</pdfrwt>
<totfact> 0.44489383E-02</totfact>
</mgrwt>
</event>
<event>
12    1  0.2019083E-007  0.3564697E+04  0.7818608E-02  0.8098626E-01
          1   -1    0    0  501    0  0.00000000000E+00  0.00000000000E+00  0.29549330615E+04  0.29549330615E+04  0.00000000000E+00 0. -1.
         -1   -1    0    0    0  501 -0.00000000000E+00 -0.00000000000E+00 -0.10750722388E+04  0.10750722388E+04  0.00000000000E+00 0.  1.
         23    2    1    2    0    0  0.15489941422E+04  0.60857587428E+03  0.76743781518E+03  0.18349470157E+04  0.91226655443E+02 0.  0.
        254    2    1    2    0    0 -0.15489941422E+04 -0.60857587428E+03  0.11124230075E+04  0.21950582847E+04  0.90058229945E+03 0.  0.
        -24    2    4    4    0    0 -0.71160100490E+03 -0.13984029118E+03  0.81083054302E+01  0.72972519334E+03  0.80633838858E+02 0.  0.
         24    2    4    4    0    0 -0.83739313734E+03 -0.46873558310E+03  0.11043147020E+04  0.14653330913E+04  0.82157130267E+02 0.  0.
         11    1    3    3    0    0  0.67913289375E+03  0.22943845391E+03  0.36203750735E+03  0.80307823295E+03  0.00000000000E+00 0. -1.
        -11    1    3    3    0    0  0.86986124848E+03  0.37913742037E+03  0.40540030783E+03  0.10318687827E+04  0.00000000000E+00 0.  1.
          4    1    6    6  502    0 -0.71787554557E+03 -0.41443604604E+03  0.91118120223E+03  0.12318091242E+04  0.00000000000E+00 0. -1.
          1    1    5    5  503    0 -0.62176838328E+03 -0.14889991146E+03  0.44994997017E+01  0.63936480321E+03  0.00000000000E+00 0. -1.
         -2    1    5    5    0  503 -0.89832621616E+02  0.90596202844E+01  0.36088057285E+01  0.90360390132E+02  0.00000000000E+00 0.  1.
         -3    1    6    6    0  502 -0.11951759177E+03 -0.54299537055E+02  0.19313349981E+03  0.23352396711E+03  0.00000000000E+00 0.  1.
<mgrwt>
<rscale>  0 0.35646972E+04</rscale>
<asrwt>0</asrwt>
<pdfrwt beam="1">  1        1 0.45460508E+00 0.35646972E+04</pdfrwt>
<pdfrwt beam="2">  1       -1 0.16539573E+00 0.35646972E+04</pdfrwt>
<totfact> 0.13914327E-01</totfact>
</mgrwt>
</event>
<event>
12    1  0.2019083E-007  0.2929147E+04  0.7818608E-02  0.8264258E-01
          1   -1    0    0  501    0  0.00000000000E+00  0.00000000000E+00  0.18051508597E+04  0.18051508597E+04  0.00000000000E+00 0. -1.
         -1   -1    0    0    0  501 -0.00000000000E+00 -0.00000000000E+00 -0.11882526775E+04  0.11882526775E+04  0.00000000000E+00 0.  1.
         23    2    1    2    0    0  0.78094710950E+03 -0.65489068105E+03  0.11441944388E+04  0.15348201414E+04  0.87930431640E+02 0.  0.
        254    2    1    2    0    0 -0.78094710950E+03  0.65489068105E+03 -0.52729625659E+03  0.14585833957E+04  0.90036880670E+03 0.  0.
        -24    2    4    4    0    0 -0.97095312403E+03  0.46136849602E+03 -0.43710498183E+03  0.11631602035E+04  0.79183556632E+02 0.  0.
         24    2    4    4    0    0  0.19000601452E+03  0.19352218503E+03 -0.90191274758E+02  0.29542319224E+03  0.74748075663E+02 0.  0.
         13    1    3    3    0    0  0.64663395454E+03 -0.57677071147E+03  0.99510182620E+03  0.13194800375E+04  0.00000000000E+00 0. -1.
        -13    1    3    3    0    0  0.13431315496E+03 -0.78119969577E+02  0.14909261257E+03  0.21534010394E+03  0.00000000000E+00 0.  1.
          4    1    6    6  502    0  0.19308064686E+03  0.18726305253E+03 -0.75832303573E+02  0.27946041813E+03  0.00000000000E+00 0. -1.
          1    1    5    5  503    0 -0.67227819006E+03  0.35215169802E+03 -0.33029064803E+03  0.82768393449E+03  0.00000000000E+00 0. -1.
         -2    1    5    5    0  503 -0.29867493397E+03  0.10921679800E+03 -0.10681433380E+03  0.33547626899E+03  0.00000000000E+00 0.  1.
         -1    1    6    6    0  502 -0.30746323415E+01  0.62591324996E+01 -0.14358971185E+02  0.15962774106E+02  0.00000000000E+00 0.  1.
<mgrwt>
<rscale>  0 0.29291469E+04</rscale>
<asrwt>0</asrwt>
<pdfrwt beam="1">  1        1 0.27771552E+00 0.29291469E+04</pdfrwt>
<pdfrwt beam="2">  1       -1 0.18280810E+00 0.29291469E+04</pdfrwt>
<totfact> 0.68753581E-01</totfact>
</mgrwt>
</event>
<event>
12    1  0.2019083E-007  0.1250841E+04  0.7818608E-02  0.9069484E-01
         -1   -1    0    0    0  501 -0.00000000000E+00  0.00000000000E+00  0.54550504811E+03  0.54550504811E+03  0.00000000000E+00 0.  1.
          1   -1    0    0  501    0  0.00000000000E+00 -0.00000000000E+00 -0.71704349010E+03  0.71704349010E+03  0.00000000000E+00 0. -1.
         23    2    1    2    0    0 -0.13026307733E+03 -0.99031113594E+01  0.21779260267E+03  0.26941218502E+03  0.89904208603E+02 0.  0.
        254    2    1    2    0    0  0.13026307733E+03  0.99031113594E+01 -0.38933104466E+03  0.99313635319E+03  0.90425362193E+03 0.  0.
        -24    2    4    4    0    0  0.28608600672E+03 -0.32980444772E+03  0.55451025337E+01  0.44368213797E+03  0.78783973109E+02 0.  0.
         24    2    4    4    0    0 -0.15582292939E+03  0.33970755907E+03 -0.39487614720E+03  0.54945421522E+03  0.79314260923E+02 0.  0.
         13    1    3    3    0    0 -0.96507060608E+02 -0.30616124314E+02  0.20352232270E+03  0.22731541006E+03  0.00000000000E+00 0.  1.
        -13    1    3    3    0    0 -0.33756016726E+02  0.20713012954E+02  0.14270279974E+02  0.42096774953E+02  0.00000000000E+00 0. -1.
          4    1    6    6  502    0  0.63578365004E+01  0.38766872087E+02 -0.29822303065E+02  0.49322025672E+02  0.00000000000E+00 0. -1.
          3    1    5    5  503    0  0.92473724307E+02 -0.65128332345E+02 -0.19582481736E+02  0.11478921096E+03  0.00000000000E+00 0. -1.
         -4    1    5    5    0  503  0.19361228241E+03 -0.26467611537E+03  0.25127584270E+02  0.32889292702E+03  0.00000000000E+00 0.  1.
         -3    1    6    6    0  502 -0.16218076589E+03  0.30094068699E+03 -0.36505384413E+03  0.50013218955E+03  0.00000000000E+00 0.  1.
<mgrwt>
<rscale>  0 0.12508411E+04</rscale>
<asrwt>0</asrwt>
<pdfrwt beam="1">  1        1 0.11031438E+00 0.12508411E+04</pdfrwt>
<pdfrwt beam="2">  1       -1 0.83923854E-01 0.12508411E+04</pdfrwt>
<totfact> 0.36462518E+01</totfact>
</mgrwt>
</event>
<event>
12    1  0.2019083E-007  0.2450171E+04  0.7818608E-02  0.8420956E-01
         -2   -1    0    0    0  501 -0.00000000000E+00  0.00000000000E+00  0.96383947948E+03  0.96383947948E+03  0.00000000000E+00 0.  1.
          2   -1    0    0  501    0  0.00000000000E+00 -0.00000000000E+00 -0.15571413134E+04  0.15571413134E+04  0.00000000000E+00 0. -1.
         23    2    1    2    0    0 -0.10301176840E+04  0.24122695684E+03 -0.29486878590E+03  0.11007843259E+04  0.73794604571E+02 0.  0.
        254    2    1    2    0    0  0.10301176840E+04 -0.24122695684E+03 -0.29843304798E+03  0.14201964669E+04  0.89920121927E+03 0.  0.
        -24    2    4    4    0    0  0.76427781507E+03 -0.55721905346E+03 -0.31168811201E+03  0.99925772260E+03  0.82175816800E+02 0.  0.
         24    2    4    4    0    0  0.26583986898E+03  0.31599209662E+03  0.13255064034E+02  0.42093874429E+03  0.80572257337E+02 0.  0.
         11    1    3    3    0    0 -0.43262168263E+03  0.70293920262E+02 -0.14297421919E+03  0.46102536032E+03  0.00000000000E+00 0. -1.
        -11    1    3    3    0    0 -0.59749600142E+03  0.17093303658E+03 -0.15189456671E+03  0.63975896563E+03  0.00000000000E+00 0.  1.
          2    1    6    6  502    0  0.20415507041E+03  0.28471694697E+03 -0.88302019240E+00  0.35034813028E+03  0.00000000000E+00 0. -1.
          1    1    5    5  503    0  0.38304922340E+03 -0.22857985476E+03 -0.14430922705E+03  0.46882897795E+03  0.00000000000E+00 0. -1.
         -2    1    5    5    0  503  0.38122859166E+03 -0.32863919870E+03 -0.16737888497E+03  0.53042874465E+03  0.00000000000E+00 0.  1.
         -1    1    6    6    0  502  0.61684798570E+02  0.31275149654E+02  0.14138084227E+02  0.70590614008E+02  0.00000000000E+00 0.  1.
<mgrwt>
<rscale>  0 0.24501708E+04</rscale>
<asrwt>0</asrwt>
<pdfrwt beam="1">  1        2 0.23956020E+00 0.24501708E+04</pdfrwt>
<pdfrwt beam="2">  1       -2 0.14828300E+00 0.24501708E+04</pdfrwt>
<totfact> 0.32610901E+00</totfact>
</mgrwt>
</event>
<event>
12    1  0.2019083E-007  0.2095674E+04  0.7818608E-02  0.8563151E-01
         -2   -1    0    0    0  501 -0.00000000000E+00  0.00000000000E+00  0.11831253302E+04  0.11831253302E+04  0.00000000000E+00 0.  1.
          2   -1    0    0  501    0  0.00000000000E+00 -0.00000000000E+00 -0.92801857903E+03  0.92801857903E+03  0.00000000000E+00 0. -1.
         23    2    1    2    0    0  0.52662236060E+03 -0.55598037256E+03 -0.27049209492E+03  0.81730546636E+03  0.91525769929E+02 0.  0.
        254    2    1    2    0    0 -0.52662236060E+03  0.55598037256E+03  0.52559884610E+03  0.12938384429E+04  0.90073219323E+03 0.  0.
        -24    2    4    4    0    0 -0.21612187744E+03  0.11048623292E+03  0.67701940879E+03  0.72458627225E+03  0.88057438540E+02 0.  0.
         24    2    4    4    0    0 -0.31050048316E+03  0.44549413964E+03 -0.15142056268E+03  0.56925217064E+03  0.79020683884E+02 0.  0.
         13    1    3    3    0    0  0.23139995590E+03 -0.31082460979E+03 -0.13713737830E+03  0.41105296273E+03  0.00000000000E+00 0. -1.
        -13    1    3    3    0    0  0.29522240470E+03 -0.24515576277E+03 -0.13335471662E+03  0.40625250362E+03  0.00000000000E+00 0.  1.
          4    1    6    6  502    0 -0.26429319930E+03  0.39851980392E+03 -0.10768967343E+03  0.49016935347E+03  0.00000000000E+00 0. -1.
          1    1    5    5  503    0 -0.17714743048E+03  0.46735826889E+02  0.49579116068E+03  0.52855872393E+03  0.00000000000E+00 0. -1.
         -2    1    5    5    0  503 -0.38974446961E+02  0.63750406032E+02  0.18122824811E+03  0.19602754832E+03  0.00000000000E+00 0.  1.
         -3    1    6    6    0  502 -0.46207283854E+02  0.46974335722E+02 -0.43730889251E+02  0.79082817175E+02  0.00000000000E+00 0.  1.
<mgrwt>
<rscale>  0 0.20956739E+04</rscale>
<asrwt>0</asrwt>
<pdfrwt beam="1">  1        2 0.14277209E+00 0.20956739E+04</pdfrwt>
<pdfrwt beam="2">  1       -2 0.18201928E+00 0.20956739E+04</pdfrwt>
<totfact> 0.45438789E+00</totfact>
</mgrwt>
</event>
<event>
12    1  0.2019083E-007  0.1847922E+04  0.7818608E-02  0.8681222E-01
         -2   -1    0    0    0  501 -0.00000000000E+00  0.00000000000E+00  0.64358877445E+03  0.64358877445E+03  0.00000000000E+00 0.  1.
          2   -1    0    0  501    0  0.00000000000E+00 -0.00000000000E+00 -0.13264735615E+04  0.13264735615E+04  0.00000000000E+00 0. -1.
         23    2    1    2    0    0 -0.32067165785E+03  0.60443897827E+02  0.40037964587E+03  0.52390191057E+03  0.87667406384E+02 0.  0.
        254    2    1    2    0    0  0.32067165785E+03 -0.60443897827E+02 -0.10832644330E+04  0.14461604254E+04  0.90079651831E+03 0.  0.
        -24    2    4    4    0    0  0.38765593941E+03  0.30999467298E+03 -0.87280619381E+03  0.10073831701E+04  0.81586609457E+02 0.  0.
         24    2    4    4    0    0 -0.66984281563E+02 -0.37043857081E+03 -0.21045823915E+03  0.43877725530E+03  0.80753827325E+02 0.  0.
         11    1    3    3    0    0 -0.21709673155E+03  0.81744351268E+02  0.28266005175E+03  0.36566355393E+03  0.00000000000E+00 0. -1.
        -11    1    3    3    0    0 -0.10357492629E+03 -0.21300453441E+02  0.11771959411E+03  0.15823835664E+03  0.00000000000E+00 0.  1.
          4    1    6    6  502    0 -0.91749124048E-01 -0.30898419667E+02 -0.46513855432E+02  0.55841378054E+02  0.00000000000E+00 0. -1.
          1    1    5    5  503    0  0.31820678908E+02  0.14885953965E+02 -0.30348825976E+02  0.46424115175E+02  0.00000000000E+00 0. -1.
         -2    1    5    5    0  503  0.35583526050E+03  0.29510871901E+03 -0.84245736784E+03  0.96095905494E+03  0.00000000000E+00 0.  1.
         -3    1    6    6    0  502 -0.66892532439E+02 -0.33954015114E+03 -0.16394438372E+03  0.38293587725E+03  0.00000000000E+00 0.  1.
<mgrwt>
<rscale>  0 0.18479215E+04</rscale>
<asrwt>0</asrwt>
<pdfrwt beam="1">  1        2 0.20407286E+00 0.18479215E+04</pdfrwt>
<pdfrwt beam="2">  1       -2 0.99013657E-01 0.18479215E+04</pdfrwt>
<totfact> 0.12690327E+01</totfact>
</mgrwt>
</event>
<event>
12    1  0.2019083E-007  0.1555953E+04  0.7818608E-02  0.8848075E-01
         -1   -1    0    0    0  501 -0.00000000000E+00  0.00000000000E+00  0.10637498488E+04  0.10637498488E+04  0.00000000000E+00 0.  1.
          1   -1    0    0  501    0  0.00000000000E+00 -0.00000000000E+00 -0.56897504113E+03  0.56897504113E+03  0.00000000000E+00 0. -1.
         23    2    1    2    0    0 -0.60515320815E+02  0.31690381912E+03  0.58273617590E+03  0.67225993978E+03  0.90894671509E+02 0.  0.
        254    2    1    2    0    0  0.60515320815E+02 -0.31690381912E+03 -0.87961368262E+02  0.96046495011E+03  0.90036969266E+03 0.  0.
        -24    2    4    4    0    0 -0.26008919963E+03 -0.50372409501E+03 -0.84073820705E+01  0.57272229782E+03  0.80967837355E+02 0.  0.
         24    2    4    4    0    0  0.32060452045E+03  0.18682027589E+03 -0.79553986191E+02  0.38774265229E+03  0.79539007238E+02 0.  0.
         11    1    3    3    0    0  0.16446629401E+02  0.14058672179E+03  0.21854138147E+03  0.26037560057E+03  0.00000000000E+00 0. -1.
        -11    1    3    3    0    0 -0.76961950216E+02  0.17631709734E+03  0.36419479443E+03  0.41188433921E+03  0.00000000000E+00 0.  1.
          2    1    6    6  502    0  0.18490610829E+03  0.14581384423E+03 -0.69980850850E+02  0.24566087507E+03  0.00000000000E+00 0. -1.
          1    1    5    5  503    0 -0.95159126979E+02 -0.18448065314E+03  0.35939792665E+02  0.21066570563E+03  0.00000000000E+00 0. -1.
         -2    1    5    5    0  503 -0.16493007265E+03 -0.31924344187E+03 -0.44347174735E+02  0.36205659219E+03  0.00000000000E+00 0.  1.
         -1    1    6    6    0  502  0.13569841216E+03  0.41006431658E+02 -0.95731353408E+01  0.14208177722E+03  0.00000000000E+00 0.  1.
<mgrwt>
<rscale>  0 0.15559526E+04</rscale>
<asrwt>0</asrwt>
<pdfrwt beam="1">  1        1 0.87534622E-01 0.15559526E+04</pdfrwt>
<pdfrwt beam="2">  1       -1 0.16365382E+00 0.15559526E+04</pdfrwt>
<totfact> 0.97629353E+00</totfact>
</mgrwt>
</event>
<event>
12    1  0.2019083E-007  0.1064120E+04  0.7818608E-02  0.9240887E-01
         -2   -1    0    0    0  501 -0.00000000000E+00  0.00000000000E+00  0.17409838234E+03  0.17409838234E+03  0.00000000000E+00 0.  1.
          2   -1    0    0  501    0  0.00000000000E+00 -0.00000000000E+00 -0.16260207448E+04  0.16260207448E+04  0.00000000000E+00 0. -1.
         23    2    1    2    0    0 -0.45583710372E+02 -0.10733313282E+03 -0.11807452778E+03  0.18761952250E+03  0.87528367171E+02 0.  0.
        254    2    1    2    0    0  0.45583710372E+02  0.10733313282E+03 -0.13338478347E+04  0.16124996046E+04  0.89855809651E+03 0.  0.
        -24    2    4    4    0    0 -0.36444780410E+03  0.13079669960E+02 -0.10066132022E+04  0.10736321101E+04  0.80140435103E+02 0.  0.
         24    2    4    4    0    0  0.41003151447E+03  0.94253462864E+02 -0.32723463248E+03  0.53886749452E+03  0.79285016496E+02 0.  0.
         13    1    3    3    0    0 -0.22813118249E+02 -0.11355429840E+03 -0.73487089570E+02  0.13716912693E+03  0.00000000000E+00 0. -1.
        -13    1    3    3    0    0 -0.22770592123E+02  0.62211655786E+01 -0.44587438211E+02  0.50450395568E+02  0.00000000000E+00 0.  1.
          2    1    6    6  502    0  0.16265165946E+03 -0.17259163293E+01 -0.11811613438E+03  0.20102229308E+03  0.00000000000E+00 0. -1.
          3    1    5    5  503    0 -0.20018310231E+03  0.41898391898E+02 -0.61033040405E+03  0.64368622154E+03  0.00000000000E+00 0. -1.
         -4    1    5    5    0  503 -0.16426470179E+03 -0.28818721938E+02 -0.39628279813E+03  0.42994588855E+03  0.00000000000E+00 0.  1.
         -1    1    6    6    0  502  0.24737985501E+03  0.95979379193E+02 -0.20911849810E+03  0.33784520145E+03  0.00000000000E+00 0.  1.
<mgrwt>
<rscale>  0 0.10641195E+04</rscale>
<asrwt>0</asrwt>
<pdfrwt beam="1">  1        2 0.25015702E+00 0.10641195E+04</pdfrwt>
<pdfrwt beam="2">  1       -2 0.26784368E-01 0.10641195E+04</pdfrwt>
<totfact> 0.13568252E+02</totfact>
</mgrwt>
</event>
<event>
12    1  0.2019083E-007  0.1141303E+04  0.7818608E-02  0.9165844E-01
          2   -1    0    0  501    0  0.00000000000E+00  0.00000000000E+00  0.16467675497E+04  0.16467675497E+04  0.00000000000E+00 0. -1.
         -2   -1    0    0    0  501 -0.00000000000E+00 -0.00000000000E+00 -0.19774701241E+03  0.19774701241E+03  0.00000000000E+00 0.  1.
         23    2    1    2    0    0 -0.19245720456E+02  0.86802950587E+00  0.60226374458E+03  0.60943927731E+03  0.91233017374E+02 0.  0.
        254    2    1    2    0    0  0.19245720456E+02 -0.86802950587E+00  0.84675679267E+03  0.12350752848E+04  0.89891197670E+03 0.  0.
        -24    2    4    4    0    0 -0.36156877324E+03  0.16214648779E+03  0.65960994409E+03  0.77347834832E+03  0.78485767497E+02 0.  0.
         24    2    4    4    0    0  0.38081449369E+03 -0.16301451730E+03  0.18714684858E+03  0.46159693643E+03  0.80339139484E+02 0.  0.
         11    1    3    3    0    0  0.10739082571E+02  0.24245503594E+01  0.54198289269E+03  0.54209469865E+03  0.00000000000E+00 0. -1.
        -11    1    3    3    0    0 -0.29984803027E+02 -0.15565208536E+01  0.60280851895E+02  0.67344578660E+02  0.00000000000E+00 0.  1.
          2    1    6    6  502    0  0.35743171998E+03 -0.16089823841E+03  0.19369519599E+03  0.43722249087E+03  0.00000000000E+00 0. -1.
          3    1    5    5  503    0 -0.34225076547E+03  0.13124654921E+03  0.58327662545E+03  0.68889249157E+03  0.00000000000E+00 0. -1.
         -4    1    5    5    0  503 -0.19318007770E+02  0.30899938579E+02  0.76333318641E+02  0.84585856756E+02  0.00000000000E+00 0.  1.
         -1    1    6    6    0  502  0.23382773710E+02 -0.21162788923E+01 -0.65483474086E+01  0.24374445563E+02  0.00000000000E+00 0.  1.
<mgrwt>
<rscale>  0 0.11413034E+04</rscale>
<asrwt>0</asrwt>
<pdfrwt beam="1">  1        2 0.25334884E+00 0.11413034E+04</pdfrwt>
<pdfrwt beam="2">  1       -2 0.30422618E-01 0.11413034E+04</pdfrwt>
<totfact> 0.10385628E+02</totfact>
</mgrwt>
</event>
<event>
12    1  0.2019083E-007  0.2478942E+04  0.7818608E-02  0.8410526E-01
          2   -1    0    0  501    0  0.00000000000E+00  0.00000000000E+00  0.12521528920E+04  0.12521528920E+04  0.00000000000E+00 0. -1.
         -2   -1    0    0    0  501 -0.00000000000E+00 -0.00000000000E+00 -0.12269175345E+04  0.12269175345E+04  0.00000000000E+00 0.  1.
         23    2    1    2    0    0  0.38876049656E+02  0.26135145504E+03 -0.10298198126E+04  0.10673593894E+04  0.94399626391E+02 0.  0.
        254    2    1    2    0    0 -0.38876049656E+02 -0.26135145504E+03  0.10550551701E+04  0.14117110372E+04  0.89998372783E+03 0.  0.
        -24    2    4    4    0    0 -0.61208840841E+01 -0.21684067512E+03  0.12084113574E+04  0.12303528773E+04  0.80329635414E+02 0.  0.
         24    2    4    4    0    0 -0.32755165572E+02 -0.44510779924E+02 -0.15335618738E+03  0.18135815987E+03  0.79489317156E+02 0.  0.
         13    1    3    3    0    0  0.57450917675E+02  0.19110173251E+03 -0.85620660576E+03  0.87915313334E+03  0.00000000000E+00 0.  1.
        -13    1    3    3    0    0 -0.18574868019E+02  0.70249722527E+02 -0.17361320680E+03  0.18820625604E+03  0.00000000000E+00 0. -1.
          4    1    6    6  502    0  0.13051350954E+01  0.50102481678E+01  0.77982687051E+01  0.93604999395E+01  0.00000000000E+00 0. -1.
          1    1    5    5  503    0 -0.37274969976E-01 -0.56746814106E+01  0.27178896857E+01  0.62920841443E+01  0.00000000000E+00 0. -1.
         -2    1    5    5    0  503 -0.60836091141E+01 -0.21116599371E+03  0.12056934678E+04  0.12240607932E+04  0.00000000000E+00 0.  1.
         -3    1    6    6    0  502 -0.34060300667E+02 -0.49521028091E+02 -0.16115445609E+03  0.17199765993E+03  0.00000000000E+00 0.  1.
<mgrwt>
<rscale>  0 0.24789420E+04</rscale>
<asrwt>0</asrwt>
<pdfrwt beam="1">  1        2 0.19263891E+00 0.24789420E+04</pdfrwt>
<pdfrwt beam="2">  1       -2 0.18875654E+00 0.24789420E+04</pdfrwt>
<totfact> 0.24898134E+00</totfact>
</mgrwt>
</event>
<event>
12    1  0.2019083E-007  0.1775378E+04  0.7818608E-02  0.8719504E-01
         -2   -1    0    0    0  501 -0.00000000000E+00  0.00000000000E+00  0.54838145570E+03  0.54838145570E+03  0.00000000000E+00 0.  1.
          2   -1    0    0  501    0  0.00000000000E+00 -0.00000000000E+00 -0.14369408914E+04  0.14369408914E+04  0.00000000000E+00 0. -1.
         23    2    1    2    0    0 -0.43108037678E+03 -0.20513165190E+03  0.17195393685E+03  0.51557072596E+03  0.91300225672E+02 0.  0.
        254    2    1    2    0    0  0.43108037678E+03  0.20513165190E+03 -0.10605133726E+04  0.14697516212E+04  0.89865005906E+03 0.  0.
        -24    2    4    4    0    0  0.58202613518E+03  0.31556406081E+03 -0.39930429893E+03  0.77709382446E+03  0.78075542746E+02 0.  0.
         24    2    4    4    0    0 -0.15094575839E+03 -0.11043240891E+03 -0.66120907367E+03  0.69265779672E+03  0.87163325617E+02 0.  0.
         13    1    3    3    0    0 -0.16395672254E+03 -0.12542959842E+03  0.88339255625E+02  0.22454000782E+03  0.00000000000E+00 0. -1.
        -13    1    3    3    0    0 -0.26712365425E+03 -0.79702053478E+02  0.83614681227E+02  0.29103071814E+03  0.00000000000E+00 0.  1.
          4    1    6    6  502    0 -0.62836234237E+02 -0.65810371846E+02 -0.18320120631E+03  0.20455336558E+03  0.00000000000E+00 0. -1.
          1    1    5    5  503    0  0.45392719064E+03  0.22805117039E+03 -0.33862333507E+03  0.61051043707E+03  0.00000000000E+00 0. -1.
         -2    1    5    5    0  503  0.12809894454E+03  0.87512890418E+02 -0.60680963861E+02  0.16658338740E+03  0.00000000000E+00 0.  1.
         -3    1    6    6    0  502 -0.88109524155E+02 -0.44622037064E+02 -0.47800786736E+03  0.48810443114E+03  0.00000000000E+00 0.  1.
<mgrwt>
<rscale>  0 0.17753780E+04</rscale>
<asrwt>0</asrwt>
<pdfrwt beam="1">  1        2 0.22106783E+00 0.17753780E+04</pdfrwt>
<pdfrwt beam="2">  1       -2 0.84366379E-01 0.17753780E+04</pdfrwt>
<totfact> 0.15981012E+01</totfact>
</mgrwt>
</event>
<event>
12    1  0.2019083E-007  0.1133781E+04  0.7818608E-02  0.9172878E-01
          1   -1    0    0  501    0  0.00000000000E+00  0.00000000000E+00  0.98354138143E+03  0.98354138143E+03  0.00000000000E+00 0. -1.
         -1   -1    0    0    0  501 -0.00000000000E+00 -0.00000000000E+00 -0.32674264484E+03  0.32674264484E+03  0.00000000000E+00 0.  1.
         23    2    1    2    0    0 -0.42939597571E+02  0.17827058728E+03  0.18809808844E+03  0.28102107799E+03  0.99838590089E+02 0.  0.
        254    2    1    2    0    0  0.42939597571E+02 -0.17827058728E+03  0.46870064815E+03  0.10292629483E+04  0.89781830445E+03 0.  0.
        -24    2    4    4    0    0 -0.20084650297E+02 -0.37290679153E+03  0.64185036281E+03  0.74691603130E+03  0.80304428474E+02 0.  0.
         24    2    4    4    0    0  0.63024247869E+02  0.19463620426E+03 -0.17314971466E+03  0.28234691698E+03  0.88789920676E+02 0.  0.
         13    1    3    3    0    0 -0.32446787177E+02  0.14271737908E+03  0.19448677815E+03  0.24340532279E+03  0.00000000000E+00 0. -1.
        -13    1    3    3    0    0 -0.10492810395E+02  0.35553208193E+02 -0.63886897038E+01  0.37615755196E+02  0.00000000000E+00 0.  1.
          4    1    6    6  502    0 -0.16796882211E+02  0.42724912102E+02 -0.13227106343E+02  0.47775618346E+02  0.00000000000E+00 0. -1.
          3    1    5    5  503    0  0.17510905655E+02 -0.27214517534E+02  0.36332714115E+02  0.48655193931E+02  0.00000000000E+00 0. -1.
         -4    1    5    5    0  503 -0.37595555952E+02 -0.34569227400E+03  0.60551764869E+03  0.69826083737E+03  0.00000000000E+00 0.  1.
         -3    1    6    6    0  502  0.79821130080E+02  0.15191129215E+03 -0.15992260832E+03  0.23457129863E+03  0.00000000000E+00 0.  1.
<mgrwt>
<rscale>  0 0.11337811E+04</rscale>
<asrwt>0</asrwt>
<pdfrwt beam="1">  1        1 0.15131406E+00 0.11337811E+04</pdfrwt>
<pdfrwt beam="2">  1       -1 0.50268099E-01 0.11337811E+04</pdfrwt>
<totfact> 0.61559201E+01</totfact>
</mgrwt>
</event>
<event>
12    1  0.2019083E-007  0.2607414E+04  0.7818608E-02  0.8365687E-01
          2   -1    0    0  501    0  0.00000000000E+00  0.00000000000E+00  0.23734287973E+04  0.23734287973E+04  0.00000000000E+00 0. -1.
         -2   -1    0    0    0  501 -0.00000000000E+00 -0.00000000000E+00 -0.71611685931E+03  0.71611685931E+03  0.00000000000E+00 0.  1.
         23    2    1    2    0    0  0.53369251627E+02  0.62372975942E+03 -0.40659861383E+03  0.75176686807E+03  0.89128566479E+02 0.  0.
        254    2    1    2    0    0 -0.53369251627E+02 -0.62372975942E+03  0.20639105518E+04  0.23377787886E+04  0.90199545919E+03 0.  0.
        -24    2    4    4    0    0  0.13197667072E+03 -0.23006731802E+03  0.18042158321E+04  0.18253568057E+04  0.79899230398E+02 0.  0.
         24    2    4    4    0    0 -0.18534592235E+03 -0.39366244139E+03  0.25969471977E+03  0.51242198284E+03  0.76234587467E+02 0.  0.
         13    1    3    3    0    0  0.60885156712E+02  0.36209706507E+03 -0.19862866535E+03  0.41746213426E+03  0.00000000000E+00 0. -1.
        -13    1    3    3    0    0 -0.75159050851E+01  0.26163269434E+03 -0.20796994848E+03  0.33430473381E+03  0.00000000000E+00 0.  1.
          4    1    6    6  502    0 -0.18919502095E+03 -0.39312175712E+03  0.26091696474E+03  0.50834745437E+03  0.00000000000E+00 0. -1.
          1    1    5    5  503    0  0.34804206176E+02 -0.12385791070E+03  0.69134958225E+03  0.70321857177E+03  0.00000000000E+00 0. -1.
         -2    1    5    5    0  503  0.97172464546E+02 -0.10620940732E+03  0.11128662498E+04  0.11221382339E+04  0.00000000000E+00 0.  1.
         -3    1    6    6    0  502  0.38490985972E+01 -0.54068427384E+00 -0.12222449735E+01  0.40745284721E+01  0.00000000000E+00 0.  1.
<mgrwt>
<rscale>  0 0.26074143E+04</rscale>
<asrwt>0</asrwt>
<pdfrwt beam="1">  1        2 0.36514289E+00 0.26074143E+04</pdfrwt>
<pdfrwt beam="2">  1       -2 0.11017183E+00 0.26074143E+04</pdfrwt>
<totfact> 0.23818996E+00</totfact>
</mgrwt>
</event>
<event>
12    1  0.2019083E-007  0.1794743E+04  0.7818608E-02  0.8709100E-01
         -1   -1    0    0    0  501 -0.00000000000E+00  0.00000000000E+00  0.77555158606E+03  0.77555158606E+03  0.00000000000E+00 0.  1.
          1   -1    0    0  501    0  0.00000000000E+00 -0.00000000000E+00 -0.10383267250E+04  0.10383267250E+04  0.00000000000E+00 0. -1.
         23    2    1    2    0    0  0.49109166236E+03  0.44555201781E+03 -0.74546476527E+02  0.67347339518E+03  0.91222888848E+02 0.  0.
        254    2    1    2    0    0 -0.49109166236E+03 -0.44555201781E+03 -0.18822866237E+03  0.11404049158E+04  0.90851842100E+03 0.  0.
        -24    2    4    4    0    0 -0.62995115478E+03 -0.60577932875E+03 -0.59833133053E+02  0.87956254354E+03  0.79013996430E+02 0.  0.
         24    2    4    4    0    0  0.13885949243E+03  0.16022731094E+03 -0.12839552932E+03  0.26084237229E+03  0.81231652847E+02 0.  0.
         13    1    3    3    0    0  0.22915423134E+03  0.16999710080E+03  0.35548729510E+01  0.28534770569E+03  0.00000000000E+00 0.  1.
        -13    1    3    3    0    0  0.26193743102E+03  0.27555491700E+03 -0.78101349478E+02  0.38812568949E+03  0.00000000000E+00 0. -1.
          2    1    6    6  502    0  0.69782912401E+02  0.12121488339E+03 -0.47944235370E+02  0.14785585048E+03  0.00000000000E+00 0. -1.
          1    1    5    5  503    0 -0.61316831731E+03 -0.56745740052E+03 -0.52619327927E+02  0.83710935989E+03  0.00000000000E+00 0. -1.
         -2    1    5    5    0  503 -0.16782837477E+02 -0.38321928230E+02 -0.72138051266E+01  0.42453183643E+02  0.00000000000E+00 0.  1.
         -1    1    6    6    0  502  0.69076580026E+02  0.39012427555E+02 -0.80451293945E+02  0.11298652180E+03  0.00000000000E+00 0.  1.
<mgrwt>
<rscale>  0 0.17947434E+04</rscale>
<asrwt>0</asrwt>
<pdfrwt beam="1">  1        1 0.15974257E+00 0.17947434E+04</pdfrwt>
<pdfrwt beam="2">  1       -1 0.11931563E+00 0.17947434E+04</pdfrwt>
<totfact> 0.83750546E+00</totfact>
</mgrwt>
</event>
<event>
12    1  0.2019083E-007  0.1527307E+04  0.7818608E-02  0.8866495E-01
          2   -1    0    0  501    0  0.00000000000E+00  0.00000000000E+00  0.42951666424E+03  0.42951666424E+03  0.00000000000E+00 0. -1.
         -2   -1    0    0    0  501 -0.00000000000E+00 -0.00000000000E+00 -0.13577268789E+04  0.13577268789E+04  0.00000000000E+00 0.  1.
         23    2    1    2    0    0  0.35158912012E+03 -0.17769959601E+03 -0.65302848336E+03  0.76815326878E+03  0.91767033577E+02 0.  0.
        254    2    1    2    0    0 -0.35158912012E+03  0.17769959601E+03 -0.27518173130E+03  0.10190902744E+04  0.89868122615E+03 0.  0.
        -24    2    4    4    0    0 -0.99549412314E+02 -0.31855508272E+03 -0.30032011656E+03  0.45626875476E+03  0.81250095040E+02 0.  0.
         24    2    4    4    0    0 -0.25203970781E+03  0.49625467873E+03  0.25138385259E+02  0.56282151959E+03  0.79645489721E+02 0.  0.
         13    1    3    3    0    0  0.53783642103E+02 -0.29516610880E+02 -0.48709050934E+02  0.78335701430E+02  0.00000000000E+00 0. -1.
        -13    1    3    3    0    0  0.29780547802E+03 -0.14818298513E+03 -0.60431943242E+03  0.68981756735E+03  0.00000000000E+00 0.  1.
          2    1    6    6  502    0 -0.22217592723E+03  0.36448394286E+03  0.11416571982E+02  0.42701408098E+03  0.00000000000E+00 0. -1.
          3    1    5    5  503    0 -0.92774082261E+02 -0.31639018936E+03 -0.30381376443E+03  0.44834427143E+03  0.00000000000E+00 0. -1.
         -4    1    5    5    0  503 -0.67753300534E+01 -0.21648933602E+01  0.34936478785E+01  0.79244833329E+01  0.00000000000E+00 0.  1.
         -1    1    6    6    0  502 -0.29863780575E+02  0.13177073587E+03  0.13721813277E+02  0.13580743861E+03  0.00000000000E+00 0.  1.
<mgrwt>
<rscale>  0 0.15273065E+04</rscale>
<asrwt>0</asrwt>
<pdfrwt beam="1">  1        2 0.66079488E-01 0.15273065E+04</pdfrwt>
<pdfrwt beam="2">  1       -2 0.20888105E+00 0.15273065E+04</pdfrwt>
<totfact> 0.82269019E+00</totfact>
</mgrwt>
</event>
<event>
12    1  0.2019083E-007  0.2460703E+04  0.7818608E-02  0.8417121E-01
         -1   -1    0    0    0  501 -0.00000000000E+00  0.00000000000E+00  0.11468744896E+04  0.11468744896E+04  0.00000000000E+00 0.  1.
          1   -1    0    0  501    0  0.00000000000E+00 -0.00000000000E+00 -0.13199041966E+04  0.13199041966E+04  0.00000000000E+00 0. -1.
         23    2    1    2    0    0 -0.10221860717E+04 -0.17386072288E+03 -0.31149150818E+03  0.10864542614E+04  0.90906470868E+02 0.  0.
        254    2    1    2    0    0  0.10221860717E+04  0.17386072288E+03  0.13846180120E+03  0.13803244248E+04  0.90057311265E+03 0.  0.
        -24    2    4    4    0    0  0.69334745105E+02 -0.25283431707E+03  0.18749330014E+03  0.33220179910E+03  0.80447491958E+02 0.  0.
         24    2    4    4    0    0  0.95285132656E+03  0.42669503995E+03 -0.49031498946E+02  0.10481226257E+04  0.78502502815E+02 0.  0.
         13    1    3    3    0    0 -0.17570136511E+03 -0.17047243938E+02 -0.86881071933E+02  0.19674831356E+03  0.00000000000E+00 0. -1.
        -13    1    3    3    0    0 -0.84648470656E+03 -0.15681347895E+03 -0.22461043625E+03  0.88970594788E+03  0.00000000000E+00 0.  1.
          4    1    6    6  502    0  0.88749299359E+03  0.41353407797E+03 -0.33576355262E+02  0.97968444866E+03  0.00000000000E+00 0. -1.
          1    1    5    5  503    0  0.14492574901E+02 -0.15188588291E+03  0.69969640227E+02  0.16785442117E+03  0.00000000000E+00 0. -1.
         -2    1    5    5    0  503  0.54842170204E+02 -0.10094843416E+03  0.11752365992E+03  0.16434737793E+03  0.00000000000E+00 0.  1.
         -3    1    6    6    0  502  0.65358332971E+02  0.13160961982E+02 -0.15455143684E+02  0.68438177031E+02  0.00000000000E+00 0.  1.
<mgrwt>
<rscale>  0 0.24607027E+04</rscale>
<asrwt>0</asrwt>
<pdfrwt beam="1">  1        1 0.20306218E+00 0.24607027E+04</pdfrwt>
<pdfrwt beam="2">  1       -1 0.17644223E+00 0.24607027E+04</pdfrwt>
<totfact> 0.17231509E+00</totfact>
</mgrwt>
</event>
<event>
12    1  0.2019083E-007  0.5528014E+04  0.7818608E-02  0.7751846E-01
          2   -1    0    0  501    0  0.00000000000E+00  0.00000000000E+00  0.35619911128E+04  0.35619911128E+04  0.00000000000E+00 0. -1.
         -2   -1    0    0    0  501 -0.00000000000E+00 -0.00000000000E+00 -0.21447930153E+04  0.21447930153E+04  0.00000000000E+00 0.  1.
         23    2    1    2    0    0  0.16844010016E+04  0.14474943640E+04 -0.87770283363E+03  0.23897752851E+04  0.90647565336E+02 0.  0.
        254    2    1    2    0    0 -0.16844010016E+04 -0.14474943640E+04  0.22949009311E+04  0.33170088430E+04  0.89639874646E+03 0.  0.
        -24    2    4    4    0    0 -0.12098806187E+04 -0.11474535327E+04  0.21679043352E+04  0.27362003648E+04  0.80762047554E+02 0.  0.
         24    2    4    4    0    0 -0.47452038293E+03 -0.30004083127E+03  0.12699659590E+03  0.58080847819E+03  0.77564545522E+02 0.  0.
         13    1    3    3    0    0  0.96253090661E+03  0.79579514376E+03 -0.53442142660E+03  0.13584409881E+04  0.00000000000E+00 0. -1.
        -13    1    3    3    0    0  0.72187009503E+03  0.65169922019E+03 -0.34328140703E+03  0.10313342970E+04  0.00000000000E+00 0.  1.
          4    1    6    6  502    0 -0.24034826391E+03 -0.17795295564E+03  0.10005838862E+03  0.31535095293E+03  0.00000000000E+00 0. -1.
          3    1    5    5  503    0 -0.81376769495E+03 -0.72284526370E+03  0.14378301734E+04  0.18033520855E+04  0.00000000000E+00 0. -1.
         -4    1    5    5    0  503 -0.39611292376E+03 -0.42460826898E+03  0.73007416180E+03  0.93284827929E+03  0.00000000000E+00 0.  1.
         -1    1    6    6    0  502 -0.23417211902E+03 -0.12208787563E+03  0.26938207286E+02  0.26545752526E+03  0.00000000000E+00 0.  1.
<mgrwt>
<rscale>  0 0.55280136E+04</rscale>
<asrwt>0</asrwt>
<pdfrwt beam="1">  1        2 0.54799864E+00 0.55280136E+04</pdfrwt>
<pdfrwt beam="2">  1       -2 0.32996815E+00 0.55280136E+04</pdfrwt>
<totfact> 0.10633955E-02</totfact>
</mgrwt>
</event>
<event>
12    1  0.2019083E-007  0.1243842E+04  0.7818608E-02  0.9075324E-01
         -2   -1    0    0    0  501 -0.00000000000E+00  0.00000000000E+00  0.11086108251E+04  0.11086108251E+04  0.00000000000E+00 0.  1.
          2   -1    0    0  501    0  0.00000000000E+00 -0.00000000000E+00 -0.34889247766E+03  0.34889247766E+03  0.00000000000E+00 0. -1.
         23    2    1    2    0    0 -0.27112792345E+03  0.61475708610E+02  0.25994348786E+03  0.39079829522E+03  0.88673993043E+02 0.  0.
        254    2    1    2    0    0  0.27112792345E+03 -0.61475708610E+02  0.49977485954E+03  0.10667050075E+04  0.90044158565E+03 0.  0.
        -24    2    4    4    0    0 -0.68726939435E+02 -0.36746799608E+03  0.46534405502E+03  0.60216155183E+03  0.79355684171E+02 0.  0.
         24    2    4    4    0    0  0.33985486289E+03  0.30599228747E+03  0.34430804524E+02  0.46454345567E+03  0.74044136061E+02 0.  0.
         13    1    3    3    0    0 -0.90265597197E+01  0.16024295320E+02  0.45621006631E+02  0.49188749393E+02  0.00000000000E+00 0.  1.
        -13    1    3    3    0    0 -0.26210136373E+03  0.45451413290E+02  0.21432248123E+03  0.34160954583E+03  0.00000000000E+00 0. -1.
          4    1    6    6  502    0  0.44054308967E+02  0.26467584295E+02 -0.17439775935E+02  0.54272100951E+02  0.00000000000E+00 0. -1.
          1    1    5    5  503    0 -0.88021955631E+01 -0.27132320381E+01  0.19833074314E+01  0.94219840369E+01  0.00000000000E+00 0. -1.
         -2    1    5    5    0  503 -0.59924743872E+02 -0.36475476405E+03  0.46336074759E+03  0.59273956779E+03  0.00000000000E+00 0.  1.
         -3    1    6    6    0  502  0.29580055392E+03  0.27952470318E+03  0.51870580459E+02  0.41027135472E+03  0.00000000000E+00 0.  1.
<mgrwt>
<rscale>  0 0.12438424E+04</rscale>
<asrwt>0</asrwt>
<pdfrwt beam="1">  1        2 0.53675766E-01 0.12438424E+04</pdfrwt>
<pdfrwt beam="2">  1       -2 0.17055551E+00 0.12438424E+04</pdfrwt>
<totfact> 0.19248111E+01</totfact>
</mgrwt>
</event>
<event>
12    1  0.2019083E-007  0.1364185E+04  0.7818608E-02  0.8980159E-01
         -2   -1    0    0    0  501 -0.00000000000E+00  0.00000000000E+00  0.16991450827E+03  0.16991450827E+03  0.00000000000E+00 0.  1.
          2   -1    0    0  501    0  0.00000000000E+00 -0.00000000000E+00 -0.27381446703E+04  0.27381446703E+04  0.00000000000E+00 0. -1.
         23    2    1    2    0    0  0.38283499435E+01  0.37092022531E+03 -0.57992855875E+03  0.69417007945E+03  0.89210403838E+02 0.  0.
        254    2    1    2    0    0 -0.38283499435E+01 -0.37092022531E+03 -0.19883016033E+04  0.22138890991E+04  0.90020287033E+03 0.  0.
        -24    2    4    4    0    0 -0.38316416807E+03 -0.14587467864E+02 -0.12289576121E+04  0.12898114350E+04  0.79051575386E+02 0.  0.
         24    2    4    4    0    0  0.37933581813E+03 -0.35633275744E+03 -0.75934399119E+03  0.92407766414E+03  0.80296546946E+02 0.  0.
         13    1    3    3    0    0  0.42102698235E+02  0.26586415640E+03 -0.39276639126E+03  0.47615315284E+03  0.00000000000E+00 0.  1.
        -13    1    3    3    0    0 -0.38274348292E+02  0.10505606891E+03 -0.18716216748E+03  0.21801692661E+03  0.00000000000E+00 0. -1.
          2    1    6    6  502    0  0.41952112019E+02 -0.35614600951E+02 -0.13100902884E+03  0.14209766057E+03  0.00000000000E+00 0. -1.
          3    1    5    5  503    0 -0.95987651833E+02  0.29281224363E+02 -0.28421292185E+03  0.30141002696E+03  0.00000000000E+00 0. -1.
         -2    1    5    5    0  503 -0.28717651624E+03 -0.43868692227E+02 -0.94474469024E+03  0.98840140802E+03  0.00000000000E+00 0.  1.
         -1    1    6    6    0  502  0.33738370611E+03 -0.32071815649E+03 -0.62833496236E+03  0.78198000356E+03  0.00000000000E+00 0.  1.
<mgrwt>
<rscale>  0 0.13641855E+04</rscale>
<asrwt>0</asrwt>
<pdfrwt beam="1">  1        2 0.42125300E+00 0.13641855E+04</pdfrwt>
<pdfrwt beam="2">  1       -2 0.26140695E-01 0.13641855E+04</pdfrwt>
<totfact> 0.32731239E+01</totfact>
</mgrwt>
</event>
<event>
12    1  0.2019083E-007  0.1735480E+04  0.7818608E-02  0.8741383E-01
          2   -1    0    0  501    0  0.00000000000E+00  0.00000000000E+00  0.20970755715E+04  0.20970755715E+04  0.00000000000E+00 0.  1.
         -2   -1    0    0    0  501 -0.00000000000E+00 -0.00000000000E+00 -0.35905855936E+03  0.35905855936E+03  0.00000000000E+00 0. -1.
         23    2    1    2    0    0  0.10532116599E+03 -0.58144037344E+03  0.32244008067E+03  0.67953057671E+03  0.92891028536E+02 0.  0.
        254    2    1    2    0    0 -0.10532116599E+03  0.58144037344E+03  0.14155769315E+04  0.17766035542E+04  0.89626819863E+03 0.  0.
        -24    2    4    4    0    0 -0.97849588843E+02  0.61441585134E+03  0.15180082051E+04  0.16425288256E+04  0.80440362334E+02 0.  0.
         24    2    4    4    0    0 -0.74715771459E+01 -0.32975477898E+02 -0.10243127361E+03  0.13407472854E+03  0.79628263899E+02 0.  0.
         11    1    3    3    0    0  0.96029916245E+02 -0.26988216885E+03  0.15311688806E+03  0.32481211690E+03  0.00000000000E+00 0.  1.
        -11    1    3    3    0    0  0.92912497444E+01 -0.31155820459E+03  0.16932319261E+03  0.35471845980E+03  0.00000000000E+00 0. -1.
          2    1    6    6  502    0 -0.30428455962E+02 -0.46115566512E+02 -0.88098198288E+02  0.10398956173E+03  0.00000000000E+00 0. -1.
          1    1    5    5  503    0 -0.68355132644E+02  0.51783777286E+03  0.13343372598E+04  0.14329285768E+04  0.00000000000E+00 0. -1.
         -2    1    5    5    0  503 -0.29494456199E+02  0.96578078476E+02  0.18367094527E+03  0.20960024887E+03  0.00000000000E+00 0.  1.
         -1    1    6    6    0  502  0.22956878817E+02  0.13140088614E+02 -0.14333075323E+02  0.30085166810E+02  0.00000000000E+00 0.  1.
<mgrwt>
<rscale>  0 0.17354803E+04</rscale>
<asrwt>0</asrwt>
<pdfrwt beam="1">  1        2 0.32262700E+00 0.17354803E+04</pdfrwt>
<pdfrwt beam="2">  1       -2 0.55239780E-01 0.17354803E+04</pdfrwt>
<totfact> 0.17246705E+01</totfact>
</mgrwt>
</event>
<event>
12    1  0.2019083E-007  0.1856088E+04  0.7818608E-02  0.8677028E-01
          2   -1    0    0  501    0  0.00000000000E+00  0.00000000000E+00  0.15895734183E+04  0.15895734183E+04  0.00000000000E+00 0. -1.
         -2   -1    0    0    0  501 -0.00000000000E+00 -0.00000000000E+00 -0.54182206630E+03  0.54182206630E+03  0.00000000000E+00 0.  1.
         23    2    1    2    0    0  0.51302775361E+03  0.47008427944E+03  0.25776950940E+03  0.74760085587E+03  0.91023150743E+02 0.  0.
        254    2    1    2    0    0 -0.51302775361E+03 -0.47008427944E+03  0.78998184258E+03  0.13837946287E+04  0.89813114695E+03 0.  0.
        -24    2    4    4    0    0 -0.49569757330E+03  0.13948974222E+03  0.35775761286E+03  0.63196632329E+03  0.78850820271E+02 0.  0.
         24    2    4    4    0    0 -0.17330180312E+02 -0.60957402165E+03  0.43222422972E+03  0.75182830543E+03  0.80914727108E+02 0.  0.
         11    1    3    3    0    0  0.19157216750E+03  0.21952462812E+03  0.74582504165E+02  0.30075489629E+03  0.00000000000E+00 0.  1.
        -11    1    3    3    0    0  0.32145558611E+03  0.25055965132E+03  0.18318700524E+03  0.44684595959E+03  0.00000000000E+00 0. -1.
          2    1    6    6  502    0 -0.32678449703E+02 -0.54640238834E+03  0.40694862848E+03  0.68207817535E+03  0.00000000000E+00 0. -1.
          1    1    5    5  503    0 -0.25723072593E+03  0.10883833695E+03  0.21370095498E+03  0.35168384682E+03  0.00000000000E+00 0. -1.
         -2    1    5    5    0  503 -0.23846684737E+03  0.30651405265E+02  0.14405665788E+03  0.28028247648E+03  0.00000000000E+00 0.  1.
         -3    1    6    6    0  502  0.15348269391E+02 -0.63171633313E+02  0.25275601237E+02  0.69750130083E+02  0.00000000000E+00 0.  1.
<mgrwt>
<rscale>  0 0.18560883E+04</rscale>
<asrwt>0</asrwt>
<pdfrwt beam="1">  1        2 0.24454975E+00 0.18560883E+04</pdfrwt>
<pdfrwt beam="2">  1       -2 0.83357242E-01 0.18560883E+04</pdfrwt>
<totfact> 0.13380494E+01</totfact>
</mgrwt>
</event>
<event>
12    1  0.2019083E-007  0.2038763E+04  0.7818608E-02  0.8588709E-01
          1   -1    0    0  501    0  0.00000000000E+00  0.00000000000E+00  0.21758075468E+04  0.21758075468E+04  0.00000000000E+00 0. -1.
         -1   -1    0    0    0  501 -0.00000000000E+00 -0.00000000000E+00 -0.47758734238E+03  0.47758734238E+03  0.00000000000E+00 0.  1.
         23    2    1    2    0    0 -0.70865240327E+03  0.10823592917E+03  0.11987081244E+04  0.14001925479E+04  0.98664880314E+02 0.  0.
        254    2    1    2    0    0  0.70865240327E+03 -0.10823592917E+03  0.49951207993E+03  0.12532023412E+04  0.89838774758E+03 0.  0.
        -24    2    4    4    0    0  0.39541348370E+03  0.10072668235E+03 -0.19475278391E+03  0.45936334946E+03  0.81168666072E+02 0.  0.
         24    2    4    4    0    0  0.31323891957E+03 -0.20896261152E+03  0.69426486383E+03  0.79383899176E+03  0.79954048925E+02 0.  0.
         11    1    3    3    0    0 -0.41928874849E+03  0.17742737328E+02  0.66363849278E+03  0.78519673232E+03  0.00000000000E+00 0.  1.
        -11    1    3    3    0    0 -0.28936365478E+03  0.90493191846E+02  0.53506963167E+03  0.61499581560E+03  0.00000000000E+00 0. -1.
          4    1    6    6  502    0  0.27928917197E+03 -0.16967702735E+03  0.54123540411E+03  0.63224085430E+03  0.00000000000E+00 0. -1.
          1    1    5    5  503    0  0.36598127872E+03  0.73436745137E+02 -0.15943522243E+03  0.40590003950E+03  0.00000000000E+00 0. -1.
         -2    1    5    5    0  503  0.29432204981E+02  0.27289937210E+02 -0.35317561481E+02  0.53463309960E+02  0.00000000000E+00 0.  1.
         -3    1    6    6    0  502  0.33949747596E+02 -0.39285584176E+02  0.15302945973E+03  0.16159813746E+03  0.00000000000E+00 0.  1.
<mgrwt>
<rscale>  0 0.20387625E+04</rscale>
<asrwt>0</asrwt>
<pdfrwt beam="1">  1        1 0.33473962E+00 0.20387625E+04</pdfrwt>
<pdfrwt beam="2">  1       -1 0.73474977E-01 0.20387625E+04</pdfrwt>
<totfact> 0.39046508E+00</totfact>
</mgrwt>
</event>
<event>
12    1  0.2019083E-007  0.1461837E+04  0.7818608E-02  0.8910235E-01
          2   -1    0    0  501    0  0.00000000000E+00  0.00000000000E+00  0.23257986025E+04  0.23257986025E+04  0.00000000000E+00 0. -1.
         -2   -1    0    0    0  501 -0.00000000000E+00 -0.00000000000E+00 -0.22970255644E+03  0.22970255644E+03  0.00000000000E+00 0.  1.
         23    2    1    2    0    0  0.59682820782E+02 -0.28505107381E+03  0.12299849067E+04  0.12696639551E+04  0.11986465065E+03 0.  0.
        254    2    1    2    0    0 -0.59682820782E+02  0.28505107381E+03  0.86611113937E+03  0.12858372038E+04  0.90466162471E+03 0.  0.
        -24    2    4    4    0    0 -0.26108430260E+03  0.47285317836E+03  0.23780353095E+03  0.59552439540E+03  0.79647001409E+02 0.  0.
         24    2    4    4    0    0  0.20140148181E+03 -0.18780210455E+03  0.62830760842E+03  0.69031280843E+03  0.77000878803E+02 0.  0.
         11    1    3    3    0    0  0.17090251374E+02 -0.11395510414E+02  0.26298753855E+03  0.26378851336E+03  0.00000000000E+00 0. -1.
        -11    1    3    3    0    0  0.42592569408E+02 -0.27365556339E+03  0.96699736814E+03  0.10058754418E+04  0.00000000000E+00 0.  1.
          4    1    6    6  502    0  0.69751540590E+02 -0.11353432296E+03  0.33025383002E+03  0.35612204670E+03  0.00000000000E+00 0. -1.
          1    1    5    5  503    0 -0.22505428869E+03  0.44181402266E+03  0.19950320269E+03  0.53446289989E+03  0.00000000000E+00 0. -1.
         -2    1    5    5    0  503 -0.36030013907E+02  0.31039155703E+02  0.38300328261E+02  0.61061495509E+02  0.00000000000E+00 0.  1.
         -1    1    6    6    0  502  0.13164994123E+03 -0.74267781587E+02  0.29805377840E+03  0.33419076173E+03  0.00000000000E+00 0.  1.
<mgrwt>
<rscale>  0 0.14618370E+04</rscale>
<asrwt>0</asrwt>
<pdfrwt beam="1">  1        2 0.35781515E+00 0.14618370E+04</pdfrwt>
<pdfrwt beam="2">  1       -2 0.35338856E-01 0.14618370E+04</pdfrwt>
<totfact> 0.32001036E+01</totfact>
</mgrwt>
</event>
<event>
12    1  0.2019083E-007  0.2158749E+04  0.7818608E-02  0.8535796E-01
         -2   -1    0    0    0  501 -0.00000000000E+00  0.00000000000E+00  0.13217669487E+04  0.13217669487E+04  0.00000000000E+00 0.  1.
          2   -1    0    0  501    0  0.00000000000E+00 -0.00000000000E+00 -0.88143352328E+03  0.88143352328E+03  0.00000000000E+00 0. -1.
         23    2    1    2    0    0 -0.53456666497E+03 -0.58548670446E+03 -0.22890705931E+03  0.83028325949E+03  0.91736845386E+02 0.  0.
        254    2    1    2    0    0  0.53456666497E+03  0.58548670446E+03  0.66924048467E+03  0.13729172124E+04  0.89914550853E+03 0.  0.
        -24    2    4    4    0    0 -0.89050009802E+02 -0.17174695271E+03  0.77062496439E+02  0.22432158576E+03  0.83394397108E+02 0.  0.
         24    2    4    4    0    0  0.62361667477E+03  0.75723365716E+03  0.59217798824E+03  0.11485956267E+04  0.79350962831E+02 0.  0.
         13    1    3    3    0    0 -0.38733193580E+03 -0.47430494183E+03 -0.19526073382E+03  0.64274253049E+03  0.00000000000E+00 0. -1.
        -13    1    3    3    0    0 -0.14723472917E+03 -0.11118176263E+03 -0.33646325486E+02  0.18754072900E+03  0.00000000000E+00 0.  1.
          4    1    6    6  502    0  0.23877111047E+03  0.30529775643E+03  0.19048031088E+03  0.43185774522E+03  0.00000000000E+00 0. -1.
          1    1    5    5  503    0 -0.52324815498E+02 -0.49360602753E+02  0.63274667476E+02  0.95802082259E+02  0.00000000000E+00 0. -1.
         -2    1    5    5    0  503 -0.36725194304E+02 -0.12238634995E+03  0.13787828963E+02  0.12851950350E+03  0.00000000000E+00 0.  1.
         -3    1    6    6    0  502  0.38484556430E+03  0.45193590073E+03  0.40169767735E+03  0.71673788146E+03  0.00000000000E+00 0.  1.
<mgrwt>
<rscale>  0 0.21587494E+04</rscale>
<asrwt>0</asrwt>
<pdfrwt beam="1">  1        2 0.13560516E+00 0.21587494E+04</pdfrwt>
<pdfrwt beam="2">  1       -2 0.20334876E+00 0.21587494E+04</pdfrwt>
<totfact> 0.34997411E+00</totfact>
</mgrwt>
</event>
<event>
12    1  0.2019083E-007  0.4204264E+04  0.7818608E-02  0.7964562E-01
          2   -1    0    0  501    0  0.00000000000E+00  0.00000000000E+00  0.27479581610E+04  0.27479581610E+04  0.00000000000E+00 0. -1.
         -2   -1    0    0    0  501 -0.00000000000E+00 -0.00000000000E+00 -0.16080880821E+04  0.16080880821E+04  0.00000000000E+00 0.  1.
         23    2    1    2    0    0  0.18368305427E+04  0.80010397526E+03  0.59813519226E+03  0.20929265786E+04  0.91995333055E+02 0.  0.
        254    2    1    2    0    0 -0.18368305427E+04 -0.80010397526E+03  0.54173488662E+03  0.22631196645E+04  0.90228660331E+03 0.  0.
        -24    2    4    4    0    0 -0.76373842791E+03 -0.23578234221E+03  0.66386474939E+03  0.10419192325E+04  0.77392392569E+02 0.  0.
         24    2    4    4    0    0 -0.10730921148E+04 -0.56432163305E+03 -0.12212986277E+03  0.12212004320E+04  0.80182287886E+02 0.  0.
         11    1    3    3    0    0  0.15028265783E+04  0.69062296125E+03  0.50524942170E+03  0.17293712086E+04  0.00000000000E+00 0. -1.
        -11    1    3    3    0    0  0.33400396437E+03  0.10948101400E+03  0.92885770555E+02  0.36355536994E+03  0.00000000000E+00 0.  1.
          2    1    6    6  502    0 -0.81286649676E+03 -0.46032539274E+03 -0.76653185499E+02  0.93729777531E+03  0.00000000000E+00 0. -1.
          3    1    5    5  503    0 -0.49065638150E+03 -0.11251996265E+03  0.41121049915E+03  0.64999884716E+03  0.00000000000E+00 0. -1.
         -4    1    5    5    0  503 -0.27308204641E+03 -0.12326237956E+03  0.25265425024E+03  0.39192038535E+03  0.00000000000E+00 0.  1.
         -1    1    6    6    0  502 -0.26022561803E+03 -0.10399624031E+03 -0.45476677270E+02  0.28390265665E+03  0.00000000000E+00 0.  1.
<mgrwt>
<rscale>  0 0.42042639E+04</rscale>
<asrwt>0</asrwt>
<pdfrwt beam="1">  1        2 0.42276279E+00 0.42042639E+04</pdfrwt>
<pdfrwt beam="2">  1       -2 0.24739817E+00 0.42042639E+04</pdfrwt>
<totfact> 0.12859206E-01</totfact>
</mgrwt>
</event>
<event>
12    1  0.2019083E-007  0.1457502E+04  0.7818608E-02  0.8913216E-01
          2   -1    0    0  501    0  0.00000000000E+00  0.00000000000E+00  0.83901662673E+03  0.83901662673E+03  0.00000000000E+00 0.  1.
         -2   -1    0    0    0  501 -0.00000000000E+00 -0.00000000000E+00 -0.63297662436E+03  0.63297662436E+03  0.00000000000E+00 0. -1.
         23    2    1    2    0    0  0.73344564913E+02 -0.43872109170E+03  0.25913164788E+02  0.45480166374E+03  0.91199998491E+02 0.  0.
        254    2    1    2    0    0 -0.73344564913E+02  0.43872109170E+03  0.18012683758E+03  0.10171915874E+04  0.89687090837E+03 0.  0.
        -24    2    4    4    0    0  0.26592002334E+03  0.56348774642E+03  0.76933470224E+02  0.63292336367E+03  0.80257873509E+02 0.  0.
         24    2    4    4    0    0 -0.33926458826E+03 -0.12476665473E+03  0.10319336736E+03  0.38426822369E+03  0.79661896105E+02 0.  0.
         13    1    3    3    0    0  0.55753451550E+02 -0.23703348646E+03  0.56711838559E+02  0.25001910666E+03  0.00000000000E+00 0. -1.
        -13    1    3    3    0    0  0.17591113364E+02 -0.20168760523E+03 -0.30798673771E+02  0.20478255707E+03  0.00000000000E+00 0.  1.
          4    1    6    6  502    0 -0.65472995302E+02 -0.38630050942E+02  0.53545307723E+02  0.92984374648E+02  0.00000000000E+00 0. -1.
          1    1    5    5  503    0 -0.53652016384E+01  0.51800641150E+01  0.10119414968E+00  0.74584645277E+01  0.00000000000E+00 0. -1.
         -2    1    5    5    0  503  0.27128522498E+03  0.55830768231E+03  0.76832276075E+02  0.62546489915E+03  0.00000000000E+00 0.  1.
         -3    1    6    6    0  502 -0.27379159295E+03 -0.86136603784E+02  0.49648059634E+02  0.29128384904E+03  0.00000000000E+00 0.  1.
<mgrwt>
<rscale>  0 0.14575019E+04</rscale>
<asrwt>0</asrwt>
<pdfrwt beam="1">  1        2 0.12907948E+00 0.14575019E+04</pdfrwt>
<pdfrwt beam="2">  1       -2 0.97381019E-01 0.14575019E+04</pdfrwt>
<totfact> 0.27544214E+01</totfact>
</mgrwt>
</event>
<event>
12    1  0.2019083E-007  0.1592823E+04  0.7818608E-02  0.8824969E-01
          1   -1    0    0  501    0  0.00000000000E+00  0.00000000000E+00  0.38112052531E+04  0.38112052531E+04  0.00000000000E+00 0. -1.
         -1   -1    0    0    0  501 -0.00000000000E+00 -0.00000000000E+00 -0.16642284785E+03  0.16642284785E+03  0.00000000000E+00 0.  1.
         23    2    1    2    0    0  0.28098143662E+03  0.43831278163E+03  0.15794600391E+04  0.16655366688E+04  0.90827956927E+02 0.  0.
        254    2    1    2    0    0 -0.28098143662E+03 -0.43831278163E+03  0.20653223662E+04  0.23120914322E+04  0.89952301374E+03 0.  0.
        -24    2    4    4    0    0  0.13200637662E+03 -0.41121735443E+03  0.39981239347E+03  0.59408140495E+03  0.80977587507E+02 0.  0.
         24    2    4    4    0    0 -0.41298781325E+03 -0.27095427196E+02  0.16655099727E+04  0.17180100272E+04  0.79635974351E+02 0.  0.
         13    1    3    3    0    0  0.56874158914E+02  0.78498025771E+02  0.41931344115E+03  0.43037236427E+03  0.00000000000E+00 0. -1.
        -13    1    3    3    0    0  0.22410727771E+03  0.35981475585E+03  0.11601465979E+04  0.12351643045E+04  0.00000000000E+00 0.  1.
          4    1    6    6  502    0 -0.23023487493E+03  0.11034514497E+02  0.10398887172E+04  0.10651283502E+04  0.00000000000E+00 0. -1.
          1    1    5    5  503    0  0.58941556102E+02 -0.30119891619E+03  0.26732042276E+03  0.40700749695E+03  0.00000000000E+00 0. -1.
         -2    1    5    5    0  503  0.73064820520E+02 -0.11001843824E+03  0.13249197072E+03  0.18707390800E+03  0.00000000000E+00 0.  1.
         -1    1    6    6    0  502 -0.18275293832E+03 -0.38129941693E+02  0.62562125548E+03  0.65288167705E+03  0.00000000000E+00 0.  1.
<mgrwt>
<rscale>  0 0.15928234E+04</rscale>
<asrwt>0</asrwt>
<pdfrwt beam="1">  1        1 0.58633920E+00 0.15928234E+04</pdfrwt>
<pdfrwt beam="2">  1       -1 0.25603518E-01 0.15928234E+04</pdfrwt>
<totfact> 0.18251369E+00</totfact>
</mgrwt>
</event>
<event>
12    1  0.2019083E-007  0.1245520E+04  0.7818608E-02  0.9073920E-01
         -1   -1    0    0    0  501 -0.00000000000E+00  0.00000000000E+00  0.30707241603E+03  0.30707241603E+03  0.00000000000E+00 0.  1.
          1   -1    0    0  501    0  0.00000000000E+00 -0.00000000000E+00 -0.12629927095E+04  0.12629927095E+04  0.00000000000E+00 0. -1.
         23    2    1    2    0    0  0.22575991400E+03  0.18166942085E+03 -0.27045813635E+03  0.40696397250E+03  0.92199534463E+02 0.  0.
        254    2    1    2    0    0 -0.22575991400E+03 -0.18166942085E+03 -0.68546215715E+03  0.11631011531E+04  0.89385379461E+03 0.  0.
        -24    2    4    4    0    0  0.31707432521E+03  0.73032903763E+02 -0.24127003888E+03  0.41303636260E+03  0.80733341535E+02 0.  0.
         24    2    4    4    0    0 -0.54283423920E+03 -0.25470232461E+03 -0.44419211827E+03  0.75006479047E+03  0.75817323548E+02 0.  0.
         13    1    3    3    0    0  0.85956306484E+02  0.12235315772E+03 -0.16123851475E+03  0.21990143352E+03  0.00000000000E+00 0. -1.
        -13    1    3    3    0    0  0.13980360751E+03  0.59316263134E+02 -0.10921962161E+03  0.18706253898E+03  0.00000000000E+00 0.  1.
          2    1    6    6  502    0 -0.51867226600E+03 -0.25873651512E+03 -0.42155740159E+03  0.71671203884E+03  0.00000000000E+00 0. -1.
          3    1    5    5  503    0  0.11793958947E+03  0.64048187467E+02 -0.76959120515E+02  0.15470818760E+03  0.00000000000E+00 0. -1.
         -4    1    5    5    0  503  0.19913473574E+03  0.89847162958E+01 -0.16431091836E+03  0.25832817500E+03  0.00000000000E+00 0.  1.
         -1    1    6    6    0  502 -0.24161973199E+02  0.40341905121E+01 -0.22634716683E+02  0.33352751630E+02  0.00000000000E+00 0.  1.
<mgrwt>
<rscale>  0 0.12455203E+04</rscale>
<asrwt>0</asrwt>
<pdfrwt beam="1">  1        1 0.19430657E+00 0.12455203E+04</pdfrwt>
<pdfrwt beam="2">  1       -1 0.47241910E-01 0.12455203E+04</pdfrwt>
<totfact> 0.42392457E+01</totfact>
</mgrwt>
</event>
<event>
12    1  0.2019083E-007  0.4014790E+04  0.7818608E-02  0.8001570E-01
         -1   -1    0    0    0  501 -0.00000000000E+00  0.00000000000E+00  0.10310618486E+04  0.10310618486E+04  0.00000000000E+00 0.  1.
          1   -1    0    0  501    0  0.00000000000E+00 -0.00000000000E+00 -0.39082382296E+04  0.39082382296E+04  0.00000000000E+00 0. -1.
         23    2    1    2    0    0  0.11230388345E+04 -0.15320569365E+04 -0.11838168991E+04  0.22401613462E+04  0.92117999911E+02 0.  0.
        254    2    1    2    0    0 -0.11230388345E+04  0.15320569365E+04 -0.16933594819E+04  0.26991387321E+04  0.89970488484E+03 0.  0.
        -24    2    4    4    0    0 -0.36763527516E+02  0.76553629001E+03 -0.63273976318E+03  0.99668884968E+03  0.75044566029E+02 0.  0.
         24    2    4    4    0    0 -0.10862753070E+04  0.76652064646E+03 -0.10606197187E+04  0.17024498824E+04  0.76638570038E+02 0.  0.
         11    1    3    3    0    0  0.57467796938E+03 -0.75413216926E+03 -0.64089350947E+03  0.11444276245E+04  0.00000000000E+00 0. -1.
        -11    1    3    3    0    0  0.54836086509E+03 -0.77792476721E+03 -0.54292338962E+03  0.10957337217E+04  0.00000000000E+00 0.  1.
          2    1    6    6  502    0 -0.74065125556E+03  0.48256488709E+03 -0.72388217271E+03  0.11425578990E+04  0.00000000000E+00 0. -1.
          1    1    5    5  503    0 -0.59838328245E+02  0.58450171980E+03 -0.48637807369E+03  0.76274931435E+03  0.00000000000E+00 0. -1.
         -2    1    5    5    0  503  0.23074800729E+02  0.18103457021E+03 -0.14636168949E+03  0.23393953533E+03  0.00000000000E+00 0.  1.
         -1    1    6    6    0  502 -0.34562405140E+03  0.28395575938E+03 -0.33673754601E+03  0.55989198341E+03  0.00000000000E+00 0.  1.
<mgrwt>
<rscale>  0 0.40147903E+04</rscale>
<asrwt>0</asrwt>
<pdfrwt beam="1">  1        1 0.60126741E+00 0.40147903E+04</pdfrwt>
<pdfrwt beam="2">  1       -1 0.15862490E+00 0.40147903E+04</pdfrwt>
<totfact> 0.26908755E-02</totfact>
</mgrwt>
</event>
<event>
12    1  0.2019083E-007  0.1638910E+04  0.7818608E-02  0.8796994E-01
          2   -1    0    0  501    0  0.00000000000E+00  0.00000000000E+00  0.10207993363E+04  0.10207993363E+04  0.00000000000E+00 0.  1.
         -2   -1    0    0    0  501 -0.00000000000E+00 -0.00000000000E+00 -0.65782453050E+03  0.65782453050E+03  0.00000000000E+00 0. -1.
         23    2    1    2    0    0 -0.24966365947E+03 -0.40031003521E+03  0.45190533492E+03  0.65972723624E+03  0.91877784922E+02 0.  0.
        254    2    1    2    0    0  0.24966365947E+03  0.40031003521E+03 -0.88930529087E+02  0.10188966306E+04  0.89869997089E+03 0.  0.
        -24    2    4    4    0    0 -0.29233478757E+03  0.33858255733E+03  0.25316900019E+02  0.45625258839E+03  0.86184121730E+02 0.  0.
         24    2    4    4    0    0  0.54199844704E+03  0.61727477880E+02 -0.11424742911E+03  0.56264404220E+03  0.77092444798E+02 0.  0.
         11    1    3    3    0    0 -0.20430453259E+03 -0.29096674633E+03  0.38374960298E+03  0.52313071722E+03  0.00000000000E+00 0.  1.
        -11    1    3    3    0    0 -0.45359126881E+02 -0.10934328888E+03  0.68155731940E+02  0.13659651903E+03  0.00000000000E+00 0. -1.
          4    1    6    6  502    0  0.15774649545E+03  0.68783503480E+01 -0.67400926582E+02  0.17168038163E+03  0.00000000000E+00 0. -1.
          3    1    5    5  503    0 -0.22781988298E+03  0.26763496045E+03  0.55272180996E+02  0.35578839938E+03  0.00000000000E+00 0. -1.
         -4    1    5    5    0  503 -0.64514904584E+02  0.70947596873E+02 -0.29955280978E+02  0.10046418901E+03  0.00000000000E+00 0.  1.
         -3    1    6    6    0  502  0.38425195159E+03  0.54849127532E+02 -0.46846502525E+02  0.39096366057E+03  0.00000000000E+00 0.  1.
<mgrwt>
<rscale>  0 0.16389104E+04</rscale>
<asrwt>0</asrwt>
<pdfrwt beam="1">  1        2 0.15704605E+00 0.16389104E+04</pdfrwt>
<pdfrwt beam="2">  1       -2 0.10120377E+00 0.16389104E+04</pdfrwt>
<totfact> 0.18752723E+01</totfact>
</mgrwt>
</event>
<event>
12    1  0.2019083E-007  0.2046259E+04  0.7818608E-02  0.8585293E-01
          1   -1    0    0  501    0  0.00000000000E+00  0.00000000000E+00  0.18219784866E+04  0.18219784866E+04  0.00000000000E+00 0. -1.
         -1   -1    0    0    0  501 -0.00000000000E+00 -0.00000000000E+00 -0.57453685505E+03  0.57453685505E+03  0.00000000000E+00 0.  1.
         23    2    1    2    0    0  0.78615391009E+03 -0.24044666259E+03  0.52912820877E+03  0.98191454580E+03  0.91252101501E+02 0.  0.
        254    2    1    2    0    0 -0.78615391009E+03  0.24044666259E+03  0.71831342279E+03  0.14146007959E+04  0.89959361401E+03 0.  0.
        -24    2    4    4    0    0 -0.49919893403E+03  0.30904567929E+03 -0.43267669847E+02  0.59392689999E+03  0.78538294168E+02 0.  0.
         24    2    4    4    0    0 -0.28695497607E+03 -0.68599016696E+02  0.76158109264E+03  0.82067389587E+03  0.80317490731E+02 0.  0.
         11    1    3    3    0    0  0.30062889381E+03 -0.10170665350E+03  0.25648747580E+03  0.40805367343E+03  0.00000000000E+00 0. -1.
        -11    1    3    3    0    0  0.48552501628E+03 -0.13874000910E+03  0.27264073298E+03  0.57386087237E+03  0.00000000000E+00 0.  1.
          2    1    6    6  502    0 -0.16807105215E+03 -0.55922278450E+01  0.36462996775E+03  0.40153974269E+03  0.00000000000E+00 0. -1.
          1    1    5    5  503    0 -0.40265597482E+03  0.25516852022E+03 -0.65427557493E+02  0.48116896517E+03  0.00000000000E+00 0. -1.
         -2    1    5    5    0  503 -0.96542959213E+02  0.53877159069E+02  0.22159887645E+02  0.11275793481E+03  0.00000000000E+00 0.  1.
         -1    1    6    6    0  502 -0.11888392392E+03 -0.63006788851E+02  0.39695112489E+03  0.41913415318E+03  0.00000000000E+00 0.  1.
<mgrwt>
<rscale>  0 0.20462588E+04</rscale>
<asrwt>0</asrwt>
<pdfrwt beam="1">  1        1 0.28030438E+00 0.20462588E+04</pdfrwt>
<pdfrwt beam="2">  1       -1 0.88390287E-01 0.20462588E+04</pdfrwt>
<totfact> 0.45709342E+00</totfact>
</mgrwt>
</event>
<event>
12    1  0.2485828E-007  0.2259613E+04  0.7818608E-02  0.8494018E-01
          1   -1    0    0  501    0  0.00000000000E+00  0.00000000000E+00  0.12990164682E+04  0.12990164682E+04  0.00000000000E+00 0. -1.
         -1   -1    0    0    0  501 -0.00000000000E+00 -0.00000000000E+00 -0.98263761462E+03  0.98263761462E+03  0.00000000000E+00 0.  1.
         23    2    1    2    0    0 -0.34035695465E+03  0.62225531852E+03  0.76775896939E+03  0.10497207741E+04  0.97032625973E+02 0.  0.
        254    2    1    2    0    0  0.34035695465E+03 -0.62225531852E+03 -0.45138011576E+03  0.12319333088E+04  0.90048383123E+03 0.  0.
        -24    2    4    4    0    0  0.34631946664E+03  0.12409784938E+03 -0.25997750491E+03  0.45740612053E+03  0.79338558363E+02 0.  0.
         24    2    4    4    0    0 -0.59625119842E+01 -0.74635316790E+03 -0.19140261086E+03  0.77452718823E+03  0.78605362928E+02 0.  0.
         13    1    3    3    0    0 -0.88665907380E+02  0.25249741534E+03  0.31394869817E+03  0.41252923893E+03  0.00000000000E+00 0.  1.
        -13    1    3    3    0    0 -0.25169104727E+03  0.36975790318E+03  0.45381027122E+03  0.63719153518E+03  0.00000000000E+00 0. -1.
          2    1    6    6  502    0 -0.15252229365E+01 -0.14145889092E+03 -0.68830818429E+02  0.15732331579E+03  0.00000000000E+00 0. -1.
          1    1    5    5  503    0 -0.16369128664E+01  0.34742984619E+00  0.34093471696E+01  0.37978730038E+01  0.00000000000E+00 0. -1.
         -2    1    5    5    0  503  0.34795637951E+03  0.12375041953E+03 -0.26338685208E+03  0.45360824752E+03  0.00000000000E+00 0.  1.
         -1    1    6    6    0  502 -0.44372890476E+01 -0.60489427698E+03 -0.12257179243E+03  0.61720387244E+03  0.00000000000E+00 0.  1.
<mgrwt>
<rscale>  0 0.22596127E+04</rscale>
<asrwt>0</asrwt>
<pdfrwt beam="1">  1        1 0.19984869E+00 0.22596127E+04</pdfrwt>
<pdfrwt beam="2">  1       -1 0.15117502E+00 0.22596127E+04</pdfrwt>
<totfact> 0.28076023E+00</totfact>
</mgrwt>
</event>
<event>
12    1  0.2019083E-007  0.1626337E+04  0.7818608E-02  0.8804530E-01
         -1   -1    0    0    0  501 -0.00000000000E+00  0.00000000000E+00  0.58853977315E+03  0.58853977315E+03  0.00000000000E+00 0.  1.
          1   -1    0    0  501    0  0.00000000000E+00 -0.00000000000E+00 -0.11235317026E+04  0.11235317026E+04  0.00000000000E+00 0. -1.
         23    2    1    2    0    0  0.92892968238E+02  0.40227649165E+03 -0.58339060665E+03  0.72055574527E+03  0.91654257021E+02 0.  0.
        254    2    1    2    0    0 -0.92892968238E+02 -0.40227649165E+03  0.48398677186E+02  0.99151573049E+03  0.90016972432E+03 0.  0.
        -24    2    4    4    0    0 -0.30810733116E+03 -0.46180052941E+03 -0.24690456556E+03  0.61283191594E+03  0.80070195563E+02 0.  0.
         24    2    4    4    0    0  0.21521436292E+03  0.59524037761E+02  0.29530324275E+03  0.37868381455E+03  0.79605861244E+02 0.  0.
         11    1    3    3    0    0 -0.18412440787E+02  0.59738830018E+02 -0.95015787552E+02  0.11373541960E+03  0.00000000000E+00 0. -1.
        -11    1    3    3    0    0  0.11130540902E+03  0.34253766164E+03 -0.48837481909E+03  0.60682032567E+03  0.00000000000E+00 0.  1.
          4    1    6    6  502    0  0.91607040304E+02  0.35618305975E+02  0.70259467271E+02  0.12081765722E+03  0.00000000000E+00 0. -1.
          1    1    5    5  503    0  0.86501117025E+00 -0.57474271838E+01 -0.13243200318E+02  0.14462486585E+02  0.00000000000E+00 0. -1.
         -2    1    5    5    0  503 -0.30897234233E+03 -0.45605310223E+03 -0.23366136525E+03  0.59836942936E+03  0.00000000000E+00 0.  1.
         -1    1    6    6    0  502  0.12360732262E+03  0.23905731786E+02  0.22504377548E+03  0.25786615734E+03  0.00000000000E+00 0.  1.
<mgrwt>
<rscale>  0 0.16263371E+04</rscale>
<asrwt>0</asrwt>
<pdfrwt beam="1">  1        1 0.17285103E+00 0.16263371E+04</pdfrwt>
<pdfrwt beam="2">  1       -1 0.90544581E-01 0.16263371E+04</pdfrwt>
<totfact> 0.13894193E+01</totfact>
</mgrwt>
</event>
<event>
12    1  0.2019083E-007  0.1750708E+04  0.7818608E-02  0.8732961E-01
         -1   -1    0    0    0  501 -0.00000000000E+00  0.00000000000E+00  0.15535087611E+04  0.15535087611E+04  0.00000000000E+00 0.  1.
          1   -1    0    0  501    0  0.00000000000E+00 -0.00000000000E+00 -0.49323460134E+03  0.49323460134E+03  0.00000000000E+00 0. -1.
         23    2    1    2    0    0  0.52004595346E+03  0.10611256702E+03 -0.24666802784E+02  0.53926034602E+03  0.92117311314E+02 0.  0.
        254    2    1    2    0    0 -0.52004595346E+03 -0.10611256702E+03  0.10849409625E+04  0.15074830164E+04  0.90205348066E+03 0.  0.
        -24    2    4    4    0    0 -0.44455985627E+02 -0.39160729539E+03  0.17420904910E+03  0.43809403201E+03  0.79025183577E+02 0.  0.
         24    2    4    4    0    0 -0.47558996783E+03  0.28549472836E+03  0.91073191340E+03  0.10693889844E+04  0.80418433033E+02 0.  0.
         13    1    3    3    0    0  0.27559324290E+03  0.61094981042E+02 -0.58862913572E+02  0.28835581291E+03  0.00000000000E+00 0. -1.
        -13    1    3    3    0    0  0.24445271056E+03  0.45017585982E+02  0.34196110788E+02  0.25090453312E+03  0.00000000000E+00 0.  1.
          4    1    6    6  502    0 -0.23674372967E+03  0.96393400173E+02  0.39989251231E+03  0.47460857824E+03  0.00000000000E+00 0. -1.
          1    1    5    5  503    0  0.89802298143E+01 -0.21461398663E+03  0.70310638347E+02  0.22601635704E+03  0.00000000000E+00 0. -1.
         -2    1    5    5    0  503 -0.53436215441E+02 -0.17699330875E+03  0.10389841075E+03  0.21207767497E+03  0.00000000000E+00 0.  1.
         -3    1    6    6    0  502 -0.23884623816E+03  0.18910132819E+03  0.51083940109E+03  0.59478040613E+03  0.00000000000E+00 0.  1.
<mgrwt>
<rscale>  0 0.17507076E+04</rscale>
<asrwt>0</asrwt>
<pdfrwt beam="1">  1        1 0.75882247E-01 0.17507076E+04</pdfrwt>
<pdfrwt beam="2">  1       -1 0.23900135E+00 0.17507076E+04</pdfrwt>
<totfact> 0.35226084E+00</totfact>
</mgrwt>
</event>
<event>
12    1  0.2019083E-007  0.2362409E+04  0.7818608E-02  0.8453713E-01
          2   -1    0    0  501    0  0.00000000000E+00  0.00000000000E+00  0.40094135651E+04  0.40094135651E+04  0.00000000000E+00 0. -1.
         -2   -1    0    0    0  501 -0.00000000000E+00 -0.00000000000E+00 -0.34799211540E+03  0.34799211540E+03  0.00000000000E+00 0.  1.
         23    2    1    2    0    0  0.83099236104E+03 -0.42911176436E+03  0.22607210372E+04  0.24484440776E+04  0.96610469433E+02 0.  0.
        254    2    1    2    0    0 -0.83099236104E+03  0.42911176436E+03  0.14007004125E+04  0.19089616029E+04  0.89860310776E+03 0.  0.
        -24    2    4    4    0    0 -0.33670689275E+03 -0.26115201718E+03  0.59180458249E+03  0.73356996119E+03  0.79500417597E+02 0.  0.
         24    2    4    4    0    0 -0.49428546829E+03  0.69026378155E+03  0.80889583004E+03  0.11753916417E+04  0.80317092053E+02 0.  0.
         13    1    3    3    0    0  0.34965240411E+03 -0.13315978508E+03  0.84508106237E+03  0.92420253951E+03  0.00000000000E+00 0.  1.
        -13    1    3    3    0    0  0.48133995693E+03 -0.29595197929E+03  0.14156399748E+04  0.15242415381E+04  0.00000000000E+00 0. -1.
          2    1    6    6  502    0 -0.34915644210E+03  0.42220523029E+03  0.52742170479E+03  0.76048743068E+03  0.00000000000E+00 0. -1.
          1    1    5    5  503    0 -0.27149415442E+03 -0.21783646632E+03  0.52878960892E+03  0.63307207524E+03  0.00000000000E+00 0. -1.
         -2    1    5    5    0  503 -0.65212738332E+02 -0.43315550859E+02  0.63014973578E+02  0.10049788596E+03  0.00000000000E+00 0.  1.
         -1    1    6    6    0  502 -0.14512902619E+03  0.26805855126E+03  0.28147412525E+03  0.41490421103E+03  0.00000000000E+00 0.  1.
<mgrwt>
<rscale>  0 0.23624092E+04</rscale>
<asrwt>0</asrwt>
<pdfrwt beam="1">  1        2 0.61683282E+00 0.23624092E+04</pdfrwt>
<pdfrwt beam="2">  1       -2 0.53537251E-01 0.23624092E+04</pdfrwt>
<totfact> 0.10020406E+00</totfact>
</mgrwt>
</event>
<event>
12    1  0.2019083E-007  0.1503111E+04  0.7818608E-02  0.8882387E-01
         -1   -1    0    0    0  501 -0.00000000000E+00  0.00000000000E+00  0.10919476977E+04  0.10919476977E+04  0.00000000000E+00 0.  1.
          1   -1    0    0  501    0  0.00000000000E+00 -0.00000000000E+00 -0.51727376154E+03  0.51727376154E+03  0.00000000000E+00 0. -1.
         23    2    1    2    0    0  0.30726191707E+02 -0.36668589246E+03 -0.14276619246E+03  0.40213545606E+03  0.76994134405E+02 0.  0.
        254    2    1    2    0    0 -0.30726191707E+02  0.36668589246E+03  0.71744012866E+03  0.12070860032E+04  0.89829485046E+03 0.  0.
        -24    2    4    4    0    0 -0.44781214091E+03  0.23034605586E+03  0.28023285392E+03  0.58249487610E+03  0.84704245833E+02 0.  0.
         24    2    4    4    0    0  0.41708594921E+03  0.13633983660E+03  0.43720727474E+03  0.62459112712E+03  0.80091416009E+02 0.  0.
         13    1    3    3    0    0 -0.75941544605E+01 -0.59322771788E+02  0.28431520294E+01  0.59874418143E+02  0.00000000000E+00 0.  1.
        -13    1    3    3    0    0  0.38320346168E+02 -0.30736312067E+03 -0.14560934449E+03  0.34226103792E+03  0.00000000000E+00 0. -1.
          2    1    6    6  502    0  0.39618693570E+02  0.39328589776E+02  0.64893652368E+02  0.85601197256E+02  0.00000000000E+00 0. -1.
          3    1    5    5  503    0  0.32602022809E+01  0.28229030434E+01 -0.79646721010E+00  0.43854373239E+01  0.00000000000E+00 0. -1.
         -4    1    5    5    0  503 -0.45107234319E+03  0.22752315282E+03  0.28102932113E+03  0.57810943877E+03  0.00000000000E+00 0.  1.
         -1    1    6    6    0  502  0.37746725564E+03  0.97011246821E+02  0.37231362237E+03  0.53898992986E+03  0.00000000000E+00 0.  1.
<mgrwt>
<rscale>  0 0.15031113E+04</rscale>
<asrwt>0</asrwt>
<pdfrwt beam="1">  1        1 0.79580579E-01 0.15031113E+04</pdfrwt>
<pdfrwt beam="2">  1       -1 0.16799195E+00 0.15031113E+04</pdfrwt>
<totfact> 0.10409940E+01</totfact>
</mgrwt>
</event>
<event>
12    1  0.2019083E-007  0.2951112E+04  0.7818608E-02  0.8257830E-01
          2   -1    0    0  501    0  0.00000000000E+00  0.00000000000E+00  0.23343587221E+04  0.23343587221E+04  0.00000000000E+00 0.  1.
         -2   -1    0    0    0  501 -0.00000000000E+00 -0.00000000000E+00 -0.93270415283E+03  0.93270415283E+03  0.00000000000E+00 0. -1.
         23    2    1    2    0    0 -0.89796193219E+03  0.97236401276E+03  0.42857890293E+03  0.13942076257E+04  0.91146159618E+02 0.  0.
        254    2    1    2    0    0  0.89796193219E+03 -0.97236401276E+03  0.97307566635E+03  0.18728552493E+04  0.89937930116E+03 0.  0.
        -24    2    4    4    0    0  0.24695449876E+03 -0.89576758145E+03  0.48078122264E+03  0.10491966323E+04  0.79226919499E+02 0.  0.
         24    2    4    4    0    0  0.65100743343E+03 -0.76596431311E+02  0.49229444371E+03  0.82365861697E+03  0.79887460415E+02 0.  0.
         11    1    3    3    0    0 -0.13602023854E+03  0.19002914426E+03  0.95789696528E+02  0.25256335230E+03  0.00000000000E+00 0. -1.
        -11    1    3    3    0    0 -0.76194169364E+03  0.78233486850E+03  0.33278920640E+03  0.11416442734E+04  0.00000000000E+00 0.  1.
          2    1    6    6  502    0  0.17936739621E+03 -0.30801083779E+01  0.17412265130E+03  0.25000169517E+03  0.00000000000E+00 0. -1.
          3    1    5    5  503    0  0.20364809968E+03 -0.69614495138E+03  0.33958109160E+03  0.80087805539E+03  0.00000000000E+00 0. -1.
         -4    1    5    5    0  503  0.43306399081E+02 -0.19962263007E+03  0.14120013104E+03  0.24831857692E+03  0.00000000000E+00 0.  1.
         -1    1    6    6    0  502  0.47164003723E+03 -0.73516322933E+02  0.31817179240E+03  0.57365692180E+03  0.00000000000E+00 0.  1.
<mgrwt>
<rscale>  0 0.29511124E+04</rscale>
<asrwt>0</asrwt>
<pdfrwt beam="1">  1        2 0.35913211E+00 0.29511124E+04</pdfrwt>
<pdfrwt beam="2">  1       -2 0.14349295E+00 0.29511124E+04</pdfrwt>
<totfact> 0.12543905E+00</totfact>
</mgrwt>
</event>
<event>
12    1  0.2019083E-007  0.1769916E+04  0.7818608E-02  0.8722464E-01
          1   -1    0    0  501    0  0.00000000000E+00  0.00000000000E+00  0.59885748195E+03  0.59885748195E+03  0.00000000000E+00 0. -1.
         -1   -1    0    0    0  501 -0.00000000000E+00 -0.00000000000E+00 -0.13077407173E+04  0.13077407173E+04  0.00000000000E+00 0.  1.
         23    2    1    2    0    0 -0.56585179788E+03  0.30250484937E+03 -0.13756022603E+03  0.66254914906E+03  0.91384452027E+02 0.  0.
        254    2    1    2    0    0  0.56585179788E+03 -0.30250484937E+03 -0.57132300933E+03  0.12440490502E+04  0.89975030827E+03 0.  0.
        -24    2    4    4    0    0  0.47566289784E+03 -0.28387922541E+03 -0.80526122761E+03  0.98057437625E+03  0.78980096608E+02 0.  0.
         24    2    4    4    0    0  0.90188900042E+02 -0.18625623957E+02  0.23393821829E+03  0.26347467394E+03  0.78809024066E+02 0.  0.
         11    1    3    3    0    0 -0.18681521734E+03  0.52845197391E+02 -0.46420354927E+02  0.19961810957E+03  0.00000000000E+00 0.  1.
        -11    1    3    3    0    0 -0.37903658054E+03  0.24965965198E+03 -0.91139871103E+02  0.46293103949E+03  0.00000000000E+00 0. -1.
          4    1    6    6  502    0  0.52131953722E+02  0.16248003512E+02  0.18292634556E+03  0.19090255660E+03  0.00000000000E+00 0. -1.
          3    1    5    5  503    0  0.28589360357E+03 -0.21436688235E+03 -0.50536200272E+03  0.61893381439E+03  0.00000000000E+00 0. -1.
         -4    1    5    5    0  503  0.18976929428E+03 -0.69512343059E+02 -0.29989922490E+03  0.36164056186E+03  0.00000000000E+00 0.  1.
         -3    1    6    6    0  502  0.38056946320E+02 -0.34873627469E+02  0.51011872728E+02  0.72572117340E+02  0.00000000000E+00 0.  1.
<mgrwt>
<rscale>  0 0.17699156E+04</rscale>
<asrwt>0</asrwt>
<pdfrwt beam="1">  1        1 0.92131920E-01 0.17699156E+04</pdfrwt>
<pdfrwt beam="2">  1       -1 0.20119088E+00 0.17699156E+04</pdfrwt>
<totfact> 0.47973097E+00</totfact>
</mgrwt>
</event>
<event>
12    1  0.2019083E-007  0.2124033E+04  0.7818608E-02  0.8550730E-01
         -2   -1    0    0    0  501 -0.00000000000E+00  0.00000000000E+00  0.52212616070E+03  0.52212616070E+03  0.00000000000E+00 0.  1.
          2   -1    0    0  501    0  0.00000000000E+00 -0.00000000000E+00 -0.21601663248E+04  0.21601663248E+04  0.00000000000E+00 0. -1.
         23    2    1    2    0    0 -0.21330070321E+03 -0.64902418075E+03  0.67675446446E+01  0.68940147964E+03  0.92190147387E+02 0.  0.
        254    2    1    2    0    0  0.21330070321E+03  0.64902418075E+03 -0.16448077087E+04  0.19928910058E+04  0.89414349258E+03 0.  0.
        -24    2    4    4    0    0  0.51300506457E+03  0.51768902235E+03 -0.13860452519E+04  0.15680082194E+04  0.79700789391E+02 0.  0.
         24    2    4    4    0    0 -0.29970436136E+03  0.13133515840E+03 -0.25876245686E+03  0.42488278643E+03  0.80596185202E+02 0.  0.
         11    1    3    3    0    0 -0.12704576742E+03 -0.43187382955E+03 -0.36972733219E+02  0.45168862580E+03  0.00000000000E+00 0. -1.
        -11    1    3    3    0    0 -0.86254935783E+02 -0.21715035120E+03  0.43740277864E+02  0.23771285384E+03  0.00000000000E+00 0.  1.
          4    1    6    6  502    0 -0.21151678720E+03  0.63603970338E+02 -0.20510238847E+03  0.30141633344E+03  0.00000000000E+00 0. -1.
          1    1    5    5  503    0  0.18547273231E+03  0.13987412626E+03 -0.40536011987E+03  0.46720630604E+03  0.00000000000E+00 0. -1.
         -2    1    5    5    0  503  0.32753233226E+03  0.37781489610E+03 -0.98068513199E+03  0.11008019134E+04  0.00000000000E+00 0.  1.
         -3    1    6    6    0  502 -0.88187574160E+02  0.67731188060E+02 -0.53660068397E+02  0.12346645298E+03  0.00000000000E+00 0.  1.
<mgrwt>
<rscale>  0 0.21240333E+04</rscale>
<asrwt>0</asrwt>
<pdfrwt beam="1">  1        2 0.33233328E+00 0.21240333E+04</pdfrwt>
<pdfrwt beam="2">  1       -2 0.80327102E-01 0.21240333E+04</pdfrwt>
<totfact> 0.68486205E+00</totfact>
</mgrwt>
</event>
<event>
12    1  0.2019083E-007  0.2222747E+04  0.7818608E-02  0.8509020E-01
         -1   -1    0    0    0  501 -0.00000000000E+00  0.00000000000E+00  0.10388338186E+04  0.10388338186E+04  0.00000000000E+00 0.  1.
          1   -1    0    0  501    0  0.00000000000E+00 -0.00000000000E+00 -0.11889780496E+04  0.11889780496E+04  0.00000000000E+00 0. -1.
         23    2    1    2    0    0 -0.53988392482E+03  0.36378179619E+03 -0.72386849600E+03  0.97785788043E+03  0.91698349545E+02 0.  0.
        254    2    1    2    0    0  0.53988392482E+03 -0.36378179619E+03  0.57372426501E+03  0.12499539878E+04  0.89967415866E+03 0.  0.
        -24    2    4    4    0    0  0.51558713520E+03 -0.58607013659E+03  0.20447245563E+03  0.81087493727E+03  0.80005498558E+02 0.  0.
         24    2    4    4    0    0  0.24296789617E+02  0.22228834040E+03  0.36925180938E+03  0.43907905049E+03  0.80256299338E+02 0.  0.
         13    1    3    3    0    0 -0.10475675339E+03  0.58785578230E+02 -0.86426413653E+02  0.14798394023E+03  0.00000000000E+00 0.  1.
        -13    1    3    3    0    0 -0.43512717143E+03  0.30499621796E+03 -0.63744208235E+03  0.82987394020E+03  0.00000000000E+00 0. -1.
          2    1    6    6  502    0  0.12463633082E+02  0.11019211588E+03  0.10913513805E+03  0.15558959768E+03  0.00000000000E+00 0. -1.
          3    1    5    5  503    0  0.18351690775E+03 -0.26728894259E+03  0.91748369302E+02  0.33695637333E+03  0.00000000000E+00 0. -1.
         -4    1    5    5    0  503  0.33207022745E+03 -0.31878119400E+03  0.11272408633E+03  0.47391856394E+03  0.00000000000E+00 0.  1.
         -1    1    6    6    0  502  0.11833156534E+02  0.11209622453E+03  0.26011667134E+03  0.28348945281E+03  0.00000000000E+00 0.  1.
<mgrwt>
<rscale>  0 0.22227466E+04</rscale>
<asrwt>0</asrwt>
<pdfrwt beam="1">  1        1 0.18291970E+00 0.22227466E+04</pdfrwt>
<pdfrwt beam="2">  1       -1 0.15982059E+00 0.22227466E+04</pdfrwt>
<totfact> 0.29041581E+00</totfact>
</mgrwt>
</event>
<event>
12    1  0.2019083E-007  0.1361266E+04  0.7818608E-02  0.8982343E-01
          2   -1    0    0  501    0  0.00000000000E+00  0.00000000000E+00  0.15357745630E+04  0.15357745630E+04  0.00000000000E+00 0. -1.
         -2   -1    0    0    0  501 -0.00000000000E+00 -0.00000000000E+00 -0.30164679261E+03  0.30164679261E+03  0.00000000000E+00 0.  1.
         23    2    1    2    0    0 -0.11117456025E+02  0.33832470204E+03  0.62656500722E+03  0.71694918546E+03  0.82735871408E+02 0.  0.
        254    2    1    2    0    0  0.11117456025E+02 -0.33832470204E+03  0.60756276314E+03  0.11204721701E+04  0.87848629528E+03 0.  0.
        -24    2    4    4    0    0 -0.19808035635E+03 -0.12546369151E+03 -0.15794912217E+03  0.29467320578E+03  0.83110814887E+02 0.  0.
         24    2    4    4    0    0  0.20919781238E+03 -0.21286101053E+03  0.76551188530E+03  0.82579896433E+03  0.82836878541E+02 0.  0.
         13    1    3    3    0    0 -0.14689907188E+02  0.28164972971E+03  0.57410184128E+03  0.63963684055E+03  0.00000000000E+00 0. -1.
        -13    1    3    3    0    0  0.35724511623E+01  0.56674972329E+02  0.52463165941E+02  0.77312344916E+02  0.00000000000E+00 0.  1.
          4    1    6    6  502    0  0.14451062953E+03 -0.13213936960E+03  0.39141866126E+03  0.43766734334E+03  0.00000000000E+00 0. -1.
          1    1    5    5  503    0 -0.20075471225E+03 -0.13031808369E+03 -0.14318614059E+03  0.27890415609E+03  0.00000000000E+00 0. -1.
         -2    1    5    5    0  503  0.26743559016E+01  0.48543921813E+01 -0.14762981579E+02  0.15769049688E+02  0.00000000000E+00 0.  1.
         -3    1    6    6    0  502  0.64687182850E+02 -0.80721640934E+02  0.37409322404E+03  0.38813162099E+03  0.00000000000E+00 0.  1.
<mgrwt>
<rscale>  0 0.13612663E+04</rscale>
<asrwt>0</asrwt>
<pdfrwt beam="1">  1        2 0.23627301E+00 0.13612663E+04</pdfrwt>
<pdfrwt beam="2">  1       -2 0.46407200E-01 0.13612663E+04</pdfrwt>
<totfact> 0.52050045E+01</totfact>
</mgrwt>
</event>
<event>
12    1  0.2019083E-007  0.1807216E+04  0.7818608E-02  0.8702471E-01
          2   -1    0    0  501    0  0.00000000000E+00  0.00000000000E+00  0.76509393965E+03  0.76509393965E+03  0.00000000000E+00 0. -1.
         -2   -1    0    0    0  501 -0.00000000000E+00 -0.00000000000E+00 -0.10671993659E+04  0.10671993659E+04  0.00000000000E+00 0.  1.
         23    2    1    2    0    0 -0.13341881922E+03 -0.12073801133E+03 -0.76991289251E+03  0.79559801570E+03  0.88499106347E+02 0.  0.
        254    2    1    2    0    0  0.13341881922E+03  0.12073801133E+03  0.46780746623E+03  0.10366952899E+04  0.90747729995E+03 0.  0.
        -24    2    4    4    0    0  0.23854566519E+03  0.48009109960E+03  0.28503666827E+03  0.61218195585E+03  0.78290143190E+02 0.  0.
         24    2    4    4    0    0 -0.10512684597E+03 -0.35935308827E+03  0.18277079795E+03  0.42451333404E+03  0.81364060843E+02 0.  0.
         11    1    3    3    0    0 -0.82729309978E+02 -0.12245199652E+03 -0.61878070523E+03  0.63618251418E+03  0.00000000000E+00 0.  1.
        -11    1    3    3    0    0 -0.50689509237E+02  0.17139851889E+01 -0.15113218728E+03  0.15941550152E+03  0.00000000000E+00 0. -1.
          4    1    6    6  502    0 -0.10284102396E+03 -0.33989519133E+03  0.14823995491E+03  0.38481177416E+03  0.00000000000E+00 0. -1.
          1    1    5    5  503    0  0.23720881381E+03  0.48248391488E+03  0.28634968761E+03  0.60914275261E+03  0.00000000000E+00 0. -1.
         -2    1    5    5    0  503  0.13368513737E+01 -0.23928152812E+01 -0.13130193354E+01  0.30392032410E+01  0.00000000000E+00 0.  1.
         -3    1    6    6    0  502 -0.22858220147E+01 -0.19457896938E+02  0.34530843041E+02  0.39701559877E+02  0.00000000000E+00 0.  1.
<mgrwt>
<rscale>  0 0.18072164E+04</rscale>
<asrwt>0</asrwt>
<pdfrwt beam="1">  1        2 0.11770676E+00 0.18072164E+04</pdfrwt>
<pdfrwt beam="2">  1       -2 0.16418452E+00 0.18072164E+04</pdfrwt>
<totfact> 0.80867011E+00</totfact>
</mgrwt>
</event>
<event>
12    1  0.2019083E-007  0.4456357E+04  0.7818608E-02  0.7918322E-01
         -2   -1    0    0    0  501 -0.00000000000E+00  0.00000000000E+00  0.22746713069E+04  0.22746713069E+04  0.00000000000E+00 0.  1.
          2   -1    0    0  501    0  0.00000000000E+00 -0.00000000000E+00 -0.21826355507E+04  0.21826355507E+04  0.00000000000E+00 0. -1.
         23    2    1    2    0    0  0.12059690093E+04  0.97964645820E+03  0.15111452073E+04  0.21691391394E+04  0.86812060778E+02 0.  0.
        254    2    1    2    0    0 -0.12059690093E+04 -0.97964645820E+03 -0.14191094510E+04  0.22881677182E+04  0.89876105733E+03 0.  0.
        -24    2    4    4    0    0 -0.12773389124E+04 -0.10080494444E+04 -0.11414666618E+04  0.19892160656E+04  0.79221437725E+02 0.  0.
         24    2    4    4    0    0  0.71369903035E+02  0.28402986182E+02 -0.27764278920E+03  0.29895165263E+03  0.79913575375E+02 0.  0.
         11    1    3    3    0    0  0.81329179154E+03  0.60915273772E+03  0.10013186857E+04  0.14265867329E+04  0.00000000000E+00 0. -1.
        -11    1    3    3    0    0  0.39267721779E+03  0.37049372048E+03  0.50982652160E+03  0.74255240651E+03  0.00000000000E+00 0.  1.
          2    1    6    6  502    0  0.38735179339E+02 -0.10348658749E+02 -0.42557565535E+02  0.58469267488E+02  0.00000000000E+00 0. -1.
          3    1    5    5  503    0 -0.13107353836E+03 -0.85825225379E+02 -0.87547391109E+02  0.17947364001E+03  0.00000000000E+00 0. -1.
         -4    1    5    5    0  503 -0.11462653740E+04 -0.92222421900E+03 -0.10539192707E+04  0.18097424256E+04  0.00000000000E+00 0.  1.
         -1    1    6    6    0  502  0.32634723696E+02  0.38751644931E+02 -0.23508522367E+03  0.24048238514E+03  0.00000000000E+00 0.  1.
<mgrwt>
<rscale>  0 0.44563566E+04</rscale>
<asrwt>0</asrwt>
<pdfrwt beam="1">  1        2 0.33579009E+00 0.44563566E+04</pdfrwt>
<pdfrwt beam="2">  1       -2 0.34994943E+00 0.44563566E+04</pdfrwt>
<totfact> 0.62522081E-02</totfact>
</mgrwt>
</event>
<event>
12    1  0.2019083E-007  0.1275852E+04  0.7818608E-02  0.9048937E-01
         -2   -1    0    0    0  501 -0.00000000000E+00  0.00000000000E+00  0.20687600337E+03  0.20687600337E+03  0.00000000000E+00 0.  1.
          2   -1    0    0  501    0  0.00000000000E+00 -0.00000000000E+00 -0.19671187758E+04  0.19671187758E+04  0.00000000000E+00 0. -1.
         23    2    1    2    0    0 -0.26900863256E+03 -0.64885200717E+02 -0.21228243843E+03  0.36202960340E+03  0.97086901336E+02 0.  0.
        254    2    1    2    0    0  0.26900863256E+03  0.64885200717E+02 -0.15479603340E+04  0.18119651758E+04  0.90025600186E+03 0.  0.
        -24    2    4    4    0    0  0.34868753967E+03  0.25672777613E+03 -0.27341165543E+03  0.51820148999E+03  0.79288710119E+02 0.  0.
         24    2    4    4    0    0 -0.79678907111E+02 -0.19184257541E+03 -0.12745486786E+04  0.12937636858E+04  0.78726352523E+02 0.  0.
         11    1    3    3    0    0 -0.27663911483E+03 -0.66371907055E+02 -0.20101680682E+03  0.34834205392E+03  0.00000000000E+00 0.  1.
        -11    1    3    3    0    0  0.76304822726E+01  0.14867063373E+01 -0.11265631610E+02  0.13687549489E+02  0.00000000000E+00 0. -1.
          4    1    6    6  502    0 -0.49484316519E+02 -0.13846810988E+03 -0.66100429234E+03  0.67716230664E+03  0.00000000000E+00 0. -1.
          1    1    5    5  503    0  0.28120288668E+03  0.24214347652E+03 -0.22714102612E+03  0.43508800541E+03  0.00000000000E+00 0. -1.
         -2    1    5    5    0  503  0.67484652991E+02  0.14584299604E+02 -0.46270629303E+02  0.83113484589E+02  0.00000000000E+00 0.  1.
         -3    1    6    6    0  502 -0.30194590591E+02 -0.53374465536E+02 -0.61354438624E+03  0.61660137914E+03  0.00000000000E+00 0.  1.
<mgrwt>
<rscale>  0 0.12758521E+04</rscale>
<asrwt>0</asrwt>
<pdfrwt beam="1">  1        2 0.30263366E+00 0.12758521E+04</pdfrwt>
<pdfrwt beam="2">  1       -2 0.31827077E-01 0.12758521E+04</pdfrwt>
<totfact> 0.62839581E+01</totfact>
</mgrwt>
</event>
<event>
12    1  0.2019083E-007  0.1604486E+04  0.7818608E-02  0.8817797E-01
          1   -1    0    0  501    0  0.00000000000E+00  0.00000000000E+00  0.12588654684E+04  0.12588654684E+04  0.00000000000E+00 0. -1.
         -1   -1    0    0    0  501 -0.00000000000E+00 -0.00000000000E+00 -0.51124885313E+03  0.51124885313E+03  0.00000000000E+00 0.  1.
         23    2    1    2    0    0  0.39608965379E+03  0.32729702898E+03  0.46073017731E+03  0.69590680575E+03  0.89462992305E+02 0.  0.
        254    2    1    2    0    0 -0.39608965379E+03 -0.32729702898E+03  0.28688643798E+03  0.10742075158E+04  0.89866990585E+03 0.  0.
        -24    2    4    4    0    0 -0.46652971568E+03  0.14431515885E+03  0.32008741724E+03  0.58944811527E+03  0.80723511013E+02 0.  0.
         24    2    4    4    0    0  0.70440061893E+02 -0.47161218783E+03 -0.33200979266E+02  0.48475940053E+03  0.80681555169E+02 0.  0.
         11    1    3    3    0    0  0.20153210765E+03  0.14244480412E+03  0.16670527044E+03  0.29781934092E+03  0.00000000000E+00 0.  1.
        -11    1    3    3    0    0  0.19455754614E+03  0.18485222486E+03  0.29402490687E+03  0.39808746483E+03  0.00000000000E+00 0. -1.
          4    1    6    6  502    0  0.77182928907E+02 -0.24619367957E+03 -0.12973475557E+02  0.25833475075E+03  0.00000000000E+00 0. -1.
          3    1    5    5  503    0 -0.33432236327E+03  0.65154031872E+02  0.21145841536E+03  0.40091289812E+03  0.00000000000E+00 0. -1.
         -4    1    5    5    0  503 -0.13220735241E+03  0.79161126978E+02  0.10862900188E+03  0.18853521715E+03  0.00000000000E+00 0.  1.
         -3    1    6    6    0  502 -0.67428670136E+01 -0.22541850826E+03 -0.20227503708E+02  0.22642464978E+03  0.00000000000E+00 0.  1.
<mgrwt>
<rscale>  0 0.16044856E+04</rscale>
<asrwt>0</asrwt>
<pdfrwt beam="1">  1        1 0.19367161E+00 0.16044856E+04</pdfrwt>
<pdfrwt beam="2">  1       -1 0.78653670E-01 0.16044856E+04</pdfrwt>
<totfact> 0.15021396E+01</totfact>
</mgrwt>
</event>
<event>
12    1  0.2019083E-007  0.3335284E+04  0.7818608E-02  0.8153975E-01
          2   -1    0    0  501    0  0.00000000000E+00  0.00000000000E+00  0.91448201358E+03  0.91448201358E+03  0.00000000000E+00 0. -1.
         -2   -1    0    0    0  501 -0.00000000000E+00 -0.00000000000E+00 -0.30410985147E+04  0.30410985147E+04  0.00000000000E+00 0.  1.
         23    2    1    2    0    0 -0.13525197113E+04  0.56741207819E+03 -0.15595790112E+04  0.21429639423E+04  0.93497218516E+02 0.  0.
        254    2    1    2    0    0  0.13525197113E+04 -0.56741207819E+03 -0.56703748994E+03  0.18126165860E+04  0.90154386299E+03 0.  0.
        -24    2    4    4    0    0 -0.16618650462E+02 -0.27403418802E+03 -0.23848325994E+03  0.37234863777E+03  0.79989543281E+02 0.  0.
         24    2    4    4    0    0  0.13691383618E+04 -0.29337789017E+03 -0.32855423001E+03  0.14402679482E+04  0.76245921479E+02 0.  0.
         11    1    3    3    0    0 -0.86395702163E+03  0.31813431400E+03 -0.94895789291E+03  0.13221770908E+04  0.00000000000E+00 0. -1.
        -11    1    3    3    0    0 -0.48856268967E+03  0.24927776419E+03 -0.61062111825E+03  0.82078685144E+03  0.00000000000E+00 0.  1.
          2    1    6    6  502    0  0.33549849042E+03 -0.42233621273E+02 -0.94622553324E+02  0.35113579059E+03  0.00000000000E+00 0. -1.
          1    1    5    5  503    0 -0.41617796578E+02 -0.17810224510E+03 -0.12432892614E+03  0.22115635324E+03  0.00000000000E+00 0. -1.
         -2    1    5    5    0  503  0.24999146116E+02 -0.95931942919E+02 -0.11415433379E+03  0.15119228453E+03  0.00000000000E+00 0.  1.
         -1    1    6    6    0  502  0.10336398713E+04 -0.25114426890E+03 -0.23393167668E+03  0.10891321576E+04  0.00000000000E+00 0.  1.
<mgrwt>
<rscale>  0 0.33352840E+04</rscale>
<asrwt>0</asrwt>
<pdfrwt beam="1">  1        2 0.14068954E+00 0.33352840E+04</pdfrwt>
<pdfrwt beam="2">  1       -2 0.46786131E+00 0.33352840E+04</pdfrwt>
<totfact> 0.63125992E-02</totfact>
</mgrwt>
</event>
<event>
12    1  0.2019083E-007  0.4701302E+04  0.7818608E-02  0.7876312E-01
         -1   -1    0    0    0  501 -0.00000000000E+00  0.00000000000E+00  0.14919972894E+04  0.14919972894E+04  0.00000000000E+00 0.  1.
          1   -1    0    0  501    0  0.00000000000E+00 -0.00000000000E+00 -0.37034648768E+04  0.37034648768E+04  0.00000000000E+00 0. -1.
         23    2    1    2    0    0  0.22623131146E+04 -0.32414736059E+02 -0.11511728189E+04  0.25401200968E+04  0.88881401479E+02 0.  0.
        254    2    1    2    0    0 -0.22623131146E+04  0.32414736059E+02 -0.10602947685E+04  0.26553420694E+04  0.89861291225E+03 0.  0.
        -24    2    4    4    0    0 -0.17150448908E+04 -0.97877610285E+02 -0.11658923787E+04  0.20776481693E+04  0.79736270213E+02 0.  0.
         24    2    4    4    0    0 -0.54726822375E+03  0.13029234634E+03  0.10559761014E+03  0.57769390009E+03  0.78107507281E+02 0.  0.
         11    1    3    3    0    0  0.96452207016E+03  0.28189255580E+02 -0.50513736390E+03  0.10891561937E+04  0.00000000000E+00 0. -1.
        -11    1    3    3    0    0  0.12977910444E+04 -0.60603991639E+02 -0.64603545503E+03  0.14509639030E+04  0.00000000000E+00 0.  1.
          2    1    6    6  502    0 -0.32171709445E+03  0.65621388786E+02  0.23789630128E+02  0.32920206869E+03  0.00000000000E+00 0. -1.
          3    1    5    5  503    0 -0.71209812586E+03 -0.79026429577E+02 -0.49634276127E+03  0.87159913612E+03  0.00000000000E+00 0. -1.
         -4    1    5    5    0  503 -0.10029467649E+04 -0.18851180708E+02 -0.66954961741E+03  0.12060490332E+04  0.00000000000E+00 0.  1.
         -1    1    6    6    0  502 -0.22555112930E+03  0.64670957558E+02  0.81807980016E+02  0.24849183141E+03  0.00000000000E+00 0.  1.
<mgrwt>
<rscale>  0 0.47013018E+04</rscale>
<asrwt>0</asrwt>
<pdfrwt beam="1">  1        1 0.56976382E+00 0.47013018E+04</pdfrwt>
<pdfrwt beam="2">  1       -1 0.22953805E+00 0.47013018E+04</pdfrwt>
<totfact> 0.12021290E-02</totfact>
</mgrwt>
</event>
<event>
12    1  0.2019083E-007  0.2195945E+04  0.7818608E-02  0.8520118E-01
          2   -1    0    0  501    0  0.00000000000E+00  0.00000000000E+00  0.29917634114E+04  0.29917634114E+04  0.00000000000E+00 0. -1.
         -2   -1    0    0    0  501 -0.00000000000E+00 -0.00000000000E+00 -0.40295421491E+03  0.40295421491E+03  0.00000000000E+00 0.  1.
         23    2    1    2    0    0  0.57093744287E+03  0.52761692406E+03  0.18120228394E+04  0.19738463954E+04  0.91069422951E+02 0.  0.
        254    2    1    2    0    0 -0.57093744287E+03 -0.52761692406E+03  0.77678635701E+03  0.14208712309E+04  0.90062690833E+03 0.  0.
        -24    2    4    4    0    0 -0.45872703476E+03  0.10408606464E+03  0.56835964463E+03  0.74199102367E+03  0.79079657828E+02 0.  0.
         24    2    4    4    0    0 -0.11221040810E+03 -0.63170298870E+03  0.20842671237E+03  0.67888020718E+03  0.76136716880E+02 0.  0.
         13    1    3    3    0    0  0.16785987284E+03  0.16438518933E+03  0.65643580799E+03  0.69721402553E+03  0.00000000000E+00 0. -1.
        -13    1    3    3    0    0  0.40307757003E+03  0.36323173473E+03  0.11555870314E+04  0.12766323699E+04  0.00000000000E+00 0.  1.
          4    1    6    6  502    0 -0.49105985096E+02 -0.15509803539E+03  0.79813620840E+02  0.18120985742E+03  0.00000000000E+00 0. -1.
          3    1    5    5  503    0 -0.64850926590E+02  0.31647886828E+02  0.12659958245E+03  0.14572126028E+03  0.00000000000E+00 0. -1.
         -4    1    5    5    0  503 -0.39387610817E+03  0.72438177808E+02  0.44176006218E+03  0.59626976339E+03  0.00000000000E+00 0.  1.
         -3    1    6    6    0  502 -0.63104423008E+02 -0.47660495331E+03  0.12861309153E+03  0.49767034976E+03  0.00000000000E+00 0.  1.
<mgrwt>
<rscale>  0 0.21959451E+04</rscale>
<asrwt>0</asrwt>
<pdfrwt beam="1">  1        2 0.46027128E+00 0.21959451E+04</pdfrwt>
<pdfrwt beam="2">  1       -2 0.61992958E-01 0.21959451E+04</pdfrwt>
<totfact> 0.38975128E+00</totfact>
</mgrwt>
</event>
<event>
12    1  0.2019083E-007  0.5184187E+04  0.7818608E-02  0.7800706E-01
         -2   -1    0    0    0  501 -0.00000000000E+00  0.00000000000E+00  0.31372096218E+04  0.31372096218E+04  0.00000000000E+00 0.  1.
          2   -1    0    0  501    0  0.00000000000E+00 -0.00000000000E+00 -0.21416960237E+04  0.21416960237E+04  0.00000000000E+00 0. -1.
         23    2    1    2    0    0  0.10823266776E+04  0.73781811756E+02 -0.18251539328E+04  0.21251405632E+04  0.90336826465E+02 0.  0.
        254    2    1    2    0    0 -0.10823266776E+04 -0.73781811756E+02  0.28206675309E+04  0.31537650824E+04  0.90177274425E+03 0.  0.
        -24    2    4    4    0    0 -0.10086192562E+04 -0.16543683189E+03  0.28320011766E+04  0.30117273311E+04  0.74757632425E+02 0.  0.
         24    2    4    4    0    0 -0.73707421432E+02  0.91655020132E+02 -0.11333645683E+02  0.14203775127E+03  0.78821599657E+02 0.  0.
         13    1    3    3    0    0  0.88067528218E+03  0.69681858289E+02 -0.15483732566E+04  0.17826677357E+04  0.00000000000E+00 0. -1.
        -13    1    3    3    0    0  0.20165139541E+03  0.40999534668E+01 -0.27678067617E+03  0.34247282752E+03  0.00000000000E+00 0.  1.
          4    1    6    6  502    0 -0.35265751451E+02  0.12719962675E+02 -0.34806294615E+02  0.51156122025E+02  0.00000000000E+00 0. -1.
          1    1    5    5  503    0 -0.49648533024E+03 -0.43873001677E+02  0.13635494581E+04  0.14517884309E+04  0.00000000000E+00 0. -1.
         -2    1    5    5    0  503 -0.51213392592E+03 -0.12156383021E+03  0.14684517185E+04  0.15599389002E+04  0.00000000000E+00 0.  1.
         -3    1    6    6    0  502 -0.38441669981E+02  0.78935057458E+02  0.23472648932E+02  0.90881629248E+02  0.00000000000E+00 0.  1.
<mgrwt>
<rscale>  0 0.51841873E+04</rscale>
<asrwt>0</asrwt>
<pdfrwt beam="1">  1        2 0.32949169E+00 0.51841873E+04</pdfrwt>
<pdfrwt beam="2">  1       -2 0.48264764E+00 0.51841873E+04</pdfrwt>
<totfact> 0.85342388E-03</totfact>
</mgrwt>
</event>
<event>
12    1  0.2019083E-007  0.2023467E+04  0.7818608E-02  0.8595727E-01
          2   -1    0    0  501    0  0.00000000000E+00  0.00000000000E+00  0.14671861407E+04  0.14671861407E+04  0.00000000000E+00 0. -1.
         -2   -1    0    0    0  501 -0.00000000000E+00 -0.00000000000E+00 -0.69766537559E+03  0.69766537559E+03  0.00000000000E+00 0.  1.
         23    2    1    2    0    0 -0.50239138895E+03  0.61775400425E+03  0.45855839953E+03  0.92435551222E+03  0.10069850912E+03 0.  0.
        254    2    1    2    0    0  0.50239138895E+03 -0.61775400425E+03  0.31096236562E+03  0.12404960041E+04  0.89895251593E+03 0.  0.
        -24    2    4    4    0    0  0.76550951851E+02 -0.38266436915E+03  0.56051646267E+03  0.68765659909E+03  0.80005160429E+02 0.  0.
         24    2    4    4    0    0  0.42584043710E+03 -0.23508963510E+03 -0.24955409705E+03  0.55283940501E+03  0.82139795339E+02 0.  0.
         13    1    3    3    0    0 -0.36531398485E+03  0.37348284101E+03  0.29362098885E+03  0.59929710924E+03  0.00000000000E+00 0.  1.
        -13    1    3    3    0    0 -0.13707740411E+03  0.24427116324E+03  0.16493741067E+03  0.32505840298E+03  0.00000000000E+00 0. -1.
          2    1    6    6  502    0  0.27578198981E+03 -0.19187989877E+03 -0.15230325749E+03  0.36887651552E+03  0.00000000000E+00 0. -1.
          3    1    5    5  503    0  0.57490576380E+02 -0.36553091499E+03  0.54102051255E+03  0.65545496503E+03  0.00000000000E+00 0. -1.
         -4    1    5    5    0  503  0.19060375471E+02 -0.17133454165E+02  0.19495950116E+02  0.32201634052E+02  0.00000000000E+00 0.  1.
         -1    1    6    6    0  502  0.15005844729E+03 -0.43209736325E+02 -0.97250839564E+02  0.18396288950E+03  0.00000000000E+00 0.  1.
<mgrwt>
<rscale>  0 0.20234673E+04</rscale>
<asrwt>0</asrwt>
<pdfrwt beam="1">  1        2 0.22572094E+00 0.20234673E+04</pdfrwt>
<pdfrwt beam="2">  1       -2 0.10733314E+00 0.20234673E+04</pdfrwt>
<totfact> 0.85667192E+00</totfact>
</mgrwt>
</event>
<event>
12    1  0.2019083E-007  0.2265426E+04  0.7818608E-02  0.8491679E-01
         -2   -1    0    0    0  501 -0.00000000000E+00  0.00000000000E+00  0.12424291844E+04  0.12424291844E+04  0.00000000000E+00 0.  1.
          2   -1    0    0  501    0  0.00000000000E+00 -0.00000000000E+00 -0.10326851658E+04  0.10326851658E+04  0.00000000000E+00 0. -1.
         23    2    1    2    0    0 -0.17012586482E+03 -0.89186589293E+03 -0.19598354796E+03  0.93337102138E+03  0.91675141825E+02 0.  0.
        254    2    1    2    0    0  0.17012586482E+03  0.89186589293E+03  0.40572756656E+03  0.13417433289E+04  0.90071789230E+03 0.  0.
        -24    2    4    4    0    0 -0.28450488932E+03  0.43235138845E+03 -0.79409692268E+02  0.52963872149E+03  0.79627388069E+02 0.  0.
         24    2    4    4    0    0  0.45463075414E+03  0.45951450448E+03  0.48513725882E+03  0.81210460741E+03  0.79454584748E+02 0.  0.
         13    1    3    3    0    0 -0.97165316950E+02 -0.46738661641E+03 -0.14910380226E+03  0.50012327667E+03  0.00000000000E+00 0.  1.
        -13    1    3    3    0    0 -0.72960547869E+02 -0.42447927652E+03 -0.46879745695E+02  0.43324774471E+03  0.00000000000E+00 0. -1.
          4    1    6    6  502    0  0.43900877306E+03  0.43862494732E+03  0.48211159599E+03  0.78584485633E+03  0.00000000000E+00 0. -1.
          3    1    5    5  503    0 -0.85790879757E+02  0.16779685271E+03 -0.61674172557E+02  0.19829160948E+03  0.00000000000E+00 0. -1.
         -4    1    5    5    0  503 -0.19871400956E+03  0.26455453574E+03 -0.17735519711E+02  0.33134711201E+03  0.00000000000E+00 0.  1.
         -3    1    6    6    0  502  0.15621981082E+02  0.20889557155E+02  0.30256628386E+01  0.26259751078E+02  0.00000000000E+00 0.  1.
<mgrwt>
<rscale>  0 0.22654255E+04</rscale>
<asrwt>0</asrwt>
<pdfrwt beam="1">  1        2 0.15887464E+00 0.22654255E+04</pdfrwt>
<pdfrwt beam="2">  1       -2 0.19114295E+00 0.22654255E+04</pdfrwt>
<totfact> 0.33231652E+00</totfact>
</mgrwt>
</event>
<event>
12    1  0.2019083E-007  0.1657549E+04  0.7818608E-02  0.8785953E-01
         -2   -1    0    0    0  501 -0.00000000000E+00  0.00000000000E+00  0.41748094263E+03  0.41748094263E+03  0.00000000000E+00 0.  1.
          2   -1    0    0  501    0  0.00000000000E+00 -0.00000000000E+00 -0.16452668747E+04  0.16452668747E+04  0.00000000000E+00 0. -1.
         23    2    1    2    0    0 -0.14853122361E+03 -0.39671912189E+03  0.57669801488E+02  0.43719988651E+03  0.91489609820E+02 0.  0.
        254    2    1    2    0    0  0.14853122361E+03  0.39671912189E+03 -0.12854557335E+04  0.16255479308E+04  0.90031219382E+03 0.  0.
        -24    2    4    4    0    0 -0.11444424336E+03  0.60167052639E+03 -0.10180740822E+04  0.11909065028E+04  0.81722422859E+02 0.  0.
         24    2    4    4    0    0  0.26297546696E+03 -0.20495140450E+03 -0.26738165132E+03  0.43464142798E+03  0.79114151833E+02 0.  0.
         11    1    3    3    0    0 -0.68346550252E+02 -0.28391501844E+03  0.15158533520E+02  0.29241882594E+03  0.00000000000E+00 0. -1.
        -11    1    3    3    0    0 -0.80184673354E+02 -0.11280410345E+03  0.42511267968E+02  0.14478106057E+03  0.00000000000E+00 0.  1.
          2    1    6    6  502    0  0.26832847564E+03 -0.20294263717E+03 -0.25939680474E+03  0.42482065290E+03  0.00000000000E+00 0. -1.
          3    1    5    5  503    0 -0.30938331675E+02  0.20529160827E+03 -0.27469779961E+03  0.34432645252E+03  0.00000000000E+00 0. -1.
         -2    1    5    5    0  503 -0.83505911680E+02  0.39637891812E+03 -0.74337628261E+03  0.84658005030E+03  0.00000000000E+00 0.  1.
         -1    1    6    6    0  502 -0.53530086809E+01 -0.20087673249E+01 -0.79848465836E+01  0.98207750746E+01  0.00000000000E+00 0.  1.
<mgrwt>
<rscale>  0 0.16575495E+04</rscale>
<asrwt>0</asrwt>
<pdfrwt beam="1">  1        2 0.25311798E+00 0.16575495E+04</pdfrwt>
<pdfrwt beam="2">  1       -2 0.64227837E-01 0.16575495E+04</pdfrwt>
<totfact> 0.22495711E+01</totfact>
</mgrwt>
</event>
<event>
12    1  0.2019083E-007  0.3528753E+04  0.7818608E-02  0.8107009E-01
         -1   -1    0    0    0  501 -0.00000000000E+00  0.00000000000E+00  0.19278255637E+04  0.19278255637E+04  0.00000000000E+00 0.  1.
          1   -1    0    0  501    0  0.00000000000E+00 -0.00000000000E+00 -0.16147856860E+04  0.16147856860E+04  0.00000000000E+00 0. -1.
         23    2    1    2    0    0 -0.57796571943E+03 -0.14317849923E+04  0.73174522787E+03  0.17111163216E+04  0.91735219439E+02 0.  0.
        254    2    1    2    0    0  0.57796571943E+03  0.14317849923E+04 -0.41870535011E+03  0.18314949281E+04  0.89163157437E+03 0.  0.
        -24    2    4    4    0    0 -0.10301591956E+03 -0.47131464718E+02  0.19501084710E+02  0.14352943349E+03  0.85946211812E+02 0.  0.
         24    2    4    4    0    0  0.68098163898E+03  0.14789164570E+04 -0.43820643482E+03  0.16879654946E+04  0.79200706998E+02 0.  0.
         13    1    3    3    0    0 -0.60072374624E+02 -0.23787849055E+03  0.11926357695E+03  0.27279785052E+03  0.00000000000E+00 0.  1.
        -13    1    3    3    0    0 -0.51789334480E+03 -0.11939065017E+04  0.61248165092E+03  0.14383184711E+04  0.00000000000E+00 0. -1.
          2    1    6    6  502    0  0.62146975258E+03  0.13296798111E+04 -0.37169344214E+03  0.15140769691E+04  0.00000000000E+00 0. -1.
          3    1    5    5  503    0 -0.49703826251E+02 -0.33994025337E+02 -0.32049997790E+02  0.68214855134E+02  0.00000000000E+00 0. -1.
         -4    1    5    5    0  503 -0.53312093305E+02 -0.13137439380E+02  0.51551082501E+02  0.75314578356E+02  0.00000000000E+00 0.  1.
         -1    1    6    6    0  502  0.59511886396E+02  0.14923664588E+03 -0.66512992675E+02  0.17388852547E+03  0.00000000000E+00 0.  1.
<mgrwt>
<rscale>  0 0.35287534E+04</rscale>
<asrwt>0</asrwt>
<pdfrwt beam="1">  1        1 0.24842857E+00 0.35287534E+04</pdfrwt>
<pdfrwt beam="2">  1       -1 0.29658855E+00 0.35287534E+04</pdfrwt>
<totfact> 0.15415673E-01</totfact>
</mgrwt>
</event>
<event>
12    1  0.2019083E-007  0.2014543E+04  0.7818608E-02  0.8599851E-01
         -2   -1    0    0    0  501 -0.00000000000E+00  0.00000000000E+00  0.32931184837E+03  0.32931184837E+03  0.00000000000E+00 0.  1.
          2   -1    0    0  501    0  0.00000000000E+00 -0.00000000000E+00 -0.30809585006E+04  0.30809585006E+04  0.00000000000E+00 0. -1.
         23    2    1    2    0    0 -0.84177062491E+02 -0.28896075637E+03 -0.23653412986E+04  0.23861884542E+04  0.92042292359E+02 0.  0.
        254    2    1    2    0    0  0.84177062491E+02  0.28896075637E+03 -0.38630535365E+03  0.10240818948E+04  0.89940413851E+03 0.  0.
        -24    2    4    4    0    0 -0.32555247702E+02  0.43813972057E+03  0.13269835261E+03  0.46596559337E+03  0.80553227933E+02 0.  0.
         24    2    4    4    0    0  0.11673231019E+03 -0.14917896420E+03 -0.51900370626E+03  0.55811630140E+03  0.79045323542E+02 0.  0.
         11    1    3    3    0    0 -0.46676303732E+01 -0.10176009476E+03 -0.10877462624E+04  0.10925057597E+04  0.00000000000E+00 0. -1.
        -11    1    3    3    0    0 -0.79509432117E+02 -0.18720066161E+03 -0.12775950362E+04  0.12936826945E+04  0.00000000000E+00 0.  1.
          2    1    6    6  502    0  0.91783579191E+02 -0.15053201111E+03 -0.41026357487E+03  0.44654262131E+03  0.00000000000E+00 0. -1.
          3    1    5    5  503    0 -0.11960332096E+01  0.28326015221E+03  0.50103503443E+02  0.28765970414E+03  0.00000000000E+00 0. -1.
         -2    1    5    5    0  503 -0.31359214492E+02  0.15487956835E+03  0.82594849167E+02  0.17830588923E+03  0.00000000000E+00 0.  1.
         -1    1    6    6    0  502  0.24948731002E+02  0.13530469151E+01 -0.10874013139E+03  0.11157368010E+03  0.00000000000E+00 0.  1.
<mgrwt>
<rscale>  0 0.20145433E+04</rscale>
<asrwt>0</asrwt>
<pdfrwt beam="1">  1        2 0.47399361E+00 0.20145433E+04</pdfrwt>
<pdfrwt beam="2">  1       -2 0.50663362E-01 0.20145433E+04</pdfrwt>
<totfact> 0.53043873E+00</totfact>
</mgrwt>
</event>
<event>
12    1  0.2019083E-007  0.1807151E+04  0.7818608E-02  0.8702506E-01
         -1   -1    0    0    0  501 -0.00000000000E+00  0.00000000000E+00  0.42988578496E+03  0.42988578496E+03  0.00000000000E+00 0.  1.
          1   -1    0    0  501    0  0.00000000000E+00 -0.00000000000E+00 -0.18992219526E+04  0.18992219526E+04  0.00000000000E+00 0. -1.
         23    2    1    2    0    0  0.19638693678E+03 -0.18151422684E+03  0.24560748537E+03  0.37457391954E+03  0.92018154991E+02 0.  0.
        254    2    1    2    0    0 -0.19638693678E+03  0.18151422684E+03 -0.17149436530E+04  0.19545338180E+04  0.89869653905E+03 0.  0.
        -24    2    4    4    0    0 -0.18425919275E+03  0.53245466796E+03 -0.92631600908E+03  0.10872586063E+04  0.81305010146E+02 0.  0.
         24    2    4    4    0    0 -0.12127744031E+02 -0.35094044113E+03 -0.78862764389E+03  0.86727521172E+03  0.83225337244E+02 0.  0.
         11    1    3    3    0    0  0.29538389424E+00  0.91888189978E+01  0.97058189087E+01  0.13368790780E+02  0.00000000000E+00 0. -1.
        -11    1    3    3    0    0  0.19609155289E+03 -0.19070304584E+03  0.23590166646E+03  0.36120512876E+03  0.00000000000E+00 0.  1.
          4    1    6    6  502    0  0.15433539664E+02 -0.69798893063E+02 -0.23665064551E+03  0.24721166566E+03  0.00000000000E+00 0. -1.
          3    1    5    5  503    0 -0.11274368919E+03  0.26680860277E+03 -0.40658421361E+03  0.49920806556E+03  0.00000000000E+00 0. -1.
         -4    1    5    5    0  503 -0.71515503565E+02  0.26564606519E+03 -0.51973179548E+03  0.58805054071E+03  0.00000000000E+00 0.  1.
         -3    1    6    6    0  502 -0.27561283694E+02 -0.28114154806E+03 -0.55197699839E+03  0.62006354606E+03  0.00000000000E+00 0.  1.
<mgrwt>
<rscale>  0 0.18071508E+04</rscale>
<asrwt>0</asrwt>
<pdfrwt beam="1">  1        1 0.29218799E+00 0.18071508E+04</pdfrwt>
<pdfrwt beam="2">  1       -1 0.66136275E-01 0.18071508E+04</pdfrwt>
<totfact> 0.76220585E+00</totfact>
</mgrwt>
</event>
<event>
12    1  0.2019083E-007  0.1632500E+04  0.7818608E-02  0.8800827E-01
         -2   -1    0    0    0  501 -0.00000000000E+00  0.00000000000E+00  0.23247766124E+03  0.23247766124E+03  0.00000000000E+00 0.  1.
          2   -1    0    0  501    0  0.00000000000E+00 -0.00000000000E+00 -0.28659289468E+04  0.28659289468E+04  0.00000000000E+00 0. -1.
         23    2    1    2    0    0 -0.53828312960E+03 -0.13844625251E+03 -0.12052761113E+04  0.13302479053E+04  0.89178992715E+02 0.  0.
        254    2    1    2    0    0  0.53828312960E+03  0.13844625251E+03 -0.14281751742E+04  0.17681587027E+04  0.88192107192E+03 0.  0.
        -24    2    4    4    0    0  0.30692025252E+03  0.45101021704E+03 -0.11717082012E+04  0.12952545855E+04  0.84699913017E+02 0.  0.
         24    2    4    4    0    0  0.23136287709E+03 -0.31256396453E+03 -0.25646697299E+03  0.47290411711E+03  0.81473817464E+02 0.  0.
         13    1    3    3    0    0 -0.35177369345E+03 -0.46359267140E+02 -0.77136544652E+03  0.84905745691E+03  0.00000000000E+00 0. -1.
        -13    1    3    3    0    0 -0.18650943616E+03 -0.92086985367E+02 -0.43391066479E+03  0.48119044844E+03  0.00000000000E+00 0.  1.
          2    1    6    6  502    0  0.16678044885E+03 -0.26058266378E+03 -0.16958365561E+03  0.35281391558E+03  0.00000000000E+00 0. -1.
          1    1    5    5  503    0  0.25291716095E+03  0.41256011307E+03 -0.99273829401E+03  0.11044013118E+04  0.00000000000E+00 0. -1.
         -2    1    5    5    0  503  0.54003091564E+02  0.38450103976E+02 -0.17896990721E+03  0.19085327370E+03  0.00000000000E+00 0.  1.
         -1    1    6    6    0  502  0.64582428239E+02 -0.51981300757E+02 -0.86883317375E+02  0.12009020153E+03  0.00000000000E+00 0.  1.
<mgrwt>
<rscale>  0 0.16325005E+04</rscale>
<asrwt>0</asrwt>
<pdfrwt beam="1">  1        2 0.44091219E+00 0.16325005E+04</pdfrwt>
<pdfrwt beam="2">  1       -2 0.35765790E-01 0.16325005E+04</pdfrwt>
<totfact> 0.14886228E+01</totfact>
</mgrwt>
</event>
<event>
12    1  0.2019083E-007  0.2673443E+04  0.7818608E-02  0.8343673E-01
         -1   -1    0    0    0  501 -0.00000000000E+00  0.00000000000E+00  0.11934333953E+04  0.11934333953E+04  0.00000000000E+00 0.  1.
          1   -1    0    0  501    0  0.00000000000E+00 -0.00000000000E+00 -0.14972136827E+04  0.14972136827E+04  0.00000000000E+00 0. -1.
         23    2    1    2    0    0 -0.47939156940E+03  0.10099310149E+04  0.24835904077E+03  0.11480367760E+04  0.80804048902E+02 0.  0.
        254    2    1    2    0    0  0.47939156940E+03 -0.10099310149E+04 -0.55213932819E+03  0.15426103020E+04  0.90830158783E+03 0.  0.
        -24    2    4    4    0    0  0.27841139428E+03 -0.11451898598E+04 -0.49148407417E+03  0.12794647351E+04  0.80626879985E+02 0.  0.
         24    2    4    4    0    0  0.20098017512E+03  0.13525884488E+03 -0.60655254021E+02  0.26314556691E+03  0.82936985949E+02 0.  0.
         11    1    3    3    0    0 -0.40874443392E+03  0.85662953997E+03  0.18077115831E+03  0.96621136026E+03  0.00000000000E+00 0. -1.
        -11    1    3    3    0    0 -0.70647135481E+02  0.15330147494E+03  0.67587882452E+02  0.18182541579E+03  0.00000000000E+00 0.  1.
          4    1    6    6  502    0  0.12129257155E+03  0.31721451616E+02 -0.27527220657E+02  0.12835842895E+03  0.00000000000E+00 0. -1.
          3    1    5    5  503    0  0.16363330065E+01 -0.60657915622E+02 -0.39237734917E+02  0.72261055589E+02  0.00000000000E+00 0. -1.
         -4    1    5    5    0  503  0.27677506128E+03 -0.10845319442E+04 -0.45224633925E+03  0.12072036795E+04  0.00000000000E+00 0.  1.
         -3    1    6    6    0  502  0.79687603570E+02  0.10353739326E+03 -0.33128033365E+02  0.13478713797E+03  0.00000000000E+00 0.  1.
<mgrwt>
<rscale>  0 0.26734433E+04</rscale>
<asrwt>0</asrwt>
<pdfrwt beam="1">  1        1 0.23034057E+00 0.26734433E+04</pdfrwt>
<pdfrwt beam="2">  1       -1 0.18360514E+00 0.26734433E+04</pdfrwt>
<totfact> 0.11277518E+00</totfact>
</mgrwt>
</event>
<event>
12    1  0.2019083E-007  0.2127333E+04  0.7818608E-02  0.8549297E-01
          2   -1    0    0  501    0  0.00000000000E+00  0.00000000000E+00  0.33313264607E+04  0.33313264607E+04  0.00000000000E+00 0. -1.
         -2   -1    0    0    0  501 -0.00000000000E+00 -0.00000000000E+00 -0.33962055208E+03  0.33962055208E+03  0.00000000000E+00 0.  1.
         23    2    1    2    0    0 -0.26540315034E+03  0.53435010770E+03  0.23227909748E+04  0.23999474614E+04  0.91766197922E+02 0.  0.
        254    2    1    2    0    0  0.26540315034E+03 -0.53435010770E+03  0.66891493380E+03  0.12709995513E+04  0.90112363251E+03 0.  0.
        -24    2    4    4    0    0 -0.23192373289E+03 -0.38008327518E+03  0.45666497346E+02  0.45509635268E+03  0.82312497810E+02 0.  0.
         24    2    4    4    0    0  0.49732688323E+03 -0.15426683252E+03  0.62324843645E+03  0.81590319867E+03  0.78275996716E+02 0.  0.
         13    1    3    3    0    0 -0.83268999347E+02  0.86592412070E+02  0.48257922073E+03  0.49730742641E+03  0.00000000000E+00 0.  1.
        -13    1    3    3    0    0 -0.18213415099E+03  0.44775769563E+03  0.18402117540E+04  0.19026400350E+04  0.00000000000E+00 0. -1.
          2    1    6    6  502    0  0.25289023130E+03 -0.68039600688E+02  0.37185247368E+03  0.45481547745E+03  0.00000000000E+00 0. -1.
          1    1    5    5  503    0 -0.72875857112E+02 -0.19096838549E+03  0.37797900245E+02  0.20786653427E+03  0.00000000000E+00 0. -1.
         -2    1    5    5    0  503 -0.15904787578E+03 -0.18911488969E+03  0.78685971008E+01  0.24722981841E+03  0.00000000000E+00 0.  1.
         -1    1    6    6    0  502  0.24443665193E+03 -0.86227231836E+02  0.25139596277E+03  0.36108772122E+03  0.00000000000E+00 0.  1.
<mgrwt>
<rscale>  0 0.21273335E+04</rscale>
<asrwt>0</asrwt>
<pdfrwt beam="1">  1        2 0.51251174E+00 0.21273335E+04</pdfrwt>
<pdfrwt beam="2">  1       -2 0.52249318E-01 0.21273335E+04</pdfrwt>
<totfact> 0.33849256E+00</totfact>
</mgrwt>
</event>
<event>
12    1  0.2019083E-007  0.1404507E+04  0.7818608E-02  0.8950562E-01
         -2   -1    0    0    0  501 -0.00000000000E+00  0.00000000000E+00  0.85262407451E+03  0.85262407451E+03  0.00000000000E+00 0.  1.
          2   -1    0    0  501    0  0.00000000000E+00 -0.00000000000E+00 -0.57840297058E+03  0.57840297058E+03  0.00000000000E+00 0. -1.
         23    2    1    2    0    0 -0.16872936607E+03  0.33373731583E+03 -0.90897059059E+02  0.39551220490E+03  0.91199966717E+02 0.  0.
        254    2    1    2    0    0  0.16872936607E+03 -0.33373731583E+03  0.36511816299E+03  0.10355148402E+04  0.89394044340E+03 0.  0.
        -24    2    4    4    0    0  0.38887659868E+03  0.13128627172E+03  0.29181293147E+03  0.50966861974E+03  0.78397836958E+02 0.  0.
         24    2    4    4    0    0 -0.22014723261E+03 -0.46502358755E+03  0.73305231525E+02  0.52584622045E+03  0.80180107150E+02 0.  0.
         13    1    3    3    0    0 -0.76016436275E+02  0.24430967362E+03 -0.67153157517E+02  0.26452837612E+03  0.00000000000E+00 0. -1.
        -13    1    3    3    0    0 -0.92712929791E+02  0.89427642214E+02 -0.23743901542E+02  0.13098382878E+03  0.00000000000E+00 0.  1.
          2    1    6    6  502    0 -0.19694738815E+03 -0.40936481053E+03  0.90367827141E+02  0.46317833064E+03  0.00000000000E+00 0. -1.
          3    1    5    5  503    0  0.29481469184E+03  0.13266237931E+03  0.21542031125E+03  0.38848541789E+03  0.00000000000E+00 0. -1.
         -4    1    5    5    0  503  0.94061906833E+02 -0.13761075869E+01  0.76392620217E+02  0.12118320186E+03  0.00000000000E+00 0.  1.
         -1    1    6    6    0  502 -0.23199844459E+02 -0.55658777026E+02 -0.17062595617E+02  0.62667889801E+02  0.00000000000E+00 0.  1.
<mgrwt>
<rscale>  0 0.14045075E+04</rscale>
<asrwt>0</asrwt>
<pdfrwt beam="1">  1        2 0.88985073E-01 0.14045075E+04</pdfrwt>
<pdfrwt beam="2">  1       -2 0.13117293E+00 0.14045075E+04</pdfrwt>
<totfact> 0.21402418E+01</totfact>
</mgrwt>
</event>
<event>
12    1  0.2019083E-007  0.3106938E+04  0.7818608E-02  0.8213836E-01
          2   -1    0    0  501    0  0.00000000000E+00  0.00000000000E+00  0.31056858171E+04  0.31056858171E+04  0.00000000000E+00 0. -1.
         -2   -1    0    0    0  501 -0.00000000000E+00 -0.00000000000E+00 -0.77704757083E+03  0.77704757083E+03  0.00000000000E+00 0.  1.
         23    2    1    2    0    0 -0.10153694907E+04  0.84108229573E+03  0.17323380398E+04  0.21788611684E+04  0.89701038654E+02 0.  0.
        254    2    1    2    0    0  0.10153694907E+04 -0.84108229573E+03  0.59630020654E+03  0.17038722195E+04  0.89956210089E+03 0.  0.
        -24    2    4    4    0    0  0.10866648686E+04 -0.55255207950E+03  0.66214179096E+03  0.13895588995E+04  0.79295942586E+02 0.  0.
         24    2    4    4    0    0 -0.71295377898E+02 -0.28853021624E+03 -0.65841584426E+02  0.31431332008E+03  0.78262585886E+02 0.  0.
         11    1    3    3    0    0 -0.55369849298E+03  0.40323122603E+03  0.92061459521E+03  0.11474792703E+04  0.00000000000E+00 0. -1.
        -11    1    3    3    0    0 -0.46167099774E+03  0.43785106971E+03  0.81172344457E+03  0.10313818982E+04  0.00000000000E+00 0.  1.
          2    1    6    6  502    0 -0.39605748076E+02 -0.26390575160E+03 -0.52143418319E+02  0.27190769956E+03  0.00000000000E+00 0. -1.
          1    1    5    5  503    0  0.12001854844E+03 -0.48727087032E+02  0.96100156521E+02  0.16128862658E+03  0.00000000000E+00 0. -1.
         -2    1    5    5    0  503  0.96664632017E+03 -0.50382499246E+03  0.56604163444E+03  0.12282702729E+04  0.00000000000E+00 0.  1.
         -1    1    6    6    0  502 -0.31689629822E+02 -0.24624464641E+02 -0.13698166106E+02  0.42405620521E+02  0.00000000000E+00 0.  1.
<mgrwt>
<rscale>  0 0.31069378E+04</rscale>
<asrwt>0</asrwt>
<pdfrwt beam="1">  1        2 0.47779781E+00 0.31069378E+04</pdfrwt>
<pdfrwt beam="2">  1       -2 0.11954578E+00 0.31069378E+04</pdfrwt>
<totfact> 0.67824193E-01</totfact>
</mgrwt>
</event>
<event>
12    1  0.2019083E-007  0.2034393E+04  0.7818608E-02  0.8590707E-01
         -1   -1    0    0    0  501 -0.00000000000E+00  0.00000000000E+00  0.47070525505E+03  0.47070525505E+03  0.00000000000E+00 0.  1.
          1   -1    0    0  501    0  0.00000000000E+00 -0.00000000000E+00 -0.21981672817E+04  0.21981672817E+04  0.00000000000E+00 0. -1.
         23    2    1    2    0    0  0.10592475574E+03 -0.81194578364E+03 -0.64362677376E+03  0.10456244652E+04  0.92731271950E+02 0.  0.
        254    2    1    2    0    0 -0.10592475574E+03  0.81194578364E+03 -0.10838352529E+04  0.16232480716E+04  0.88868410418E+03 0.  0.
        -24    2    4    4    0    0  0.25168959485E+01 -0.18523652038E+03 -0.20094149097E+03  0.28443157892E+03  0.78771422769E+02 0.  0.
         24    2    4    4    0    0 -0.10844165169E+03  0.99718230402E+03 -0.88289376194E+03  0.13388164927E+04  0.82438261257E+02 0.  0.
         13    1    3    3    0    0  0.44202315653E+02 -0.23309806844E+03 -0.23842307402E+03  0.33635415330E+03  0.00000000000E+00 0. -1.
        -13    1    3    3    0    0  0.61722440090E+02 -0.57884771520E+03 -0.40520369974E+03  0.70927031186E+03  0.00000000000E+00 0.  1.
          2    1    6    6  502    0 -0.12180874035E+02  0.17313313257E+03 -0.19523003262E+03  0.26122446464E+03  0.00000000000E+00 0. -1.
          1    1    5    5  503    0 -0.98928275069E+01 -0.18930612532E+02 -0.67646790580E+02  0.70938877935E+02  0.00000000000E+00 0. -1.
         -2    1    5    5    0  503  0.12409723455E+02 -0.16630590784E+03 -0.13329470039E+03  0.21349270098E+03  0.00000000000E+00 0.  1.
         -1    1    6    6    0  502 -0.96260777656E+02  0.82404917145E+03 -0.68766372931E+03  0.10775920280E+04  0.00000000000E+00 0.  1.
<mgrwt>
<rscale>  0 0.20343932E+04</rscale>
<asrwt>0</asrwt>
<pdfrwt beam="1">  1        1 0.33817958E+00 0.20343932E+04</pdfrwt>
<pdfrwt beam="2">  1       -1 0.72416194E-01 0.20343932E+04</pdfrwt>
<totfact> 0.38870111E+00</totfact>
</mgrwt>
</event>
<event>
12    1  0.2019083E-007  0.1078129E+04  0.7818608E-02  0.9226775E-01
         -2   -1    0    0    0  501 -0.00000000000E+00  0.00000000000E+00  0.19146066293E+04  0.19146066293E+04  0.00000000000E+00 0.  1.
          2   -1    0    0  501    0  0.00000000000E+00 -0.00000000000E+00 -0.15177559212E+03  0.15177559212E+03  0.00000000000E+00 0. -1.
         23    2    1    2    0    0  0.32404027916E+02 -0.70951371712E+02  0.55956912083E+02  0.13280735563E+03  0.91774176789E+02 0.  0.
        254    2    1    2    0    0 -0.32404027916E+02  0.70951371712E+02  0.17068741251E+04  0.19335748658E+04  0.90510130069E+03 0.  0.
        -24    2    4    4    0    0 -0.13694087910E+03 -0.39355100758E+03  0.74534108261E+03  0.85756714784E+03  0.79075177525E+02 0.  0.
         24    2    4    4    0    0  0.10453685119E+03  0.46450237929E+03  0.96153304249E+03  0.10760077179E+04  0.80971622520E+02 0.  0.
         11    1    3    3    0    0  0.34914806938E+02 -0.82724480182E+02  0.16164757300E+02  0.91234219147E+02  0.00000000000E+00 0. -1.
        -11    1    3    3    0    0 -0.25107790219E+01  0.11773108470E+02  0.39792154783E+02  0.41573136478E+02  0.00000000000E+00 0.  1.
          4    1    6    6  502    0  0.35597724115E+02  0.29567063585E+03  0.65105460277E+03  0.71593325014E+03  0.00000000000E+00 0. -1.
          1    1    5    5  503    0 -0.10339992805E+03 -0.35537048977E+03  0.61647259299E+03  0.71903976804E+03  0.00000000000E+00 0. -1.
         -2    1    5    5    0  503 -0.33540951058E+02 -0.38180517812E+02  0.12886848962E+03  0.13852737981E+03  0.00000000000E+00 0.  1.
         -3    1    6    6    0  502  0.68939127073E+02  0.16883174344E+03  0.31047843972E+03  0.36007446780E+03  0.00000000000E+00 0.  1.
<mgrwt>
<rscale>  0 0.10781290E+04</rscale>
<asrwt>0</asrwt>
<pdfrwt beam="1">  1        2 0.23350092E-01 0.10781290E+04</pdfrwt>
<pdfrwt beam="2">  1       -2 0.29455485E+00 0.10781290E+04</pdfrwt>
<totfact> 0.81902496E+00</totfact>
</mgrwt>
</event>
<event>
12    1  0.2019083E-007  0.2120517E+04  0.7818608E-02  0.8552259E-01
          1   -1    0    0  501    0  0.00000000000E+00  0.00000000000E+00  0.70238817012E+03  0.70238817012E+03  0.00000000000E+00 0. -1.
         -1   -1    0    0    0  501 -0.00000000000E+00 -0.00000000000E+00 -0.16004662568E+04  0.16004662568E+04  0.00000000000E+00 0.  1.
         23    2    1    2    0    0  0.79355522757E+03  0.25978241064E+03 -0.62976450849E+03  0.10497712322E+04  0.90551110976E+02 0.  0.
        254    2    1    2    0    0 -0.79355522757E+03 -0.25978241064E+03 -0.26831357821E+03  0.12530831948E+04  0.89499079139E+03 0.  0.
        -24    2    4    4    0    0 -0.69683180984E+02 -0.33281798436E+03 -0.37604367715E+03  0.51351181439E+03  0.81620952997E+02 0.  0.
         24    2    4    4    0    0 -0.72387204658E+03  0.73035573718E+02  0.10773009894E+03  0.73957138037E+03  0.77686019309E+02 0.  0.
         11    1    3    3    0    0  0.55551805917E+03  0.20794795046E+03 -0.48649169902E+03  0.76714851065E+03  0.00000000000E+00 0.  1.
        -11    1    3    3    0    0  0.23803716840E+03  0.51834460173E+02 -0.14327280947E+03  0.28262272154E+03  0.00000000000E+00 0. -1.
          4    1    6    6  502    0 -0.67001917509E+03  0.82026413202E+02  0.11412113932E+03  0.68460036656E+03  0.00000000000E+00 0. -1.
          3    1    5    5  503    0 -0.13355552924E+02 -0.18807370040E+03 -0.25206012981E+03  0.31477674090E+03  0.00000000000E+00 0. -1.
         -4    1    5    5    0  503 -0.56327628059E+02 -0.14474428396E+03 -0.12398354735E+03  0.19873507349E+03  0.00000000000E+00 0.  1.
         -3    1    6    6    0  502 -0.53852871490E+02 -0.89908394839E+01 -0.63910403814E+01  0.54971013812E+02  0.00000000000E+00 0.  1.
<mgrwt>
<rscale>  0 0.21205175E+04</rscale>
<asrwt>0</asrwt>
<pdfrwt beam="1">  1        1 0.10805972E+00 0.21205175E+04</pdfrwt>
<pdfrwt beam="2">  1       -1 0.24622558E+00 0.21205175E+04</pdfrwt>
<totfact> 0.18361409E+00</totfact>
</mgrwt>
</event>
<event>
12    1  0.2019083E-007  0.3791041E+04  0.7818608E-02  0.8048080E-01
          1   -1    0    0  501    0  0.00000000000E+00  0.00000000000E+00  0.12650951495E+04  0.12650951495E+04  0.00000000000E+00 0. -1.
         -1   -1    0    0    0  501 -0.00000000000E+00 -0.00000000000E+00 -0.28401017078E+04  0.28401017078E+04  0.00000000000E+00 0.  1.
         23    2    1    2    0    0 -0.14744735387E+04  0.95372928414E+03 -0.11055812866E+04  0.20771248381E+04  0.92010043774E+02 0.  0.
        254    2    1    2    0    0  0.14744735387E+04 -0.95372928414E+03 -0.46942527169E+03  0.20280720192E+04  0.89946887985E+03 0.  0.
        -24    2    4    4    0    0  0.82098477477E+03 -0.43884934934E+02 -0.43333885008E+02  0.82699695553E+03  0.78129705895E+02 0.  0.
         24    2    4    4    0    0  0.65348876389E+03 -0.90984434920E+03 -0.42609138668E+03  0.12010750637E+04  0.78505633650E+02 0.  0.
         13    1    3    3    0    0 -0.11483894480E+04  0.70451990006E+03 -0.87308284915E+03  0.16054346064E+04  0.00000000000E+00 0. -1.
        -13    1    3    3    0    0 -0.32608409069E+03  0.24920938407E+03 -0.23249843743E+03  0.47169023174E+03  0.00000000000E+00 0.  1.
          4    1    6    6  502    0  0.26863427152E+03 -0.41043051938E+03 -0.22145010076E+03  0.53819859736E+03  0.00000000000E+00 0. -1.
          1    1    5    5  503    0  0.68291271100E+03 -0.10535253175E+02 -0.49801201108E+02  0.68480721524E+03  0.00000000000E+00 0. -1.
         -2    1    5    5    0  503  0.13807206377E+03 -0.33349681758E+02  0.64673161000E+01  0.14218974029E+03  0.00000000000E+00 0.  1.
         -3    1    6    6    0  502  0.38485449237E+03 -0.49941382982E+03 -0.20464128592E+03  0.66287646633E+03  0.00000000000E+00 0.  1.
<mgrwt>
<rscale>  0 0.37910415E+04</rscale>
<asrwt>0</asrwt>
<pdfrwt beam="1">  1        1 0.19463003E+00 0.37910415E+04</pdfrwt>
<pdfrwt beam="2">  1       -1 0.43693872E+00 0.37910415E+04</pdfrwt>
<totfact> 0.30371518E-02</totfact>
</mgrwt>
</event>
<event>
12    1  0.2019083E-007  0.1509807E+04  0.7818608E-02  0.8877958E-01
         -2   -1    0    0    0  501 -0.00000000000E+00  0.00000000000E+00  0.42195208134E+03  0.42195208134E+03  0.00000000000E+00 0.  1.
          2   -1    0    0  501    0  0.00000000000E+00 -0.00000000000E+00 -0.13505777778E+04  0.13505777778E+04  0.00000000000E+00 0. -1.
         23    2    1    2    0    0  0.13214259096E+03  0.15197964114E+03  0.21103549515E+03  0.30635086780E+03  0.93570285475E+02 0.  0.
        254    2    1    2    0    0 -0.13214259096E+03 -0.15197964114E+03 -0.11396611916E+04  0.14661789913E+04  0.90016316706E+03 0.  0.
        -24    2    4    4    0    0  0.24064974480E+02 -0.48633457924E+03 -0.39852778851E+03  0.63439414797E+03  0.80815164430E+02 0.  0.
         24    2    4    4    0    0 -0.15620756544E+03  0.33435493810E+03 -0.74113340306E+03  0.83178484334E+03  0.79957966108E+02 0.  0.
         13    1    3    3    0    0  0.11232961045E+03  0.99375915984E+02  0.95322949904E+02  0.17770756551E+03  0.00000000000E+00 0. -1.
        -13    1    3    3    0    0  0.19812980507E+02  0.52603725154E+02  0.11571254524E+03  0.12864330229E+03  0.00000000000E+00 0.  1.
          4    1    6    6  502    0 -0.14334260046E+03  0.32303339797E+03 -0.73081522225E+03  0.81178110743E+03  0.00000000000E+00 0. -1.
          1    1    5    5  503    0  0.17443073371E+00 -0.41945149108E+03 -0.36424725650E+03  0.55553186017E+03  0.00000000000E+00 0. -1.
         -2    1    5    5    0  503  0.23890543746E+02 -0.66883088159E+02 -0.34280532013E+02  0.78862287802E+02  0.00000000000E+00 0.  1.
         -3    1    6    6    0  502 -0.12864964979E+02  0.11321540137E+02 -0.10318180802E+02  0.20003735902E+02  0.00000000000E+00 0.  1.
<mgrwt>
<rscale>  0 0.15098067E+04</rscale>
<asrwt>0</asrwt>
<pdfrwt beam="1">  1        2 0.20778119E+00 0.15098067E+04</pdfrwt>
<pdfrwt beam="2">  1       -2 0.64915706E-01 0.15098067E+04</pdfrwt>
<totfact> 0.32655182E+01</totfact>
</mgrwt>
</event>
<event>
12    1  0.2019083E-007  0.2669912E+04  0.7818608E-02  0.8344834E-01
         -1   -1    0    0    0  501 -0.00000000000E+00  0.00000000000E+00  0.12705161583E+04  0.12705161583E+04  0.00000000000E+00 0. -1.
          1   -1    0    0  501    0  0.00000000000E+00 -0.00000000000E+00 -0.14026639059E+04  0.14026639059E+04  0.00000000000E+00 0.  1.
         23    2    1    2    0    0  0.35921870106E+03  0.97205525524E+03 -0.62820359049E+03  0.12148566808E+04  0.85483971818E+02 0.  0.
        254    2    1    2    0    0 -0.35921870106E+03 -0.97205525524E+03  0.49605584289E+03  0.14583233834E+04  0.89816824531E+03 0.  0.
        -24    2    4    4    0    0 -0.44985738567E+03 -0.10767109000E+04  0.30329247347E+03  0.12082747437E+04  0.79142291118E+02 0.  0.
         24    2    4    4    0    0  0.90638684607E+02  0.10465564472E+03  0.19276336941E+03  0.25004863972E+03  0.78730111883E+02 0.  0.
         13    1    3    3    0    0  0.24199006875E+03  0.59900041463E+03 -0.34811986363E+03  0.73385838522E+03  0.00000000000E+00 0. -1.
        -13    1    3    3    0    0  0.11722863231E+03  0.37305484061E+03 -0.28008372686E+03  0.48099829562E+03  0.00000000000E+00 0.  1.
          4    1    6    6  502    0 -0.82684841619E+01  0.29362432169E+01 -0.20851795724E+01  0.90187209966E+01  0.00000000000E+00 0. -1.
          1    1    5    5  503    0 -0.25543505072E+03 -0.56688924617E+03  0.19824631698E+03  0.65261940268E+03  0.00000000000E+00 0. -1.
         -2    1    5    5    0  503 -0.19442233495E+03 -0.50982165378E+03  0.10504615650E+03  0.55565534100E+03  0.00000000000E+00 0.  1.
         -1    1    6    6    0  502  0.98907168769E+02  0.10171940150E+03  0.19484854899E+03  0.24102991872E+03  0.00000000000E+00 0.  1.
<mgrwt>
<rscale>  0 0.26699117E+04</rscale>
<asrwt>0</asrwt>
<pdfrwt beam="1">  1        1 0.21579444E+00 0.26699117E+04</pdfrwt>
<pdfrwt beam="2">  1       -1 0.19546403E+00 0.26699117E+04</pdfrwt>
<totfact> 0.10836499E+00</totfact>
</mgrwt>
</event>
<event>
12    1  0.2019083E-007  0.1517766E+04  0.7818608E-02  0.8872724E-01
         -1   -1    0    0    0  501 -0.00000000000E+00  0.00000000000E+00  0.60865525687E+03  0.60865525687E+03  0.00000000000E+00 0.  1.
          1   -1    0    0  501    0  0.00000000000E+00 -0.00000000000E+00 -0.94619039862E+03  0.94619039862E+03  0.00000000000E+00 0. -1.
         23    2    1    2    0    0 -0.16676391928E+03  0.45605571329E+03 -0.15417643422E+03  0.51754531892E+03  0.91026182287E+02 0.  0.
        254    2    1    2    0    0  0.16676391928E+03 -0.45605571329E+03 -0.18335870753E+03  0.10373003366E+04  0.89809495835E+03 0.  0.
        -24    2    4    4    0    0 -0.14571689895E+03 -0.18448446683E+03  0.30433592247E+03  0.39282515856E+03  0.80145607167E+02 0.  0.
         24    2    4    4    0    0  0.31248081823E+03 -0.27157124646E+03 -0.48769463000E+03  0.64447517801E+03  0.78147292154E+02 0.  0.
         11    1    3    3    0    0 -0.35991696430E+02  0.11228970678E+03  0.20669784045E+01  0.11793495182E+03  0.00000000000E+00 0.  1.
        -11    1    3    3    0    0 -0.13077222285E+03  0.34376600651E+03 -0.15624341262E+03  0.39961036710E+03  0.00000000000E+00 0. -1.
          4    1    6    6  502    0  0.25959654937E+03 -0.20468302671E+03 -0.42602331653E+03  0.53924148217E+03  0.00000000000E+00 0. -1.
          3    1    5    5  503    0 -0.20615065183E+02 -0.87993879544E+02  0.11249098705E+03  0.14429873844E+03  0.00000000000E+00 0. -1.
         -4    1    5    5    0  503 -0.12510183377E+03 -0.96490587288E+02  0.19184493543E+03  0.24852642012E+03  0.00000000000E+00 0.  1.
         -3    1    6    6    0  502  0.52884268860E+02 -0.66888219752E+02 -0.61671313478E+02  0.10523369584E+03  0.00000000000E+00 0.  1.
<mgrwt>
<rscale>  0 0.15177665E+04</rscale>
<asrwt>0</asrwt>
<pdfrwt beam="1">  1        1 0.14556775E+00 0.15177665E+04</pdfrwt>
<pdfrwt beam="2">  1       -1 0.93639271E-01 0.15177665E+04</pdfrwt>
<totfact> 0.17837602E+01</totfact>
</mgrwt>
</event>
<event>
12    1  0.2019083E-007  0.1226990E+04  0.7818608E-02  0.9089555E-01
         -2   -1    0    0    0  501 -0.00000000000E+00  0.00000000000E+00  0.12152446241E+04  0.12152446241E+04  0.00000000000E+00 0.  1.
          2   -1    0    0  501    0  0.00000000000E+00 -0.00000000000E+00 -0.30971209195E+03  0.30971209195E+03  0.00000000000E+00 0. -1.
         23    2    1    2    0    0  0.21826742341E+03 -0.11940722460E+03  0.34824048576E+03  0.43765475217E+03  0.91495862059E+02 0.  0.
        254    2    1    2    0    0 -0.21826742341E+03  0.11940722460E+03  0.55729204641E+03  0.10873019639E+04  0.89986242408E+03 0.  0.
        -24    2    4    4    0    0 -0.10521691442E+03  0.13154094355E+03 -0.22532541081E+03  0.29245911696E+03  0.79919806193E+02 0.  0.
         24    2    4    4    0    0 -0.11305050898E+03 -0.12133718947E+02  0.78261745722E+03  0.79484284693E+03  0.79733444996E+02 0.  0.
         13    1    3    3    0    0  0.13921931578E+03 -0.89196764997E+02  0.15472997090E+03  0.22644965151E+03  0.00000000000E+00 0. -1.
        -13    1    3    3    0    0  0.79048107622E+02 -0.30210459603E+02  0.19351051485E+03  0.21120510066E+03  0.00000000000E+00 0.  1.
          2    1    6    6  502    0 -0.12497598123E+03 -0.60212711115E+01  0.72204749296E+03  0.73280818342E+03  0.00000000000E+00 0. -1.
          1    1    5    5  503    0 -0.24259806770E+02  0.70671914716E+02 -0.49763728854E+02  0.89774642653E+02  0.00000000000E+00 0. -1.
         -2    1    5    5    0  503 -0.80957107655E+02  0.60869028831E+02 -0.17556168196E+03  0.20268447430E+03  0.00000000000E+00 0.  1.
         -1    1    6    6    0  502  0.11925472245E+02 -0.61124478351E+01  0.60569964260E+02  0.62034663514E+02  0.00000000000E+00 0.  1.
<mgrwt>
<rscale>  0 0.12269897E+04</rscale>
<asrwt>0</asrwt>
<pdfrwt beam="1">  1        2 0.47648015E-01 0.12269897E+04</pdfrwt>
<pdfrwt beam="2">  1       -2 0.18696071E+00 0.12269897E+04</pdfrwt>
<totfact> 0.16941364E+01</totfact>
</mgrwt>
</event>
<event>
12    1  0.2019083E-007  0.2506671E+04  0.7818608E-02  0.8400613E-01
         -2   -1    0    0    0  501 -0.00000000000E+00  0.00000000000E+00  0.69719416968E+03  0.69719416968E+03  0.00000000000E+00 0.  1.
          2   -1    0    0  501    0  0.00000000000E+00 -0.00000000000E+00 -0.22531031065E+04  0.22531031065E+04  0.00000000000E+00 0. -1.
         23    2    1    2    0    0  0.86535221583E+03  0.16500465926E+03  0.75203568560E+02  0.88911578385E+03  0.93863226760E+02 0.  0.
        254    2    1    2    0    0 -0.86535221583E+03 -0.16500465926E+03 -0.16311125054E+04  0.20611814924E+04  0.90104391909E+03 0.  0.
        -24    2    4    4    0    0  0.19359216220E+02  0.21606949872E+03 -0.10269987167E+03  0.25273714838E+03  0.79170670077E+02 0.  0.
         24    2    4    4    0    0 -0.88471143205E+03 -0.38107415798E+03 -0.15284126337E+04  0.18084443440E+04  0.80584951687E+02 0.  0.
         13    1    3    3    0    0  0.30509745236E+03  0.82690627053E+02  0.65196051035E+02  0.32275799031E+03  0.00000000000E+00 0.  1.
        -13    1    3    3    0    0  0.56025476348E+03  0.82314032206E+02  0.10007517526E+02  0.56635779354E+03  0.00000000000E+00 0. -1.
          4    1    6    6  502    0 -0.44605062818E+02 -0.74965603385E+01 -0.99363820318E+02  0.10917407583E+03  0.00000000000E+00 0. -1.
          1    1    5    5  503    0  0.26714148852E+02  0.14889226694E+03 -0.10658261126E+03  0.18504703706E+03  0.00000000000E+00 0. -1.
         -2    1    5    5    0  503 -0.73549326324E+01  0.67177231779E+02  0.38827395834E+01  0.67690111317E+02  0.00000000000E+00 0.  1.
         -3    1    6    6    0  502 -0.84010636924E+03 -0.37357759764E+03 -0.14290488134E+04  0.16992702681E+04  0.00000000000E+00 0.  1.
<mgrwt>
<rscale>  0 0.25066714E+04</rscale>
<asrwt>0</asrwt>
<pdfrwt beam="1">  1        2 0.34663125E+00 0.25066714E+04</pdfrwt>
<pdfrwt beam="2">  1       -2 0.10726064E+00 0.25066714E+04</pdfrwt>
<totfact> 0.29997303E+00</totfact>
</mgrwt>
</event>
<event>
12    1  0.2019083E-007  0.1578779E+04  0.7818608E-02  0.8833692E-01
          2   -1    0    0  501    0  0.00000000000E+00  0.00000000000E+00  0.46540474030E+03  0.46540474030E+03  0.00000000000E+00 0.  1.
         -2   -1    0    0    0  501 -0.00000000000E+00 -0.00000000000E+00 -0.13389112484E+04  0.13389112484E+04  0.00000000000E+00 0. -1.
         23    2    1    2    0    0 -0.43895572483E+03 -0.22815974444E+03 -0.50663177519E+03  0.71394646270E+03  0.91130667885E+02 0.  0.
        254    2    1    2    0    0  0.43895572483E+03  0.22815974444E+03 -0.36687473288E+03  0.10903695260E+04  0.89976087722E+03 0.  0.
        -24    2    4    4    0    0  0.14011268403E+03  0.51685227588E+03 -0.17288511450E+02  0.54161128564E+03  0.79221542523E+02 0.  0.
         24    2    4    4    0    0  0.29884304080E+03 -0.28869253145E+03 -0.34958622143E+03  0.54875824032E+03  0.79211989974E+02 0.  0.
         13    1    3    3    0    0 -0.38563783836E+03 -0.16801531058E+03 -0.40050307448E+03  0.58081701045E+03  0.00000000000E+00 0. -1.
        -13    1    3    3    0    0 -0.53317886471E+02 -0.60144433854E+02 -0.10612870071E+03  0.13312945225E+03  0.00000000000E+00 0.  1.
          4    1    6    6  502    0  0.39678249480E+02 -0.35534718974E+02 -0.84324423321E+02  0.99738097549E+02  0.00000000000E+00 0. -1.
          3    1    5    5  503    0  0.89519877196E+02  0.18398533813E+03 -0.96273735615E+01  0.20483432178E+03  0.00000000000E+00 0. -1.
         -4    1    5    5    0  503  0.50592806830E+02  0.33286693776E+03 -0.76611378888E+01  0.33677696386E+03  0.00000000000E+00 0.  1.
         -3    1    6    6    0  502  0.25916479133E+03 -0.25315781247E+03 -0.26526179811E+03  0.44902014277E+03  0.00000000000E+00 0.  1.
<mgrwt>
<rscale>  0 0.15787788E+04</rscale>
<asrwt>0</asrwt>
<pdfrwt beam="1">  1        2 0.71600729E-01 0.15787788E+04</pdfrwt>
<pdfrwt beam="2">  1       -2 0.20598635E+00 0.15787788E+04</pdfrwt>
<totfact> 0.78046215E+00</totfact>
</mgrwt>
</event>
<event>
12    1  0.3514111E-007  0.2125944E+04  0.7818608E-02  0.8549900E-01
          2   -1    0    0  501    0  0.00000000000E+00  0.00000000000E+00  0.17952152331E+04  0.17952152331E+04  0.00000000000E+00 0. -1.
         -2   -1    0    0    0  501 -0.00000000000E+00 -0.00000000000E+00 -0.62940069279E+03  0.62940069279E+03  0.00000000000E+00 0.  1.
         23    2    1    2    0    0  0.27307660000E+03 -0.80318153081E+03  0.26122895219E+03  0.89225832227E+03  0.90625312636E+02 0.  0.
        254    2    1    2    0    0 -0.27307660000E+03  0.80318153081E+03  0.90458558816E+03  0.15323576037E+04  0.90009629390E+03 0.  0.
        -24    2    4    4    0    0 -0.48108336143E+03  0.63493676390E+03  0.95775415018E+03  0.12484386445E+04  0.81976472306E+02 0.  0.
         24    2    4    4    0    0  0.20800676143E+03  0.16824476691E+03 -0.53168562016E+02  0.28391895920E+03  0.78803331218E+02 0.  0.
         11    1    3    3    0    0  0.12197523640E+03 -0.28562027223E+03  0.57316877325E+02  0.31581976289E+03  0.00000000000E+00 0.  1.
        -11    1    3    3    0    0  0.15110136360E+03 -0.51756125858E+03  0.20391207487E+03  0.57643855938E+03  0.00000000000E+00 0. -1.
          4    1    6    6  502    0  0.18704006980E+03  0.17262864552E+03 -0.59870503983E+02  0.26147488256E+03  0.00000000000E+00 0. -1.
          1    1    5    5  503    0 -0.45544529412E+03  0.58224366182E+03  0.91280457008E+03  0.11745851526E+04  0.00000000000E+00 0. -1.
         -2    1    5    5    0  503 -0.25638067315E+02  0.52693102083E+02  0.44949580099E+02  0.73853491819E+02  0.00000000000E+00 0.  1.
         -3    1    6    6    0  502  0.20966691635E+02 -0.43838786134E+01  0.67019419663E+01  0.22444076634E+02  0.00000000000E+00 0.  1.
<mgrwt>
<rscale>  0 0.21259442E+04</rscale>
<asrwt>0</asrwt>
<pdfrwt beam="1">  1        2 0.27618696E+00 0.21259442E+04</pdfrwt>
<pdfrwt beam="2">  1       -2 0.96830877E-01 0.21259442E+04</pdfrwt>
<totfact> 0.71152041E+00</totfact>
</mgrwt>
</event>
<event>
12    1  0.2019083E-007  0.2121188E+04  0.7818608E-02  0.8551967E-01
         -1   -1    0    0    0  501 -0.00000000000E+00  0.00000000000E+00  0.95474273284E+03  0.95474273284E+03  0.00000000000E+00 0.  1.
          1   -1    0    0  501    0  0.00000000000E+00 -0.00000000000E+00 -0.11781810116E+04  0.11781810116E+04  0.00000000000E+00 0. -1.
         23    2    1    2    0    0 -0.47758605932E+03  0.70001355682E+03 -0.27506991460E+03  0.89561694592E+03  0.91426648763E+02 0.  0.
        254    2    1    2    0    0  0.47758605932E+03 -0.70001355682E+03  0.51631635870E+02  0.12373067985E+04  0.90008603145E+03 0.  0.
        -24    2    4    4    0    0 -0.72933651460E+02 -0.64501814111E+03  0.14432526650E+03  0.66971870609E+03  0.79533910123E+02 0.  0.
         24    2    4    4    0    0  0.55051971078E+03 -0.54995415714E+02 -0.92693630629E+02  0.56758809242E+03  0.86415772823E+02 0.  0.
         13    1    3    3    0    0 -0.23051190160E+03  0.30041332032E+03 -0.16518776793E+03  0.41312334535E+03  0.00000000000E+00 0. -1.
        -13    1    3    3    0    0 -0.24707415772E+03  0.39960023650E+03 -0.10988214668E+03  0.48249360056E+03  0.00000000000E+00 0.  1.
          4    1    6    6  502    0  0.13767364946E+03  0.16306781301E+02 -0.45841306351E+02  0.14601839007E+03  0.00000000000E+00 0. -1.
          1    1    5    5  503    0 -0.13952422608E+02 -0.33231659331E+03  0.10660305954E+03  0.34927525046E+03  0.00000000000E+00 0. -1.
         -2    1    5    5    0  503 -0.58981228853E+02 -0.31270154780E+03  0.37722206963E+02  0.32044345562E+03  0.00000000000E+00 0.  1.
         -3    1    6    6    0  502  0.41284606132E+03 -0.71302197014E+02 -0.46852324278E+02  0.42156970234E+03  0.00000000000E+00 0.  1.
<mgrwt>
<rscale>  0 0.21211881E+04</rscale>
<asrwt>0</asrwt>
<pdfrwt beam="1">  1        1 0.18125862E+00 0.21211881E+04</pdfrwt>
<pdfrwt beam="2">  1       -1 0.14688350E+00 0.21211881E+04</pdfrwt>
<totfact> 0.37575684E+00</totfact>
</mgrwt>
</event>
<event>
12    1  0.2019083E-007  0.1996793E+04  0.7818608E-02  0.8608121E-01
         -2   -1    0    0    0  501 -0.00000000000E+00  0.00000000000E+00  0.87698288727E+03  0.87698288727E+03  0.00000000000E+00 0.  1.
          2   -1    0    0  501    0  0.00000000000E+00 -0.00000000000E+00 -0.11366196071E+04  0.11366196071E+04  0.00000000000E+00 0. -1.
         23    2    1    2    0    0 -0.74006557459E+03  0.23173739489E+03 -0.26699473474E+03  0.82560410644E+03  0.94534000819E+02 0.  0.
        254    2    1    2    0    0  0.74006557459E+03 -0.23173739489E+03  0.73580149066E+01  0.11879983879E+04  0.89993708362E+03 0.  0.
        -24    2    4    4    0    0  0.71106925316E+02  0.29892272448E+03  0.78810049971E+02  0.32721594884E+03  0.80301078230E+02 0.  0.
         24    2    4    4    0    0  0.66895864927E+03 -0.53066011937E+03 -0.71452035064E+02  0.86078243910E+03  0.82068126663E+02 0.  0.
         13    1    3    3    0    0 -0.35320520676E+03  0.12871069789E+03 -0.82885713056E+02  0.38495506655E+03  0.00000000000E+00 0.  1.
        -13    1    3    3    0    0 -0.38686036783E+03  0.10302669700E+03 -0.18410902168E+03  0.44064903989E+03  0.00000000000E+00 0. -1.
          4    1    6    6  502    0  0.47706543347E+03 -0.34570118899E+03 -0.20982214144E+02  0.58952607507E+03  0.00000000000E+00 0. -1.
          1    1    5    5  503    0  0.57009677898E+02  0.29763685627E+03  0.71883048450E+02  0.31145621560E+03  0.00000000000E+00 0. -1.
         -2    1    5    5    0  503  0.14097247418E+02  0.12858682110E+01  0.69270015210E+01  0.15759733243E+02  0.00000000000E+00 0.  1.
         -3    1    6    6    0  502  0.19189321580E+03 -0.18495893038E+03 -0.50469820920E+02  0.27125636402E+03  0.00000000000E+00 0.  1.
<mgrwt>
<rscale>  0 0.19967934E+04</rscale>
<asrwt>0</asrwt>
<pdfrwt beam="1">  1        2 0.17486456E+00 0.19967934E+04</pdfrwt>
<pdfrwt beam="2">  1       -2 0.13492044E+00 0.19967934E+04</pdfrwt>
<totfact> 0.75963725E+00</totfact>
</mgrwt>
</event>
<event>
12    1  0.2019083E-007  0.2378018E+04  0.7818608E-02  0.8447779E-01
         -1   -1    0    0    0  501 -0.00000000000E+00  0.00000000000E+00  0.14522619147E+04  0.14522619147E+04  0.00000000000E+00 0.  1.
          1   -1    0    0  501    0  0.00000000000E+00 -0.00000000000E+00 -0.97347605553E+03  0.97347605553E+03  0.00000000000E+00 0. -1.
         23    2    1    2    0    0 -0.36809493368E+03 -0.42361997591E+03 -0.65731407565E+03  0.86968991386E+03  0.96700506856E+02 0.  0.
        254    2    1    2    0    0  0.36809493368E+03  0.42361997591E+03  0.11360999348E+04  0.15560480564E+04  0.90311390624E+03 0.  0.
        -24    2    4    4    0    0 -0.85002943819E+02 -0.18871895806E+03  0.54505210111E+03  0.58850707687E+03  0.80115173436E+02 0.  0.
         24    2    4    4    0    0  0.45309787750E+03  0.61233893398E+03  0.59104783370E+03  0.96754097949E+03  0.80878604184E+02 0.  0.
         13    1    3    3    0    0 -0.30328859152E+03 -0.39590474829E+03 -0.58443994720E+03  0.76830631349E+03  0.00000000000E+00 0. -1.
        -13    1    3    3    0    0 -0.64806342159E+02 -0.27715227620E+02 -0.72874128453E+02  0.10138360037E+03  0.00000000000E+00 0.  1.
          4    1    6    6  502    0  0.37958533710E+03  0.50890243033E+03  0.45230003815E+03  0.77951397438E+03  0.00000000000E+00 0. -1.
          1    1    5    5  503    0 -0.75045859089E+02 -0.14716806264E+03  0.49924110335E+03  0.52586309901E+03  0.00000000000E+00 0. -1.
         -2    1    5    5    0  503 -0.99570847295E+01 -0.41550895418E+02  0.45810997759E+02  0.62643977859E+02  0.00000000000E+00 0.  1.
         -3    1    6    6    0  502  0.73512540399E+02  0.10343650365E+03  0.13874779555E+03  0.18802700511E+03  0.00000000000E+00 0.  1.
<mgrwt>
<rscale>  0 0.23780178E+04</rscale>
<asrwt>0</asrwt>
<pdfrwt beam="1">  1        1 0.14976555E+00 0.23780178E+04</pdfrwt>
<pdfrwt beam="2">  1       -1 0.22342491E+00 0.23780178E+04</pdfrwt>
<totfact> 0.14879871E+00</totfact>
</mgrwt>
</event>
<event>
12    1  0.3234216E-007  0.1908339E+04  0.7818608E-02  0.8650717E-01
          1   -1    0    0  501    0  0.00000000000E+00  0.00000000000E+00  0.30532709942E+04  0.30532709942E+04  0.00000000000E+00 0. -1.
         -1   -1    0    0    0  501 -0.00000000000E+00 -0.00000000000E+00 -0.29818499933E+03  0.29818499933E+03  0.00000000000E+00 0.  1.
         23    2    1    2    0    0 -0.63134797703E+03 -0.35383910931E+03  0.82292034419E+03  0.10997253633E+04  0.91627497886E+02 0.  0.
        254    2    1    2    0    0  0.63134797703E+03  0.35383910931E+03  0.19321656507E+04  0.22517306303E+04  0.90178952435E+03 0.  0.
        -24    2    4    4    0    0  0.15569572956E+03  0.22941882204E+03  0.36471084449E+02  0.29165478596E+03  0.82814359015E+02 0.  0.
         24    2    4    4    0    0  0.47565224747E+03  0.12442028726E+03  0.18956945662E+04  0.19600758443E+04  0.80709098572E+02 0.  0.
         11    1    3    3    0    0 -0.39491974749E+03 -0.19145436625E+03  0.55170702921E+03  0.70498016099E+03  0.00000000000E+00 0. -1.
        -11    1    3    3    0    0 -0.23642822954E+03 -0.16238474306E+03  0.27121331498E+03  0.39474520228E+03  0.00000000000E+00 0.  1.
          4    1    6    6  502    0  0.22150096684E+02 -0.10130270065E+02  0.70996961009E+02  0.75058761163E+02  0.00000000000E+00 0. -1.
          1    1    5    5  503    0  0.16190205507E+02  0.16067157603E+02  0.28650862091E+02  0.36621690381E+02  0.00000000000E+00 0. -1.
         -2    1    5    5    0  503  0.13950552405E+03  0.21335166444E+03  0.78202223579E+01  0.25503309557E+03  0.00000000000E+00 0.  1.
         -3    1    6    6    0  502  0.45350215079E+03  0.13455055733E+03  0.18246976052E+04  0.18850170832E+04  0.00000000000E+00 0.  1.
<mgrwt>
<rscale>  0 0.19083392E+04</rscale>
<asrwt>0</asrwt>
<pdfrwt beam="1">  1        1 0.46973398E+00 0.19083392E+04</pdfrwt>
<pdfrwt beam="2">  1       -1 0.45874617E-01 0.19083392E+04</pdfrwt>
<totfact> 0.24194972E+00</totfact>
</mgrwt>
</event>
<event>
12    1  0.2019083E-007  0.1265540E+04  0.7818608E-02  0.9057348E-01
          2   -1    0    0  501    0  0.00000000000E+00  0.00000000000E+00  0.30381120210E+03  0.30381120210E+03  0.00000000000E+00 0. -1.
         -2   -1    0    0    0  501 -0.00000000000E+00 -0.00000000000E+00 -0.13179157645E+04  0.13179157645E+04  0.00000000000E+00 0.  1.
         23    2    1    2    0    0  0.21437408680E+02 -0.17655898688E+03 -0.56710949024E+03  0.60101404938E+03  0.89286478811E+02 0.  0.
        254    2    1    2    0    0 -0.21437408680E+02  0.17655898688E+03 -0.44699507217E+03  0.10207129172E+04  0.90023198482E+03 0.  0.
        -24    2    4    4    0    0 -0.30257297381E+03  0.30136948552E+03 -0.53594035846E+03  0.69003617301E+03  0.80894257916E+02 0.  0.
         24    2    4    4    0    0  0.28113556513E+03 -0.12481049863E+03  0.88945286283E+02  0.33067674421E+03  0.82589216370E+02 0.  0.
         11    1    3    3    0    0 -0.24388971214E+02 -0.32993359123E+02 -0.20019793747E+03  0.20435899253E+03  0.00000000000E+00 0.  1.
        -11    1    3    3    0    0  0.45826379893E+02 -0.14356562776E+03 -0.36691155277E+03  0.39665505685E+03  0.00000000000E+00 0. -1.
          4    1    6    6  502    0  0.10681415789E+03 -0.91781494359E+02  0.45702201400E+02  0.14806011700E+03  0.00000000000E+00 0. -1.
          1    1    5    5  503    0 -0.26747317805E+03  0.29611518074E+03 -0.48751207956E+03  0.62999534042E+03  0.00000000000E+00 0. -1.
         -2    1    5    5    0  503 -0.35099795759E+02  0.52543047784E+01 -0.48428278896E+02  0.60040832588E+02  0.00000000000E+00 0.  1.
         -3    1    6    6    0  502  0.17432140723E+03 -0.33029004276E+02  0.43243084883E+02  0.18261662721E+03  0.00000000000E+00 0.  1.
<mgrwt>
<rscale>  0 0.12655395E+04</rscale>
<asrwt>0</asrwt>
<pdfrwt beam="1">  1        2 0.46740185E-01 0.12655395E+04</pdfrwt>
<pdfrwt beam="2">  1       -2 0.20275627E+00 0.12655395E+04</pdfrwt>
<totfact> 0.13560226E+01</totfact>
</mgrwt>
</event>
<event>
12    1  0.2019083E-007  0.2325403E+04  0.7818608E-02  0.8467972E-01
          3   -1    0    0  501    0  0.00000000000E+00  0.00000000000E+00  0.12143585304E+04  0.12143585304E+04  0.00000000000E+00 0. -1.
         -3   -1    0    0    0  501 -0.00000000000E+00 -0.00000000000E+00 -0.11132414052E+04  0.11132414052E+04  0.00000000000E+00 0.  1.
         23    2    1    2    0    0  0.74088359151E+03  0.56003332448E+03 -0.28637786268E+03  0.97732022481E+03  0.10294037546E+03 0.  0.
        254    2    1    2    0    0 -0.74088359151E+03 -0.56003332448E+03  0.38749498791E+03  0.13502797108E+04  0.90030945295E+03 0.  0.
        -24    2    4    4    0    0  0.42784631179E+02 -0.17396618056E+03 -0.21090695021E+03  0.28855893381E+03  0.81790953009E+02 0.  0.
         24    2    4    4    0    0 -0.78366822269E+03 -0.38606714392E+03  0.59840193812E+03  0.10617207770E+04  0.77346014029E+02 0.  0.
         13    1    3    3    0    0  0.29634373676E+03  0.28764016038E+03 -0.13287715187E+03  0.43383500282E+03  0.00000000000E+00 0.  1.
        -13    1    3    3    0    0  0.44453985474E+03  0.27239316410E+03 -0.15350071081E+03  0.54348522199E+03  0.00000000000E+00 0. -1.
          4    1    6    6  502    0 -0.65159477744E+03 -0.35124451821E+03  0.51329067187E+03  0.90078620070E+03  0.00000000000E+00 0. -1.
          1    1    5    5  503    0  0.56931072465E+02 -0.10232114694E+03 -0.16490895587E+03  0.20225164486E+03  0.00000000000E+00 0. -1.
         -2    1    5    5    0  503 -0.14146441286E+02 -0.71645033618E+02 -0.45997994345E+02  0.86307288956E+02  0.00000000000E+00 0.  1.
         -3    1    6    6    0  502 -0.13207344525E+03 -0.34822625715E+02  0.85111266256E+02  0.16093457629E+03  0.00000000000E+00 0.  1.
<mgrwt>
<rscale>  0 0.23254025E+04</rscale>
<asrwt>0</asrwt>
<pdfrwt beam="1">  1        3 0.18682439E+00 0.23254025E+04</pdfrwt>
<pdfrwt beam="2">  1       -3 0.17126791E+00 0.23254025E+04</pdfrwt>
<totfact> 0.95707557E-02</totfact>
</mgrwt>
</event>
<event>
12    1  0.2019083E-007  0.1533495E+04  0.7818608E-02  0.8862480E-01
         -2   -1    0    0    0  501 -0.00000000000E+00  0.00000000000E+00  0.42581601345E+03  0.42581601345E+03  0.00000000000E+00 0.  1.
          2   -1    0    0  501    0  0.00000000000E+00 -0.00000000000E+00 -0.13806466226E+04  0.13806466226E+04  0.00000000000E+00 0. -1.
         23    2    1    2    0    0 -0.18260325131E+03  0.45159477424E+03 -0.43531960595E+03  0.65953437135E+03  0.90557386008E+02 0.  0.
        254    2    1    2    0    0  0.18260325131E+03 -0.45159477424E+03 -0.51951100325E+03  0.11469282647E+04  0.89903891710E+03 0.  0.
        -24    2    4    4    0    0  0.95266932292E+02 -0.71886826158E+03 -0.39180758812E+03  0.82774356343E+03  0.76150212032E+02 0.  0.
         24    2    4    4    0    0  0.87336319018E+02  0.26727348734E+03 -0.12770341513E+03  0.31918470132E+03  0.80671938519E+02 0.  0.
         13    1    3    3    0    0 -0.26334088048E+02  0.13031223582E+03 -0.16282345704E+03  0.21020523580E+03  0.00000000000E+00 0. -1.
        -13    1    3    3    0    0 -0.15626916326E+03  0.32128253842E+03 -0.27249614891E+03  0.44932913555E+03  0.00000000000E+00 0.  1.
          4    1    6    6  502    0  0.18613552391E+02  0.18745538756E+02  0.82622062010E+01  0.27678937970E+02  0.00000000000E+00 0. -1.
          3    1    5    5  503    0  0.13600115899E+02 -0.15862096092E+03 -0.12200061086E+03  0.20057348141E+03  0.00000000000E+00 0. -1.
         -4    1    5    5    0  503  0.81666816393E+02 -0.56024730066E+03 -0.26980697726E+03  0.62717008201E+03  0.00000000000E+00 0.  1.
         -3    1    6    6    0  502  0.68722766627E+02  0.24852794858E+03 -0.13596562134E+03  0.29150576335E+03  0.00000000000E+00 0.  1.
<mgrwt>
<rscale>  0 0.15334946E+04</rscale>
<asrwt>0</asrwt>
<pdfrwt beam="1">  1        2 0.21240717E+00 0.15334946E+04</pdfrwt>
<pdfrwt beam="2">  1       -2 0.65510156E-01 0.15334946E+04</pdfrwt>
<totfact> 0.30712473E+01</totfact>
</mgrwt>
</event>
<event>
12    1  0.2019083E-007  0.2006754E+04  0.7818608E-02  0.8603470E-01
          1   -1    0    0  501    0  0.00000000000E+00  0.00000000000E+00  0.54278038206E+03  0.54278038206E+03  0.00000000000E+00 0. -1.
         -1   -1    0    0    0  501 -0.00000000000E+00 -0.00000000000E+00 -0.18548299069E+04  0.18548299069E+04  0.00000000000E+00 0.  1.
         23    2    1    2    0    0  0.31501963904E+03 -0.63885883740E+03 -0.94189071657E+03  0.11847886927E+04  0.95854771338E+02 0.  0.
        254    2    1    2    0    0 -0.31501963904E+03  0.63885883740E+03 -0.37015880831E+03  0.12128215963E+04  0.90914283481E+03 0.  0.
        -24    2    4    4    0    0 -0.17034928466E+02  0.58525735822E+03 -0.58602566693E+03  0.83217665300E+03  0.79218276568E+02 0.  0.
         24    2    4    4    0    0 -0.29798471057E+03  0.53601479175E+02  0.21586685862E+03  0.38064494335E+03  0.81388364907E+02 0.  0.
         13    1    3    3    0    0  0.19641060135E+03 -0.49328425732E+03 -0.69601342448E+03  0.87540914429E+03  0.00000000000E+00 0. -1.
        -13    1    3    3    0    0  0.11860903768E+03 -0.14557458008E+03 -0.24587729209E+03  0.30937954837E+03  0.00000000000E+00 0.  1.
          4    1    6    6  502    0 -0.11369374741E+03  0.17487735913E+02  0.13166392890E+03  0.17483557784E+03  0.00000000000E+00 0. -1.
          1    1    5    5  503    0 -0.63810790081E+01  0.38663783340E+02 -0.70972814827E+02  0.81072478412E+02  0.00000000000E+00 0. -1.
         -2    1    5    5    0  503 -0.10653849458E+02  0.54659357489E+03 -0.51505285211E+03  0.75110417458E+03  0.00000000000E+00 0.  1.
         -3    1    6    6    0  502 -0.18429096316E+03  0.36113743262E+02  0.84202929724E+02  0.20580936551E+03  0.00000000000E+00 0.  1.
<mgrwt>
<rscale>  0 0.20067539E+04</rscale>
<asrwt>0</asrwt>
<pdfrwt beam="1">  1        1 0.83504674E-01 0.20067539E+04</pdfrwt>
<pdfrwt beam="2">  1       -1 0.28535845E+00 0.20067539E+04</pdfrwt>
<totfact> 0.15062178E+00</totfact>
</mgrwt>
</event>
<event>
12    1  0.2019083E-007  0.3657939E+04  0.7818608E-02  0.8077348E-01
          2   -1    0    0  501    0  0.00000000000E+00  0.00000000000E+00  0.24347381582E+04  0.24347381582E+04  0.00000000000E+00 0. -1.
         -2   -1    0    0    0  501 -0.00000000000E+00 -0.00000000000E+00 -0.13739173755E+04  0.13739173755E+04  0.00000000000E+00 0.  1.
         23    2    1    2    0    0  0.13424006217E+03  0.15613436288E+04  0.12294856104E+04  0.19936164409E+04  0.84007892090E+02 0.  0.
        254    2    1    2    0    0 -0.13424006217E+03 -0.15613436288E+04 -0.16866482766E+03  0.18150390928E+04  0.90005819968E+03 0.  0.
        -24    2    4    4    0    0 -0.88447334649E+02 -0.15923752959E+04  0.25975988399E+02  0.15970154003E+04  0.79381501455E+02 0.  0.
         24    2    4    4    0    0 -0.45792727519E+02  0.31031667123E+02 -0.19464081606E+03  0.21802369249E+03  0.81174780281E+02 0.  0.
         11    1    3    3    0    0  0.32152376764E+02  0.46646614564E+03  0.31970516777E+03  0.56642372360E+03  0.00000000000E+00 0.  1.
        -11    1    3    3    0    0  0.10208768540E+03  0.10948774831E+04  0.90978044260E+03  0.14271927173E+04  0.00000000000E+00 0. -1.
          2    1    6    6  502    0 -0.31063658107E+02  0.54345490435E+02 -0.16956647064E+03  0.18075168367E+03  0.00000000000E+00 0. -1.
          1    1    5    5  503    0 -0.80400830827E+02 -0.12527500166E+04  0.51100274319E+02  0.12563670386E+04  0.00000000000E+00 0. -1.
         -2    1    5    5    0  503 -0.80465038224E+01 -0.33962527930E+03 -0.25124285921E+02  0.34064836167E+03  0.00000000000E+00 0.  1.
         -1    1    6    6    0  502 -0.14729069412E+02 -0.23313823312E+02 -0.25074345420E+02  0.37272008819E+02  0.00000000000E+00 0.  1.
<mgrwt>
<rscale>  0 0.36579388E+04</rscale>
<asrwt>0</asrwt>
<pdfrwt beam="1">  1        2 0.37457510E+00 0.36579388E+04</pdfrwt>
<pdfrwt beam="2">  1       -2 0.21137190E+00 0.36579388E+04</pdfrwt>
<totfact> 0.34557649E-01</totfact>
</mgrwt>
</event>
<event>
12    1  0.2019083E-007  0.5768585E+04  0.7818608E-02  0.7719776E-01
          2   -1    0    0  501    0  0.00000000000E+00  0.00000000000E+00  0.28526709157E+04  0.28526709157E+04  0.00000000000E+00 0. -1.
         -2   -1    0    0    0  501 -0.00000000000E+00 -0.00000000000E+00 -0.29162644558E+04  0.29162644558E+04  0.00000000000E+00 0.  1.
         23    2    1    2    0    0 -0.23033577842E+04 -0.14867550795E+04 -0.66357651942E+03  0.28221203085E+04  0.90174773670E+02 0.  0.
        254    2    1    2    0    0  0.23033577842E+04  0.14867550795E+04  0.59998297924E+03  0.29468150630E+04  0.89880014004E+03 0.  0.
        -24    2    4    4    0    0  0.20738681215E+04  0.92369608759E+03  0.46368493458E+03  0.23185222923E+04  0.79990335607E+02 0.  0.
         24    2    4    4    0    0  0.22948966272E+03  0.56305899190E+03  0.13629804466E+03  0.62829277070E+03  0.80459400223E+02 0.  0.
         11    1    3    3    0    0 -0.21610850178E+04 -0.14195915557E+04 -0.62848884034E+03  0.26609259406E+04  0.00000000000E+00 0.  1.
        -11    1    3    3    0    0 -0.14227276647E+03 -0.67163523811E+02 -0.35087679076E+02  0.16119436787E+03  0.00000000000E+00 0. -1.
          2    1    6    6  502    0  0.23502128679E+03  0.52953503090E+03  0.12805804064E+03  0.59333061270E+03  0.00000000000E+00 0. -1.
          3    1    5    5  503    0  0.13958088640E+04  0.63880182967E+03  0.34811910321E+03  0.15740194003E+04  0.00000000000E+00 0. -1.
         -4    1    5    5    0  503  0.67805925751E+03  0.28489425793E+03  0.11556583137E+03  0.74450289206E+03  0.00000000000E+00 0.  1.
         -1    1    6    6    0  502 -0.55316240682E+01  0.33523961003E+02  0.82400040231E+01  0.34962158006E+02  0.00000000000E+00 0.  1.
<mgrwt>
<rscale>  0 0.57685849E+04</rscale>
<asrwt>0</asrwt>
<pdfrwt beam="1">  1        2 0.43887245E+00 0.57685849E+04</pdfrwt>
<pdfrwt beam="2">  1       -2 0.44865607E+00 0.57685849E+04</pdfrwt>
<totfact> 0.52355537E-03</totfact>
</mgrwt>
</event>
<event>
12    1  0.2019083E-007  0.1897867E+04  0.7818608E-02  0.8655919E-01
         -1   -1    0    0    0  501 -0.00000000000E+00  0.00000000000E+00  0.97091347279E+03  0.97091347279E+03  0.00000000000E+00 0.  1.
          1   -1    0    0  501    0  0.00000000000E+00 -0.00000000000E+00 -0.92745073958E+03  0.92745073958E+03  0.00000000000E+00 0. -1.
         23    2    1    2    0    0  0.33712982537E+03 -0.28828585303E+03  0.59932579370E+03  0.75131183975E+03  0.92264951846E+02 0.  0.
        254    2    1    2    0    0 -0.33712982537E+03  0.28828585303E+03 -0.55586306050E+03  0.11470523726E+04  0.89998897287E+03 0.  0.
        -24    2    4    4    0    0 -0.25285233679E+03 -0.26411181073E+03 -0.29691969553E+02  0.37479826644E+03  0.76829517015E+02 0.  0.
         24    2    4    4    0    0 -0.84277488582E+02  0.55239766377E+03 -0.52617109094E+03  0.77225410618E+03  0.85290758853E+02 0.  0.
         13    1    3    3    0    0  0.33354847539E+03 -0.28194743341E+03  0.60183708012E+03  0.74361065864E+03  0.00000000000E+00 0.  1.
        -13    1    3    3    0    0  0.35813499864E+01 -0.63384196218E+01 -0.25112864161E+01  0.77011811101E+01  0.00000000000E+00 0. -1.
          4    1    6    6  502    0 -0.10146539573E+03  0.47764632085E+03 -0.46251624081E+03  0.67257899712E+03  0.00000000000E+00 0. -1.
          1    1    5    5  503    0 -0.10922409592E+03 -0.15282386754E+03 -0.42700834496E+02  0.19263540403E+03  0.00000000000E+00 0. -1.
         -2    1    5    5    0  503 -0.14362824087E+03 -0.11128794319E+03  0.13008864943E+02  0.18216286241E+03  0.00000000000E+00 0.  1.
         -3    1    6    6    0  502  0.17187907152E+02  0.74751342912E+02 -0.63654850130E+02  0.99675109052E+02  0.00000000000E+00 0.  1.
<mgrwt>
<rscale>  0 0.18978666E+04</rscale>
<asrwt>0</asrwt>
<pdfrwt beam="1">  1        1 0.14268473E+00 0.18978666E+04</pdfrwt>
<pdfrwt beam="2">  1       -1 0.14937130E+00 0.18978666E+04</pdfrwt>
<totfact> 0.57074179E+00</totfact>
</mgrwt>
</event>
<event>
12    1  0.2019083E-007  0.2140979E+04  0.7818608E-02  0.8543404E-01
         -2   -1    0    0    0  501 -0.00000000000E+00  0.00000000000E+00  0.58841291439E+03  0.58841291439E+03  0.00000000000E+00 0.  1.
          2   -1    0    0  501    0  0.00000000000E+00 -0.00000000000E+00 -0.19475225919E+04  0.19475225919E+04  0.00000000000E+00 0. -1.
         23    2    1    2    0    0  0.62432049248E+03 -0.59961288120E+03 -0.73929948934E+03  0.11421731007E+04  0.93187833540E+02 0.  0.
        254    2    1    2    0    0 -0.62432049248E+03  0.59961288120E+03 -0.61981018822E+03  0.13937624057E+04  0.89949835430E+03 0.  0.
        -24    2    4    4    0    0 -0.81064551620E+03  0.48846272512E+03 -0.66308759015E+03  0.11583851379E+04  0.80180975071E+02 0.  0.
         24    2    4    4    0    0  0.18632502371E+03  0.11115015607E+03  0.43277401939E+02  0.23537726775E+03  0.80362634331E+02 0.  0.
         13    1    3    3    0    0  0.27192419953E+03 -0.25965235207E+03 -0.38225230671E+03  0.53617062602E+03  0.00000000000E+00 0. -1.
        -13    1    3    3    0    0  0.35239629296E+03 -0.33996052913E+03 -0.35704718264E+03  0.60600247465E+03  0.00000000000E+00 0.  1.
          2    1    6    6  502    0  0.12115422521E+03  0.60279407582E+02 -0.12112867999E+02  0.13586270583E+03  0.00000000000E+00 0. -1.
          1    1    5    5  503    0 -0.49334450408E+03  0.26404751657E+03 -0.35780873178E+03  0.66418143548E+03  0.00000000000E+00 0. -1.
         -2    1    5    5    0  503 -0.31730101212E+03  0.22441520856E+03 -0.30527885838E+03  0.49420370243E+03  0.00000000000E+00 0.  1.
         -3    1    6    6    0  502  0.65170798506E+02  0.50870748491E+02  0.55390269937E+02  0.99514561918E+02  0.00000000000E+00 0.  1.
<mgrwt>
<rscale>  0 0.21409787E+04</rscale>
<asrwt>0</asrwt>
<pdfrwt beam="1">  1        2 0.29961886E+00 0.21409787E+04</pdfrwt>
<pdfrwt beam="2">  1       -2 0.90525064E-01 0.21409787E+04</pdfrwt>
<totfact> 0.68427836E+00</totfact>
</mgrwt>
</event>
<event>
12    1  0.2019083E-007  0.1567510E+04  0.7818608E-02  0.8840760E-01
         -1   -1    0    0    0  501 -0.00000000000E+00  0.00000000000E+00  0.79836214225E+03  0.79836214225E+03  0.00000000000E+00 0.  1.
          1   -1    0    0  501    0  0.00000000000E+00 -0.00000000000E+00 -0.76941509826E+03  0.76941509826E+03  0.00000000000E+00 0. -1.
         23    2    1    2    0    0 -0.28798933485E+03 -0.30398574761E+03  0.31705512919E+03  0.53308702502E+03  0.91173623174E+02 0.  0.
        254    2    1    2    0    0  0.28798933485E+03  0.30398574761E+03 -0.28810808519E+03  0.10346902155E+04  0.90123935863E+03 0.  0.
        -24    2    4    4    0    0 -0.41099663753E+02 -0.94937972496E+02 -0.46385658096E+03  0.48231897866E+03  0.82257330891E+02 0.  0.
         24    2    4    4    0    0  0.32908899861E+03  0.39892372011E+03  0.17574849577E+03  0.55237123683E+03  0.82381709414E+02 0.  0.
         11    1    3    3    0    0 -0.69175669006E+02 -0.13125499548E+03  0.13102803681E+03  0.19794315712E+03  0.00000000000E+00 0.  1.
        -11    1    3    3    0    0 -0.21881366585E+03 -0.17273075214E+03  0.18602709238E+03  0.33514386790E+03  0.00000000000E+00 0. -1.
          4    1    6    6  502    0  0.26764592942E+03  0.34791808053E+03  0.12026074954E+03  0.45513073086E+03  0.00000000000E+00 0. -1.
          1    1    5    5  503    0 -0.62736825782E+02 -0.79297992249E+02 -0.40895943801E+03  0.42127414213E+03  0.00000000000E+00 0. -1.
         -2    1    5    5    0  503  0.21637162028E+02 -0.15639980247E+02 -0.54897142951E+02  0.61044836529E+02  0.00000000000E+00 0.  1.
         -3    1    6    6    0  502  0.61443069189E+02  0.51005639581E+02  0.55487746232E+02  0.97240505975E+02  0.00000000000E+00 0.  1.
<mgrwt>
<rscale>  0 0.15675100E+04</rscale>
<asrwt>0</asrwt>
<pdfrwt beam="1">  1        1 0.11837155E+00 0.15675100E+04</pdfrwt>
<pdfrwt beam="2">  1       -1 0.12282494E+00 0.15675100E+04</pdfrwt>
<totfact> 0.13235850E+01</totfact>
</mgrwt>
</event>
<event>
12    1  0.2019083E-007  0.1915186E+04  0.7818608E-02  0.8647334E-01
         -1   -1    0    0    0  501 -0.00000000000E+00  0.00000000000E+00  0.39552133645E+03  0.39552133645E+03  0.00000000000E+00 0.  1.
          1   -1    0    0  501    0  0.00000000000E+00 -0.00000000000E+00 -0.23184201844E+04  0.23184201844E+04  0.00000000000E+00 0. -1.
         23    2    1    2    0    0  0.15926854191E+03 -0.55341993221E+03 -0.14158494874E+04  0.15313442748E+04  0.93516987808E+02 0.  0.
        254    2    1    2    0    0 -0.15926854191E+03  0.55341993221E+03 -0.50704936057E+03  0.11825972461E+04  0.89988727222E+03 0.  0.
        -24    2    4    4    0    0  0.20072732305E+03  0.31219628773E+03 -0.62076643864E+03  0.72757396063E+03  0.79088030392E+02 0.  0.
         24    2    4    4    0    0 -0.35999586496E+03  0.24122364448E+03  0.11371707807E+03  0.45502328550E+03  0.79553422663E+02 0.  0.
         11    1    3    3    0    0  0.86271627637E+02 -0.34065491536E+03 -0.74344916119E+03  0.82231698290E+03  0.00000000000E+00 0.  1.
        -11    1    3    3    0    0  0.72996914272E+02 -0.21276501685E+03 -0.67240032623E+03  0.70902729186E+03  0.00000000000E+00 0. -1.
          4    1    6    6  502    0 -0.76691319752E+02  0.84384927532E+02  0.52212620454E+02  0.12541344527E+03  0.00000000000E+00 0. -1.
          1    1    5    5  503    0  0.50183931740E+02  0.68213376557E+02 -0.21204843512E+03  0.22833315700E+03  0.00000000000E+00 0. -1.
         -2    1    5    5    0  503  0.15054339131E+03  0.24398291117E+03 -0.40871800352E+03  0.49924080364E+03  0.00000000000E+00 0.  1.
         -3    1    6    6    0  502 -0.28330454521E+03  0.15683871695E+03  0.61504457618E+02  0.32960984023E+03  0.00000000000E+00 0.  1.
<mgrwt>
<rscale>  0 0.19151863E+04</rscale>
<asrwt>0</asrwt>
<pdfrwt beam="1">  1        1 0.35668004E+00 0.19151863E+04</pdfrwt>
<pdfrwt beam="2">  1       -1 0.60849435E-01 0.19151863E+04</pdfrwt>
<totfact> 0.46284034E+00</totfact>
</mgrwt>
</event>
<event>
12    1  0.2019083E-007  0.1430302E+04  0.7818608E-02  0.8932172E-01
         -2   -1    0    0    0  501 -0.00000000000E+00  0.00000000000E+00  0.54186384367E+03  0.54186384367E+03  0.00000000000E+00 0. -1.
          2   -1    0    0  501    0  0.00000000000E+00 -0.00000000000E+00 -0.94385489473E+03  0.94385489473E+03  0.00000000000E+00 0.  1.
         23    2    1    2    0    0  0.11359989495E+03  0.37183461942E+03  0.58740918904E+02  0.40362073309E+03  0.91067449147E+02 0.  0.
        254    2    1    2    0    0 -0.11359989495E+03 -0.37183461942E+03 -0.46073196996E+03  0.10820980053E+04  0.89860793711E+03 0.  0.
        -24    2    4    4    0    0  0.15193880506E+03 -0.27984570643E+03  0.18307794635E+03  0.37584254269E+03  0.79630789033E+02 0.  0.
         24    2    4    4    0    0 -0.26553870002E+03 -0.91988912982E+02 -0.64380991631E+03  0.70625546263E+03  0.73026083237E+02 0.  0.
         13    1    3    3    0    0  0.70895667713E+02  0.17437425527E+03  0.71104621038E+02  0.20121740416E+03  0.00000000000E+00 0. -1.
        -13    1    3    3    0    0  0.42704227241E+02  0.19746036414E+03 -0.12363702134E+02  0.20240332893E+03  0.00000000000E+00 0.  1.
          2    1    6    6  502    0 -0.24451410713E+03 -0.61298886594E+02 -0.53886032937E+03  0.59490768750E+03  0.00000000000E+00 0. -1.
          3    1    5    5  503    0  0.10811236905E+03 -0.25326883474E+03  0.14018018896E+03  0.30900464781E+03  0.00000000000E+00 0. -1.
         -4    1    5    5    0  503  0.43826436011E+02 -0.26576871695E+02  0.42897757395E+02  0.66837894880E+02  0.00000000000E+00 0.  1.
         -1    1    6    6    0  502 -0.21024592886E+02 -0.30690026388E+02 -0.10494958694E+03  0.11134777513E+03  0.00000000000E+00 0.  1.
<mgrwt>
<rscale>  0 0.14303018E+04</rscale>
<asrwt>0</asrwt>
<pdfrwt beam="1">  1        2 0.14520844E+00 0.14303018E+04</pdfrwt>
<pdfrwt beam="2">  1       -2 0.83363670E-01 0.14303018E+04</pdfrwt>
<totfact> 0.33527895E+01</totfact>
</mgrwt>
</event>
<event>
12    1  0.2019083E-007  0.1843427E+04  0.7818608E-02  0.8683540E-01
         -2   -1    0    0    0  501 -0.00000000000E+00  0.00000000000E+00  0.66302223439E+03  0.66302223439E+03  0.00000000000E+00 0. -1.
          2   -1    0    0  501    0  0.00000000000E+00 -0.00000000000E+00 -0.12813387352E+04  0.12813387352E+04  0.00000000000E+00 0.  1.
         23    2    1    2    0    0 -0.56805583816E+03  0.41367709075E+02 -0.66148971760E+03  0.87728177938E+03  0.87498293171E+02 0.  0.
        254    2    1    2    0    0  0.56805583816E+03 -0.41367709075E+02  0.43173216824E+02  0.10670791902E+04  0.90132976697E+03 0.  0.
        -24    2    4    4    0    0  0.51125642230E+03  0.61096605975E+02  0.41680878368E+03  0.66722878315E+03  0.79679120973E+02 0.  0.
         24    2    4    4    0    0  0.56799415868E+02 -0.10246431505E+03 -0.37363556685E+03  0.39985040702E+03  0.80942582572E+02 0.  0.
         13    1    3    3    0    0 -0.53449316353E+02  0.17539415939E+02 -0.10383409747E+03  0.11809310026E+03  0.00000000000E+00 0.  1.
        -13    1    3    3    0    0 -0.51460652181E+03  0.23828293136E+02 -0.55765562013E+03  0.75918867912E+03  0.00000000000E+00 0. -1.
          2    1    6    6  502    0  0.63225769343E+02 -0.37664365265E+02 -0.15254471391E+03  0.16936939529E+03  0.00000000000E+00 0. -1.
          1    1    5    5  503    0  0.44784154147E+03  0.76766667142E+02  0.37945299060E+03  0.59197950938E+03  0.00000000000E+00 0. -1.
         -2    1    5    5    0  503  0.63414880826E+02 -0.15670061167E+02  0.37355793073E+02  0.75249273772E+02  0.00000000000E+00 0.  1.
         -1    1    6    6    0  502 -0.64263534753E+01 -0.64799949785E+02 -0.22109085294E+03  0.23048101172E+03  0.00000000000E+00 0.  1.
<mgrwt>
<rscale>  0 0.18434273E+04</rscale>
<asrwt>0</asrwt>
<pdfrwt beam="1">  1        2 0.19712904E+00 0.18434273E+04</pdfrwt>
<pdfrwt beam="2">  1       -2 0.10200342E+00 0.18434273E+04</pdfrwt>
<totfact> 0.12567766E+01</totfact>
</mgrwt>
</event>
<event>
12    1  0.2019083E-007  0.1427608E+04  0.7818608E-02  0.8934073E-01
         -2   -1    0    0    0  501 -0.00000000000E+00  0.00000000000E+00  0.15133536563E+03  0.15133536563E+03  0.00000000000E+00 0.  1.
          2   -1    0    0  501    0  0.00000000000E+00 -0.00000000000E+00 -0.33668033949E+04  0.33668033949E+04  0.00000000000E+00 0. -1.
         23    2    1    2    0    0  0.35624415312E+03  0.22666600238E+03 -0.81784062086E+03  0.92507034397E+03  0.92760373479E+02 0.  0.
        254    2    1    2    0    0 -0.35624415312E+03 -0.22666600238E+03 -0.23976274084E+04  0.25930684165E+04  0.89280414991E+03 0.  0.
        -24    2    4    4    0    0 -0.64655800709E+03 -0.15134018847E+03 -0.14724377894E+04  0.16168735476E+04  0.72566630372E+02 0.  0.
         24    2    4    4    0    0  0.29031385397E+03 -0.75325813909E+02 -0.92518961895E+03  0.97619486897E+03  0.83812165957E+02 0.  0.
         13    1    3    3    0    0  0.97793144637E+02  0.11366687119E+03 -0.30016472924E+03  0.33553318975E+03  0.00000000000E+00 0. -1.
        -13    1    3    3    0    0  0.25845100848E+03  0.11299913119E+03 -0.51767589162E+03  0.58953715421E+03  0.00000000000E+00 0.  1.
          2    1    6    6  502    0  0.67939991071E+01 -0.82570076876E+01 -0.10978181945E+03  0.11030133491E+03  0.00000000000E+00 0. -1.
          3    1    5    5  503    0 -0.26504842715E+03 -0.38250712539E+02 -0.52790522208E+03  0.59194400854E+03  0.00000000000E+00 0. -1.
         -4    1    5    5    0  503 -0.38150957994E+03 -0.11308947593E+03 -0.94453256737E+03  0.10249295390E+04  0.00000000000E+00 0.  1.
         -1    1    6    6    0  502  0.28351985486E+03 -0.67068806221E+02 -0.81540779949E+03  0.86589353407E+03  0.00000000000E+00 0.  1.
<mgrwt>
<rscale>  0 0.14276084E+04</rscale>
<asrwt>0</asrwt>
<pdfrwt beam="1">  1        2 0.51796973E+00 0.14276084E+04</pdfrwt>
<pdfrwt beam="2">  1       -2 0.23282365E-01 0.14276084E+04</pdfrwt>
<totfact> 0.16140693E+01</totfact>
</mgrwt>
</event>
<event>
12    1  0.2019083E-007  0.4949970E+04  0.7818608E-02  0.7836271E-01
          2   -1    0    0  501    0  0.00000000000E+00  0.00000000000E+00  0.35483695166E+04  0.35483695166E+04  0.00000000000E+00 0. -1.
         -2   -1    0    0    0  501 -0.00000000000E+00 -0.00000000000E+00 -0.17263001812E+04  0.17263001812E+04  0.00000000000E+00 0.  1.
         23    2    1    2    0    0  0.29120046494E+03 -0.15987709724E+04 -0.98951982953E+03  0.19048079735E+04  0.90981261361E+02 0.  0.
        254    2    1    2    0    0 -0.29120046494E+03  0.15987709724E+04  0.28115891649E+04  0.33698617244E+04  0.90003781931E+03 0.  0.
        -24    2    4    4    0    0 -0.68264501477E+02  0.13912425370E+04  0.26957880482E+04  0.30355025426E+04  0.82381103638E+02 0.  0.
         24    2    4    4    0    0 -0.22293596346E+03  0.20752843534E+03  0.11580111667E+03  0.33435918174E+03  0.74951107460E+02 0.  0.
         13    1    3    3    0    0  0.25677344362E+03 -0.14448375215E+04 -0.86156993369E+03  0.17017023287E+04  0.00000000000E+00 0. -1.
        -13    1    3    3    0    0  0.34427021319E+02 -0.15393345089E+03 -0.12794989584E+03  0.20310564479E+03  0.00000000000E+00 0.  1.
          4    1    6    6  502    0 -0.88383507989E+02  0.95915721723E+02  0.11841222495E+02  0.13096444062E+03  0.00000000000E+00 0. -1.
          3    1    5    5  503    0 -0.71426141590E+02  0.62299055585E+03  0.12196186800E+04  0.13713820223E+04  0.00000000000E+00 0. -1.
         -4    1    5    5    0  503  0.31616401128E+01  0.76825198120E+03  0.14761693682E+04  0.16641205204E+04  0.00000000000E+00 0.  1.
         -3    1    6    6    0  502 -0.13455245547E+03  0.11161271362E+03  0.10395989417E+03  0.20339474111E+03  0.00000000000E+00 0.  1.
<mgrwt>
<rscale>  0 0.49499701E+04</rscale>
<asrwt>0</asrwt>
<pdfrwt beam="1">  1        2 0.54590300E+00 0.49499701E+04</pdfrwt>
<pdfrwt beam="2">  1       -2 0.26558464E+00 0.49499701E+04</pdfrwt>
<totfact> 0.28270396E-02</totfact>
</mgrwt>
</event>
<event>
12    1  0.2019083E-007  0.2216694E+04  0.7818608E-02  0.8511512E-01
          3   -1    0    0  501    0  0.00000000000E+00  0.00000000000E+00  0.16657505719E+04  0.16657505719E+04  0.00000000000E+00 0. -1.
         -3   -1    0    0    0  501 -0.00000000000E+00 -0.00000000000E+00 -0.73746534342E+03  0.73746534342E+03  0.00000000000E+00 0.  1.
         23    2    1    2    0    0 -0.28324823057E+03  0.52284088873E+03 -0.37702518046E+03  0.70991346049E+03  0.90757807610E+02 0.  0.
        254    2    1    2    0    0  0.28324823057E+03 -0.52284088873E+03  0.13053104090E+04  0.16933024548E+04  0.89991432080E+03 0.  0.
        -24    2    4    4    0    0  0.22334596199E+03  0.19242527707E+03  0.65170391121E+03  0.71939953499E+03  0.76855689799E+02 0.  0.
         24    2    4    4    0    0  0.59902268580E+02 -0.71526616580E+03  0.65360649774E+03  0.97390291985E+03  0.78047893546E+02 0.  0.
         11    1    3    3    0    0 -0.98037290307E+02  0.21478607448E+03 -0.19908605675E+03  0.30883592096E+03  0.00000000000E+00 0.  1.
        -11    1    3    3    0    0 -0.18521094026E+03  0.30805481425E+03 -0.17793912371E+03  0.40107753954E+03  0.00000000000E+00 0. -1.
          2    1    6    6  502    0  0.59149421099E+02 -0.68722953090E+03  0.64552625703E+03  0.94471542312E+03  0.00000000000E+00 0. -1.
          1    1    5    5  503    0  0.18873825516E+03  0.11804238373E+03  0.47854487851E+03  0.52778909999E+03  0.00000000000E+00 0. -1.
         -2    1    5    5    0  503  0.34607706826E+02  0.74382893332E+02  0.17315903271E+03  0.19161043500E+03  0.00000000000E+00 0.  1.
         -1    1    6    6    0  502  0.75284748127E+00 -0.28036634892E+02  0.80802407098E+01  0.29187496729E+02  0.00000000000E+00 0.  1.
<mgrwt>
<rscale>  0 0.22166942E+04</rscale>
<asrwt>0</asrwt>
<pdfrwt beam="1">  1        3 0.25626932E+00 0.22166942E+04</pdfrwt>
<pdfrwt beam="2">  1       -3 0.11345621E+00 0.22166942E+04</pdfrwt>
<totfact> 0.10491507E-01</totfact>
</mgrwt>
</event>
<event>
12    1  0.2019083E-007  0.2725486E+04  0.7818608E-02  0.8326783E-01
         -1   -1    0    0    0  501 -0.00000000000E+00  0.00000000000E+00  0.78590286287E+03  0.78590286287E+03  0.00000000000E+00 0.  1.
          1   -1    0    0  501    0  0.00000000000E+00 -0.00000000000E+00 -0.23629742466E+04  0.23629742466E+04  0.00000000000E+00 0. -1.
         23    2    1    2    0    0 -0.12125323155E+04 -0.68504878856E+02 -0.74117166786E+03  0.14256458581E+04  0.90571170591E+02 0.  0.
        254    2    1    2    0    0  0.12125323155E+04  0.68504878856E+02 -0.83589971582E+03  0.17232312513E+04  0.89211550597E+03 0.  0.
        -24    2    4    4    0    0  0.44975154145E+03  0.52383345946E+01 -0.83718539503E+03  0.95372199116E+03  0.80014758609E+02 0.  0.
         24    2    4    4    0    0  0.76278077406E+03  0.63266544261E+02  0.12856792030E+01  0.76950926014E+03  0.79408334441E+02 0.  0.
         11    1    3    3    0    0 -0.60879086666E+03 -0.58006026795E+02 -0.41819175150E+03  0.74086122823E+03  0.00000000000E+00 0.  1.
        -11    1    3    3    0    0 -0.60374144886E+03 -0.10498852061E+02 -0.32297991635E+03  0.68478462989E+03  0.00000000000E+00 0. -1.
          2    1    6    6  502    0  0.34282162077E+03  0.11523272785E+02 -0.35134760161E+02  0.34480994889E+03  0.00000000000E+00 0. -1.
          3    1    5    5  503    0  0.58999558885E+02 -0.20692934933E+02 -0.15481429347E+03  0.16696290297E+03  0.00000000000E+00 0. -1.
         -4    1    5    5    0  503  0.39075198257E+03  0.25931269528E+02 -0.68237110156E+03  0.78675908820E+03  0.00000000000E+00 0.  1.
         -1    1    6    6    0  502  0.41995915329E+03  0.51743271477E+02  0.36420439364E+02  0.42469931125E+03  0.00000000000E+00 0.  1.
<mgrwt>
<rscale>  0 0.27254858E+04</rscale>
<asrwt>0</asrwt>
<pdfrwt beam="1">  1        1 0.36353450E+00 0.27254858E+04</pdfrwt>
<pdfrwt beam="2">  1       -1 0.12090813E+00 0.27254858E+04</pdfrwt>
<totfact> 0.89172680E-01</totfact>
</mgrwt>
</event>
<event>
12    1  0.2019083E-007  0.1838205E+04  0.7818608E-02  0.8686242E-01
          1   -1    0    0  501    0  0.00000000000E+00  0.00000000000E+00  0.33162501656E+04  0.33162501656E+04  0.00000000000E+00 0.  1.
         -1   -1    0    0    0  501 -0.00000000000E+00 -0.00000000000E+00 -0.25473042901E+03  0.25473042901E+03  0.00000000000E+00 0. -1.
         23    2    1    2    0    0 -0.24976525450E+03  0.39929535298E+03  0.21599185108E+04  0.22124823800E+04  0.89503337030E+02 0.  0.
        254    2    1    2    0    0  0.24976525450E+03 -0.39929535298E+03  0.90160122579E+03  0.13584982146E+04  0.90045164636E+03 0.  0.
        -24    2    4    4    0    0  0.46984530068E+02 -0.40919537518E+03 -0.11858570634E+02  0.41942585033E+03  0.78288039265E+02 0.  0.
         24    2    4    4    0    0  0.20278072443E+03  0.99000222060E+01  0.91345979642E+03  0.93907236426E+03  0.78930811435E+02 0.  0.
         11    1    3    3    0    0 -0.19999574963E+03  0.25326959236E+03  0.15613977312E+04  0.15943985265E+04  0.00000000000E+00 0.  1.
        -11    1    3    3    0    0 -0.49769504875E+02  0.14602576062E+03  0.59852077958E+03  0.61808385351E+03  0.00000000000E+00 0. -1.
          4    1    6    6  502    0  0.12521497007E+03  0.24104313186E+02  0.69985944373E+03  0.71138108466E+03  0.00000000000E+00 0. -1.
          3    1    5    5  503    0  0.28652494635E+02 -0.24725365748E+03  0.31204224837E+02  0.25085661290E+03  0.00000000000E+00 0. -1.
         -4    1    5    5    0  503  0.18332035433E+02 -0.16194171770E+03 -0.43062795471E+02  0.16856923743E+03  0.00000000000E+00 0.  1.
         -3    1    6    6    0  502  0.77565754361E+02 -0.14204290980E+02  0.21360035269E+03  0.22769127959E+03  0.00000000000E+00 0.  1.
<mgrwt>
<rscale>  0 0.18382055E+04</rscale>
<asrwt>0</asrwt>
<pdfrwt beam="1">  1        1 0.51019230E+00 0.18382055E+04</pdfrwt>
<pdfrwt beam="2">  1       -1 0.39189299E-01 0.18382055E+04</pdfrwt>
<totfact> 0.20739432E+00</totfact>
</mgrwt>
</event>
<event>
12    1  0.2019083E-007  0.2448038E+04  0.7818608E-02  0.8421735E-01
          1   -1    0    0  501    0  0.00000000000E+00  0.00000000000E+00  0.18812021093E+04  0.18812021093E+04  0.00000000000E+00 0. -1.
         -1   -1    0    0    0  501 -0.00000000000E+00 -0.00000000000E+00 -0.79641733409E+03  0.79641733409E+03  0.00000000000E+00 0.  1.
         23    2    1    2    0    0  0.55705036141E+03 -0.68756371221E+03  0.11057237217E+04  0.14189574129E+04  0.88126201419E+02 0.  0.
        254    2    1    2    0    0 -0.55705036141E+03  0.68756371221E+03 -0.20938946567E+02  0.12586620304E+04  0.89484227876E+03 0.  0.
        -24    2    4    4    0    0 -0.78376092654E+03  0.40383240755E+03 -0.42032024359E+02  0.88629299037E+03  0.79917271942E+02 0.  0.
         24    2    4    4    0    0  0.22671056513E+03  0.28373130466E+03  0.21093077792E+02  0.37236904005E+03  0.79452189865E+02 0.  0.
         11    1    3    3    0    0  0.26820766021E+03 -0.31247310854E+03  0.44711454012E+03  0.60785376905E+03  0.00000000000E+00 0.  1.
        -11    1    3    3    0    0  0.28884270120E+03 -0.37509060367E+03  0.65860918161E+03  0.81110364387E+03  0.00000000000E+00 0. -1.
          4    1    6    6  502    0  0.15044937825E+03  0.16490868911E+03  0.48771093415E+02  0.22849181761E+03  0.00000000000E+00 0. -1.
          3    1    5    5  503    0 -0.73032533490E+03  0.36423234069E+03 -0.20448992498E+02  0.81636906733E+03  0.00000000000E+00 0. -1.
         -4    1    5    5    0  503 -0.53435591642E+02  0.39600066866E+02 -0.21583031860E+02  0.69923923047E+02  0.00000000000E+00 0.  1.
         -3    1    6    6    0  502  0.76261186876E+02  0.11882261555E+03 -0.27678015623E+02  0.14387722245E+03  0.00000000000E+00 0.  1.
<mgrwt>
<rscale>  0 0.24480376E+04</rscale>
<asrwt>0</asrwt>
<pdfrwt beam="1">  1        1 0.28941571E+00 0.24480376E+04</pdfrwt>
<pdfrwt beam="2">  1       -1 0.12252574E+00 0.24480376E+04</pdfrwt>
<totfact> 0.18828713E+00</totfact>
</mgrwt>
</event>
<event>
12    1  0.2019083E-007  0.1893456E+04  0.7818608E-02  0.8658121E-01
          2   -1    0    0  501    0  0.00000000000E+00  0.00000000000E+00  0.33307127191E+04  0.33307127191E+04  0.00000000000E+00 0.  1.
         -2   -1    0    0    0  501 -0.00000000000E+00 -0.00000000000E+00 -0.26909964849E+03  0.26909964849E+03  0.00000000000E+00 0. -1.
         23    2    1    2    0    0 -0.59806755988E+03  0.41275058598E+03  0.13008304079E+04  0.14927489776E+04  0.89955030517E+02 0.  0.
        254    2    1    2    0    0  0.59806755988E+03 -0.41275058598E+03  0.17607826627E+04  0.21070633900E+04  0.90072897805E+03 0.  0.
        -24    2    4    4    0    0  0.65388807885E+03 -0.45368681574E+03  0.18184588806E+04  0.19866015394E+04  0.79947667711E+02 0.  0.
         24    2    4    4    0    0 -0.55820518973E+02  0.40936229759E+02 -0.57676217873E+02  0.12046185062E+03  0.79955025495E+02 0.  0.
         13    1    3    3    0    0 -0.13162005956E+03  0.90783885166E+02  0.36795816218E+03  0.40119666375E+03  0.00000000000E+00 0.  1.
        -13    1    3    3    0    0 -0.46644750032E+03  0.32196670081E+03  0.93287224576E+03  0.10915523139E+04  0.00000000000E+00 0. -1.
          4    1    6    6  502    0 -0.23172106910E+02 -0.23822062706E+02 -0.17883239386E+02  0.37739203239E+02  0.00000000000E+00 0. -1.
          3    1    5    5  503    0  0.69634552855E+02 -0.25543886671E+02  0.13764426290E+03  0.15635665706E+03  0.00000000000E+00 0. -1.
         -4    1    5    5    0  503  0.58425352599E+03 -0.42814292907E+03  0.16808146177E+04  0.18302448823E+04  0.00000000000E+00 0.  1.
         -3    1    6    6    0  502 -0.32648412063E+02  0.64758292465E+02 -0.39792978487E+02  0.82722647383E+02  0.00000000000E+00 0.  1.
<mgrwt>
<rscale>  0 0.18934557E+04</rscale>
<asrwt>0</asrwt>
<pdfrwt beam="1">  1        2 0.51241731E+00 0.18934557E+04</pdfrwt>
<pdfrwt beam="2">  1       -2 0.41399948E-01 0.18934557E+04</pdfrwt>
<totfact> 0.55321978E+00</totfact>
</mgrwt>
</event>
<event>
12    1  0.2019083E-007  0.2554527E+04  0.7818608E-02  0.8383814E-01
          1   -1    0    0  501    0  0.00000000000E+00  0.00000000000E+00  0.21780486206E+04  0.21780486206E+04  0.00000000000E+00 0. -1.
         -1   -1    0    0    0  501 -0.00000000000E+00 -0.00000000000E+00 -0.74901975968E+03  0.74901975968E+03  0.00000000000E+00 0.  1.
         23    2    1    2    0    0 -0.58152701139E+03  0.90969152939E+03  0.30094106779E+03  0.11247089816E+04  0.93233166793E+02 0.  0.
        254    2    1    2    0    0  0.58152701139E+03 -0.90969152939E+03  0.11280877931E+04  0.18023593987E+04  0.90011387576E+03 0.  0.
        -24    2    4    4    0    0 -0.11985577378E+03 -0.21465171686E+02 -0.60652087629E+02  0.15906409004E+03  0.82441184511E+02 0.  0.
         24    2    4    4    0    0  0.70138278517E+03 -0.88822635771E+03  0.11887398807E+04  0.16432953086E+04  0.80206567063E+02 0.  0.
         11    1    3    3    0    0 -0.55974410625E+03  0.83642384871E+03  0.26824678577E+03  0.10415731646E+04  0.00000000000E+00 0.  1.
        -11    1    3    3    0    0 -0.21782905135E+02  0.73267680687E+02  0.32694282019E+02  0.83135816987E+02  0.00000000000E+00 0. -1.
          4    1    6    6  502    0  0.18423748608E+02 -0.22585878611E+02  0.14632529387E+02  0.32613913314E+02  0.00000000000E+00 0. -1.
          1    1    5    5  503    0  0.10206611769E+02 -0.11265446558E+02 -0.20528096941E-01  0.15201500957E+02  0.00000000000E+00 0. -1.
         -2    1    5    5    0  503 -0.13006238555E+03 -0.10199725128E+02 -0.60631559532E+02  0.14386258908E+03  0.00000000000E+00 0.  1.
         -3    1    6    6    0  502  0.68295903656E+03 -0.86564047910E+03  0.11741073514E+04  0.16106813953E+04  0.00000000000E+00 0.  1.
<mgrwt>
<rscale>  0 0.25545265E+04</rscale>
<asrwt>0</asrwt>
<pdfrwt beam="1">  1        1 0.33508440E+00 0.25545265E+04</pdfrwt>
<pdfrwt beam="2">  1       -1 0.11523381E+00 0.25545265E+04</pdfrwt>
<totfact> 0.13615765E+00</totfact>
</mgrwt>
</event>
<event>
12    1  0.2019083E-007  0.2039930E+04  0.7818608E-02  0.8588177E-01
         -4   -1    0    0    0  501 -0.00000000000E+00  0.00000000000E+00  0.13235172159E+04  0.13235172159E+04  0.00000000000E+00 0.  1.
          4   -1    0    0  501    0  0.00000000000E+00 -0.00000000000E+00 -0.78603298095E+03  0.78603298095E+03  0.00000000000E+00 0. -1.
         23    2    1    2    0    0 -0.17945339916E+03  0.73867164839E+03  0.53040289978E+03  0.93200561651E+03  0.97303167969E+02 0.  0.
        254    2    1    2    0    0  0.17945339916E+03 -0.73867164839E+03  0.70813351573E+01  0.11775445803E+04  0.89928959003E+03 0.  0.
        -24    2    4    4    0    0 -0.13654151253E+03 -0.82035343861E+03 -0.44960287826E+02  0.83668926263E+03  0.80025907238E+02 0.  0.
         24    2    4    4    0    0  0.31599491168E+03  0.81681790219E+02  0.52041622983E+02  0.34085531770E+03  0.83362569643E+02 0.  0.
         13    1    3    3    0    0 -0.22599622648E+02  0.14496821006E+03  0.14907915826E+03  0.20916768465E+03  0.00000000000E+00 0.  1.
        -13    1    3    3    0    0 -0.15685377651E+03  0.59370343833E+03  0.38132374152E+03  0.72283793186E+03  0.00000000000E+00 0. -1.
          4    1    6    6  502    0  0.12192197008E+03  0.41173458772E+02  0.60969160870E+02  0.14239894337E+03  0.00000000000E+00 0. -1.
          3    1    5    5  503    0  0.10848379705E+02 -0.59417370015E+02 -0.28024246711E+01  0.60464574635E+02  0.00000000000E+00 0. -1.
         -4    1    5    5    0  503 -0.14738989223E+03 -0.76093606860E+03 -0.42157863155E+02  0.77622468799E+03  0.00000000000E+00 0.  1.
         -3    1    6    6    0  502  0.19407294160E+03  0.40508331447E+02 -0.89275378871E+01  0.19845637433E+03  0.00000000000E+00 0.  1.
<mgrwt>
<rscale>  0 0.20399296E+04</rscale>
<asrwt>0</asrwt>
<pdfrwt beam="1">  1        4 0.12092815E+00 0.20399296E+04</pdfrwt>
<pdfrwt beam="2">  1       -4 0.20361803E+00 0.20399296E+04</pdfrwt>
<totfact> 0.11978402E-01</totfact>
</mgrwt>
</event>
<event>
12    1  0.2019083E-007  0.1518018E+04  0.7818608E-02  0.8872558E-01
         -2   -1    0    0    0  501 -0.00000000000E+00  0.00000000000E+00  0.33947897223E+03  0.33947897223E+03  0.00000000000E+00 0. -1.
          2   -1    0    0  501    0  0.00000000000E+00 -0.00000000000E+00 -0.16969976771E+04  0.16969976771E+04  0.00000000000E+00 0.  1.
         23    2    1    2    0    0 -0.66128837779E+02  0.45765676557E+03 -0.23802042542E+03  0.52696828852E+03  0.84965380772E+02 0.  0.
        254    2    1    2    0    0  0.66128837779E+02 -0.45765676557E+03 -0.11194982794E+04  0.15095083608E+04  0.90084202577E+03 0.  0.
        -24    2    4    4    0    0  0.17829193993E+03 -0.69180046939E+03 -0.66012098171E+03  0.97586925507E+03  0.78645961055E+02 0.  0.
         24    2    4    4    0    0 -0.11216310215E+03  0.23414370382E+03 -0.45937729769E+03  0.53363910571E+03  0.79620085278E+02 0.  0.
         11    1    3    3    0    0  0.12755015822E+02  0.12709943563E+02 -0.12610839759E+02  0.21983320346E+02  0.00000000000E+00 0.  1.
        -11    1    3    3    0    0 -0.78883853602E+02  0.44494682201E+03 -0.22540958566E+03  0.50498496817E+03  0.00000000000E+00 0. -1.
          2    1    6    6  502    0 -0.10094117082E+03  0.20004833890E+03 -0.43766094744E+03  0.49168644762E+03  0.00000000000E+00 0. -1.
          1    1    5    5  503    0  0.13114496675E+03 -0.56507129736E+03 -0.49606782644E+03  0.76327443416E+03  0.00000000000E+00 0. -1.
         -2    1    5    5    0  503  0.47146973179E+02 -0.12672917203E+03 -0.16405315527E+03  0.21259482091E+03  0.00000000000E+00 0.  1.
         -1    1    6    6    0  502 -0.11221931329E+02  0.34095364920E+02 -0.21716350254E+02  0.41952658082E+02  0.00000000000E+00 0.  1.
<mgrwt>
<rscale>  0 0.15180185E+04</rscale>
<asrwt>0</asrwt>
<pdfrwt beam="1">  1        2 0.26107656E+00 0.15180185E+04</pdfrwt>
<pdfrwt beam="2">  1       -2 0.52227535E-01 0.15180185E+04</pdfrwt>
<totfact> 0.32867343E+01</totfact>
</mgrwt>
</event>
<event>
12    1  0.2019083E-007  0.1856771E+04  0.7818608E-02  0.8676679E-01
         -3   -1    0    0    0  501 -0.00000000000E+00  0.00000000000E+00  0.65508153453E+03  0.65508153453E+03  0.00000000000E+00 0.  1.
          3   -1    0    0  501    0  0.00000000000E+00 -0.00000000000E+00 -0.13157130196E+04  0.13157130196E+04  0.00000000000E+00 0. -1.
         23    2    1    2    0    0  0.37023102546E+02  0.50104326504E+02 -0.10000188083E+04  0.10063878870E+04  0.94328196310E+02 0.  0.
        254    2    1    2    0    0 -0.37023102546E+02 -0.50104326504E+02  0.33938732322E+03  0.96440666707E+03  0.90056388484E+03 0.  0.
        -24    2    4    4    0    0  0.19952776003E+02 -0.94196882920E+02 -0.29535073092E+03  0.32073573570E+03  0.79800951611E+02 0.  0.
         24    2    4    4    0    0 -0.56975878549E+02  0.44092556416E+02  0.63473805414E+03  0.64367093137E+03  0.78926967842E+02 0.  0.
         11    1    3    3    0    0 -0.17515423270E+02  0.47160990172E+02 -0.29521218914E+03  0.29946817137E+03  0.00000000000E+00 0.  1.
        -11    1    3    3    0    0  0.54538525816E+02  0.29433363320E+01 -0.70480661912E+03  0.70691971566E+03  0.00000000000E+00 0. -1.
          4    1    6    6  502    0 -0.23932138910E+02  0.54368592968E+02  0.23328771059E+03  0.24073189877E+03  0.00000000000E+00 0. -1.
          1    1    5    5  503    0 -0.11220472079E+02 -0.64882305594E+02 -0.93248185537E+02  0.11415269019E+03  0.00000000000E+00 0. -1.
         -2    1    5    5    0  503  0.31173248082E+02 -0.29314577326E+02 -0.20210254538E+03  0.20658304550E+03  0.00000000000E+00 0.  1.
         -3    1    6    6    0  502 -0.33043739639E+02 -0.10276036551E+02  0.40145034355E+03  0.40293903260E+03  0.00000000000E+00 0.  1.
<mgrwt>
<rscale>  0 0.18567706E+04</rscale>
<asrwt>0</asrwt>
<pdfrwt beam="1">  1        3 0.20241739E+00 0.18567706E+04</pdfrwt>
<pdfrwt beam="2">  1       -3 0.10078178E+00 0.18567706E+04</pdfrwt>
<totfact> 0.29995270E-01</totfact>
</mgrwt>
</event>
<event>
12    1  0.2019083E-007  0.1412589E+04  0.7818608E-02  0.8944756E-01
          2   -1    0    0  501    0  0.00000000000E+00  0.00000000000E+00  0.14102561241E+04  0.14102561241E+04  0.00000000000E+00 0. -1.
         -2   -1    0    0    0  501 -0.00000000000E+00 -0.00000000000E+00 -0.35373167909E+03  0.35373167909E+03  0.00000000000E+00 0.  1.
         23    2    1    2    0    0 -0.23774032862E+03  0.10741007031E+03 -0.80080585037E+02  0.28794696550E+03  0.91886711695E+02 0.  0.
        254    2    1    2    0    0  0.23774032862E+03 -0.10741007031E+03  0.11366050301E+04  0.14760408377E+04  0.90485809560E+03 0.  0.
        -24    2    4    4    0    0  0.42434442315E+03  0.14472439893E+03  0.22514484395E+03  0.50877099818E+03  0.84524474103E+02 0.  0.
         24    2    4    4    0    0 -0.18660409454E+03 -0.25213446924E+03  0.91146018611E+03  0.96726983953E+03  0.80364127142E+02 0.  0.
         13    1    3    3    0    0 -0.15933823627E+03  0.11681304860E+03 -0.59759176899E+02  0.20641007990E+03  0.00000000000E+00 0.  1.
        -13    1    3    3    0    0 -0.78402092344E+02 -0.94029782875E+01 -0.20321408138E+02  0.81536885600E+02  0.00000000000E+00 0. -1.
          2    1    6    6  502    0 -0.77438200178E+02 -0.94567910469E+02  0.47681755058E+03  0.49223443712E+03  0.00000000000E+00 0. -1.
          3    1    5    5  503    0  0.41261039430E+03  0.13400449661E+03  0.19702353466E+03  0.47646911317E+03  0.00000000000E+00 0. -1.
         -4    1    5    5    0  503  0.11734028858E+02  0.10719902320E+02  0.28121309292E+02  0.32301885012E+02  0.00000000000E+00 0.  1.
         -1    1    6    6    0  502 -0.10916589436E+03 -0.15756655877E+03  0.43464263553E+03  0.47503540242E+03  0.00000000000E+00 0.  1.
<mgrwt>
<rscale>  0 0.14125895E+04</rscale>
<asrwt>0</asrwt>
<pdfrwt beam="1">  1        2 0.21696248E+00 0.14125895E+04</pdfrwt>
<pdfrwt beam="2">  1       -2 0.54420259E-01 0.14125895E+04</pdfrwt>
<totfact> 0.44114585E+01</totfact>
</mgrwt>
</event>
<event>
12    1  0.2019083E-007  0.2836488E+04  0.7818608E-02  0.8292029E-01
         -2   -1    0    0    0  501 -0.00000000000E+00  0.00000000000E+00  0.18224925414E+04  0.18224925414E+04  0.00000000000E+00 0.  1.
          2   -1    0    0  501    0  0.00000000000E+00 -0.00000000000E+00 -0.11036622541E+04  0.11036622541E+04  0.00000000000E+00 0. -1.
         23    2    1    2    0    0  0.10880343166E+04 -0.54884401984E+03 -0.58962462574E+02  0.12232567230E+04  0.88498621746E+02 0.  0.
        254    2    1    2    0    0 -0.10880343166E+04  0.54884401984E+03  0.77779274990E+03  0.17028980726E+04  0.89991769149E+03 0.  0.
        -24    2    4    4    0    0 -0.10818496961E+04  0.68220083637E+03  0.48249115211E+03  0.13693298598E+04  0.80435109631E+02 0.  0.
         24    2    4    4    0    0 -0.61846204928E+01 -0.13335681653E+03  0.29530159778E+03  0.33356821278E+03  0.79009043008E+02 0.  0.
         11    1    3    3    0    0  0.30942126410E+03 -0.14700929676E+03  0.22379245717E+02  0.34329882413E+03  0.00000000000E+00 0. -1.
        -11    1    3    3    0    0  0.77861305252E+03 -0.40183472309E+03 -0.81341708290E+02  0.87995789884E+03  0.00000000000E+00 0.  1.
          4    1    6    6  502    0  0.24573493234E+02 -0.10227290569E+03  0.24671131976E+03  0.26819783576E+03  0.00000000000E+00 0. -1.
          3    1    5    5  503    0 -0.92198242825E+03  0.54752291197E+03  0.41201822267E+03  0.11487349359E+04  0.00000000000E+00 0. -1.
         -4    1    5    5    0  503 -0.15986726788E+03  0.13467792440E+03  0.70472929442E+02  0.22059492389E+03  0.00000000000E+00 0.  1.
         -3    1    6    6    0  502 -0.30758113727E+02 -0.31083910840E+02  0.48590278018E+02  0.65370377015E+02  0.00000000000E+00 0.  1.
<mgrwt>
<rscale>  0 0.28364881E+04</rscale>
<asrwt>0</asrwt>
<pdfrwt beam="1">  1        2 0.16979419E+00 0.28364881E+04</pdfrwt>
<pdfrwt beam="2">  1       -2 0.28038347E+00 0.28364881E+04</pdfrwt>
<totfact> 0.78755113E-01</totfact>
</mgrwt>
</event>
<event>
12    1  0.2019083E-007  0.5349271E+04  0.7818608E-02  0.7776777E-01
          2   -1    0    0  501    0  0.00000000000E+00  0.00000000000E+00  0.31424050336E+04  0.31424050336E+04  0.00000000000E+00 0. -1.
         -2   -1    0    0    0  501 -0.00000000000E+00 -0.00000000000E+00 -0.22764965106E+04  0.22764965106E+04  0.00000000000E+00 0.  1.
         23    2    1    2    0    0  0.17216360363E+04 -0.49012842683E+03 -0.14866338558E+04  0.23287022840E+04  0.92290790078E+02 0.  0.
        254    2    1    2    0    0 -0.17216360363E+04  0.49012842683E+03  0.23525423787E+04  0.30901992603E+04  0.90034399432E+03 0.  0.
        -24    2    4    4    0    0 -0.13361687835E+04  0.39444916691E+03  0.22870676969E+04  0.26793938742E+04  0.86808523354E+02 0.  0.
         24    2    4    4    0    0 -0.38546725284E+03  0.95679259923E+02  0.65474681825E+02  0.41080538606E+03  0.82064654164E+02 0.  0.
         13    1    3    3    0    0  0.14582956870E+04 -0.43647109552E+03 -0.12962535663E+04  0.19993515539E+04  0.00000000000E+00 0.  1.
        -13    1    3    3    0    0  0.26334034931E+03 -0.53657331316E+02 -0.19038028949E+03  0.32935073008E+03  0.00000000000E+00 0. -1.
          2    1    6    6  502    0 -0.38819532756E+03  0.90265815342E+02  0.60827062974E+02  0.40316679098E+03  0.00000000000E+00 0. -1.
          1    1    5    5  503    0 -0.12094554263E+04  0.36176949475E+03  0.21167793227E+04  0.24646326900E+04  0.00000000000E+00 0. -1.
         -2    1    5    5    0  503 -0.12671335717E+03  0.32679672158E+02  0.17028837414E+03  0.21476118416E+03  0.00000000000E+00 0.  1.
         -1    1    6    6    0  502  0.27280747141E+01  0.54134445814E+01  0.46476188507E+01  0.76385950844E+01  0.00000000000E+00 0.  1.
<mgrwt>
<rscale>  0 0.53492706E+04</rscale>
<asrwt>0</asrwt>
<pdfrwt beam="1">  1        2 0.48344693E+00 0.53492706E+04</pdfrwt>
<pdfrwt beam="2">  1       -2 0.35023023E+00 0.53492706E+04</pdfrwt>
<totfact> 0.15509825E-02</totfact>
</mgrwt>
</event>
<event>
12    1  0.2019083E-007  0.2731023E+04  0.7818608E-02  0.8325009E-01
         -2   -1    0    0    0  501 -0.00000000000E+00  0.00000000000E+00  0.13067069507E+04  0.13067069507E+04  0.00000000000E+00 0.  1.
          2   -1    0    0  501    0  0.00000000000E+00 -0.00000000000E+00 -0.14269627458E+04  0.14269627458E+04  0.00000000000E+00 0. -1.
         23    2    1    2    0    0 -0.12144212245E+04  0.55703262093E+02 -0.72013453700E+02  0.12212814061E+04  0.91763672293E+02 0.  0.
        254    2    1    2    0    0  0.12144212245E+04 -0.55703262093E+02 -0.48242341426E+02  0.15123882904E+04  0.89837033215E+03 0.  0.
        -24    2    4    4    0    0  0.68901049661E+03 -0.22707909689E+03  0.36663580804E+03  0.81679252172E+03  0.80173730787E+02 0.  0.
         24    2    4    4    0    0  0.52541072786E+03  0.17137583480E+03 -0.41487814947E+03  0.69559576872E+03  0.79394488808E+02 0.  0.
         11    1    3    3    0    0 -0.30660695275E+03 -0.20915284008E+02 -0.37344807856E+02  0.30958021134E+03  0.00000000000E+00 0.  1.
        -11    1    3    3    0    0 -0.90781427172E+03  0.76618546101E+02 -0.34668645844E+02  0.91170119477E+03  0.00000000000E+00 0. -1.
          4    1    6    6  502    0  0.61539591853E+02  0.28388741868E+02 -0.84971356412E+02  0.10868842367E+03  0.00000000000E+00 0. -1.
          1    1    5    5  503    0  0.92236178555E+02 -0.55216498264E+02  0.72243454767E+02  0.12952023422E+03  0.00000000000E+00 0. -1.
         -2    1    5    5    0  503  0.59677431805E+03 -0.17186259863E+03  0.29439235327E+03  0.68727228750E+03  0.00000000000E+00 0.  1.
         -3    1    6    6    0  502  0.46387113601E+03  0.14298709293E+03 -0.32990679305E+03  0.58690734504E+03  0.00000000000E+00 0.  1.
<mgrwt>
<rscale>  0 0.27310234E+04</rscale>
<asrwt>0</asrwt>
<pdfrwt beam="1">  1        2 0.21953273E+00 0.27310234E+04</pdfrwt>
<pdfrwt beam="2">  1       -2 0.20103184E+00 0.27310234E+04</pdfrwt>
<totfact> 0.16004109E+00</totfact>
</mgrwt>
</event>
<event>
12    1  0.2019083E-007  0.1611930E+04  0.7818608E-02  0.8813252E-01
          2   -1    0    0  501    0  0.00000000000E+00  0.00000000000E+00  0.28251730817E+04  0.28251730817E+04  0.00000000000E+00 0. -1.
         -2   -1    0    0    0  501 -0.00000000000E+00 -0.00000000000E+00 -0.22992571860E+03  0.22992571860E+03  0.00000000000E+00 0.  1.
         23    2    1    2    0    0  0.39687787958E+03  0.10258408309E+03  0.20264714437E+03  0.46592803933E+03  0.89372967437E+02 0.  0.
        254    2    1    2    0    0 -0.39687787958E+03 -0.10258408309E+03  0.23926002188E+04  0.25891707610E+04  0.90068522660E+03 0.  0.
        -24    2    4    4    0    0 -0.22547426691E+03  0.27070032403E+03  0.19374065389E+04  0.19708152238E+04  0.80319605621E+02 0.  0.
         24    2    4    4    0    0 -0.17140361266E+03 -0.37328440712E+03  0.45519367987E+03  0.61835553718E+03  0.80261056137E+02 0.  0.
         11    1    3    3    0    0  0.22832693394E+03  0.14068580580E+02  0.12085484159E+03  0.25872187085E+03  0.00000000000E+00 0.  1.
        -11    1    3    3    0    0  0.16855094564E+03  0.88515502508E+02  0.81792302783E+02  0.20720616848E+03  0.00000000000E+00 0. -1.
          4    1    6    6  502    0 -0.11440908999E+03 -0.24870797030E+03  0.35662663754E+03  0.44958609071E+03  0.00000000000E+00 0. -1.
          3    1    5    5  503    0 -0.12376873724E+01 -0.41625289264E+01  0.62251138817E+02  0.62402426244E+02  0.00000000000E+00 0. -1.
         -4    1    5    5    0  503 -0.22423657954E+03  0.27486285296E+03  0.18751554001E+04  0.19084127976E+04  0.00000000000E+00 0.  1.
         -3    1    6    6    0  502 -0.56994522672E+02 -0.12457643682E+03  0.98567042338E+02  0.16876944647E+03  0.00000000000E+00 0.  1.
<mgrwt>
<rscale>  0 0.16119305E+04</rscale>
<asrwt>0</asrwt>
<pdfrwt beam="1">  1        2 0.43464199E+00 0.16119305E+04</pdfrwt>
<pdfrwt beam="2">  1       -2 0.35373189E-01 0.16119305E+04</pdfrwt>
<totfact> 0.16124682E+01</totfact>
</mgrwt>
</event>
<event>
12    1  0.2019083E-007  0.1637455E+04  0.7818608E-02  0.8797863E-01
         -2   -1    0    0    0  501 -0.00000000000E+00  0.00000000000E+00  0.43494124295E+03  0.43494124295E+03  0.00000000000E+00 0.  1.
          2   -1    0    0  501    0  0.00000000000E+00 -0.00000000000E+00 -0.15411612207E+04  0.15411612207E+04  0.00000000000E+00 0. -1.
         23    2    1    2    0    0  0.12653629850E+03  0.23585175445E+03 -0.97655569742E+03  0.10165805061E+04  0.90207596121E+02 0.  0.
        254    2    1    2    0    0 -0.12653629850E+03 -0.23585175445E+03 -0.12966428031E+03  0.95952195748E+03  0.91226754649E+03 0.  0.
        -24    2    4    4    0    0  0.38664378740E+03 -0.40412482182E+02 -0.65710244411E+02  0.40195792465E+03  0.78267170101E+02 0.  0.
         24    2    4    4    0    0 -0.51318008590E+03 -0.19543927226E+03 -0.63954035895E+02  0.55756403283E+03  0.72368655443E+02 0.  0.
         13    1    3    3    0    0  0.85716693942E+02  0.21487409216E+03 -0.87625182910E+03  0.90627561763E+03  0.00000000000E+00 0. -1.
        -13    1    3    3    0    0  0.40819604559E+02  0.20977662283E+02 -0.10030386832E+03  0.11030488852E+03  0.00000000000E+00 0.  1.
          2    1    6    6  502    0 -0.24233970178E+03 -0.12799927638E+03 -0.17603180786E+02  0.27463105758E+03  0.00000000000E+00 0. -1.
          3    1    5    5  503    0  0.25294109039E+03 -0.95807797797E+01 -0.76207184312E+02  0.26434545861E+03  0.00000000000E+00 0. -1.
         -4    1    5    5    0  503  0.13370269701E+03 -0.30831702402E+02  0.10496939900E+02  0.13761246604E+03  0.00000000000E+00 0.  1.
         -1    1    6    6    0  502 -0.27084038412E+03 -0.67439995883E+02 -0.46350855109E+02  0.28293297526E+03  0.00000000000E+00 0.  1.
<mgrwt>
<rscale>  0 0.16374548E+04</rscale>
<asrwt>0</asrwt>
<pdfrwt beam="1">  1        2 0.23710173E+00 0.16374548E+04</pdfrwt>
<pdfrwt beam="2">  1       -2 0.66914036E-01 0.16374548E+04</pdfrwt>
<totfact> 0.23591059E+01</totfact>
</mgrwt>
</event>
<event>
12    1  0.2019083E-007  0.2981240E+04  0.7818608E-02  0.8249108E-01
          2   -1    0    0  501    0  0.00000000000E+00  0.00000000000E+00  0.19642309413E+04  0.19642309413E+04  0.00000000000E+00 0. -1.
         -2   -1    0    0    0  501 -0.00000000000E+00 -0.00000000000E+00 -0.11312053471E+04  0.11312053471E+04  0.00000000000E+00 0.  1.
         23    2    1    2    0    0  0.26359022495E+02  0.11715002345E+04 -0.31949638587E+03  0.12207911777E+04  0.12306730466E+03 0.  0.
        254    2    1    2    0    0 -0.26359022495E+02 -0.11715002345E+04  0.11525219801E+04  0.18746451107E+04  0.90159845772E+03 0.  0.
        -24    2    4    4    0    0  0.30460693814E+03 -0.61738715307E+03  0.98341954729E+03  0.12030826754E+04  0.79634379128E+02 0.  0.
         24    2    4    4    0    0 -0.33096596063E+03 -0.55411308147E+03  0.16910243279E+03  0.67156243530E+03  0.76293496329E+02 0.  0.
         11    1    3    3    0    0  0.27885331855E+02  0.27382499302E+03 -0.26526135163E+02  0.27651646313E+03  0.00000000000E+00 0. -1.
        -11    1    3    3    0    0 -0.15263093606E+01  0.89767524152E+03 -0.29297025071E+03  0.94427471462E+03  0.00000000000E+00 0.  1.
          2    1    6    6  502    0 -0.18741560404E+03 -0.27027307134E+03  0.53985009072E+02  0.33329644903E+03  0.00000000000E+00 0. -1.
          3    1    5    5  503    0  0.75061520865E+02 -0.22071877297E+03  0.29366909402E+03  0.37495672476E+03  0.00000000000E+00 0. -1.
         -4    1    5    5    0  503  0.22954541727E+03 -0.39666838010E+03  0.68975045327E+03  0.82812595066E+03  0.00000000000E+00 0.  1.
         -1    1    6    6    0  502 -0.14355035659E+03 -0.28384001013E+03  0.11511742372E+03  0.33826598627E+03  0.00000000000E+00 0.  1.
<mgrwt>
<rscale>  0 0.29812404E+04</rscale>
<asrwt>0</asrwt>
<pdfrwt beam="1">  1        2 0.30218938E+00 0.29812404E+04</pdfrwt>
<pdfrwt beam="2">  1       -2 0.17403159E+00 0.29812404E+04</pdfrwt>
<totfact> 0.11969506E+00</totfact>
</mgrwt>
</event>
<event>
12    1  0.2019083E-007  0.1748331E+04  0.7818608E-02  0.8734270E-01
          2   -1    0    0  501    0  0.00000000000E+00  0.00000000000E+00  0.10679585876E+04  0.10679585876E+04  0.00000000000E+00 0. -1.
         -2   -1    0    0    0  501 -0.00000000000E+00 -0.00000000000E+00 -0.71553817548E+03  0.71553817548E+03  0.00000000000E+00 0.  1.
         23    2    1    2    0    0 -0.31121084405E+03  0.55534636558E+03  0.84852329536E+02  0.64871243765E+03  0.91466571578E+02 0.  0.
        254    2    1    2    0    0  0.31121084405E+03 -0.55534636558E+03  0.26756808261E+03  0.11347843255E+04  0.90048931769E+03 0.  0.
        -24    2    4    4    0    0 -0.16427260048E+03 -0.59169925402E+03  0.15857220230E+03  0.63948078294E+03  0.81835407559E+02 0.  0.
         24    2    4    4    0    0  0.47548344453E+03  0.36352888443E+02  0.10899588031E+03  0.49530354252E+03  0.77713954950E+02 0.  0.
         13    1    3    3    0    0 -0.94590005838E+02  0.22392965542E+03  0.68012363654E+02  0.25242313957E+03  0.00000000000E+00 0. -1.
        -13    1    3    3    0    0 -0.21662083821E+03  0.33141671016E+03  0.16839965881E+02  0.39628929808E+03  0.00000000000E+00 0.  1.
          2    1    6    6  502    0  0.28215172225E+03  0.59161724699E+02  0.72075812265E+02  0.29716094419E+03  0.00000000000E+00 0. -1.
          1    1    5    5  503    0  0.38895353539E+01 -0.45330819930E+02 -0.24832788413E+01  0.45565100621E+02  0.00000000000E+00 0. -1.
         -2    1    5    5    0  503 -0.16816213584E+03 -0.54636843409E+03  0.16105548114E+03  0.59391568232E+03  0.00000000000E+00 0.  1.
         -1    1    6    6    0  502  0.19333172228E+03 -0.22808836255E+02  0.36920068043E+02  0.19814259833E+03  0.00000000000E+00 0.  1.
<mgrwt>
<rscale>  0 0.17483308E+04</rscale>
<asrwt>0</asrwt>
<pdfrwt beam="1">  1        2 0.16430132E+00 0.17483308E+04</pdfrwt>
<pdfrwt beam="2">  1       -2 0.11008280E+00 0.17483308E+04</pdfrwt>
<totfact> 0.14181871E+01</totfact>
</mgrwt>
</event>
<event>
12    1  0.2019083E-007  0.1734075E+04  0.7818608E-02  0.8742166E-01
         -2   -1    0    0    0  501 -0.00000000000E+00  0.00000000000E+00  0.90260117397E+03  0.90260117397E+03  0.00000000000E+00 0.  1.
          2   -1    0    0  501    0  0.00000000000E+00 -0.00000000000E+00 -0.83287464677E+03  0.83287464677E+03  0.00000000000E+00 0. -1.
         23    2    1    2    0    0  0.93311835425E+02 -0.58085399484E+03  0.21926040615E+03  0.63551786103E+03  0.98536105188E+02 0.  0.
        254    2    1    2    0    0 -0.93311835425E+02  0.58085399484E+03 -0.14953387895E+03  0.10999579597E+04  0.91730511294E+03 0.  0.
        -24    2    4    4    0    0 -0.49484235427E+03  0.38759311174E+03 -0.43143094370E+02  0.63491655692E+03  0.78487781279E+02 0.  0.
         24    2    4    4    0    0  0.40153051885E+03  0.19326088310E+03 -0.10639078458E+03  0.46504140280E+03  0.79799628875E+02 0.  0.
         11    1    3    3    0    0  0.10419279706E+03 -0.41918758827E+03  0.13299964042E+03  0.45195495071E+03  0.00000000000E+00 0. -1.
        -11    1    3    3    0    0 -0.10880961635E+02 -0.16166640657E+03  0.86260765733E+02  0.18356291031E+03  0.00000000000E+00 0.  1.
          2    1    6    6  502    0  0.27083925618E+03  0.16994520157E+03 -0.68697238015E+02  0.32703911805E+03  0.00000000000E+00 0. -1.
          3    1    5    5  503    0 -0.19793336778E+03  0.12246745213E+03  0.11975696665E+02  0.23306503861E+03  0.00000000000E+00 0. -1.
         -4    1    5    5    0  503 -0.29690898649E+03  0.26512565960E+03 -0.55118791034E+02  0.40185151831E+03  0.00000000000E+00 0.  1.
         -1    1    6    6    0  502  0.13069126267E+03  0.23315681536E+02 -0.37693546563E+02  0.13800228475E+03  0.00000000000E+00 0.  1.
<mgrwt>
<rscale>  0 0.17340745E+04</rscale>
<asrwt>0</asrwt>
<pdfrwt beam="1">  1        2 0.12813456E+00 0.17340745E+04</pdfrwt>
<pdfrwt beam="2">  1       -2 0.13886172E+00 0.17340745E+04</pdfrwt>
<totfact> 0.11357718E+01</totfact>
</mgrwt>
</event>
<event>
12    1  0.2019083E-007  0.1653940E+04  0.7818608E-02  0.8788079E-01
          2   -1    0    0  501    0  0.00000000000E+00  0.00000000000E+00  0.13768094629E+04  0.13768094629E+04  0.00000000000E+00 0. -1.
         -2   -1    0    0    0  501 -0.00000000000E+00 -0.00000000000E+00 -0.49671327901E+03  0.49671327901E+03  0.00000000000E+00 0.  1.
         23    2    1    2    0    0  0.19280322090E+03  0.29668685119E+03 -0.19850956156E+03  0.41589016653E+03  0.91446240653E+02 0.  0.
        254    2    1    2    0    0 -0.19280322090E+03 -0.29668685119E+03  0.10786057454E+04  0.14576325753E+04  0.91438843006E+03 0.  0.
        -24    2    4    4    0    0 -0.26342043181E+03 -0.30172607380E+03  0.12177692890E+04  0.12844201444E+04  0.79649975886E+02 0.  0.
         24    2    4    4    0    0  0.70617210918E+02  0.50392226069E+01 -0.13916354360E+03  0.17321243092E+03  0.74992467050E+02 0.  0.
         13    1    3    3    0    0  0.81616119681E+02  0.11767959594E+03 -0.30595110445E+02  0.14644363788E+03  0.00000000000E+00 0.  1.
        -13    1    3    3    0    0  0.11118710122E+03  0.17900725525E+03 -0.16791445111E+03  0.26944652865E+03  0.00000000000E+00 0. -1.
          2    1    6    6  502    0  0.21254875647E+02 -0.11548432662E+02 -0.11179804787E+03  0.11438504948E+03  0.00000000000E+00 0. -1.
          1    1    5    5  503    0 -0.22805596471E+03 -0.22455858444E+03  0.88859310158E+03  0.94447539992E+03  0.00000000000E+00 0. -1.
         -2    1    5    5    0  503 -0.35364467102E+02 -0.77167489356E+02  0.32917618742E+03  0.33994474450E+03  0.00000000000E+00 0.  1.
         -1    1    6    6    0  502  0.49362335271E+02  0.16587655269E+02 -0.27365495730E+02  0.58827381442E+02  0.00000000000E+00 0.  1.
<mgrwt>
<rscale>  0 0.16539402E+04</rscale>
<asrwt>0</asrwt>
<pdfrwt beam="1">  1        2 0.21181684E+00 0.16539402E+04</pdfrwt>
<pdfrwt beam="2">  1       -2 0.76417428E-01 0.16539402E+04</pdfrwt>
<totfact> 0.21825689E+01</totfact>
</mgrwt>
</event>
<event>
12    1  0.2019083E-007  0.3608516E+04  0.7818608E-02  0.8088544E-01
         -1   -1    0    0    0  501 -0.00000000000E+00  0.00000000000E+00  0.14926648620E+04  0.14926648620E+04  0.00000000000E+00 0.  1.
          1   -1    0    0  501    0  0.00000000000E+00 -0.00000000000E+00 -0.21808960204E+04  0.21808960204E+04  0.00000000000E+00 0. -1.
         23    2    1    2    0    0  0.14161577664E+04  0.52284692465E+02 -0.12633254064E+04  0.19007825188E+04  0.93523223307E+02 0.  0.
        254    2    1    2    0    0 -0.14161577664E+04 -0.52284692465E+02  0.57509424792E+03  0.17727783636E+04  0.89653400612E+03 0.  0.
        -24    2    4    4    0    0 -0.33368300131E+03 -0.33134859942E+03  0.43081418986E+03  0.64266264082E+03  0.79234866225E+02 0.  0.
         24    2    4    4    0    0 -0.10824747651E+04  0.27906390695E+03  0.14428005806E+03  0.11301157228E+04  0.81954441973E+02 0.  0.
         13    1    3    3    0    0  0.63428718356E+03  0.29022852257E+02 -0.62809828389E+03  0.89312373801E+03  0.00000000000E+00 0. -1.
        -13    1    3    3    0    0  0.78187058280E+03  0.23261840208E+02 -0.63522712247E+03  0.10076587808E+04  0.00000000000E+00 0.  1.
          4    1    6    6  502    0 -0.12942446800E+02  0.97516037274E+01 -0.54136151146E+01  0.17085313372E+02  0.00000000000E+00 0. -1.
          3    1    5    5  503    0 -0.25268920554E+02 -0.12225201493E+02  0.68381230448E+01  0.28891760491E+02  0.00000000000E+00 0. -1.
         -4    1    5    5    0  503 -0.30841408076E+03 -0.31912339792E+03  0.42397606681E+03  0.61377088033E+03  0.00000000000E+00 0.  1.
         -3    1    6    6    0  502 -0.10695323183E+04  0.26931230323E+03  0.14969367318E+03  0.11130304094E+04  0.00000000000E+00 0.  1.
<mgrwt>
<rscale>  0 0.36085160E+04</rscale>
<asrwt>0</asrwt>
<pdfrwt beam="1">  1        1 0.33552247E+00 0.36085160E+04</pdfrwt>
<pdfrwt beam="2">  1       -1 0.22964075E+00 0.36085160E+04</pdfrwt>
<totfact> 0.17227179E-01</totfact>
</mgrwt>
</event>
<event>
12    1  0.2019083E-007  0.1725119E+04  0.7818608E-02  0.8747166E-01
         -1   -1    0    0    0  501 -0.00000000000E+00  0.00000000000E+00  0.22834462755E+03  0.22834462755E+03  0.00000000000E+00 0.  1.
          1   -1    0    0  501    0  0.00000000000E+00 -0.00000000000E+00 -0.32582738091E+04  0.32582738091E+04  0.00000000000E+00 0. -1.
         23    2    1    2    0    0 -0.22123109832E+03 -0.21815717825E+03 -0.22122141562E+04  0.22351561267E+04  0.74132885791E+02 0.  0.
        254    2    1    2    0    0  0.22123109832E+03  0.21815717825E+03 -0.81771502543E+03  0.12514623100E+04  0.89496608719E+03 0.  0.
        -24    2    4    4    0    0  0.28804631303E+03 -0.11314346397E+03  0.43826036666E+02  0.32263913463E+03  0.80019796378E+02 0.  0.
         24    2    4    4    0    0 -0.66815214712E+02  0.33130064221E+03 -0.86154106210E+03  0.92882317536E+03  0.78962655496E+02 0.  0.
         13    1    3    3    0    0 -0.15539109398E+02 -0.51314373195E+02 -0.44169860258E+03  0.44494076497E+03  0.00000000000E+00 0.  1.
        -13    1    3    3    0    0 -0.20569198892E+03 -0.16684280505E+03 -0.17705155536E+04  0.17902153617E+04  0.00000000000E+00 0. -1.
          2    1    6    6  502    0 -0.76555869075E+02  0.32142195864E+03 -0.79640517279E+03  0.86222623239E+03  0.00000000000E+00 0. -1.
          1    1    5    5  503    0  0.13201702758E+03 -0.55041595107E+02 -0.19808464485E+02  0.14439684216E+03  0.00000000000E+00 0. -1.
         -2    1    5    5    0  503  0.15602928546E+03 -0.58101868862E+02  0.63634501151E+02  0.17824229246E+03  0.00000000000E+00 0.  1.
         -1    1    6    6    0  502  0.97406543634E+01  0.98786835732E+01 -0.65135889309E+02  0.66596942968E+02  0.00000000000E+00 0.  1.
<mgrwt>
<rscale>  0 0.17251195E+04</rscale>
<asrwt>0</asrwt>
<pdfrwt beam="1">  1        1 0.50127293E+00 0.17251195E+04</pdfrwt>
<pdfrwt beam="2">  1       -1 0.35129940E-01 0.17251195E+04</pdfrwt>
<totfact> 0.28278110E+00</totfact>
</mgrwt>
</event>
<event>
12    1  0.2019083E-007  0.1216468E+04  0.7818608E-02  0.9098563E-01
         -2   -1    0    0    0  501 -0.00000000000E+00  0.00000000000E+00  0.20765912490E+03  0.20765912490E+03  0.00000000000E+00 0.  1.
          2   -1    0    0  501    0  0.00000000000E+00 -0.00000000000E+00 -0.17815172099E+04  0.17815172099E+04  0.00000000000E+00 0. -1.
         23    2    1    2    0    0 -0.56757703090E+02 -0.84224160003E+02  0.35814017740E+02  0.14247173474E+03  0.93275963380E+02 0.  0.
        254    2    1    2    0    0  0.56757703090E+02  0.84224160003E+02 -0.16096721027E+04  0.18467046001E+04  0.89942117806E+03 0.  0.
        -24    2    4    4    0    0 -0.25414375078E+03  0.23452740711E+03 -0.13782229042E+04  0.14235084185E+04  0.85356271586E+02 0.  0.
         24    2    4    4    0    0  0.31090145387E+03 -0.15030324711E+03 -0.23144919856E+03  0.42319618159E+03  0.79218031340E+02 0.  0.
         11    1    3    3    0    0 -0.65161601620E+02 -0.56725516267E+02 -0.11449394320E+02  0.87148764488E+02  0.00000000000E+00 0. -1.
        -11    1    3    3    0    0  0.84038985298E+01 -0.27498643736E+02  0.47263412060E+02  0.55322970250E+02  0.00000000000E+00 0.  1.
          4    1    6    6  502    0  0.59022487123E+02 -0.42546002699E+02 -0.87238683825E+02  0.11359755406E+03  0.00000000000E+00 0. -1.
          3    1    5    5  503    0 -0.83461237109E+01  0.27680073121E+02 -0.20767901926E+03  0.20968170943E+03  0.00000000000E+00 0. -1.
         -4    1    5    5    0  503 -0.24579762706E+03  0.20684733399E+03 -0.11705438849E+04  0.12138267090E+04  0.00000000000E+00 0.  1.
         -3    1    6    6    0  502  0.25187896674E+03 -0.10775724441E+03 -0.14421051474E+03  0.30959862753E+03  0.00000000000E+00 0.  1.
<mgrwt>
<rscale>  0 0.12164675E+04</rscale>
<asrwt>0</asrwt>
<pdfrwt beam="1">  1        2 0.27407956E+00 0.12164675E+04</pdfrwt>
<pdfrwt beam="2">  1       -2 0.31947559E-01 0.12164675E+04</pdfrwt>
<totfact> 0.79365088E+01</totfact>
</mgrwt>
</event>
<event>
12    1  0.2019083E-007  0.2107156E+04  0.7818608E-02  0.8558098E-01
         -2   -1    0    0    0  501 -0.00000000000E+00  0.00000000000E+00  0.66132513753E+03  0.66132513753E+03  0.00000000000E+00 0.  1.
          2   -1    0    0  501    0  0.00000000000E+00 -0.00000000000E+00 -0.16784878060E+04  0.16784878060E+04  0.00000000000E+00 0. -1.
         23    2    1    2    0    0  0.73506120191E+03 -0.17171291984E+02  0.82727593447E+02  0.74563196687E+03  0.92267824713E+02 0.  0.
        254    2    1    2    0    0 -0.73506120191E+03  0.17171291984E+02 -0.10998902619E+04  0.15941809767E+04  0.88940686658E+03 0.  0.
        -24    2    4    4    0    0 -0.46890904046E+03  0.30193079049E+03 -0.10516225502E+04  0.11930414253E+04  0.79999775105E+02 0.  0.
         24    2    4    4    0    0 -0.26615216145E+03 -0.28475949851E+03 -0.48267711729E+02  0.40113955134E+03  0.81597932689E+02 0.  0.
         13    1    3    3    0    0  0.96986680822E+02 -0.33062937472E+02  0.18654573415E+02  0.10415165481E+03  0.00000000000E+00 0.  1.
        -13    1    3    3    0    0  0.63807452109E+03  0.15891645488E+02  0.64073020032E+02  0.64148031205E+03  0.00000000000E+00 0. -1.
          2    1    6    6  502    0 -0.11728859931E+03 -0.12354259414E+03  0.19539926779E+02  0.17146777199E+03  0.00000000000E+00 0. -1.
          3    1    5    5  503    0 -0.35235224359E+03  0.18396758377E+03 -0.75196463832E+03  0.85055687213E+03  0.00000000000E+00 0. -1.
         -4    1    5    5    0  503 -0.11655679687E+03  0.11796320672E+03 -0.29965791188E+03  0.34248455322E+03  0.00000000000E+00 0.  1.
         -1    1    6    6    0  502 -0.14886356214E+03 -0.16121690437E+03 -0.67807638509E+02  0.22967177935E+03  0.00000000000E+00 0.  1.
<mgrwt>
<rscale>  0 0.21071556E+04</rscale>
<asrwt>0</asrwt>
<pdfrwt beam="1">  1        2 0.25822889E+00 0.21071556E+04</pdfrwt>
<pdfrwt beam="2">  1       -2 0.10174233E+00 0.21071556E+04</pdfrwt>
<totfact> 0.73607519E+00</totfact>
</mgrwt>
</event>
<event>
12    1  0.2019083E-007  0.1686885E+04  0.7818608E-02  0.8768880E-01
         -4   -1    0    0    0  501 -0.00000000000E+00  0.00000000000E+00  0.17573943119E+04  0.17573943119E+04  0.00000000000E+00 0.  1.
          4   -1    0    0  501    0  0.00000000000E+00 -0.00000000000E+00 -0.40480135965E+03  0.40480135965E+03  0.00000000000E+00 0. -1.
         23    2    1    2    0    0 -0.41286118782E+03  0.27011884362E+02  0.10392726055E+04  0.11223401604E+04  0.91519859251E+02 0.  0.
        254    2    1    2    0    0  0.41286118782E+03 -0.27011884362E+02  0.31332034677E+03  0.10398555112E+04  0.90108037502E+03 0.  0.
        -24    2    4    4    0    0  0.53210291824E+03 -0.30530474928E+03  0.37114914284E+03  0.72137574734E+03  0.79289199051E+02 0.  0.
         24    2    4    4    0    0 -0.11924173042E+03  0.27829286492E+03 -0.57828796072E+02  0.31847976390E+03  0.80122914459E+02 0.  0.
         11    1    3    3    0    0 -0.34317079311E+03  0.52231715810E+02  0.80581224555E+03  0.87739826787E+03  0.00000000000E+00 0. -1.
        -11    1    3    3    0    0 -0.69690394708E+02 -0.25219831448E+02  0.23346035998E+03  0.24494189249E+03  0.00000000000E+00 0.  1.
          4    1    6    6  502    0 -0.24957702862E+02  0.24159322564E+02 -0.30177303968E+02  0.46013361903E+02  0.00000000000E+00 0. -1.
          3    1    5    5  503    0  0.93671162143E+02 -0.23935395950E+02  0.72941118718E+02  0.12110985342E+03  0.00000000000E+00 0. -1.
         -4    1    5    5    0  503  0.43843175609E+03 -0.28136935333E+03  0.29820802412E+03  0.60026589391E+03  0.00000000000E+00 0.  1.
         -3    1    6    6    0  502 -0.94284027556E+02  0.25413354235E+03 -0.27651492104E+02  0.27246640200E+03  0.00000000000E+00 0.  1.
<mgrwt>
<rscale>  0 0.16868854E+04</rscale>
<asrwt>0</asrwt>
<pdfrwt beam="1">  1        4 0.62277133E-01 0.16868854E+04</pdfrwt>
<pdfrwt beam="2">  1       -4 0.27036835E+00 0.16868854E+04</pdfrwt>
<totfact> 0.21811172E-01</totfact>
</mgrwt>
</event>
<event>
12    1  0.2019083E-007  0.1139000E+04  0.7818608E-02  0.9167992E-01
         -2   -1    0    0    0  501 -0.00000000000E+00  0.00000000000E+00  0.14220170789E+03  0.14220170789E+03  0.00000000000E+00 0.  1.
          2   -1    0    0  501    0  0.00000000000E+00 -0.00000000000E+00 -0.22807746836E+04  0.22807746836E+04  0.00000000000E+00 0. -1.
         23    2    1    2    0    0  0.35440090614E+02 -0.15376769309E+03 -0.66465043637E+03  0.68893805474E+03  0.89302504171E+02 0.  0.
        254    2    1    2    0    0 -0.35440090614E+02  0.15376769309E+03 -0.14739225394E+04  0.17340383368E+04  0.89974485152E+03 0.  0.
        -24    2    4    4    0    0  0.23331974585E+03  0.44140315770E+03 -0.73102643561E+03  0.88884115659E+03  0.79775313562E+02 0.  0.
         24    2    4    4    0    0 -0.26875983646E+03 -0.28763546461E+03 -0.74289610375E+03  0.84519718017E+03  0.86588926535E+02 0.  0.
         13    1    3    3    0    0  0.13203061139E+02 -0.65261808852E+02 -0.12501608050E+03  0.14164196025E+03  0.00000000000E+00 0.  1.
        -13    1    3    3    0    0  0.22237029475E+02 -0.88505884241E+02 -0.53963435586E+03  0.54729609450E+03  0.00000000000E+00 0. -1.
          4    1    6    6  502    0 -0.19185652756E+03 -0.14474192682E+03 -0.46316585867E+03  0.52180625253E+03  0.00000000000E+00 0. -1.
          3    1    5    5  503    0  0.16089225338E+03  0.22971076388E+03 -0.37337077140E+03  0.46696797018E+03  0.00000000000E+00 0. -1.
         -4    1    5    5    0  503  0.72427492466E+02  0.21169239382E+03 -0.35765566422E+03  0.42187318641E+03  0.00000000000E+00 0.  1.
         -3    1    6    6    0  502 -0.76903308898E+02 -0.14289353778E+03 -0.27973024508E+03  0.32339092763E+03  0.00000000000E+00 0.  1.
<mgrwt>
<rscale>  0 0.11389997E+04</rscale>
<asrwt>0</asrwt>
<pdfrwt beam="1">  1        2 0.35088840E+00 0.11389997E+04</pdfrwt>
<pdfrwt beam="2">  1       -2 0.21877187E-01 0.11389997E+04</pdfrwt>
<totfact> 0.84375273E+01</totfact>
</mgrwt>
</event>
<event>
12    1  0.2019083E-007  0.4018329E+04  0.7818608E-02  0.8000859E-01
         -1   -1    0    0    0  501 -0.00000000000E+00  0.00000000000E+00  0.15767740630E+04  0.15767740630E+04  0.00000000000E+00 0.  1.
          1   -1    0    0  501    0  0.00000000000E+00 -0.00000000000E+00 -0.25601266491E+04  0.25601266491E+04  0.00000000000E+00 0. -1.
         23    2    1    2    0    0  0.14523353296E+04  0.10267761719E+04 -0.11763219133E+04  0.21347919995E+04  0.10028170537E+03 0.  0.
        254    2    1    2    0    0 -0.14523353296E+04 -0.10267761719E+04  0.19296932721E+03  0.20021087126E+04  0.89869623295E+03 0.  0.
        -24    2    4    4    0    0 -0.34752332158E+03  0.68594269245E+02  0.25366457676E+03  0.44294790825E+03  0.79871766610E+02 0.  0.
         24    2    4    4    0    0 -0.11048120080E+04 -0.10953704412E+04 -0.60695249548E+02  0.15591608044E+04  0.82779974409E+02 0.  0.
         11    1    3    3    0    0  0.10652660160E+04  0.71327767229E+03 -0.88405906876E+03  0.15572787675E+04  0.00000000000E+00 0. -1.
        -11    1    3    3    0    0  0.38706931362E+03  0.31349849963E+03 -0.29226284457E+03  0.57751323200E+03  0.00000000000E+00 0.  1.
          4    1    6    6  502    0 -0.21378649551E+03 -0.20426415807E+03  0.20479802594E+02  0.29639152189E+03  0.00000000000E+00 0. -1.
          3    1    5    5  503    0 -0.10106286160E+03 -0.20825505561E+01  0.10858393510E+03  0.14835265408E+03  0.00000000000E+00 0. -1.
         -4    1    5    5    0  503 -0.24646045998E+03  0.70676819801E+02  0.14508064166E+03  0.29459525416E+03  0.00000000000E+00 0.  1.
         -3    1    6    6    0  502 -0.89102551251E+03 -0.89110628311E+03 -0.81175052142E+02  0.12627692825E+04  0.00000000000E+00 0.  1.
<mgrwt>
<rscale>  0 0.40183287E+04</rscale>
<asrwt>0</asrwt>
<pdfrwt beam="1">  1        1 0.39386564E+00 0.40183287E+04</pdfrwt>
<pdfrwt beam="2">  1       -1 0.24258062E+00 0.40183287E+04</pdfrwt>
<totfact> 0.74963490E-02</totfact>
</mgrwt>
</event>
<event>
12    1  0.2019083E-007  0.2782122E+04  0.7818608E-02  0.8308840E-01
          2   -1    0    0  501    0  0.00000000000E+00  0.00000000000E+00  0.29420044828E+04  0.29420044828E+04  0.00000000000E+00 0. -1.
         -2   -1    0    0    0  501 -0.00000000000E+00 -0.00000000000E+00 -0.65773185982E+03  0.65773185982E+03  0.00000000000E+00 0.  1.
         23    2    1    2    0    0 -0.62196985758E+03  0.28068071728E+03  0.23699870484E+04  0.24678880153E+04  0.89467747913E+02 0.  0.
        254    2    1    2    0    0  0.62196985758E+03 -0.28068071728E+03 -0.85714425414E+02  0.11318483273E+04  0.89894688634E+03 0.  0.
        -24    2    4    4    0    0  0.53176202239E+02 -0.48621882756E+03  0.74519407260E+02  0.50111124423E+03  0.79516540878E+02 0.  0.
         24    2    4    4    0    0  0.56879365534E+03  0.20553811029E+03 -0.16023383267E+03  0.63073708305E+03  0.79888983371E+02 0.  0.
         13    1    3    3    0    0 -0.26942708379E+03  0.89778032026E+02  0.86558159597E+03  0.91097889537E+03  0.00000000000E+00 0. -1.
        -13    1    3    3    0    0 -0.35254277379E+03  0.19090268525E+03  0.15044054524E+04  0.15569091200E+04  0.00000000000E+00 0.  1.
          4    1    6    6  502    0  0.25539338704E+03  0.55735947292E+02 -0.89051547298E+02  0.27615657885E+03  0.00000000000E+00 0. -1.
          1    1    5    5  503    0 -0.13627780041E+02 -0.20277656678E+03  0.47058453963E+02  0.20861100286E+03  0.00000000000E+00 0. -1.
         -2    1    5    5    0  503  0.66803982281E+02 -0.28344226078E+03  0.27460953297E+02  0.29250024137E+03  0.00000000000E+00 0.  1.
         -3    1    6    6    0  502  0.31340026830E+03  0.14980216300E+03 -0.71182285376E+02  0.35458050420E+03  0.00000000000E+00 0.  1.
<mgrwt>
<rscale>  0 0.27821216E+04</rscale>
<asrwt>0</asrwt>
<pdfrwt beam="1">  1        2 0.45261607E+00 0.27821216E+04</pdfrwt>
<pdfrwt beam="2">  1       -2 0.10118952E+00 0.27821216E+04</pdfrwt>
<totfact> 0.13238796E+00</totfact>
</mgrwt>
</event>
<event>
12    1  0.2019083E-007  0.2293741E+04  0.7818608E-02  0.8480393E-01
         -1   -1    0    0    0  501 -0.00000000000E+00  0.00000000000E+00  0.12797022984E+04  0.12797022984E+04  0.00000000000E+00 0.  1.
          1   -1    0    0  501    0  0.00000000000E+00 -0.00000000000E+00 -0.10278268796E+04  0.10278268796E+04  0.00000000000E+00 0. -1.
         23    2    1    2    0    0  0.85843377011E+03  0.18521621968E+03  0.51464915000E+03  0.10219206082E+04  0.90798657425E+02 0.  0.
        254    2    1    2    0    0 -0.85843377011E+03 -0.18521621968E+03 -0.26277373122E+03  0.12856085698E+04  0.90140211626E+03 0.  0.
        -24    2    4    4    0    0 -0.37172536520E+03  0.54462742639E+02 -0.54635790076E+03  0.66801363208E+03  0.81174623202E+02 0.  0.
         24    2    4    4    0    0 -0.48670840492E+03 -0.23967896232E+03  0.28358416954E+03  0.61759493772E+03  0.81685062814E+02 0.  0.
         11    1    3    3    0    0  0.24650117787E+03  0.44745286346E+02  0.19444592119E+03  0.31713433685E+03  0.00000000000E+00 0.  1.
        -11    1    3    3    0    0  0.61193259224E+03  0.14047093333E+03  0.32020322881E+03  0.70478627136E+03  0.00000000000E+00 0. -1.
          2    1    6    6  502    0 -0.12887398171E+03 -0.67369112909E+02  0.11810821091E+03  0.18734099930E+03  0.00000000000E+00 0. -1.
          3    1    5    5  503    0 -0.19980608038E+03 -0.10252619424E+02 -0.30340832285E+03  0.36343389542E+03  0.00000000000E+00 0. -1.
         -4    1    5    5    0  503 -0.17191928481E+03  0.64715362062E+02 -0.24294957791E+03  0.30457973666E+03  0.00000000000E+00 0.  1.
         -1    1    6    6    0  502 -0.35783442321E+03 -0.17230984941E+03  0.16547595863E+03  0.43025393842E+03  0.00000000000E+00 0.  1.
<mgrwt>
<rscale>  0 0.22937414E+04</rscale>
<asrwt>0</asrwt>
<pdfrwt beam="1">  1        1 0.15812721E+00 0.22937414E+04</pdfrwt>
<pdfrwt beam="2">  1       -1 0.19687728E+00 0.22937414E+04</pdfrwt>
<totfact> 0.20593022E+00</totfact>
</mgrwt>
</event>
<event>
12    1  0.2019083E-007  0.1689915E+04  0.7818608E-02  0.8767137E-01
         -1   -1    0    0    0  501 -0.00000000000E+00  0.00000000000E+00  0.41923449864E+03  0.41923449864E+03  0.00000000000E+00 0.  1.
          1   -1    0    0  501    0  0.00000000000E+00 -0.00000000000E+00 -0.17029932553E+04  0.17029932553E+04  0.00000000000E+00 0. -1.
         23    2    1    2    0    0  0.22520211934E+03  0.55627828552E+03 -0.42001144036E+03  0.73808456546E+03  0.90541096943E+02 0.  0.
        254    2    1    2    0    0 -0.22520211934E+03 -0.55627828552E+03 -0.86374731629E+03  0.13841431885E+04  0.89979520687E+03 0.  0.
        -24    2    4    4    0    0 -0.32589954594E+03 -0.71429726180E+03 -0.41192168134E+03  0.89007130756E+03  0.78207216509E+02 0.  0.
         24    2    4    4    0    0  0.10069742660E+03  0.15801897628E+03 -0.45182563494E+03  0.49407188092E+03  0.69646611777E+02 0.  0.
         11    1    3    3    0    0  0.19620505848E+03  0.43985689210E+03 -0.37318292656E+03  0.60929139758E+03  0.00000000000E+00 0. -1.
        -11    1    3    3    0    0  0.28997060863E+02  0.11642139343E+03 -0.46828513802E+02  0.12879316787E+03  0.00000000000E+00 0.  1.
          4    1    6    6  502    0  0.95812280900E+02  0.90385580617E+02 -0.31231788547E+03  0.33895723616E+03  0.00000000000E+00 0. -1.
          1    1    5    5  503    0 -0.21716596022E+03 -0.39085038686E+03 -0.25151349100E+03  0.51301473209E+03  0.00000000000E+00 0. -1.
         -4    1    5    5    0  503 -0.10873358572E+03 -0.32344687494E+03 -0.16040819034E+03  0.37705657546E+03  0.00000000000E+00 0.  1.
         -3    1    6    6    0  502  0.48851456972E+01  0.67633395662E+02 -0.13950774947E+03  0.15511464476E+03  0.00000000000E+00 0.  1.
<mgrwt>
<rscale>  0 0.16899154E+04</rscale>
<asrwt>0</asrwt>
<pdfrwt beam="1">  1        1 0.26199897E+00 0.16899154E+04</pdfrwt>
<pdfrwt beam="2">  1       -1 0.64497614E-01 0.16899154E+04</pdfrwt>
<totfact> 0.11012430E+01</totfact>
</mgrwt>
</event>
<event>
12    1  0.2019083E-007  0.2982252E+04  0.7818608E-02  0.8248817E-01
          2   -1    0    0  501    0  0.00000000000E+00  0.00000000000E+00  0.22364890112E+04  0.22364890112E+04  0.00000000000E+00 0. -1.
         -2   -1    0    0    0  501 -0.00000000000E+00 -0.00000000000E+00 -0.99417270305E+03  0.99417270305E+03  0.00000000000E+00 0.  1.
         23    2    1    2    0    0  0.11335939927E+04 -0.68047375697E+03  0.87881196182E+03  0.15901669035E+04  0.90776882247E+02 0.  0.
        254    2    1    2    0    0 -0.11335939927E+04  0.68047375697E+03  0.36350434637E+03  0.16404948108E+04  0.90055979270E+03 0.  0.
        -24    2    4    4    0    0 -0.92185697544E+03  0.52065642175E+03  0.64781884436E+03  0.12437406592E+04  0.79486977118E+02 0.  0.
         24    2    4    4    0    0 -0.21173701730E+03  0.15981733522E+03 -0.28431449798E+03  0.39675415165E+03  0.78771682437E+02 0.  0.
         13    1    3    3    0    0  0.40212146559E+03 -0.26155221311E+03  0.36729716419E+03  0.60416755961E+03  0.00000000000E+00 0.  1.
        -13    1    3    3    0    0  0.73147252714E+03 -0.41892154386E+03  0.51151479764E+03  0.98599934385E+03  0.00000000000E+00 0. -1.
          2    1    6    6  502    0 -0.12907984706E+03  0.63171971122E+02 -0.10997520126E+03  0.18096090668E+03  0.00000000000E+00 0. -1.
          1    1    5    5  503    0 -0.14743085761E+03  0.51329724146E+02  0.99794467003E+02  0.18528230892E+03  0.00000000000E+00 0. -1.
         -2    1    5    5    0  503 -0.77442611783E+03  0.46932669760E+03  0.54802437735E+03  0.10584583503E+04  0.00000000000E+00 0.  1.
         -1    1    6    6    0  502 -0.82657170240E+02  0.96645364098E+02 -0.17433929672E+03  0.21579324497E+03  0.00000000000E+00 0.  1.
<mgrwt>
<rscale>  0 0.29822517E+04</rscale>
<asrwt>0</asrwt>
<pdfrwt beam="1">  1        2 0.34407523E+00 0.29822517E+04</pdfrwt>
<pdfrwt beam="2">  1       -2 0.15294965E+00 0.29822517E+04</pdfrwt>
<totfact> 0.12010262E+00</totfact>
</mgrwt>
</event>
<event>
12    1  0.2242470E-007  0.3703954E+04  0.7818608E-02  0.8067086E-01
          2   -1    0    0  501    0  0.00000000000E+00  0.00000000000E+00  0.17053757319E+04  0.17053757319E+04  0.00000000000E+00 0. -1.
         -2   -1    0    0    0  501 -0.00000000000E+00 -0.00000000000E+00 -0.20111807925E+04  0.20111807925E+04  0.00000000000E+00 0.  1.
         23    2    1    2    0    0 -0.14486919885E+04 -0.95552945233E+03 -0.29166569732E+03  0.17620489545E+04  0.89457406048E+02 0.  0.
        254    2    1    2    0    0  0.14486919885E+04  0.95552945233E+03 -0.14139363280E+02  0.19545075700E+04  0.89897436432E+03 0.  0.
        -24    2    4    4    0    0  0.13792149359E+04  0.48864464097E+03  0.75121042623E+02  0.14673678076E+04  0.80732193546E+02 0.  0.
         24    2    4    4    0    0  0.69477052522E+02  0.46688481136E+03 -0.89260405903E+02  0.48713976235E+03  0.80803713371E+02 0.  0.
         13    1    3    3    0    0 -0.97785313394E+03 -0.61437965927E+03 -0.22800442258E+03  0.11771342889E+04  0.00000000000E+00 0. -1.
        -13    1    3    3    0    0 -0.47083885453E+03 -0.34114979305E+03 -0.63661274739E+02  0.58491466569E+03  0.00000000000E+00 0.  1.
          2    1    6    6  502    0 -0.11574524611E+02  0.15109015837E+02 -0.95009141213E+01  0.21272502172E+02  0.00000000000E+00 0. -1.
          1    1    5    5  503    0  0.22261747296E+02 -0.10109720296E+01 -0.38349010458E+01  0.22612251616E+02  0.00000000000E+00 0. -1.
         -2    1    5    5    0  503  0.13569531886E+04  0.48965561300E+03  0.78955943668E+02  0.14447555560E+04  0.00000000000E+00 0.  1.
         -1    1    6    6    0  502  0.81051577133E+02  0.45177579552E+03 -0.79759491782E+02  0.46586726017E+03  0.00000000000E+00 0.  1.
<mgrwt>
<rscale>  0 0.37039541E+04</rscale>
<asrwt>0</asrwt>
<pdfrwt beam="1">  1        2 0.26236550E+00 0.37039541E+04</pdfrwt>
<pdfrwt beam="2">  1       -2 0.30941243E+00 0.37039541E+04</pdfrwt>
<totfact> 0.21899254E-01</totfact>
</mgrwt>
</event>
<event>
12    1  0.2019083E-007  0.2526709E+04  0.7818608E-02  0.8393532E-01
         -2   -1    0    0    0  501 -0.00000000000E+00  0.00000000000E+00  0.17050178235E+04  0.17050178235E+04  0.00000000000E+00 0.  1.
          2   -1    0    0  501    0  0.00000000000E+00 -0.00000000000E+00 -0.93609836720E+03  0.93609836720E+03  0.00000000000E+00 0. -1.
         23    2    1    2    0    0  0.93649412648E+03  0.57412979092E+03  0.26165157977E+03  0.11329191533E+04  0.91640564180E+02 0.  0.
        254    2    1    2    0    0 -0.93649412648E+03 -0.57412979092E+03  0.50726787655E+03  0.15081970374E+04  0.90038399546E+03 0.  0.
        -24    2    4    4    0    0 -0.55965055345E+03 -0.34825090292E+03  0.74922777809E+03  0.10005107974E+04  0.72056637387E+02 0.  0.
         24    2    4    4    0    0 -0.37684357303E+03 -0.22587888800E+03 -0.24195990154E+03  0.50768623995E+03  0.78538994791E+02 0.  0.
         13    1    3    3    0    0  0.20041866295E+03  0.94054882821E+02  0.81040300486E+02  0.23575727294E+03  0.00000000000E+00 0.  1.
        -13    1    3    3    0    0  0.73607546353E+03  0.48007490810E+03  0.18061127928E+03  0.89716188038E+03  0.00000000000E+00 0. -1.
          4    1    6    6  502    0 -0.37517153344E+03 -0.20944886373E+03 -0.23523067547E+03  0.48985301541E+03  0.00000000000E+00 0. -1.
          1    1    5    5  503    0 -0.38906180682E+03 -0.27681168435E+03  0.55964436325E+03  0.73565998358E+03  0.00000000000E+00 0. -1.
         -2    1    5    5    0  503 -0.17058874663E+03 -0.71439218562E+02  0.18958341483E+03  0.26485081387E+03  0.00000000000E+00 0.  1.
         -1    1    6    6    0  502 -0.16720395832E+01 -0.16430024270E+02 -0.67292260646E+01  0.17833224535E+02  0.00000000000E+00 0.  1.
<mgrwt>
<rscale>  0 0.25267088E+04</rscale>
<asrwt>0</asrwt>
<pdfrwt beam="1">  1        2 0.14401513E+00 0.25267088E+04</pdfrwt>
<pdfrwt beam="2">  1       -2 0.26231043E+00 0.25267088E+04</pdfrwt>
<totfact> 0.13326976E+00</totfact>
</mgrwt>
</event>
<event>
12    1  0.2019083E-007  0.1651487E+04  0.7818608E-02  0.8789528E-01
         -2   -1    0    0    0  501 -0.00000000000E+00  0.00000000000E+00  0.54257310468E+03  0.54257310468E+03  0.00000000000E+00 0.  1.
          2   -1    0    0  501    0  0.00000000000E+00 -0.00000000000E+00 -0.12567006493E+04  0.12567006493E+04  0.00000000000E+00 0. -1.
         23    2    1    2    0    0  0.34716536521E+03  0.35113379979E+03 -0.56399720297E+03  0.75536840340E+03  0.93111995654E+02 0.  0.
        254    2    1    2    0    0 -0.34716536521E+03 -0.35113379979E+03 -0.15013034166E+03  0.10439053506E+04  0.90740317685E+03 0.  0.
        -24    2    4    4    0    0  0.29586699211E+03 -0.10611599575E+03 -0.13456550466E+03  0.35102933898E+03  0.79472260605E+02 0.  0.
         24    2    4    4    0    0 -0.64303235732E+03 -0.24501780404E+03 -0.15564836999E+02  0.69287601162E+03  0.79439073957E+02 0.  0.
         13    1    3    3    0    0  0.29660476441E+03  0.26350765697E+03 -0.48745472500E+03  0.62850837742E+03  0.00000000000E+00 0. -1.
        -13    1    3    3    0    0  0.50560600798E+02  0.87626142821E+02 -0.76542477972E+02  0.12686002598E+03  0.00000000000E+00 0.  1.
          4    1    6    6  502    0 -0.10520048537E+03 -0.72558822850E+02 -0.74238901941E+01  0.12801187070E+03  0.00000000000E+00 0. -1.
          1    1    5    5  503    0  0.16874581912E+03 -0.28860028091E+02 -0.43585270401E+02  0.17665709294E+03  0.00000000000E+00 0. -1.
         -2    1    5    5    0  503  0.12712117299E+03 -0.77255967660E+02 -0.90980234256E+02  0.17437224603E+03  0.00000000000E+00 0.  1.
         -3    1    6    6    0  502 -0.53783187195E+03 -0.17245898119E+03 -0.81409468045E+01  0.56486414092E+03  0.00000000000E+00 0.  1.
<mgrwt>
<rscale>  0 0.16514866E+04</rscale>
<asrwt>0</asrwt>
<pdfrwt beam="1">  1        2 0.19333856E+00 0.16514866E+04</pdfrwt>
<pdfrwt beam="2">  1       -2 0.83472787E-01 0.16514866E+04</pdfrwt>
<totfact> 0.21023390E+01</totfact>
</mgrwt>
</event>
<event>
12    1  0.2019083E-007  0.2716968E+04  0.7818608E-02  0.8329520E-01
          2   -1    0    0  501    0  0.00000000000E+00  0.00000000000E+00  0.20317265356E+04  0.20317265356E+04  0.00000000000E+00 0. -1.
         -2   -1    0    0    0  501 -0.00000000000E+00 -0.00000000000E+00 -0.90833023762E+03  0.90833023762E+03  0.00000000000E+00 0.  1.
         23    2    1    2    0    0  0.95202699427E+03 -0.53631287890E+03  0.10565804980E+04  0.15228023350E+04  0.92615876891E+02 0.  0.
        254    2    1    2    0    0 -0.95202699427E+03  0.53631287890E+03  0.66815799929E+02  0.14172544382E+04  0.90008826770E+03 0.  0.
        -24    2    4    4    0    0  0.59247408996E+02  0.36192359505E+03 -0.58241295149E+02  0.38028584598E+03  0.82014218673E+02 0.  0.
         24    2    4    4    0    0 -0.10112744033E+04  0.17438928385E+03  0.12505709508E+03  0.10369685922E+04  0.81098971918E+02 0.  0.
         13    1    3    3    0    0  0.31081128404E+03 -0.22358392473E+03  0.35135738460E+03  0.51965896258E+03  0.00000000000E+00 0.  1.
        -13    1    3    3    0    0  0.64121571024E+03 -0.31272895418E+03  0.70522311342E+03  0.10031433724E+04  0.00000000000E+00 0. -1.
          2    1    6    6  502    0 -0.17891971244E+03  0.61172345678E+02  0.13422738581E+02  0.18956394511E+03  0.00000000000E+00 0. -1.
          3    1    5    5  503    0 -0.12426184925E+02  0.27498205435E+02 -0.19848224574E+02  0.36118048019E+02  0.00000000000E+00 0. -1.
         -4    1    5    5    0  503  0.71673593921E+02  0.33442538961E+03 -0.38393070575E+02  0.34416779796E+03  0.00000000000E+00 0.  1.
         -1    1    6    6    0  502 -0.83235469083E+03  0.11321693818E+03  0.11163435650E+03  0.84740464713E+03  0.00000000000E+00 0.  1.
<mgrwt>
<rscale>  0 0.27169679E+04</rscale>
<asrwt>0</asrwt>
<pdfrwt beam="1">  1        2 0.31257331E+00 0.27169679E+04</pdfrwt>
<pdfrwt beam="2">  1       -2 0.13974311E+00 0.27169679E+04</pdfrwt>
<totfact> 0.20281996E+00</totfact>
</mgrwt>
</event>
<event>
12    1  0.2127961E-007  0.3643661E+04  0.7818608E-02  0.8080563E-01
          1   -1    0    0  501    0  0.00000000000E+00  0.00000000000E+00  0.21568928408E+04  0.21568928408E+04  0.00000000000E+00 0. -1.
         -1   -1    0    0    0  501 -0.00000000000E+00 -0.00000000000E+00 -0.15388185149E+04  0.15388185149E+04  0.00000000000E+00 0.  1.
         23    2    1    2    0    0 -0.15956317087E+04 -0.61326050742E+03  0.31962544824E+03  0.17415132381E+04  0.92622521128E+02 0.  0.
        254    2    1    2    0    0  0.15956317087E+04  0.61326050742E+03  0.29844887765E+03  0.19541981175E+04  0.89871550017E+03 0.  0.
        -24    2    4    4    0    0  0.11986823001E+04  0.83475798609E+03  0.29723905987E+03  0.14927612429E+04  0.79529350061E+02 0.  0.
         24    2    4    4    0    0  0.39694940856E+03 -0.22149747867E+03  0.12098177857E+01  0.46143687466E+03  0.79325655503E+02 0.  0.
         11    1    3    3    0    0 -0.88679908045E+03 -0.35668396654E+03  0.22293924258E+03  0.98149781812E+03  0.00000000000E+00 0.  1.
        -11    1    3    3    0    0 -0.70883262826E+03 -0.25657654088E+03  0.96686205659E+02  0.76001541996E+03  0.00000000000E+00 0. -1.
          4    1    6    6  502    0  0.36902034625E+03 -0.21509983323E+03 -0.17025588022E+02  0.42747377095E+03  0.00000000000E+00 0. -1.
          3    1    5    5  503    0  0.10751961267E+04  0.76561598408E+03  0.24878566143E+03  0.13431711921E+04  0.00000000000E+00 0. -1.
         -4    1    5    5    0  503  0.12348617341E+03  0.69142002014E+02  0.48453398439E+02  0.14959005076E+03  0.00000000000E+00 0.  1.
         -3    1    6    6    0  502  0.27929062312E+02 -0.63976454482E+01  0.18235405807E+02  0.33963103714E+02  0.00000000000E+00 0.  1.
<mgrwt>
<rscale>  0 0.36436611E+04</rscale>
<asrwt>0</asrwt>
<pdfrwt beam="1">  1        1 0.33182967E+00 0.36436611E+04</pdfrwt>
<pdfrwt beam="2">  1       -1 0.23674131E+00 0.36436611E+04</pdfrwt>
<totfact> 0.16007326E-01</totfact>
</mgrwt>
</event>
<event>
12    1  0.2019083E-007  0.9926544E+03  0.7818608E-02  0.9316638E-01
          3   -1    0    0  501    0  0.00000000000E+00  0.00000000000E+00  0.12699159125E+04  0.12699159125E+04  0.00000000000E+00 0. -1.
         -3   -1    0    0    0  501 -0.00000000000E+00 -0.00000000000E+00 -0.19398190262E+03  0.19398190262E+03  0.00000000000E+00 0.  1.
         23    2    1    2    0    0  0.20093010440E+02 -0.12897326852E+02  0.11118592398E+03  0.14459552683E+03  0.89305579779E+02 0.  0.
        254    2    1    2    0    0 -0.20093010440E+02  0.12897326852E+02  0.96474808586E+03  0.13193022883E+04  0.89958300813E+03 0.  0.
        -24    2    4    4    0    0 -0.18677833132E+03  0.31934714818E+03  0.11130522509E+03  0.39401713705E+03  0.77407396647E+02 0.  0.
         24    2    4    4    0    0  0.16668532088E+03 -0.30644982133E+03  0.85344286077E+03  0.92528515120E+03  0.78053861174E+02 0.  0.
         11    1    3    3    0    0  0.28889939164E+02 -0.16289834812E+02  0.12418478267E+03  0.12853733913E+03  0.00000000000E+00 0. -1.
        -11    1    3    3    0    0 -0.87969287240E+01  0.33925079605E+01 -0.12998858687E+02  0.16058187706E+02  0.00000000000E+00 0.  1.
          2    1    6    6  502    0  0.16984685957E+03 -0.30903773327E+03  0.83525266569E+03  0.90664176599E+03  0.00000000000E+00 0. -1.
          3    1    5    5  503    0 -0.18083223148E+03  0.32224468329E+03  0.10340104873E+03  0.38371044908E+03  0.00000000000E+00 0. -1.
         -4    1    5    5    0  503 -0.59460998414E+01 -0.28975351130E+01  0.79041763602E+01  0.10306687974E+02  0.00000000000E+00 0.  1.
         -3    1    6    6    0  502 -0.31615386917E+01  0.25879119437E+01  0.18190195079E+02  0.18643385212E+02  0.00000000000E+00 0.  1.
<mgrwt>
<rscale>  0 0.99265443E+03</rscale>
<asrwt>0</asrwt>
<pdfrwt beam="1">  1        3 0.19537167E+00 0.99265443E+03</pdfrwt>
<pdfrwt beam="2">  1       -3 0.29843371E-01 0.99265443E+03</pdfrwt>
<totfact> 0.45338620E+00</totfact>
</mgrwt>
</event>
<event>
12    1  0.2019083E-007  0.1329879E+04  0.7818608E-02  0.9006201E-01
          2   -1    0    0  501    0  0.00000000000E+00  0.00000000000E+00  0.20137057540E+04  0.20137057540E+04  0.00000000000E+00 0. -1.
         -2   -1    0    0    0  501 -0.00000000000E+00 -0.00000000000E+00 -0.21956745248E+03  0.21956745248E+03  0.00000000000E+00 0.  1.
         23    2    1    2    0    0  0.13858295968E+03 -0.26154868201E+03  0.81210329846E+03  0.86964312186E+03  0.95678849569E+02 0.  0.
        254    2    1    2    0    0 -0.13858295968E+03  0.26154868201E+03  0.98203500306E+03  0.13636300846E+04  0.89859963870E+03 0.  0.
        -24    2    4    4    0    0 -0.13687042083E+03  0.20260426494E+03 -0.10034490795E+03  0.27653790830E+03  0.81376371919E+02 0.  0.
         24    2    4    4    0    0 -0.17125388505E+01  0.58944417064E+02  0.10823799110E+04  0.10870921763E+04  0.82132520738E+02 0.  0.
         11    1    3    3    0    0  0.29311103927E+02 -0.14043232551E+03  0.45423047078E+03  0.47634619705E+03  0.00000000000E+00 0.  1.
        -11    1    3    3    0    0  0.10927185575E+03 -0.12111635649E+03  0.35787282768E+03  0.39329692481E+03  0.00000000000E+00 0. -1.
          4    1    6    6  502    0 -0.80453334616E+01  0.19252314163E+02  0.53463490935E+02  0.57390973629E+02  0.00000000000E+00 0. -1.
          3    1    5    5  503    0 -0.50553855139E+02  0.21835286294E+02 -0.37377614616E+02  0.66554925223E+02  0.00000000000E+00 0. -1.
         -4    1    5    5    0  503 -0.86316565692E+02  0.18076897865E+03 -0.62967293334E+02  0.20998298308E+03  0.00000000000E+00 0.  1.
         -3    1    6    6    0  502  0.63327946111E+01  0.39692102901E+02  0.10289164201E+04  0.10297012027E+04  0.00000000000E+00 0.  1.
<mgrwt>
<rscale>  0 0.13298786E+04</rscale>
<asrwt>0</asrwt>
<pdfrwt beam="1">  1        2 0.30980087E+00 0.13298786E+04</pdfrwt>
<pdfrwt beam="2">  1       -2 0.33779609E-01 0.13298786E+04</pdfrwt>
<totfact> 0.52689223E+01</totfact>
</mgrwt>
</event>
<event>
12    1  0.2019083E-007  0.3647687E+04  0.7818608E-02  0.8079655E-01
         -2   -1    0    0    0  501 -0.00000000000E+00  0.00000000000E+00  0.12727735010E+04  0.12727735010E+04  0.00000000000E+00 0. -1.
          2   -1    0    0  501    0  0.00000000000E+00 -0.00000000000E+00 -0.26135087956E+04  0.26135087956E+04  0.00000000000E+00 0.  1.
         23    2    1    2    0    0  0.66372055244E+03  0.14786742836E+04 -0.44754055947E+02  0.16240665337E+04  0.92663754654E+02 0.  0.
        254    2    1    2    0    0 -0.66372055244E+03 -0.14786742836E+04 -0.12959812387E+04  0.22622157629E+04  0.90058324341E+03 0.  0.
        -24    2    4    4    0    0 -0.86509681479E+03 -0.11361567224E+04 -0.11343003353E+04  0.18254963061E+04  0.80962435442E+02 0.  0.
         24    2    4    4    0    0  0.20137626235E+03 -0.34251756119E+03 -0.16168090341E+03  0.43671945688E+03  0.81929791458E+02 0.  0.
         13    1    3    3    0    0  0.39460501963E+03  0.82929277425E+03  0.15811753902E+02  0.91852579632E+03  0.00000000000E+00 0. -1.
        -13    1    3    3    0    0  0.26911553281E+03  0.64938150938E+03 -0.60565809849E+02  0.70554073734E+03  0.00000000000E+00 0.  1.
          4    1    6    6  502    0  0.18024381132E+02 -0.51563858097E+01 -0.20088734405E+02  0.27477697863E+02  0.00000000000E+00 0. -1.
          3    1    5    5  503    0 -0.14505795004E+03 -0.14473035557E+03 -0.16990204389E+03  0.26618675627E+03  0.00000000000E+00 0. -1.
         -4    1    5    5    0  503 -0.72003886475E+03 -0.99142636686E+03 -0.96439829137E+03  0.15593095498E+04  0.00000000000E+00 0.  1.
         -3    1    6    6    0  502  0.18335188122E+03 -0.33736117538E+03 -0.14159216901E+03  0.40924175902E+03  0.00000000000E+00 0.  1.
<mgrwt>
<rscale>  0 0.36476868E+04</rscale>
<asrwt>0</asrwt>
<pdfrwt beam="1">  1        2 0.40207827E+00 0.36476868E+04</pdfrwt>
<pdfrwt beam="2">  1       -2 0.19581131E+00 0.36476868E+04</pdfrwt>
<totfact> 0.34380703E-01</totfact>
</mgrwt>
</event>
<event>
12    1  0.2019083E-007  0.1686218E+04  0.7818608E-02  0.8769264E-01
          2   -1    0    0  501    0  0.00000000000E+00  0.00000000000E+00  0.52646961043E+03  0.52646961043E+03  0.00000000000E+00 0. -1.
         -2   -1    0    0    0  501 -0.00000000000E+00 -0.00000000000E+00 -0.13501882828E+04  0.13501882828E+04  0.00000000000E+00 0.  1.
         23    2    1    2    0    0 -0.24382017450E+02  0.59763687566E+03 -0.28074287771E+03  0.66731128811E+03  0.93399539268E+02 0.  0.
        254    2    1    2    0    0  0.24382017450E+02 -0.59763687566E+03 -0.54297579468E+03  0.12093466051E+04  0.89996232133E+03 0.  0.
        -24    2    4    4    0    0  0.55486825021E+02 -0.48497909467E+03 -0.78544117338E+03  0.92837006434E+03  0.81667799680E+02 0.  0.
         24    2    4    4    0    0 -0.31104807571E+02 -0.11265778099E+03  0.24246537870E+03  0.28097654080E+03  0.80616821677E+02 0.  0.
         11    1    3    3    0    0 -0.58750452355E+02  0.30527354750E+03 -0.15111911982E+03  0.34565957650E+03  0.00000000000E+00 0.  1.
        -11    1    3    3    0    0  0.34368434905E+02  0.29236332816E+03 -0.12962375789E+03  0.32165171161E+03  0.00000000000E+00 0. -1.
          4    1    6    6  502    0 -0.49291227379E+02 -0.30825528545E+02  0.10130381302E+03  0.11680026044E+03  0.00000000000E+00 0. -1.
          3    1    5    5  503    0  0.45999723997E+02 -0.28896615525E+03 -0.39709376701E+03  0.49325538343E+03  0.00000000000E+00 0. -1.
         -4    1    5    5    0  503  0.94871010238E+01 -0.19601293942E+03 -0.38834740637E+03  0.43511468090E+03  0.00000000000E+00 0.  1.
         -3    1    6    6    0  502  0.18186419807E+02 -0.81832252449E+02  0.14116156568E+03  0.16417628035E+03  0.00000000000E+00 0.  1.
<mgrwt>
<rscale>  0 0.16862184E+04</rscale>
<asrwt>0</asrwt>
<pdfrwt beam="1">  1        2 0.80995326E-01 0.16862184E+04</pdfrwt>
<pdfrwt beam="2">  1       -2 0.20772127E+00 0.16862184E+04</pdfrwt>
<totfact> 0.65353547E+00</totfact>
</mgrwt>
</event>
<event>
12    1  0.2019083E-007  0.1770938E+04  0.7818608E-02  0.8721909E-01
          2   -1    0    0  501    0  0.00000000000E+00  0.00000000000E+00  0.31010975663E+04  0.31010975663E+04  0.00000000000E+00 0. -1.
         -2   -1    0    0    0  501 -0.00000000000E+00 -0.00000000000E+00 -0.25283149609E+03  0.25283149609E+03  0.00000000000E+00 0.  1.
         23    2    1    2    0    0  0.25405873078E+03 -0.59232696230E+03  0.85940870909E+03  0.10782955641E+04  0.93492915916E+02 0.  0.
        254    2    1    2    0    0 -0.25405873078E+03  0.59232696230E+03  0.19888573611E+04  0.22756334983E+04  0.89864183455E+03 0.  0.
        -24    2    4    4    0    0 -0.13147838970E+03  0.47962546151E+03  0.20260464821E+04  0.20875979467E+04  0.76639996972E+02 0.  0.
         24    2    4    4    0    0 -0.12258034108E+03  0.11270150079E+03 -0.37189120951E+02  0.18803555164E+03  0.79036508427E+02 0.  0.
         11    1    3    3    0    0  0.84126945624E+02 -0.31367338598E+03  0.41833752229E+03  0.52959854475E+03  0.00000000000E+00 0. -1.
        -11    1    3    3    0    0  0.16993178516E+03 -0.27865357632E+03  0.44107118680E+03  0.54869701934E+03  0.00000000000E+00 0.  1.
          2    1    6    6  502    0 -0.11600502156E+03  0.77218748869E+02 -0.46311411856E+01  0.13943223327E+03  0.00000000000E+00 0. -1.
          3    1    5    5  503    0 -0.10846979849E+03  0.45033269439E+03  0.19237245247E+04  0.19787069717E+04  0.00000000000E+00 0. -1.
         -4    1    5    5    0  503 -0.23008591208E+02  0.29292767116E+02  0.10232195737E+03  0.10889097499E+03  0.00000000000E+00 0.  1.
         -1    1    6    6    0  502 -0.65753195155E+01  0.35482751921E+02 -0.32557979765E+02  0.48603318375E+02  0.00000000000E+00 0.  1.
<mgrwt>
<rscale>  0 0.17709378E+04</rscale>
<asrwt>0</asrwt>
<pdfrwt beam="1">  1        2 0.47709191E+00 0.17709378E+04</pdfrwt>
<pdfrwt beam="2">  1       -2 0.38897155E-01 0.17709378E+04</pdfrwt>
<totfact> 0.89243927E+00</totfact>
</mgrwt>
</event>
<event>
12    1  0.2019083E-007  0.2109963E+04  0.7818608E-02  0.8556867E-01
         -2   -1    0    0    0  501 -0.00000000000E+00  0.00000000000E+00  0.81608518165E+03  0.81608518165E+03  0.00000000000E+00 0.  1.
          2   -1    0    0  501    0  0.00000000000E+00 -0.00000000000E+00 -0.13638107899E+04  0.13638107899E+04  0.00000000000E+00 0. -1.
         23    2    1    2    0    0 -0.74830491315E+03 -0.41782039803E+03 -0.13422666119E+03  0.87251242152E+03  0.93418419373E+02 0.  0.
        254    2    1    2    0    0  0.74830491315E+03  0.41782039803E+03 -0.41349894704E+03  0.13073835500E+04  0.89651337946E+03 0.  0.
        -24    2    4    4    0    0  0.36301347817E+03  0.15221511448E+03  0.26355347463E+03  0.48047897929E+03  0.80320539973E+02 0.  0.
         24    2    4    4    0    0  0.38529143498E+03  0.26560528355E+03 -0.67705242166E+03  0.82690457070E+03  0.79846921373E+02 0.  0.
         13    1    3    3    0    0 -0.20117918120E+03 -0.11519698891E+03 -0.78653438453E+02  0.24480558119E+03  0.00000000000E+00 0. -1.
        -13    1    3    3    0    0 -0.54712573195E+03 -0.30262340912E+03 -0.55573222735E+02  0.62770684033E+03  0.00000000000E+00 0.  1.
          2    1    6    6  502    0  0.31840094005E+03  0.23785516903E+03 -0.52481027830E+03  0.65831608538E+03  0.00000000000E+00 0. -1.
          1    1    5    5  503    0  0.12312515986E+03  0.87993498053E+02  0.12377864328E+03  0.19550911289E+03  0.00000000000E+00 0. -1.
         -2    1    5    5    0  503  0.23988831832E+03  0.64221616428E+02  0.13977483135E+03  0.28496986641E+03  0.00000000000E+00 0.  1.
         -1    1    6    6    0  502  0.66890494929E+02  0.27750114511E+02 -0.15224214337E+03  0.16858848532E+03  0.00000000000E+00 0.  1.
<mgrwt>
<rscale>  0 0.21099628E+04</rscale>
<asrwt>0</asrwt>
<pdfrwt beam="1">  1        2 0.20981704E+00 0.21099628E+04</pdfrwt>
<pdfrwt beam="2">  1       -2 0.12555157E+00 0.21099628E+04</pdfrwt>
<totfact> 0.66297810E+00</totfact>
</mgrwt>
</event>
<event>
12    1  0.2019083E-007  0.1254932E+04  0.7818608E-02  0.9066088E-01
          2   -1    0    0  501    0  0.00000000000E+00  0.00000000000E+00  0.13260617008E+04  0.13260617008E+04  0.00000000000E+00 0. -1.
         -2   -1    0    0    0  501 -0.00000000000E+00 -0.00000000000E+00 -0.29690457541E+03  0.29690457541E+03  0.00000000000E+00 0.  1.
         23    2    1    2    0    0 -0.59799384564E+02 -0.23944215569E+03  0.45798467077E+02  0.26538984866E+03  0.86172848820E+02 0.  0.
        254    2    1    2    0    0  0.59799384564E+02  0.23944215569E+03  0.98335865829E+03  0.13575764275E+04  0.90283497575E+03 0.  0.
        -24    2    4    4    0    0  0.61810252555E+01 -0.15731863268E+02  0.10684161771E+04  0.10717978161E+04  0.83377061251E+02 0.  0.
         24    2    4    4    0    0  0.53618359308E+02  0.25517401895E+03 -0.85057518836E+02  0.28577861148E+03  0.80286517338E+02 0.  0.
         11    1    3    3    0    0 -0.42911064098E+02 -0.21290044528E+03  0.95472046171E+01  0.21739160089E+03  0.00000000000E+00 0.  1.
        -11    1    3    3    0    0 -0.16888320466E+02 -0.26541710409E+02  0.36251262460E+02  0.47998247776E+02  0.00000000000E+00 0. -1.
          2    1    6    6  502    0  0.43807797124E+02  0.20191047982E+03 -0.30400382602E+02  0.20883282360E+03  0.00000000000E+00 0. -1.
          1    1    5    5  503    0  0.24913695009E+02 -0.42797276362E+02  0.76508244685E+03  0.76668340894E+03  0.00000000000E+00 0. -1.
         -2    1    5    5    0  503 -0.18732669754E+02  0.27065413094E+02  0.30333373028E+03  0.30511440711E+03  0.00000000000E+00 0.  1.
         -1    1    6    6    0  502  0.98105621846E+01  0.53263539129E+02 -0.54657136234E+02  0.76945787878E+02  0.00000000000E+00 0.  1.
<mgrwt>
<rscale>  0 0.12549323E+04</rscale>
<asrwt>0</asrwt>
<pdfrwt beam="1">  1        2 0.20400949E+00 0.12549323E+04</pdfrwt>
<pdfrwt beam="2">  1       -2 0.45677628E-01 0.12549323E+04</pdfrwt>
<totfact> 0.71302783E+01</totfact>
</mgrwt>
</event>
<event>
12    1  0.2019083E-007  0.1592871E+04  0.7818608E-02  0.8824940E-01
         -1   -1    0    0    0  501 -0.00000000000E+00  0.00000000000E+00  0.48352940326E+03  0.48352940326E+03  0.00000000000E+00 0.  1.
          1   -1    0    0  501    0  0.00000000000E+00 -0.00000000000E+00 -0.13118320176E+04  0.13118320176E+04  0.00000000000E+00 0. -1.
         23    2    1    2    0    0 -0.39832263008E+03 -0.35195569604E+03 -0.19423710055E+03  0.57283204384E+03  0.88739898655E+02 0.  0.
        254    2    1    2    0    0  0.39832263008E+03  0.35195569604E+03 -0.63406551379E+03  0.12225293770E+04  0.90000292903E+03 0.  0.
        -24    2    4    4    0    0  0.37439245063E+03 -0.49231078688E+02 -0.70773469408E+03  0.80612269729E+03  0.79699433370E+02 0.  0.
         24    2    4    4    0    0  0.23930179444E+02  0.40118677473E+03  0.73669180284E+02  0.41640667972E+03  0.80273863041E+02 0.  0.
         11    1    3    3    0    0 -0.14269201246E+03 -0.11238500071E+03 -0.11054442195E+03  0.21262988508E+03  0.00000000000E+00 0.  1.
        -11    1    3    3    0    0 -0.25563061762E+03 -0.23957069533E+03 -0.83692678594E+02  0.36020215876E+03  0.00000000000E+00 0. -1.
          2    1    6    6  502    0  0.96967214200E-01  0.31146597824E+03  0.85076085762E+02  0.32287614556E+03  0.00000000000E+00 0. -1.
          1    1    5    5  503    0  0.31487014331E+03 -0.69283264778E+02 -0.57320071433E+03  0.65764917459E+03  0.00000000000E+00 0. -1.
         -4    1    5    5    0  503  0.59522307321E+02  0.20052186090E+02 -0.13453397975E+03  0.14847352270E+03  0.00000000000E+00 0.  1.
         -1    1    6    6    0  502  0.23833212230E+02  0.89720796493E+02 -0.11406905478E+02  0.93530534165E+02  0.00000000000E+00 0.  1.
<mgrwt>
<rscale>  0 0.15928708E+04</rscale>
<asrwt>0</asrwt>
<pdfrwt beam="1">  1        1 0.20182031E+00 0.15928708E+04</pdfrwt>
<pdfrwt beam="2">  1       -1 0.74389138E-01 0.15928708E+04</pdfrwt>
<totfact> 0.15490942E+01</totfact>
</mgrwt>
</event>
<event>
12    1  0.2019083E-007  0.2114157E+04  0.7818608E-02  0.8555033E-01
         -1   -1    0    0    0  501 -0.00000000000E+00  0.00000000000E+00  0.47104053701E+03  0.47104053701E+03  0.00000000000E+00 0.  1.
          1   -1    0    0  501    0  0.00000000000E+00 -0.00000000000E+00 -0.23722264848E+04  0.23722264848E+04  0.00000000000E+00 0. -1.
         23    2    1    2    0    0 -0.55691352821E+03  0.38783750980E+03 -0.63051386523E+02  0.68760901732E+03  0.90884935157E+02 0.  0.
        254    2    1    2    0    0  0.55691352821E+03 -0.38783750980E+03 -0.18381345613E+04  0.21556580045E+04  0.89863905719E+03 0.  0.
        -24    2    4    4    0    0  0.73811861652E+03 -0.44014880107E+03 -0.17081651496E+04  0.19139212729E+04  0.81953654382E+02 0.  0.
         24    2    4    4    0    0 -0.18120508831E+03  0.52311291268E+02 -0.12996941168E+03  0.24173673160E+03  0.77284178251E+02 0.  0.
         11    1    3    3    0    0 -0.23133150184E+03  0.20596515743E+03 -0.55036876187E+02  0.31458697933E+03  0.00000000000E+00 0. -1.
        -11    1    3    3    0    0 -0.32558202637E+03  0.18187235237E+03 -0.80145103351E+01  0.37302203799E+03  0.00000000000E+00 0.  1.
          2    1    6    6  502    0 -0.15098282886E+03  0.17947446738E+02 -0.12274286595E+03  0.19540659303E+03  0.00000000000E+00 0. -1.
          3    1    5    5  503    0  0.48749896899E+03 -0.30339539319E+03 -0.10563846025E+04  0.12023528758E+04  0.00000000000E+00 0. -1.
         -4    1    5    5    0  503  0.25061964753E+03 -0.13675340788E+03 -0.65178054708E+03  0.71156839717E+03  0.00000000000E+00 0.  1.
         -1    1    6    6    0  502 -0.30222259442E+02  0.34363844530E+02 -0.72265457288E+01  0.46330138569E+02  0.00000000000E+00 0.  1.
<mgrwt>
<rscale>  0 0.21141569E+04</rscale>
<asrwt>0</asrwt>
<pdfrwt beam="1">  1        1 0.36495792E+00 0.21141569E+04</pdfrwt>
<pdfrwt beam="2">  1       -1 0.72467776E-01 0.21141569E+04</pdfrwt>
<totfact> 0.29292425E+00</totfact>
</mgrwt>
</event>
<event>
12    1  0.2019083E-007  0.4046408E+04  0.7818608E-02  0.7995249E-01
          1   -1    0    0  501    0  0.00000000000E+00  0.00000000000E+00  0.19775067105E+04  0.19775067105E+04  0.00000000000E+00 0. -1.
         -1   -1    0    0    0  501 -0.00000000000E+00 -0.00000000000E+00 -0.20699577328E+04  0.20699577328E+04  0.00000000000E+00 0.  1.
         23    2    1    2    0    0 -0.97495883001E+03 -0.11689980939E+04 -0.12181401409E+04  0.19518285585E+04  0.93102389469E+02 0.  0.
        254    2    1    2    0    0  0.97495883001E+03  0.11689980939E+04  0.11256891186E+04  0.20956358848E+04  0.89856135359E+03 0.  0.
        -24    2    4    4    0    0 -0.44493826078E+02 -0.60447182307E+02  0.24966131922E+03  0.27229317194E+03  0.78608108749E+02 0.  0.
         24    2    4    4    0    0  0.10194526561E+04  0.12294452762E+04  0.87602779943E+03  0.18233427129E+04  0.79589811352E+02 0.  0.
         11    1    3    3    0    0 -0.41803402282E+03 -0.56551145167E+03 -0.58940336992E+03  0.91757941274E+03  0.00000000000E+00 0. -1.
        -11    1    3    3    0    0 -0.55692480719E+03 -0.60348664225E+03 -0.62873677101E+03  0.10342491457E+04  0.00000000000E+00 0.  1.
          2    1    6    6  502    0  0.51439948603E+03  0.56052585378E+03  0.42937931822E+03  0.87359181710E+03  0.00000000000E+00 0. -1.
          1    1    5    5  503    0 -0.63963482925E+02 -0.28691507609E+02  0.14183209073E+03  0.15821147783E+03  0.00000000000E+00 0. -1.
         -2    1    5    5    0  503  0.19469656848E+02 -0.31755674698E+02  0.10782922849E+03  0.11408169410E+03  0.00000000000E+00 0.  1.
         -1    1    6    6    0  502  0.50505317006E+03  0.66891942245E+03  0.44664848121E+03  0.94975089580E+03  0.00000000000E+00 0.  1.
<mgrwt>
<rscale>  0 0.40464084E+04</rscale>
<asrwt>0</asrwt>
<pdfrwt beam="1">  1        1 0.30423180E+00 0.40464084E+04</pdfrwt>
<pdfrwt beam="2">  1       -1 0.31845503E+00 0.40464084E+04</pdfrwt>
<totfact> 0.60279484E-02</totfact>
</mgrwt>
</event>
<event>
12    1  0.2019083E-007  0.1747598E+04  0.7818608E-02  0.8734674E-01
          1   -1    0    0  501    0  0.00000000000E+00  0.00000000000E+00  0.15305360903E+04  0.15305360903E+04  0.00000000000E+00 0. -1.
         -1   -1    0    0    0  501 -0.00000000000E+00 -0.00000000000E+00 -0.49886075072E+03  0.49886075072E+03  0.00000000000E+00 0.  1.
         23    2    1    2    0    0 -0.25660978026E+03  0.25243326724E+03 -0.22669150091E+03  0.43962415260E+03  0.11094694782E+03 0.  0.
        254    2    1    2    0    0  0.25660978026E+03 -0.25243326724E+03  0.12583668405E+04  0.15897726884E+04  0.90239623329E+03 0.  0.
        -24    2    4    4    0    0 -0.11880270733E+03 -0.44973683916E+03  0.36023700940E+03  0.59366307968E+03  0.79295910762E+02 0.  0.
         24    2    4    4    0    0  0.37541248758E+03  0.19730357192E+03  0.89812983105E+03  0.99610960871E+03  0.75722677005E+02 0.  0.
         11    1    3    3    0    0 -0.23369413830E+03  0.26265144027E+03 -0.21250822425E+03  0.41080223311E+03  0.00000000000E+00 0.  1.
        -11    1    3    3    0    0 -0.22915641956E+02 -0.10218173029E+02 -0.14183276660E+02  0.28821919491E+02  0.00000000000E+00 0. -1.
          2    1    6    6  502    0  0.29339638957E+03  0.17044018552E+03  0.64718864271E+03  0.73074238792E+03  0.00000000000E+00 0. -1.
          3    1    5    5  503    0 -0.11334011688E+02 -0.14180399057E+03  0.14353466904E+03  0.20208669619E+03  0.00000000000E+00 0. -1.
         -4    1    5    5    0  503 -0.10746869564E+03 -0.30793284859E+03  0.21670234036E+03  0.39157638348E+03  0.00000000000E+00 0.  1.
         -1    1    6    6    0  502  0.82016098012E+02  0.26863386398E+02  0.25094118834E+03  0.26536722079E+03  0.00000000000E+00 0.  1.
<mgrwt>
<rscale>  0 0.17475976E+04</rscale>
<asrwt>0</asrwt>
<pdfrwt beam="1">  1        1 0.23546709E+00 0.17475976E+04</pdfrwt>
<pdfrwt beam="2">  1       -1 0.76747808E-01 0.17475976E+04</pdfrwt>
<totfact> 0.10058912E+01</totfact>
</mgrwt>
</event>
<event>
12    1  0.2019083E-007  0.1254154E+04  0.7818608E-02  0.9066733E-01
          2   -1    0    0  501    0  0.00000000000E+00  0.00000000000E+00  0.21170670080E+04  0.21170670080E+04  0.00000000000E+00 0. -1.
         -2   -1    0    0    0  501 -0.00000000000E+00 -0.00000000000E+00 -0.18574075488E+03  0.18574075488E+03  0.00000000000E+00 0.  1.
         23    2    1    2    0    0  0.18056935340E+03 -0.21505423039E+03  0.33405081138E+03  0.44610011800E+03  0.92529764413E+02 0.  0.
        254    2    1    2    0    0 -0.18056935340E+03  0.21505423039E+03  0.15972754417E+04  0.18567076449E+04  0.90400267055E+03 0.  0.
        -24    2    4    4    0    0 -0.31010287642E+03  0.48252139545E+03  0.70062845643E+03  0.90880991031E+03  0.77875080022E+02 0.  0.
         24    2    4    4    0    0  0.12953352302E+03 -0.26746716506E+03  0.89664698528E+03  0.94789773454E+03  0.78845931818E+02 0.  0.
         13    1    3    3    0    0 -0.48418035217E+01 -0.62091813652E+01 -0.29612360216E+01  0.84122478176E+01  0.00000000000E+00 0.  1.
        -13    1    3    3    0    0  0.18541115692E+03 -0.20884504902E+03  0.33701204740E+03  0.43768787018E+03  0.00000000000E+00 0. -1.
          4    1    6    6  502    0  0.52759823991E+02 -0.12159335263E+03  0.52243716236E+03  0.53898898972E+03  0.00000000000E+00 0. -1.
          3    1    5    5  503    0 -0.29367847811E+03  0.41483807127E+03  0.59861061577E+03  0.78528488027E+03  0.00000000000E+00 0. -1.
         -4    1    5    5    0  503 -0.16424398313E+02  0.67683324179E+02  0.10201784066E+03  0.12352503004E+03  0.00000000000E+00 0.  1.
         -1    1    6    6    0  502  0.76773699024E+02 -0.14587381244E+03  0.37420982293E+03  0.40890874482E+03  0.00000000000E+00 0.  1.
<mgrwt>
<rscale>  0 0.12541541E+04</rscale>
<asrwt>0</asrwt>
<pdfrwt beam="1">  1        2 0.32570260E+00 0.12541541E+04</pdfrwt>
<pdfrwt beam="2">  1       -2 0.28575502E-01 0.12541541E+04</pdfrwt>
<totfact> 0.63562278E+01</totfact>
</mgrwt>
</event>
<event>
12    1  0.2019083E-007  0.1163182E+04  0.7818608E-02  0.9145708E-01
         -1   -1    0    0    0  501 -0.00000000000E+00  0.00000000000E+00  0.15145288975E+04  0.15145288975E+04  0.00000000000E+00 0.  1.
          1   -1    0    0  501    0  0.00000000000E+00 -0.00000000000E+00 -0.22333542176E+03  0.22333542176E+03  0.00000000000E+00 0. -1.
         23    2    1    2    0    0 -0.19019317921E+03  0.10340986629E+03  0.22191157073E+03  0.32298016405E+03  0.90578117019E+02 0.  0.
        254    2    1    2    0    0  0.19019317921E+03 -0.10340986629E+03  0.10692819050E+04  0.14148841552E+04  0.90092526571E+03 0.  0.
        -24    2    4    4    0    0  0.48636901170E+02 -0.96767770282E+01  0.11889277099E+04  0.11926657759E+04  0.80270577325E+02 0.  0.
         24    2    4    4    0    0  0.14155627804E+03 -0.93733089265E+02 -0.11964580487E+03  0.22221837927E+03  0.79005174428E+02 0.  0.
         13    1    3    3    0    0  0.10955721876E+01  0.89551477350E+01  0.44816019954E+02  0.45715102471E+02  0.00000000000E+00 0.  1.
        -13    1    3    3    0    0 -0.19128875140E+03  0.94454718558E+02  0.17709555077E+03  0.27726506158E+03  0.00000000000E+00 0. -1.
          4    1    6    6  502    0  0.10758780599E+02 -0.45444743867E+02 -0.19783650804E+02  0.50718526637E+02  0.00000000000E+00 0. -1.
          3    1    5    5  503    0  0.23120999088E+02  0.34752371718E+02  0.43450947030E+03  0.43650977964E+03  0.00000000000E+00 0. -1.
         -4    1    5    5    0  503  0.25515902082E+02 -0.44429148746E+02  0.75441823959E+03  0.75615599630E+03  0.00000000000E+00 0.  1.
         -1    1    6    6    0  502  0.13079749744E+03 -0.48288345398E+02 -0.99862154062E+02  0.17149985263E+03  0.00000000000E+00 0.  1.
<mgrwt>
<rscale>  0 0.11631818E+04</rscale>
<asrwt>0</asrwt>
<pdfrwt beam="1">  1        1 0.34359297E-01 0.11631818E+04</pdfrwt>
<pdfrwt beam="2">  1       -1 0.23300444E+00 0.11631818E+04</pdfrwt>
<totfact> 0.11546608E+01</totfact>
</mgrwt>
</event>
<event>
12    1  0.2019083E-007  0.2922387E+04  0.7818608E-02  0.8266248E-01
          1   -1    0    0  501    0  0.00000000000E+00  0.00000000000E+00  0.23433834342E+04  0.23433834342E+04  0.00000000000E+00 0. -1.
         -1   -1    0    0    0  501 -0.00000000000E+00 -0.00000000000E+00 -0.91111270937E+03  0.91111270937E+03  0.00000000000E+00 0.  1.
         23    2    1    2    0    0  0.20303439815E+03  0.12342192629E+04  0.11201143386E+04  0.16815403756E+04  0.91661047120E+02 0.  0.
        254    2    1    2    0    0 -0.20303439815E+03 -0.12342192629E+04  0.31215638629E+03  0.15729557680E+04  0.90123697384E+03 0.  0.
        -24    2    4    4    0    0  0.38044371840E+02 -0.85606341774E+03  0.58634006893E+03  0.10415165115E+04  0.81670177026E+02 0.  0.
         24    2    4    4    0    0 -0.24107876999E+03 -0.37815584512E+03 -0.27418368264E+03  0.53143925655E+03  0.78295434340E+02 0.  0.
         11    1    3    3    0    0  0.18102932590E+03  0.11120740341E+04  0.96975688510E+03  0.14865761637E+04  0.00000000000E+00 0.  1.
        -11    1    3    3    0    0  0.22005072255E+02  0.12214522875E+03  0.15035745345E+03  0.19496421190E+03  0.00000000000E+00 0. -1.
          4    1    6    6  502    0 -0.12816573450E+03 -0.26960018779E+03 -0.17446965070E+03  0.34576057579E+03  0.00000000000E+00 0. -1.
          1    1    5    5  503    0  0.23953081185E+02 -0.45414228843E+03  0.36011146625E+03  0.58008554228E+03  0.00000000000E+00 0. -1.
         -2    1    5    5    0  503  0.14091290655E+02 -0.40192112931E+03  0.22622860268E+03  0.46143096920E+03  0.00000000000E+00 0.  1.
         -3    1    6    6    0  502 -0.11291303549E+03 -0.10855565732E+03 -0.99714031940E+02  0.18567868075E+03  0.00000000000E+00 0.  1.
<mgrwt>
<rscale>  0 0.29223870E+04</rscale>
<asrwt>0</asrwt>
<pdfrwt beam="1">  1        1 0.36052053E+00 0.29223870E+04</pdfrwt>
<pdfrwt beam="2">  1       -1 0.14017119E+00 0.29223870E+04</pdfrwt>
<totfact> 0.62188608E-01</totfact>
</mgrwt>
</event>
<event>
12    1  0.2019083E-007  0.1718145E+04  0.7818608E-02  0.8751083E-01
          2   -1    0    0  501    0  0.00000000000E+00  0.00000000000E+00  0.15009892328E+04  0.15009892328E+04  0.00000000000E+00 0. -1.
         -2   -1    0    0    0  501 -0.00000000000E+00 -0.00000000000E+00 -0.49167927838E+03  0.49167927838E+03  0.00000000000E+00 0.  1.
         23    2    1    2    0    0 -0.26289738612E+03 -0.43830502186E+03  0.77185626813E+03  0.93021778235E+03  0.91195921721E+02 0.  0.
        254    2    1    2    0    0  0.26289738612E+03  0.43830502186E+03  0.23745368631E+03  0.10624507288E+04  0.90066140712E+03 0.  0.
        -24    2    4    4    0    0  0.14364268419E+03 -0.12714401005E+03 -0.23338534216E+03  0.31255446201E+03  0.80142084923E+02 0.  0.
         24    2    4    4    0    0  0.11925470192E+03  0.56544903190E+03  0.47083902848E+03  0.74989626683E+03  0.81857978579E+02 0.  0.
         13    1    3    3    0    0 -0.17945986290E+03 -0.29160129651E+03  0.58967851827E+03  0.68187822478E+03  0.00000000000E+00 0. -1.
        -13    1    3    3    0    0 -0.83437523219E+02 -0.14670372535E+03  0.18217774986E+03  0.24833955757E+03  0.00000000000E+00 0.  1.
          2    1    6    6  502    0  0.57428847775E+01  0.25921700556E+02  0.28238818765E+01  0.26699992400E+02  0.00000000000E+00 0. -1.
          1    1    5    5  503    0  0.41519819121E+02  0.14313619029E+01 -0.30435317953E+02  0.51500026754E+02  0.00000000000E+00 0. -1.
         -2    1    5    5    0  503  0.10212286507E+03 -0.12857537195E+03 -0.20295002421E+03  0.26105443526E+03  0.00000000000E+00 0.  1.
         -1    1    6    6    0  502  0.11351181715E+03  0.53952733135E+03  0.46801514660E+03  0.72319627443E+03  0.00000000000E+00 0.  1.
<mgrwt>
<rscale>  0 0.17181447E+04</rscale>
<asrwt>0</asrwt>
<pdfrwt beam="1">  1        2 0.23092142E+00 0.17181447E+04</pdfrwt>
<pdfrwt beam="2">  1       -2 0.75642966E-01 0.17181447E+04</pdfrwt>
<totfact> 0.18873356E+01</totfact>
</mgrwt>
</event>
<event>
12    1  0.2019083E-007  0.2146110E+04  0.7818608E-02  0.8541199E-01
          2   -1    0    0  501    0  0.00000000000E+00  0.00000000000E+00  0.18293577369E+04  0.18293577369E+04  0.00000000000E+00 0. -1.
         -2   -1    0    0    0  501 -0.00000000000E+00 -0.00000000000E+00 -0.62942694306E+03  0.62942694306E+03  0.00000000000E+00 0.  1.
         23    2    1    2    0    0  0.49017310227E+03 -0.72556556974E+03  0.61103236567E+03  0.10714871468E+04  0.89493505972E+02 0.  0.
        254    2    1    2    0    0 -0.49017310227E+03  0.72556556974E+03  0.58889842819E+03  0.13872975332E+04  0.90059870129E+03 0.  0.
        -24    2    4    4    0    0 -0.18732650213E+03 -0.16226589942E+03  0.31082176193E+03  0.40556777576E+03  0.80334379508E+02 0.  0.
         24    2    4    4    0    0 -0.30284660015E+03  0.88783146916E+03  0.27807666626E+03  0.98172975746E+03  0.80659181226E+02 0.  0.
         13    1    3    3    0    0  0.31129049365E+03 -0.43000084171E+03  0.41852064783E+03  0.67598966558E+03  0.00000000000E+00 0. -1.
        -13    1    3    3    0    0  0.17888260862E+03 -0.29556472803E+03  0.19251171784E+03  0.39549748119E+03  0.00000000000E+00 0.  1.
          4    1    6    6  502    0 -0.13651810524E+03  0.35922806751E+03  0.15302797703E+03  0.41364182489E+03  0.00000000000E+00 0. -1.
          3    1    5    5  503    0 -0.11488736597E+03 -0.14653516626E+03  0.22934503300E+03  0.29541632652E+03  0.00000000000E+00 0. -1.
         -4    1    5    5    0  503 -0.72439136153E+02 -0.15730733154E+02  0.81476728925E+02  0.11015144923E+03  0.00000000000E+00 0.  1.
         -3    1    6    6    0  502 -0.16632849491E+03  0.52860340165E+03  0.12504868923E+03  0.56808793257E+03  0.00000000000E+00 0.  1.
<mgrwt>
<rscale>  0 0.21461100E+04</rscale>
<asrwt>0</asrwt>
<pdfrwt beam="1">  1        2 0.28143965E+00 0.21461100E+04</pdfrwt>
<pdfrwt beam="2">  1       -2 0.96834915E-01 0.21461100E+04</pdfrwt>
<totfact> 0.67993787E+00</totfact>
</mgrwt>
</event>
<event>
12    1  0.2019083E-007  0.5098623E+04  0.7818608E-02  0.7813471E-01
          2   -1    0    0  501    0  0.00000000000E+00  0.00000000000E+00  0.12520355309E+04  0.12520355309E+04  0.00000000000E+00 0. -1.
         -2   -1    0    0    0  501 -0.00000000000E+00 -0.00000000000E+00 -0.51907384181E+04  0.51907384181E+04  0.00000000000E+00 0.  1.
         23    2    1    2    0    0 -0.92247281024E+03  0.21922534045E+04 -0.10719657461E+04  0.26103985238E+04  0.90215391359E+02 0.  0.
        254    2    1    2    0    0  0.92247281024E+03 -0.21922534045E+04 -0.28667371412E+04  0.38323754252E+04  0.90110403828E+03 0.  0.
        -24    2    4    4    0    0  0.78562966438E+03 -0.22406362728E+04 -0.27272592112E+04  0.36169391615E+04  0.81493659292E+02 0.  0.
         24    2    4    4    0    0  0.13684314586E+03  0.48382868222E+02 -0.13947793001E+03  0.21543626374E+03  0.76757685403E+02 0.  0.
         13    1    3    3    0    0 -0.66081633461E+03  0.14640900431E+04 -0.71338448651E+03  0.17575993025E+04  0.00000000000E+00 0. -1.
        -13    1    3    3    0    0 -0.26165647563E+03  0.72816336141E+03 -0.35858125956E+03  0.85279922130E+03  0.00000000000E+00 0.  1.
          2    1    6    6  502    0  0.30160594843E+02 -0.20265248862E+02 -0.21651062691E+02  0.42297875932E+02  0.00000000000E+00 0. -1.
          3    1    5    5  503    0  0.23045311998E+03 -0.76971831287E+03 -0.93776986184E+03  0.12349037353E+04  0.00000000000E+00 0. -1.
         -4    1    5    5    0  503  0.55517654440E+03 -0.14709179599E+04 -0.17894893493E+04  0.23820354262E+04  0.00000000000E+00 0.  1.
         -1    1    6    6    0  502  0.10668255102E+03  0.68648117084E+02 -0.11782686732E+03  0.17313838781E+03  0.00000000000E+00 0.  1.
<mgrwt>
<rscale>  0 0.50986229E+04</rscale>
<asrwt>0</asrwt>
<pdfrwt beam="1">  1        2 0.19262085E+00 0.50986229E+04</pdfrwt>
<pdfrwt beam="2">  1       -2 0.79857514E+00 0.50986229E+04</pdfrwt>
<totfact> 0.10201151E-03</totfact>
</mgrwt>
</event>
<event>
12    1  0.2019083E-007  0.1813772E+04  0.7818608E-02  0.8699010E-01
         -2   -1    0    0    0  501 -0.00000000000E+00  0.00000000000E+00  0.45099079892E+03  0.45099079892E+03  0.00000000000E+00 0. -1.
          2   -1    0    0  501    0  0.00000000000E+00 -0.00000000000E+00 -0.18236339322E+04  0.18236339322E+04  0.00000000000E+00 0.  1.
         23    2    1    2    0    0 -0.40049867628E+03 -0.54517911313E+03 -0.60111094858E+03  0.90955614512E+03  0.91315680684E+02 0.  0.
        254    2    1    2    0    0  0.40049867628E+03  0.54517911313E+03 -0.77153218473E+03  0.13650685860E+04  0.90029488356E+03 0.  0.
        -24    2    4    4    0    0 -0.12526356750E+03  0.43576270908E+03 -0.51944403705E+02  0.46347859125E+03  0.80833678071E+02 0.  0.
         24    2    4    4    0    0  0.52576224378E+03  0.10941640405E+03 -0.71958778102E+03  0.90158999476E+03  0.81609175975E+02 0.  0.
         13    1    3    3    0    0  0.15379370781E-01 -0.12872633977E+02 -0.92788348148E+00  0.12906041600E+02  0.00000000000E+00 0. -1.
        -13    1    3    3    0    0 -0.40051405565E+03 -0.53230647915E+03 -0.60018306510E+03  0.89665010352E+03  0.00000000000E+00 0.  1.
          4    1    6    6  502    0  0.43085021766E+03  0.84982918700E+02 -0.63539152181E+03  0.77238357861E+03  0.00000000000E+00 0. -1.
          3    1    5    5  503    0 -0.49383664741E+02  0.29497417804E+03 -0.51867651747E+02  0.30354367948E+03  0.00000000000E+00 0. -1.
         -4    1    5    5    0  503 -0.75879902756E+02  0.14078853104E+03 -0.76751957227E-01  0.15993491178E+03  0.00000000000E+00 0.  1.
         -3    1    6    6    0  502  0.94912026122E+02  0.24433485351E+02 -0.84196259216E+02  0.12920641615E+03  0.00000000000E+00 0.  1.
<mgrwt>
<rscale>  0 0.18137719E+04</rscale>
<asrwt>0</asrwt>
<pdfrwt beam="1">  1        2 0.28055907E+00 0.18137719E+04</pdfrwt>
<pdfrwt beam="2">  1       -2 0.69383200E-01 0.18137719E+04</pdfrwt>
<totfact> 0.14961255E+01</totfact>
</mgrwt>
</event>
<event>
12    1  0.2019083E-007  0.2190935E+04  0.7818608E-02  0.8522211E-01
         -2   -1    0    0    0  501 -0.00000000000E+00  0.00000000000E+00  0.50632792383E+03  0.50632792383E+03  0.00000000000E+00 0. -1.
          2   -1    0    0  501    0  0.00000000000E+00 -0.00000000000E+00 -0.23701031215E+04  0.23701031215E+04  0.00000000000E+00 0.  1.
         23    2    1    2    0    0 -0.76395255176E+03 -0.48943468409E+03 -0.74331422108E+03  0.11767526475E+04  0.95189026229E+02 0.  0.
        254    2    1    2    0    0  0.76395255176E+03  0.48943468409E+03 -0.11204609766E+04  0.16996783979E+04  0.90016889795E+03 0.  0.
        -24    2    4    4    0    0  0.40302249784E+03  0.44249707459E+03 -0.99299950025E+02  0.61264554416E+03  0.85107508027E+02 0.  0.
         24    2    4    4    0    0  0.36093005392E+03  0.46937609502E+02 -0.10211610266E+04  0.10870328537E+04  0.79980871895E+02 0.  0.
         11    1    3    3    0    0 -0.24088932479E+03 -0.20347336594E+03 -0.23370598531E+03  0.39248893617E+03  0.00000000000E+00 0. -1.
        -11    1    3    3    0    0 -0.52306322697E+03 -0.28596131815E+03 -0.50960823577E+03  0.78426371129E+03  0.00000000000E+00 0.  1.
          4    1    6    6  502    0  0.13730256809E+03  0.47751267399E+02 -0.47865361088E+03  0.50024139968E+03  0.00000000000E+00 0. -1.
          1    1    5    5  503    0  0.16469086907E+03  0.12241782822E+03 -0.42478135227E+02  0.20955571811E+03  0.00000000000E+00 0. -1.
         -2    1    5    5    0  503  0.23833162877E+03  0.32007924637E+03 -0.56821814798E+02  0.40308982605E+03  0.00000000000E+00 0.  1.
         -3    1    6    6    0  502  0.22362748583E+03 -0.81365789777E+00 -0.54250741570E+03  0.58679145405E+03  0.00000000000E+00 0.  1.
<mgrwt>
<rscale>  0 0.21909353E+04</rscale>
<asrwt>0</asrwt>
<pdfrwt beam="1">  1        2 0.36463125E+00 0.21909353E+04</pdfrwt>
<pdfrwt beam="2">  1       -2 0.77896603E-01 0.21909353E+04</pdfrwt>
<totfact> 0.55508802E+00</totfact>
</mgrwt>
</event>
<event>
12    1  0.2019083E-007  0.1537451E+04  0.7818608E-02  0.8859923E-01
          2   -1    0    0  501    0  0.00000000000E+00  0.00000000000E+00  0.29800519798E+04  0.29800519798E+04  0.00000000000E+00 0. -1.
         -2   -1    0    0    0  501 -0.00000000000E+00 -0.00000000000E+00 -0.19829823467E+03  0.19829823467E+03  0.00000000000E+00 0.  1.
         23    2    1    2    0    0  0.39925244375E+03 -0.28364231034E+03  0.71819778674E+03  0.87433060605E+03  0.93757526267E+02 0.  0.
        254    2    1    2    0    0 -0.39925244375E+03  0.28364231034E+03  0.20635559584E+04  0.23040196085E+04  0.90021535677E+03 0.  0.
        -24    2    4    4    0    0  0.17204556286E+03 -0.40419620581E+02  0.74718627507E+02  0.20796677770E+03  0.80211507291E+02 0.  0.
         24    2    4    4    0    0 -0.57129800661E+03  0.32406193092E+03  0.19888373309E+04  0.20960528308E+04  0.81030815496E+02 0.  0.
         13    1    3    3    0    0  0.31903493077E+03 -0.25985911448E+03  0.55453466795E+03  0.69052063284E+03  0.00000000000E+00 0.  1.
        -13    1    3    3    0    0  0.80217512985E+02 -0.23783195856E+02  0.16366311880E+03  0.18380997320E+03  0.00000000000E+00 0. -1.
          2    1    6    6  502    0 -0.11227908445E+02 -0.44513904887E+01  0.47357346363E+02  0.48873295979E+02  0.00000000000E+00 0. -1.
          1    1    5    5  503    0  0.77024281576E+01  0.13791982259E+02  0.21956140045E+02  0.27048442836E+02  0.00000000000E+00 0. -1.
         -2    1    5    5    0  503  0.16434313470E+03 -0.54211602840E+02  0.52762487462E+02  0.18091833486E+03  0.00000000000E+00 0.  1.
         -1    1    6    6    0  502 -0.56007009817E+03  0.32851332140E+03  0.19414799846E+04  0.20471795348E+04  0.00000000000E+00 0.  1.
<mgrwt>
<rscale>  0 0.15374512E+04</rscale>
<asrwt>0</asrwt>
<pdfrwt beam="1">  1        2 0.45846950E+00 0.15374512E+04</pdfrwt>
<pdfrwt beam="2">  1       -2 0.30507423E-01 0.15374512E+04</pdfrwt>
<totfact> 0.17270596E+01</totfact>
</mgrwt>
</event>
<event>
12    1  0.2019083E-007  0.1459678E+04  0.7818608E-02  0.8911718E-01
          2   -1    0    0  501    0  0.00000000000E+00  0.00000000000E+00  0.14892324366E+04  0.14892324366E+04  0.00000000000E+00 0. -1.
         -2   -1    0    0    0  501 -0.00000000000E+00 -0.00000000000E+00 -0.35767772038E+03  0.35767772038E+03  0.00000000000E+00 0.  1.
         23    2    1    2    0    0 -0.42508157084E+03 -0.47718141723E+02  0.50060448651E+03  0.66477604021E+03  0.91383635326E+02 0.  0.
        254    2    1    2    0    0  0.42508157084E+03  0.47718141723E+02  0.63095022975E+03  0.11821341168E+04  0.90353279675E+03 0.  0.
        -24    2    4    4    0    0  0.60599958744E+03 -0.21720549317E+03  0.52612321487E+03  0.83531344948E+03  0.80803436888E+02 0.  0.
         24    2    4    4    0    0 -0.18091801660E+03  0.26492363490E+03  0.10482701488E+03  0.34682066733E+03  0.79874972191E+02 0.  0.
         11    1    3    3    0    0 -0.22031257537E+03  0.15365839040E+01  0.31274906716E+03  0.38255976130E+03  0.00000000000E+00 0. -1.
        -11    1    3    3    0    0 -0.20476899547E+03 -0.49254725627E+02  0.18785541935E+03  0.28221627890E+03  0.00000000000E+00 0.  1.
          2    1    6    6  502    0 -0.14330633000E+02  0.79267676333E+02  0.16648656681E+02  0.82255147697E+02  0.00000000000E+00 0. -1.
          1    1    5    5  503    0  0.97710914836E+02 -0.31344062422E+02  0.48530512854E+02  0.11351248304E+03  0.00000000000E+00 0. -1.
         -2    1    5    5    0  503  0.50828867260E+03 -0.18586143075E+03  0.47759270201E+03  0.72180096644E+03  0.00000000000E+00 0.  1.
         -1    1    6    6    0  502 -0.16658738360E+03  0.18565595856E+03  0.88178358196E+02  0.26456551964E+03  0.00000000000E+00 0.  1.
<mgrwt>
<rscale>  0 0.14596784E+04</rscale>
<asrwt>0</asrwt>
<pdfrwt beam="1">  1        2 0.22911268E+00 0.14596784E+04</pdfrwt>
<pdfrwt beam="2">  1       -2 0.55027342E-01 0.14596784E+04</pdfrwt>
<totfact> 0.38738226E+01</totfact>
</mgrwt>
</event>
<event>
12    1  0.2019083E-007  0.4122952E+04  0.7818608E-02  0.7980192E-01
         -2   -1    0    0    0  501 -0.00000000000E+00  0.00000000000E+00  0.12913849158E+04  0.12913849158E+04  0.00000000000E+00 0.  1.
          2   -1    0    0  501    0  0.00000000000E+00 -0.00000000000E+00 -0.32907950620E+04  0.32907950620E+04  0.00000000000E+00 0. -1.
         23    2    1    2    0    0 -0.12889899262E+04  0.14579645586E+04 -0.67368763978E+03  0.20614711405E+04  0.93019047232E+02 0.  0.
        254    2    1    2    0    0  0.12889899262E+04 -0.14579645586E+04 -0.13257225064E+04  0.25207088373E+04  0.89959835192E+03 0.  0.
        -24    2    4    4    0    0  0.64125319537E+03 -0.12914059731E+04 -0.71461590119E+03  0.16111852669E+04  0.79416813082E+02 0.  0.
         24    2    4    4    0    0  0.64773673079E+03 -0.16655858546E+03 -0.61110660523E+03  0.90952357039E+03  0.80481099264E+02 0.  0.
         13    1    3    3    0    0 -0.16394866174E+03  0.17327593438E+03 -0.11428620121E+03  0.26450907150E+03  0.00000000000E+00 0. -1.
        -13    1    3    3    0    0 -0.11250412644E+04  0.12846886242E+04 -0.55940143857E+03  0.17969620690E+04  0.00000000000E+00 0.  1.
          2    1    6    6  502    0  0.12581778146E+03 -0.60803670082E+02 -0.15128463598E+03  0.20594718136E+03  0.00000000000E+00 0. -1.
          3    1    5    5  503    0  0.24592672317E+03 -0.58386513926E+03 -0.31419938818E+03  0.70717728296E+03  0.00000000000E+00 0. -1.
         -4    1    5    5    0  503  0.39532647220E+03 -0.70754083385E+03 -0.40041651301E+03  0.90400798397E+03  0.00000000000E+00 0.  1.
         -1    1    6    6    0  502  0.52191894934E+03 -0.10575491537E+03 -0.45982196925E+03  0.70357638903E+03  0.00000000000E+00 0.  1.
<mgrwt>
<rscale>  0 0.41229519E+04</rscale>
<asrwt>0</asrwt>
<pdfrwt beam="1">  1        2 0.50627615E+00 0.41229519E+04</pdfrwt>
<pdfrwt beam="2">  1       -2 0.19867461E+00 0.41229519E+04</pdfrwt>
<totfact> 0.11959633E-01</totfact>
</mgrwt>
</event>
<event>
12    1  0.2019083E-007  0.2838494E+04  0.7818608E-02  0.8291416E-01
         -2   -1    0    0    0  501 -0.00000000000E+00  0.00000000000E+00  0.21049247055E+04  0.21049247055E+04  0.00000000000E+00 0.  1.
          2   -1    0    0  501    0  0.00000000000E+00 -0.00000000000E+00 -0.95692818079E+03  0.95692818079E+03  0.00000000000E+00 0. -1.
         23    2    1    2    0    0  0.10154135883E+04  0.75309539562E+03  0.37315980894E+03  0.13209115370E+04  0.85683227544E+02 0.  0.
        254    2    1    2    0    0 -0.10154135883E+04 -0.75309539562E+03  0.77483671574E+03  0.17409413492E+04  0.91229787632E+03 0.  0.
        -24    2    4    4    0    0 -0.52695353717E+03 -0.14759862883E+03  0.78334748914E+03  0.95895040081E+03  0.80543136896E+02 0.  0.
         24    2    4    4    0    0 -0.48846005113E+03 -0.60549676679E+03 -0.85107734063E+01  0.78199094840E+03  0.78853370061E+02 0.  0.
         13    1    3    3    0    0  0.49706998587E+03  0.32994672589E+03  0.14529636960E+03  0.61404759408E+03  0.00000000000E+00 0. -1.
        -13    1    3    3    0    0  0.51834360244E+03  0.42314866973E+03  0.22786343935E+03  0.70686394297E+03  0.00000000000E+00 0.  1.
          2    1    6    6  502    0 -0.16897309442E+03 -0.19237281669E+03 -0.38298683739E+02  0.25889379370E+03  0.00000000000E+00 0. -1.
          1    1    5    5  503    0 -0.29031001647E+03 -0.10930042005E+03  0.49240006108E+03  0.58196589903E+03  0.00000000000E+00 0. -1.
         -2    1    5    5    0  503 -0.23664352069E+03 -0.38298208775E+02  0.29094742807E+03  0.37698450178E+03  0.00000000000E+00 0.  1.
         -1    1    6    6    0  502 -0.31948695671E+03 -0.41312395010E+03  0.29787910333E+02  0.52309715470E+03  0.00000000000E+00 0.  1.
<mgrwt>
<rscale>  0 0.28384938E+04</rscale>
<asrwt>0</asrwt>
<pdfrwt beam="1">  1        2 0.14721972E+00 0.28384938E+04</pdfrwt>
<pdfrwt beam="2">  1       -2 0.32383457E+00 0.28384938E+04</pdfrwt>
<totfact> 0.52831252E-01</totfact>
</mgrwt>
</event>
<event>
12    1  0.2019083E-007  0.3133691E+04  0.7818608E-02  0.8206552E-01
          2   -1    0    0  501    0  0.00000000000E+00  0.00000000000E+00  0.20271121171E+04  0.20271121171E+04  0.00000000000E+00 0. -1.
         -2   -1    0    0    0  501 -0.00000000000E+00 -0.00000000000E+00 -0.12110852579E+04  0.12110852579E+04  0.00000000000E+00 0.  1.
         23    2    1    2    0    0 -0.12358802999E+04  0.35438239154E+03  0.10368523791E+04  0.16541633631E+04  0.90590178957E+02 0.  0.
        254    2    1    2    0    0  0.12358802999E+04 -0.35438239154E+03 -0.22082551996E+03  0.15840340119E+04  0.89856154236E+03 0.  0.
        -24    2    4    4    0    0 -0.11758414594E+03 -0.52152485972E+02 -0.11538685851E+03  0.19085317106E+03  0.81024024937E+02 0.  0.
         24    2    4    4    0    0  0.13534644459E+04 -0.30222990557E+03 -0.10543866145E+03  0.13931808408E+04  0.81404065746E+02 0.  0.
         13    1    3    3    0    0 -0.68646839233E+03  0.15539605944E+03  0.59359362689E+03  0.92072807215E+03  0.00000000000E+00 0.  1.
        -13    1    3    3    0    0 -0.54941190759E+03  0.19898633210E+03  0.44325875224E+03  0.73343529094E+03  0.00000000000E+00 0. -1.
          4    1    6    6  502    0  0.74771075961E+03 -0.17817959532E+03 -0.19348476788E+02  0.76889122233E+03  0.00000000000E+00 0. -1.
          1    1    5    5  503    0 -0.46545594522E+02 -0.37137023748E+01 -0.89685550280E+02  0.10111271870E+03  0.00000000000E+00 0. -1.
         -2    1    5    5    0  503 -0.71038551420E+02 -0.48438783597E+02 -0.25701308228E+02  0.89740452355E+02  0.00000000000E+00 0.  1.
         -3    1    6    6    0  502  0.60575368625E+03 -0.12405031025E+03 -0.86090184662E+02  0.62428961850E+03  0.00000000000E+00 0.  1.
<mgrwt>
<rscale>  0 0.31336915E+04</rscale>
<asrwt>0</asrwt>
<pdfrwt beam="1">  1        2 0.31186340E+00 0.31336915E+04</pdfrwt>
<pdfrwt beam="2">  1       -2 0.18632081E+00 0.31336915E+04</pdfrwt>
<totfact> 0.89675004E-01</totfact>
</mgrwt>
</event>
<event>
12    1  0.2019083E-007  0.1553914E+04  0.7818608E-02  0.8849371E-01
          2   -1    0    0  501    0  0.00000000000E+00  0.00000000000E+00  0.15938673694E+04  0.15938673694E+04  0.00000000000E+00 0. -1.
         -2   -1    0    0    0  501 -0.00000000000E+00 -0.00000000000E+00 -0.37874069490E+03  0.37874069490E+03  0.00000000000E+00 0.  1.
         23    2    1    2    0    0 -0.38926480404E+03 -0.15478663168E+03  0.77279971644E+03  0.88435002081E+03  0.96796531725E+02 0.  0.
        254    2    1    2    0    0  0.38926480404E+03  0.15478663168E+03  0.44232695808E+03  0.10882580435E+04  0.90175741883E+03 0.  0.
        -24    2    4    4    0    0 -0.38731179099E+02  0.42777265547E+03  0.47441685103E+02  0.44006884187E+03  0.83188479335E+02 0.  0.
         24    2    4    4    0    0  0.42799598314E+03 -0.27298602379E+03  0.39488527298E+03  0.64818920164E+03  0.80702735675E+02 0.  0.
         13    1    3    3    0    0 -0.43698828415E+02 -0.94928954762E+01  0.35028772091E+02  0.56804203573E+02  0.00000000000E+00 0.  1.
        -13    1    3    3    0    0 -0.34556597563E+03 -0.14529373621E+03  0.73777094435E+03  0.82754581723E+03  0.00000000000E+00 0. -1.
          2    1    6    6  502    0  0.35061036189E+03 -0.18623264948E+03  0.29032479893E+03  0.49183199822E+03  0.00000000000E+00 0. -1.
          1    1    5    5  503    0 -0.42728615667E+02  0.42857997136E+03  0.52138057210E+02  0.43384894082E+03  0.00000000000E+00 0. -1.
         -2    1    5    5    0  503  0.39974365686E+01 -0.80731588241E+00 -0.46963721071E+01  0.62199010460E+01  0.00000000000E+00 0.  1.
         -1    1    6    6    0  502  0.77385621247E+02 -0.86753374308E+02  0.10456047404E+03  0.15635720342E+03  0.00000000000E+00 0.  1.
<mgrwt>
<rscale>  0 0.15539143E+04</rscale>
<asrwt>0</asrwt>
<pdfrwt beam="1">  1        2 0.24521036E+00 0.15539143E+04</pdfrwt>
<pdfrwt beam="2">  1       -2 0.58267800E-01 0.15539143E+04</pdfrwt>
<totfact> 0.29797111E+01</totfact>
</mgrwt>
</event>
<event>
12    1  0.2019083E-007  0.1329889E+04  0.7818608E-02  0.9006193E-01
         -2   -1    0    0    0  501 -0.00000000000E+00  0.00000000000E+00  0.15109609120E+04  0.15109609120E+04  0.00000000000E+00 0.  1.
          2   -1    0    0  501    0  0.00000000000E+00 -0.00000000000E+00 -0.29262923460E+03  0.29262923460E+03  0.00000000000E+00 0. -1.
         23    2    1    2    0    0 -0.27245744739E+03 -0.21746885501E+03  0.24456190335E+03  0.43535734969E+03  0.90552381632E+02 0.  0.
        254    2    1    2    0    0  0.27245744739E+03  0.21746885501E+03  0.97376977404E+03  0.13682327969E+04  0.89571627771E+03 0.  0.
        -24    2    4    4    0    0  0.35040398943E+03 -0.26590081968E+03  0.33039882813E+03  0.55580132816E+03  0.79155094872E+02 0.  0.
         24    2    4    4    0    0 -0.77946542038E+02  0.48336967469E+03  0.64337094591E+03  0.81243146874E+03  0.79980069647E+02 0.  0.
         13    1    3    3    0    0 -0.17013090908E+03 -0.10471214155E+03  0.92441768979E+02  0.22012414557E+03  0.00000000000E+00 0. -1.
        -13    1    3    3    0    0 -0.10232653831E+03 -0.11275671345E+03  0.15212013437E+03  0.21523320411E+03  0.00000000000E+00 0.  1.
          2    1    6    6  502    0 -0.87783536053E+02  0.45061159732E+03  0.57330272553E+03  0.73446087434E+03  0.00000000000E+00 0. -1.
          3    1    5    5  503    0  0.29488266664E+03 -0.24109210819E+03  0.31170774885E+03  0.49218178797E+03  0.00000000000E+00 0. -1.
         -4    1    5    5    0  503  0.55521322789E+02 -0.24808711492E+02  0.18691079286E+02  0.63619540198E+02  0.00000000000E+00 0.  1.
         -1    1    6    6    0  502  0.98369940145E+01  0.32758077372E+02  0.70068220380E+02  0.77970594403E+02  0.00000000000E+00 0.  1.
<mgrwt>
<rscale>  0 0.13298892E+04</rscale>
<asrwt>0</asrwt>
<pdfrwt beam="1">  1        2 0.45019883E-01 0.13298892E+04</pdfrwt>
<pdfrwt beam="2">  1       -2 0.23245552E+00 0.13298892E+04</pdfrwt>
<totfact> 0.91165221E+00</totfact>
</mgrwt>
</event>
<event>
12    1  0.2019083E-007  0.1441322E+04  0.7818608E-02  0.8924439E-01
         -1   -1    0    0    0  501 -0.00000000000E+00  0.00000000000E+00  0.30792885681E+03  0.30792885681E+03  0.00000000000E+00 0.  1.
          1   -1    0    0  501    0  0.00000000000E+00 -0.00000000000E+00 -0.16865986584E+04  0.16865986584E+04  0.00000000000E+00 0. -1.
         23    2    1    2    0    0 -0.22653991868E+03  0.35914946329E+03 -0.31085006731E+03  0.53435315292E+03  0.92719231840E+02 0.  0.
        254    2    1    2    0    0  0.22653991868E+03 -0.35914946329E+03 -0.10678197343E+04  0.14601743623E+04  0.90086708877E+03 0.  0.
        -24    2    4    4    0    0  0.40687717687E+00 -0.44890446545E+03 -0.11037172972E+03  0.46912139322E+03  0.79859740820E+02 0.  0.
         24    2    4    4    0    0  0.22613304150E+03  0.89755002167E+02 -0.95744800454E+03  0.99105296906E+03  0.79291823041E+02 0.  0.
         11    1    3    3    0    0 -0.18070292311E+03  0.20278195782E+03 -0.18958578116E+03  0.33123532006E+03  0.00000000000E+00 0.  1.
        -11    1    3    3    0    0 -0.45836995566E+02  0.15636750547E+03 -0.12126428616E+03  0.20311783286E+03  0.00000000000E+00 0. -1.
          4    1    6    6  502    0  0.15521527411E+03  0.93411426290E+02 -0.75778961522E+03  0.77914220577E+03  0.00000000000E+00 0. -1.
          1    1    5    5  503    0  0.25719758588E+02 -0.34262422457E+03 -0.10682158012E+03  0.35981066580E+03  0.00000000000E+00 0. -1.
         -2    1    5    5    0  503 -0.25312881411E+02 -0.10628024088E+03 -0.35501496051E+01  0.10931072742E+03  0.00000000000E+00 0.  1.
         -3    1    6    6    0  502  0.70917767396E+02 -0.36564241230E+01 -0.19965838932E+03  0.21191076328E+03  0.00000000000E+00 0.  1.
<mgrwt>
<rscale>  0 0.14413222E+04</rscale>
<asrwt>0</asrwt>
<pdfrwt beam="1">  1        1 0.25947672E+00 0.14413222E+04</pdfrwt>
<pdfrwt beam="2">  1       -1 0.47373670E-01 0.14413222E+04</pdfrwt>
<totfact> 0.21037300E+01</totfact>
</mgrwt>
</event>
<event>
12    1  0.2019083E-007  0.1851135E+04  0.7818608E-02  0.8679569E-01
          1   -1    0    0  501    0  0.00000000000E+00  0.00000000000E+00  0.46459017604E+03  0.46459017604E+03  0.00000000000E+00 0. -1.
         -1   -1    0    0    0  501 -0.00000000000E+00 -0.00000000000E+00 -0.18439382004E+04  0.18439382004E+04  0.00000000000E+00 0.  1.
         23    2    1    2    0    0  0.58395859167E+03 -0.75653219854E+02 -0.48484665957E+02  0.59808775010E+03  0.92882439318E+02 0.  0.
        254    2    1    2    0    0 -0.58395859167E+03  0.75653219854E+02 -0.13308633584E+04  0.17104406263E+04  0.89870952538E+03 0.  0.
        -24    2    4    4    0    0  0.49481362924E+02 -0.30573195009E+03 -0.51347669334E+03  0.60483808746E+03  0.79059261670E+02 0.  0.
         24    2    4    4    0    0 -0.63343995459E+03  0.38138516994E+03 -0.81738666505E+03  0.11056025389E+04  0.86805471096E+02 0.  0.
         11    1    3    3    0    0  0.16518550153E+03 -0.40770361187E+02  0.23453038815E+02  0.17175132400E+03  0.00000000000E+00 0. -1.
        -11    1    3    3    0    0  0.41877309014E+03 -0.34882858667E+02 -0.71937704772E+02  0.42633642610E+03  0.00000000000E+00 0.  1.
          4    1    6    6  502    0 -0.27576706199E+02  0.24230440305E+02 -0.18038654805E+02  0.40902102994E+02  0.00000000000E+00 0. -1.
          1    1    5    5  503    0 -0.16105034052E+02 -0.21917875850E+02 -0.30943561133E+02  0.41197929307E+02  0.00000000000E+00 0. -1.
         -2    1    5    5    0  503  0.65586396976E+02 -0.28381407424E+03 -0.48253313220E+03  0.56364015815E+03  0.00000000000E+00 0.  1.
         -3    1    6    6    0  502 -0.60586324839E+03  0.35715472964E+03 -0.79934801025E+03  0.10647004359E+04  0.00000000000E+00 0.  1.
<mgrwt>
<rscale>  0 0.18511354E+04</rscale>
<asrwt>0</asrwt>
<pdfrwt beam="1">  1        1 0.71475411E-01 0.18511354E+04</pdfrwt>
<pdfrwt beam="2">  1       -1 0.28368280E+00 0.18511354E+04</pdfrwt>
<totfact> 0.19418147E+00</totfact>
</mgrwt>
</event>
<event>
12    1  0.2019083E-007  0.1753858E+04  0.7818608E-02  0.8731230E-01
          1   -1    0    0  501    0  0.00000000000E+00  0.00000000000E+00  0.39929472596E+03  0.39929472596E+03  0.00000000000E+00 0. -1.
         -1   -1    0    0    0  501 -0.00000000000E+00 -0.00000000000E+00 -0.19259069405E+04  0.19259069405E+04  0.00000000000E+00 0.  1.
         23    2    1    2    0    0 -0.49379839894E+03 -0.69396527366E+02 -0.28482481114E+02  0.50798294343E+03  0.92642767033E+02 0.  0.
        254    2    1    2    0    0  0.49379839894E+03  0.69396527366E+02 -0.14981297334E+04  0.18172187230E+04  0.89957681848E+03 0.  0.
        -24    2    4    4    0    0 -0.14893109252E+03  0.69950169301E+02 -0.95316459040E+03  0.97053012780E+03  0.79576981973E+02 0.  0.
         24    2    4    4    0    0  0.64272949146E+03 -0.55364193481E+00 -0.54496514298E+03  0.84668859519E+03  0.82420048857E+02 0.  0.
         13    1    3    3    0    0 -0.48215594856E+03 -0.56596117390E+02 -0.40134295151E+02  0.48712240852E+03  0.00000000000E+00 0.  1.
        -13    1    3    3    0    0 -0.11642450373E+02 -0.12800409976E+02  0.11651814038E+02  0.20860534907E+02  0.00000000000E+00 0. -1.
          2    1    6    6  502    0  0.80924619274E+02  0.10712941654E+02 -0.10513259670E+03  0.13310305787E+03  0.00000000000E+00 0. -1.
          1    1    5    5  503    0 -0.17084749008E+02 -0.22526813746E+01 -0.25574124258E+02  0.30838272546E+02  0.00000000000E+00 0. -1.
         -2    1    5    5    0  503 -0.13184634352E+03  0.72202850675E+02 -0.92759046614E+03  0.93969185525E+03  0.00000000000E+00 0.  1.
         -1    1    6    6    0  502  0.56180487219E+03 -0.11266583589E+02 -0.43983254628E+03  0.71358553733E+03  0.00000000000E+00 0.  1.
<mgrwt>
<rscale>  0 0.17538580E+04</rscale>
<asrwt>0</asrwt>
<pdfrwt beam="1">  1        1 0.61429959E-01 0.17538580E+04</pdfrwt>
<pdfrwt beam="2">  1       -1 0.29629337E+00 0.17538580E+04</pdfrwt>
<totfact> 0.19908701E+00</totfact>
</mgrwt>
</event>
<event>
12    1  0.2019083E-007  0.2780214E+04  0.7818608E-02  0.8309437E-01
          2   -1    0    0  501    0  0.00000000000E+00  0.00000000000E+00  0.38107069299E+04  0.38107069299E+04  0.00000000000E+00 0.  1.
         -2   -1    0    0    0  501 -0.00000000000E+00 -0.00000000000E+00 -0.50709698510E+03  0.50709698510E+03  0.00000000000E+00 0. -1.
         23    2    1    2    0    0  0.12255977778E+04 -0.16379400198E+03  0.13191776919E+04  0.18102954658E+04  0.89562842065E+02 0.  0.
        254    2    1    2    0    0 -0.12255977778E+04  0.16379400198E+03  0.19844322529E+04  0.25075084492E+04  0.90592983634E+03 0.  0.
        -24    2    4    4    0    0 -0.86888302285E+03  0.17766527415E+02  0.19195239214E+04  0.21085723456E+04  0.78942351972E+02 0.  0.
         24    2    4    4    0    0 -0.35671475495E+03  0.14602747457E+03  0.64908331544E+02  0.39893610362E+03  0.79796513346E+02 0.  0.
         11    1    3    3    0    0  0.17124268097E+03  0.82059812948E+01  0.18360674440E+03  0.25120276771E+03  0.00000000000E+00 0.  1.
        -11    1    3    3    0    0  0.10543550968E+04 -0.17199998328E+03  0.11355709475E+04  0.15590926981E+04  0.00000000000E+00 0. -1.
          2    1    6    6  502    0 -0.44997997553E+02  0.39604904318E+02 -0.10935607079E+02  0.60934027702E+02  0.00000000000E+00 0. -1.
          3    1    5    5  503    0 -0.76341112265E+03 -0.75242255450E+01  0.16509900402E+04  0.18189615908E+04  0.00000000000E+00 0. -1.
         -4    1    5    5    0  503 -0.10547190020E+03  0.25290752960E+02  0.26853388118E+03  0.28961075474E+03  0.00000000000E+00 0.  1.
         -1    1    6    6    0  502 -0.31171675740E+03  0.10642257025E+03  0.75843938623E+02  0.33800207592E+03  0.00000000000E+00 0.  1.
<mgrwt>
<rscale>  0 0.27802144E+04</rscale>
<asrwt>0</asrwt>
<pdfrwt beam="1">  1        2 0.58626258E+00 0.27802144E+04</pdfrwt>
<pdfrwt beam="2">  1       -2 0.78014923E-01 0.27802144E+04</pdfrwt>
<totfact> 0.61462364E-01</totfact>
</mgrwt>
</event>
<event>
12    1  0.2019083E-007  0.2437124E+04  0.7818608E-02  0.8425734E-01
          2   -1    0    0  501    0  0.00000000000E+00  0.00000000000E+00  0.84509277621E+03  0.84509277621E+03  0.00000000000E+00 0. -1.
         -2   -1    0    0    0  501 -0.00000000000E+00 -0.00000000000E+00 -0.17570767601E+04  0.17570767601E+04  0.00000000000E+00 0.  1.
         23    2    1    2    0    0  0.30466485917E+02 -0.86805863679E+03  0.23056975588E+03  0.90446429358E+03  0.10217261064E+03 0.  0.
        254    2    1    2    0    0 -0.30466485917E+02  0.86805863679E+03 -0.11425537398E+04  0.16977052428E+04  0.90681863638E+03 0.  0.
        -24    2    4    4    0    0  0.28416955378E+03 -0.32621251848E+02 -0.29836436613E+03  0.42127706639E+03  0.81465270687E+02 0.  0.
         24    2    4    4    0    0 -0.31463603970E+03  0.90067988864E+03 -0.84418937367E+03  0.12764281764E+04  0.79956810325E+02 0.  0.
         13    1    3    3    0    0  0.53318434025E+02 -0.51501792292E+03  0.99872013831E+02  0.52731464561E+03  0.00000000000E+00 0.  1.
        -13    1    3    3    0    0 -0.22851948108E+02 -0.35304071387E+03  0.13069774205E+03  0.37714964796E+03  0.00000000000E+00 0. -1.
          4    1    6    6  502    0 -0.14007399453E+03  0.51306764552E+03 -0.44972900053E+03  0.69650219435E+03  0.00000000000E+00 0. -1.
          1    1    5    5  503    0  0.25137374465E+03 -0.49267840642E+02 -0.28214763390E+03  0.38108183759E+03  0.00000000000E+00 0. -1.
         -2    1    5    5    0  503  0.32795809129E+02  0.16646588794E+02 -0.16216732225E+02  0.40195228808E+02  0.00000000000E+00 0.  1.
         -3    1    6    6    0  502 -0.17456204517E+03  0.38761224312E+03 -0.39446037314E+03  0.57992598201E+03  0.00000000000E+00 0.  1.
<mgrwt>
<rscale>  0 0.24371236E+04</rscale>
<asrwt>0</asrwt>
<pdfrwt beam="1">  1        2 0.13001428E+00 0.24371236E+04</pdfrwt>
<pdfrwt beam="2">  1       -2 0.27031950E+00 0.24371236E+04</pdfrwt>
<totfact> 0.13837472E+00</totfact>
</mgrwt>
</event>
<event>
12    1  0.2019083E-007  0.1274314E+04  0.7818608E-02  0.9050186E-01
          2   -1    0    0  501    0  0.00000000000E+00  0.00000000000E+00  0.14564819292E+04  0.14564819292E+04  0.00000000000E+00 0.  1.
         -2   -1    0    0    0  501 -0.00000000000E+00 -0.00000000000E+00 -0.27873275984E+03  0.27873275984E+03  0.00000000000E+00 0. -1.
         23    2    1    2    0    0  0.21694529857E+03 -0.28966857398E+02  0.37287742025E+01  0.23942654147E+03  0.96988780826E+02 0.  0.
        254    2    1    2    0    0 -0.21694529857E+03  0.28966857398E+02  0.11740203952E+04  0.14957881476E+04  0.90064085672E+03 0.  0.
        -24    2    4    4    0    0 -0.18837444763E+03  0.45101015076E+03  0.66326856411E+03  0.82777617651E+03  0.79956998709E+02 0.  0.
         24    2    4    4    0    0 -0.28570850934E+02 -0.42204329336E+03  0.51075183107E+03  0.66801197109E+03  0.80222974172E+02 0.  0.
         13    1    3    3    0    0  0.15401350826E+03 -0.35130230266E+02  0.44587885605E+02  0.16414132127E+03  0.00000000000E+00 0.  1.
        -13    1    3    3    0    0  0.62931790304E+02  0.61633728681E+01 -0.40859111403E+02  0.75285220200E+02  0.00000000000E+00 0. -1.
          4    1    6    6  502    0  0.14590428120E+01 -0.44428559318E+02  0.21855952169E+02  0.49534920352E+02  0.00000000000E+00 0. -1.
          3    1    5    5  503    0 -0.22980808293E+02  0.26814753343E+02  0.23055181576E+02  0.42174517711E+02  0.00000000000E+00 0. -1.
         -2    1    5    5    0  503 -0.16539363934E+03  0.42419539742E+03  0.64021338254E+03  0.78560165880E+03  0.00000000000E+00 0.  1.
         -3    1    6    6    0  502 -0.30029893746E+02 -0.37761473405E+03  0.48889587890E+03  0.61847705074E+03  0.00000000000E+00 0.  1.
<mgrwt>
<rscale>  0 0.12743143E+04</rscale>
<asrwt>0</asrwt>
<pdfrwt beam="1">  1        2 0.22407414E+00 0.12743143E+04</pdfrwt>
<pdfrwt beam="2">  1       -2 0.42881964E-01 0.12743143E+04</pdfrwt>
<totfact> 0.67986845E+01</totfact>
</mgrwt>
</event>
<event>
12    1  0.2019083E-007  0.3702036E+04  0.7818608E-02  0.8067511E-01
          2   -1    0    0  501    0  0.00000000000E+00  0.00000000000E+00  0.33965726042E+04  0.33965726042E+04  0.00000000000E+00 0. -1.
         -2   -1    0    0    0  501 -0.00000000000E+00 -0.00000000000E+00 -0.10087428050E+04  0.10087428050E+04  0.00000000000E+00 0.  1.
         23    2    1    2    0    0  0.54988428616E+03  0.74228393709E+03 -0.63103988905E+03  0.11225043975E+04  0.91905437051E+02 0.  0.
        254    2    1    2    0    0 -0.54988428616E+03 -0.74228393709E+03  0.30188696882E+04  0.32828110118E+04  0.89995320611E+03 0.  0.
        -24    2    4    4    0    0 -0.59982725536E+02  0.18551271241E+03  0.80779527191E+03  0.83408715136E+03  0.71800284917E+02 0.  0.
         24    2    4    4    0    0 -0.48990156063E+03 -0.92779664951E+03  0.22110744163E+04  0.24487238604E+04  0.81168394084E+02 0.  0.
         13    1    3    3    0    0  0.20949414157E+03  0.21083004988E+03 -0.20100005946E+03  0.35880096040E+03  0.00000000000E+00 0. -1.
        -13    1    3    3    0    0  0.34039014459E+03  0.53145388721E+03 -0.43003982959E+03  0.76370343708E+03  0.00000000000E+00 0.  1.
          4    1    6    6  502    0 -0.15828488315E+03 -0.30594964116E+03  0.81664428569E+03  0.88632227576E+03  0.00000000000E+00 0. -1.
          1    1    5    5  503    0  0.65751986497E+01  0.27108871772E+02  0.52019942362E+02  0.59027100296E+02  0.00000000000E+00 0. -1.
         -2    1    5    5    0  503 -0.66557924186E+02  0.15840384064E+03  0.75577532955E+03  0.77506005106E+03  0.00000000000E+00 0.  1.
         -1    1    6    6    0  502 -0.33161667748E+03 -0.62184700835E+03  0.13944301306E+04  0.15624015847E+04  0.00000000000E+00 0.  1.
<mgrwt>
<rscale>  0 0.37020363E+04</rscale>
<asrwt>0</asrwt>
<pdfrwt beam="1">  1        2 0.52254962E+00 0.37020363E+04</pdfrwt>
<pdfrwt beam="2">  1       -2 0.15519120E+00 0.37020363E+04</pdfrwt>
<totfact> 0.21167565E-01</totfact>
</mgrwt>
</event>
<event>
12    1  0.2019083E-007  0.3389307E+04  0.7818608E-02  0.8140536E-01
          2   -1    0    0  501    0  0.00000000000E+00  0.00000000000E+00  0.17704023643E+04  0.17704023643E+04  0.00000000000E+00 0.  1.
         -2   -1    0    0    0  501 -0.00000000000E+00 -0.00000000000E+00 -0.16221457091E+04  0.16221457091E+04  0.00000000000E+00 0. -1.
         23    2    1    2    0    0  0.15501632116E+04 -0.16659050638E+03  0.28442279792E+03  0.15875625974E+04  0.93275362067E+02 0.  0.
        254    2    1    2    0    0 -0.15501632116E+04  0.16659050638E+03 -0.13616614266E+03  0.18049854760E+04  0.89926245933E+03 0.  0.
        -24    2    4    4    0    0 -0.93419948513E+03 -0.31242975038E+03 -0.23034917519E+03  0.10148239366E+04  0.80410527565E+02 0.  0.
         24    2    4    4    0    0 -0.61596372650E+03  0.47902025676E+03  0.94183032527E+02  0.79016153938E+03  0.81320944138E+02 0.  0.
         13    1    3    3    0    0  0.37721731935E+03 -0.80957220707E+02  0.71374324105E+02  0.39235350354E+03  0.00000000000E+00 0. -1.
        -13    1    3    3    0    0  0.11729458923E+04 -0.85633285675E+02  0.21304847381E+03  0.11952090939E+04  0.00000000000E+00 0.  1.
          4    1    6    6  502    0 -0.28864872261E+03  0.23133282465E+03  0.41372468003E+01  0.36993253119E+03  0.00000000000E+00 0. -1.
          1    1    5    5  503    0 -0.25590808918E+03 -0.11205203513E+03 -0.38571223567E+02  0.28201480099E+03  0.00000000000E+00 0. -1.
         -2    1    5    5    0  503 -0.67829139595E+03 -0.20037771524E+03 -0.19177795162E+03  0.73280913566E+03  0.00000000000E+00 0.  1.
         -3    1    6    6    0  502 -0.32731500389E+03  0.24768743211E+03  0.90045785727E+02  0.42022900819E+03  0.00000000000E+00 0.  1.
<mgrwt>
<rscale>  0 0.33893071E+04</rscale>
<asrwt>0</asrwt>
<pdfrwt beam="1">  1        2 0.27236960E+00 0.33893071E+04</pdfrwt>
<pdfrwt beam="2">  1       -2 0.24956088E+00 0.33893071E+04</pdfrwt>
<totfact> 0.48050916E-01</totfact>
</mgrwt>
</event>
<event>
12    1  0.2019083E-007  0.2652646E+04  0.7818608E-02  0.8350535E-01
         -2   -1    0    0    0  501 -0.00000000000E+00  0.00000000000E+00  0.14002853865E+04  0.14002853865E+04  0.00000000000E+00 0.  1.
          2   -1    0    0  501    0  0.00000000000E+00 -0.00000000000E+00 -0.12562669656E+04  0.12562669656E+04  0.00000000000E+00 0. -1.
         23    2    1    2    0    0  0.11703967852E+04  0.15122709811E+01  0.11045779446E+03  0.11795438384E+04  0.96394089285E+02 0.  0.
        254    2    1    2    0    0 -0.11703967852E+04 -0.15122709811E+01  0.33560626359E+02  0.14770085137E+04  0.90033155681E+03 0.  0.
        -24    2    4    4    0    0 -0.65315888681E+03 -0.23211658251E+03 -0.35766900829E+03  0.78363236985E+03  0.75219228190E+02 0.  0.
         24    2    4    4    0    0 -0.51723789840E+03  0.23060431153E+03  0.39122963465E+03  0.69337614388E+03  0.83644831487E+02 0.  0.
         11    1    3    3    0    0  0.83340524351E+03 -0.11159236345E+01  0.34678797277E+02  0.83412718705E+03  0.00000000000E+00 0. -1.
        -11    1    3    3    0    0  0.33699154171E+03  0.26281946157E+01  0.75778997182E+02  0.34541665131E+03  0.00000000000E+00 0.  1.
          4    1    6    6  502    0 -0.15812190566E+03  0.75838324844E+02  0.16924266020E+03  0.24371513411E+03  0.00000000000E+00 0. -1.
          3    1    5    5  503    0 -0.42347419724E+03 -0.18692940526E+03 -0.22734082608E+03  0.51571004400E+03  0.00000000000E+00 0. -1.
         -4    1    5    5    0  503 -0.22968468957E+03 -0.45187177250E+02 -0.13032818222E+03  0.26792232586E+03  0.00000000000E+00 0.  1.
         -3    1    6    6    0  502 -0.35911599275E+03  0.15476598668E+03  0.22198697445E+03  0.44966100977E+03  0.00000000000E+00 0.  1.
<mgrwt>
<rscale>  0 0.26526457E+04</rscale>
<asrwt>0</asrwt>
<pdfrwt beam="1">  1        2 0.19327184E+00 0.26526457E+04</pdfrwt>
<pdfrwt beam="2">  1       -2 0.21542852E+00 0.26526457E+04</pdfrwt>
<totfact> 0.16323610E+00</totfact>
</mgrwt>
</event>
<event>
12    1  0.2019083E-007  0.2251706E+04  0.7818608E-02  0.8497210E-01
         -1   -1    0    0    0  501 -0.00000000000E+00  0.00000000000E+00  0.75407253815E+03  0.75407253815E+03  0.00000000000E+00 0.  1.
          1   -1    0    0  501    0  0.00000000000E+00 -0.00000000000E+00 -0.16809327576E+04  0.16809327576E+04  0.00000000000E+00 0. -1.
         23    2    1    2    0    0 -0.82626272991E+03  0.44513218994E+03 -0.28555502012E+03  0.98531098412E+03  0.91887434173E+02 0.  0.
        254    2    1    2    0    0  0.82626272991E+03 -0.44513218994E+03 -0.64130519932E+03  0.14496943116E+04  0.89971577351E+03 0.  0.
        -24    2    4    4    0    0  0.83092896798E+03 -0.13092978176E+03 -0.72697185714E+03  0.11144359045E+04  0.76770740176E+02 0.  0.
         24    2    4    4    0    0 -0.46662380711E+01 -0.31420240818E+03  0.85666657823E+02  0.33525840713E+03  0.79463804386E+02 0.  0.
         13    1    3    3    0    0 -0.48459505143E+03  0.30221074861E+03 -0.20081426243E+03  0.60538423207E+03  0.00000000000E+00 0. -1.
        -13    1    3    3    0    0 -0.34166767848E+03  0.14292144133E+03 -0.84740757689E+02  0.37992675205E+03  0.00000000000E+00 0.  1.
          2    1    6    6  502    0  0.36602409067E+02 -0.11552779292E+03  0.29990568208E+02  0.12484326761E+03  0.00000000000E+00 0. -1.
          1    1    5    5  503    0  0.30316507738E+03 -0.78483890713E+02 -0.29828721115E+03  0.43248589062E+03  0.00000000000E+00 0. -1.
         -2    1    5    5    0  503  0.52776389060E+03 -0.52445891044E+02 -0.42868464599E+03  0.68195001387E+03  0.00000000000E+00 0.  1.
         -1    1    6    6    0  502 -0.41268647138E+02 -0.19867461526E+03  0.55676089615E+02  0.21041513952E+03  0.00000000000E+00 0.  1.
<mgrwt>
<rscale>  0 0.22517062E+04</rscale>
<asrwt>0</asrwt>
<pdfrwt beam="1">  1        1 0.25860504E+00 0.22517062E+04</pdfrwt>
<pdfrwt beam="2">  1       -1 0.11601116E+00 0.22517062E+04</pdfrwt>
<totfact> 0.29956954E+00</totfact>
</mgrwt>
</event>
<event>
12    1  0.2019083E-007  0.1398467E+04  0.7818608E-02  0.8954929E-01
          2   -1    0    0  501    0  0.00000000000E+00  0.00000000000E+00  0.89562269366E+03  0.89562269366E+03  0.00000000000E+00 0.  1.
         -2   -1    0    0    0  501 -0.00000000000E+00 -0.00000000000E+00 -0.54590788822E+03  0.54590788822E+03  0.00000000000E+00 0. -1.
         23    2    1    2    0    0 -0.35077109736E+03 -0.18906609430E+03  0.94309610567E+02  0.41976319472E+03  0.92306479934E+02 0.  0.
        254    2    1    2    0    0  0.35077109736E+03  0.18906609430E+03  0.25540519488E+03  0.10217673872E+04  0.90553322917E+03 0.  0.
        -24    2    4    4    0    0 -0.17514931460E+03  0.34855215974E+03  0.24274883695E+03  0.46629484249E+03  0.79611505657E+02 0.  0.
         24    2    4    4    0    0  0.52592041196E+03 -0.15948606543E+03  0.12656357929E+02  0.55547254467E+03  0.79758884747E+02 0.  0.
         13    1    3    3    0    0 -0.20386829151E+03 -0.15181105373E+03  0.84629530042E+02  0.26790116400E+03  0.00000000000E+00 0. -1.
        -13    1    3    3    0    0 -0.14690280586E+03 -0.37255040574E+02  0.96800805248E+01  0.15186203073E+03  0.00000000000E+00 0.  1.
          4    1    6    6  502    0  0.39941773438E+03 -0.98911563307E+02  0.36904502491E+02  0.41313431980E+03  0.00000000000E+00 0. -1.
          3    1    5    5  503    0 -0.10638366552E+03  0.12495952872E+03  0.10487788572E+03  0.19476072248E+03  0.00000000000E+00 0. -1.
         -4    1    5    5    0  503 -0.68765649079E+02  0.22359263102E+03  0.13787095122E+03  0.27153412001E+03  0.00000000000E+00 0.  1.
         -3    1    6    6    0  502  0.12650267759E+03 -0.60574502126E+02 -0.24248144562E+02  0.14233822487E+03  0.00000000000E+00 0.  1.
<mgrwt>
<rscale>  0 0.13984670E+04</rscale>
<asrwt>0</asrwt>
<pdfrwt beam="1">  1        2 0.13778811E+00 0.13984670E+04</pdfrwt>
<pdfrwt beam="2">  1       -2 0.83985829E-01 0.13984670E+04</pdfrwt>
<totfact> 0.35597173E+01</totfact>
</mgrwt>
</event>
<event>
12    1  0.2019083E-007  0.3467694E+04  0.7818608E-02  0.8121489E-01
          1   -1    0    0  501    0  0.00000000000E+00  0.00000000000E+00  0.19872829372E+04  0.19872829372E+04  0.00000000000E+00 0. -1.
         -1   -1    0    0    0  501 -0.00000000000E+00 -0.00000000000E+00 -0.15127315105E+04  0.15127315105E+04  0.00000000000E+00 0.  1.
         23    2    1    2    0    0 -0.13274508136E+04 -0.57255986166E+03  0.95126729731E+03  0.17323808317E+04  0.79268008898E+02 0.  0.
        254    2    1    2    0    0  0.13274508136E+04  0.57255986166E+03 -0.47671587058E+03  0.17676336161E+04  0.89850994520E+03 0.  0.
        -24    2    4    4    0    0  0.62230616723E+03 -0.19474798853E+03 -0.19941736134E+03  0.68657744682E+03  0.80184547597E+02 0.  0.
         24    2    4    4    0    0  0.70514464641E+03  0.76730785019E+03 -0.27729850924E+03  0.10810561693E+04  0.76142422811E+02 0.  0.
         13    1    3    3    0    0 -0.43136260893E+03 -0.17614153790E+03  0.35001806688E+03  0.58276254933E+03  0.00000000000E+00 0.  1.
        -13    1    3    3    0    0 -0.89608820470E+03 -0.39641832376E+03  0.60124923042E+03  0.11496182823E+04  0.00000000000E+00 0. -1.
          2    1    6    6  502    0  0.36153780773E+02  0.57472990554E+02 -0.33154440100E+02  0.75560951594E+02  0.00000000000E+00 0. -1.
          1    1    5    5  503    0  0.90779567195E+02  0.69313568971E-01 -0.31606038396E+02  0.96124275225E+02  0.00000000000E+00 0. -1.
         -2    1    5    5    0  503  0.53152660003E+03 -0.19481730210E+03 -0.16781132294E+03  0.59045317159E+03  0.00000000000E+00 0.  1.
         -1    1    6    6    0  502  0.66899086563E+03  0.70983485963E+03 -0.24414406914E+03  0.10054952177E+04  0.00000000000E+00 0.  1.
<mgrwt>
<rscale>  0 0.34676941E+04</rscale>
<asrwt>0</asrwt>
<pdfrwt beam="1">  1        1 0.30573583E+00 0.34676941E+04</pdfrwt>
<pdfrwt beam="2">  1       -1 0.23272793E+00 0.34676941E+04</pdfrwt>
<totfact> 0.22517294E-01</totfact>
</mgrwt>
</event>
<event>
12    1  0.2019083E-007  0.1722318E+04  0.7818608E-02  0.8748737E-01
         -2   -1    0    0    0  501 -0.00000000000E+00  0.00000000000E+00  0.13950270423E+04  0.13950270423E+04  0.00000000000E+00 0.  1.
          2   -1    0    0  501    0  0.00000000000E+00 -0.00000000000E+00 -0.53159866783E+03  0.53159866783E+03  0.00000000000E+00 0. -1.
         23    2    1    2    0    0 -0.51624111506E+03  0.14363103742E+03 -0.34980849223E+02  0.54498330894E+03  0.92996684986E+02 0.  0.
        254    2    1    2    0    0  0.51624111506E+03 -0.14363103742E+03  0.89840922374E+03  0.13816424012E+04  0.90258618859E+03 0.  0.
        -24    2    4    4    0    0 -0.14712870340E+03  0.10416849495E+02  0.61858729966E+03  0.64080985059E+03  0.78940808154E+02 0.  0.
         24    2    4    4    0    0  0.66336981846E+03 -0.15404788691E+03  0.27982192408E+03  0.74083255066E+03  0.82111457239E+02 0.  0.
         13    1    3    3    0    0 -0.16703583014E+03  0.37974689399E+01 -0.22768618740E+02  0.16862324668E+03  0.00000000000E+00 0. -1.
        -13    1    3    3    0    0 -0.34920528492E+03  0.13983356848E+03 -0.12212230483E+02  0.37636006226E+03  0.00000000000E+00 0.  1.
          4    1    6    6  502    0  0.52533414829E+03 -0.10899033094E+03  0.25296534146E+03  0.59316635405E+03  0.00000000000E+00 0. -1.
          3    1    5    5  503    0 -0.44374193405E+02 -0.25403122252E+02  0.11919410883E+03  0.12969820060E+03  0.00000000000E+00 0. -1.
         -4    1    5    5    0  503 -0.10275451000E+03  0.35819971747E+02  0.49939319083E+03  0.51111164998E+03  0.00000000000E+00 0.  1.
         -3    1    6    6    0  502  0.13803567017E+03 -0.45057555979E+02  0.26856582618E+02  0.14766619661E+03  0.00000000000E+00 0.  1.
<mgrwt>
<rscale>  0 0.17223176E+04</rscale>
<asrwt>0</asrwt>
<pdfrwt beam="1">  1        2 0.81784411E-01 0.17223176E+04</pdfrwt>
<pdfrwt beam="2">  1       -2 0.21461954E+00 0.17223176E+04</pdfrwt>
<totfact> 0.58178463E+00</totfact>
</mgrwt>
</event>
<event>
12    1  0.2019083E-007  0.1644487E+04  0.7818608E-02  0.8793675E-01
         -2   -1    0    0    0  501 -0.00000000000E+00  0.00000000000E+00  0.38880066365E+03  0.38880066365E+03  0.00000000000E+00 0.  1.
          2   -1    0    0  501    0  0.00000000000E+00 -0.00000000000E+00 -0.17388961567E+04  0.17388961567E+04  0.00000000000E+00 0. -1.
         23    2    1    2    0    0  0.35818551840E+03  0.37366370870E+03 -0.78743376857E+03  0.94695950622E+03  0.93589175360E+02 0.  0.
        254    2    1    2    0    0 -0.35818551840E+03 -0.37366370870E+03 -0.56266172452E+03  0.11807373142E+04  0.89979495222E+03 0.  0.
        -24    2    4    4    0    0 -0.53637906775E+03 -0.51651010902E+03 -0.25815671565E+03  0.79224155497E+03  0.80725426927E+02 0.  0.
         24    2    4    4    0    0  0.17819354934E+03  0.14284640032E+03 -0.30450500887E+03  0.38849575920E+03  0.77766441227E+02 0.  0.
         13    1    3    3    0    0  0.26251439743E+03  0.21118929800E+03 -0.52514653686E+03  0.62393398178E+03  0.00000000000E+00 0. -1.
        -13    1    3    3    0    0  0.95671120974E+02  0.16247441070E+03 -0.26228723171E+03  0.32302552444E+03  0.00000000000E+00 0.  1.
          4    1    6    6  502    0  0.17136840120E+03  0.11180354205E+03 -0.23205961639E+03  0.30938459319E+03  0.00000000000E+00 0. -1.
          1    1    5    5  503    0 -0.20100833644E+03 -0.15299905796E+03 -0.11347860288E+03  0.27693041791E+03  0.00000000000E+00 0. -1.
         -2    1    5    5    0  503 -0.33537073130E+03 -0.36351105106E+03 -0.14467811278E+03  0.51531113706E+03  0.00000000000E+00 0.  1.
         -3    1    6    6    0  502  0.68251481467E+01  0.31042858273E+02 -0.72445392478E+02  0.79111166015E+02  0.00000000000E+00 0.  1.
<mgrwt>
<rscale>  0 0.16444865E+04</rscale>
<asrwt>0</asrwt>
<pdfrwt beam="1">  1        2 0.26752248E+00 0.16444865E+04</pdfrwt>
<pdfrwt beam="2">  1       -2 0.59815487E-01 0.16444865E+04</pdfrwt>
<totfact> 0.23242090E+01</totfact>
</mgrwt>
</event>
<event>
12    1  0.2019083E-007  0.3807628E+04  0.7818608E-02  0.8044520E-01
          2   -1    0    0  501    0  0.00000000000E+00  0.00000000000E+00  0.54450876630E+04  0.54450876630E+04  0.00000000000E+00 0. -1.
         -2   -1    0    0    0  501 -0.00000000000E+00 -0.00000000000E+00 -0.66564714464E+03  0.66564714464E+03  0.00000000000E+00 0.  1.
         23    2    1    2    0    0  0.56675493781E+02  0.27176482404E+03  0.51069580872E+04  0.51152317307E+04  0.86640197601E+02 0.  0.
        254    2    1    2    0    0 -0.56675493781E+02 -0.27176482404E+03 -0.32751756879E+03  0.99550307692E+03  0.89815944414E+03 0.  0.
        -24    2    4    4    0    0 -0.29100354445E+03  0.88078475197E+02  0.14968602227E+03  0.34863615476E+03  0.81855863969E+02 0.  0.
         24    2    4    4    0    0  0.23432805067E+03 -0.35984329924E+03 -0.47720359107E+03  0.64686692216E+03  0.79477747335E+02 0.  0.
         11    1    3    3    0    0  0.28291206300E+02  0.25149157994E+03  0.46869916069E+04  0.46938192051E+04  0.00000000000E+00 0. -1.
        -11    1    3    3    0    0  0.28384287481E+02  0.20273244106E+02  0.41996648030E+03  0.42141252565E+03  0.00000000000E+00 0.  1.
          4    1    6    6  502    0  0.12228088754E+03 -0.12299658255E+03 -0.16634092285E+03  0.24031245783E+03  0.00000000000E+00 0. -1.
          1    1    5    5  503    0 -0.18415166619E+03  0.48771890750E+02  0.49126796062E+02  0.19673325997E+03  0.00000000000E+00 0. -1.
         -2    1    5    5    0  503 -0.10685187826E+03  0.39306584447E+02  0.10055922621E+03  0.15190289479E+03  0.00000000000E+00 0.  1.
         -3    1    6    6    0  502  0.11204716313E+03 -0.23684671669E+03 -0.31086266822E+03  0.40655446433E+03  0.00000000000E+00 0.  1.
<mgrwt>
<rscale>  0 0.38076276E+04</rscale>
<asrwt>0</asrwt>
<pdfrwt beam="1">  1        2 0.83770576E+00 0.38076276E+04</pdfrwt>
<pdfrwt beam="2">  1       -2 0.10240726E+00 0.38076276E+04</pdfrwt>
<totfact> 0.46290478E-03</totfact>
</mgrwt>
</event>
<event>
12    1  0.2019083E-007  0.1866977E+04  0.7818608E-02  0.8671471E-01
          2   -1    0    0  501    0  0.00000000000E+00  0.00000000000E+00  0.11961030641E+04  0.11961030641E+04  0.00000000000E+00 0. -1.
         -2   -1    0    0    0  501 -0.00000000000E+00 -0.00000000000E+00 -0.72853345735E+03  0.72853345735E+03  0.00000000000E+00 0.  1.
         23    2    1    2    0    0 -0.70644093378E+03  0.34041121996E+02  0.27074259875E+03  0.76272714051E+03  0.90738884698E+02 0.  0.
        254    2    1    2    0    0  0.70644093378E+03 -0.34041121996E+02  0.19682700803E+03  0.11619093810E+04  0.90059699511E+03 0.  0.
        -24    2    4    4    0    0 -0.90797392944E+02  0.18152741656E+03 -0.14816847518E+03  0.26319852941E+03  0.78250874240E+02 0.  0.
         24    2    4    4    0    0  0.79723832672E+03 -0.21556853855E+03  0.34499548321E+03  0.89871085156E+03  0.81243872790E+02 0.  0.
         11    1    3    3    0    0 -0.49768109928E+03  0.62161970822E+02  0.17339522762E+03  0.53067550552E+03  0.00000000000E+00 0. -1.
        -11    1    3    3    0    0 -0.20875983450E+03 -0.28120848826E+02  0.97347371124E+02  0.23205163499E+03  0.00000000000E+00 0.  1.
          4    1    6    6  502    0  0.70376196107E+03 -0.17010588425E+03  0.32119534087E+03  0.79207534787E+03  0.00000000000E+00 0. -1.
          3    1    5    5  503    0 -0.86031357398E+02  0.85216463758E+02 -0.83733443594E+02  0.14722272151E+03  0.00000000000E+00 0. -1.
         -4    1    5    5    0  503 -0.47660355461E+01  0.96310952798E+02 -0.64435031589E+02  0.11597580791E+03  0.00000000000E+00 0.  1.
         -3    1    6    6    0  502  0.93476365653E+02 -0.45462654301E+02  0.23800142339E+02  0.10663550369E+03  0.00000000000E+00 0.  1.
<mgrwt>
<rscale>  0 0.18669773E+04</rscale>
<asrwt>0</asrwt>
<pdfrwt beam="1">  1        2 0.18401586E+00 0.18669773E+04</pdfrwt>
<pdfrwt beam="2">  1       -2 0.11208207E+00 0.18669773E+04</pdfrwt>
<totfact> 0.11227838E+01</totfact>
</mgrwt>
</event>
<event>
12    1  0.2019083E-007  0.2076914E+04  0.7818608E-02  0.8571482E-01
         -2   -1    0    0    0  501 -0.00000000000E+00  0.00000000000E+00  0.39027604359E+03  0.39027604359E+03  0.00000000000E+00 0.  1.
          2   -1    0    0  501    0  0.00000000000E+00 -0.00000000000E+00 -0.27631548206E+04  0.27631548206E+04  0.00000000000E+00 0. -1.
         23    2    1    2    0    0  0.51299241813E+03  0.46749498956E+03 -0.24561924077E+03  0.74203520353E+03  0.92599381785E+02 0.  0.
        254    2    1    2    0    0 -0.51299241813E+03 -0.46749498956E+03 -0.21272595362E+04  0.24113956607E+04  0.89882318141E+03 0.  0.
        -24    2    4    4    0    0 -0.32533880961E+02 -0.26503365468E+03 -0.69541825666E+02  0.28705056401E+03  0.79124391046E+02 0.  0.
         24    2    4    4    0    0 -0.48045853717E+03 -0.20246133489E+03 -0.20577177106E+04  0.21243450966E+04  0.82516151333E+02 0.  0.
         11    1    3    3    0    0  0.27381773383E+02  0.61190514623E+02 -0.23688185194E+02  0.71099723707E+02  0.00000000000E+00 0.  1.
        -11    1    3    3    0    0  0.48561064475E+03  0.40630447494E+03 -0.22193105558E+03  0.67093547982E+03  0.00000000000E+00 0. -1.
          2    1    6    6  502    0 -0.24699359642E+03 -0.60401541138E+02 -0.10277562599E+04  0.10587431760E+04  0.00000000000E+00 0. -1.
          1    1    5    5  503    0 -0.15905978614E+01 -0.81218540327E+02 -0.58909914323E+02  0.10034619724E+03  0.00000000000E+00 0. -1.
         -4    1    5    5    0  503 -0.30943283100E+02 -0.18381511435E+03 -0.10631911343E+02  0.18670436677E+03  0.00000000000E+00 0.  1.
         -1    1    6    6    0  502 -0.23346494076E+03 -0.14205979375E+03 -0.10299614506E+04  0.10656019207E+04  0.00000000000E+00 0.  1.
<mgrwt>
<rscale>  0 0.20769142E+04</rscale>
<asrwt>0</asrwt>
<pdfrwt beam="1">  1        2 0.42510074E+00 0.20769142E+04</pdfrwt>
<pdfrwt beam="2">  1       -2 0.60042468E-01 0.20769142E+04</pdfrwt>
<totfact> 0.58175124E+00</totfact>
</mgrwt>
</event>
<event>
12    1  0.2019083E-007  0.3482804E+04  0.7818608E-02  0.8117877E-01
         -2   -1    0    0    0  501 -0.00000000000E+00  0.00000000000E+00  0.94094333667E+03  0.94094333667E+03  0.00000000000E+00 0.  1.
          2   -1    0    0  501    0  0.00000000000E+00 -0.00000000000E+00 -0.32228088306E+04  0.32228088306E+04  0.00000000000E+00 0. -1.
         23    2    1    2    0    0 -0.53486201111E+03 -0.14001516920E+04 -0.18133612397E+04  0.23541787377E+04  0.85886038500E+02 0.  0.
        254    2    1    2    0    0  0.53486201111E+03  0.14001516920E+04 -0.46850425424E+03  0.18095734296E+04  0.89919832597E+03 0.  0.
        -24    2    4    4    0    0  0.78120218915E+03  0.11001221496E+04 -0.36180909140E+03  0.13993059223E+04  0.81275095231E+02 0.  0.
         24    2    4    4    0    0 -0.24634017804E+03  0.30002954240E+03 -0.10669516284E+03  0.41026750736E+03  0.78957964709E+02 0.  0.
         11    1    3    3    0    0 -0.31470335110E+03 -0.71995152962E+03 -0.98326386547E+03  0.12586406291E+04  0.00000000000E+00 0. -1.
        -11    1    3    3    0    0 -0.22015866001E+03 -0.68020016240E+03 -0.83009737427E+03  0.10955381085E+04  0.00000000000E+00 0.  1.
          4    1    6    6  502    0 -0.14659389966E+03  0.12217406913E+03 -0.68837889048E+02  0.20286677785E+03  0.00000000000E+00 0. -1.
          1    1    5    5  503    0  0.69312618986E+03  0.10154198565E+04 -0.33381801070E+03  0.12739450005E+04  0.00000000000E+00 0. -1.
         -2    1    5    5    0  503  0.88075999291E+02  0.84702293121E+02 -0.27991080701E+02  0.12536092178E+03  0.00000000000E+00 0.  1.
         -3    1    6    6    0  502 -0.99746278378E+02  0.17785547327E+03 -0.37857273790E+02  0.20740072951E+03  0.00000000000E+00 0.  1.
<mgrwt>
<rscale>  0 0.34828038E+04</rscale>
<asrwt>0</asrwt>
<pdfrwt beam="1">  1        2 0.49581673E+00 0.34828038E+04</pdfrwt>
<pdfrwt beam="2">  1       -2 0.14476052E+00 0.34828038E+04</pdfrwt>
<totfact> 0.33893625E-01</totfact>
</mgrwt>
</event>
<event>
12    1  0.2019083E-007  0.3374844E+04  0.7818608E-02  0.8144108E-01
         -1   -1    0    0    0  501 -0.00000000000E+00  0.00000000000E+00  0.85282269306E+03  0.85282269306E+03  0.00000000000E+00 0.  1.
          1   -1    0    0  501    0  0.00000000000E+00 -0.00000000000E+00 -0.33387857706E+04  0.33387857706E+04  0.00000000000E+00 0. -1.
         23    2    1    2    0    0  0.13508671748E+04 -0.78887629285E+03 -0.10706923292E+04  0.18978648765E+04  0.91329603774E+02 0.  0.
        254    2    1    2    0    0 -0.13508671748E+04  0.78887629285E+03 -0.14152707484E+04  0.22937435871E+04  0.90061113866E+03 0.  0.
        -24    2    4    4    0    0 -0.84025916795E+03  0.20863525858E+00 -0.83147634121E+03  0.11846398849E+04  0.77351393757E+02 0.  0.
         24    2    4    4    0    0 -0.51060800682E+03  0.78866765759E+03 -0.58379440717E+03  0.11091037022E+04  0.81104264249E+02 0.  0.
         13    1    3    3    0    0  0.21501936611E+03 -0.89702747235E+02 -0.17106211741E+03  0.28903660439E+03  0.00000000000E+00 0. -1.
        -13    1    3    3    0    0  0.11358478087E+04 -0.69917354561E+03 -0.89963021179E+03  0.16088282722E+04  0.00000000000E+00 0.  1.
          4    1    6    6  502    0 -0.17304944947E+03  0.28010745784E+03 -0.16040572238E+03  0.36624622274E+03  0.00000000000E+00 0. -1.
          3    1    5    5  503    0 -0.17824399396E+03 -0.20173240723E+01 -0.22278515332E+03  0.28532124968E+03  0.00000000000E+00 0. -1.
         -4    1    5    5    0  503 -0.66201517399E+03  0.22259593309E+01 -0.60869118788E+03  0.89931863524E+03  0.00000000000E+00 0.  1.
         -3    1    6    6    0  502 -0.33755855735E+03  0.50856019975E+03 -0.42338868480E+03  0.74285747948E+03  0.00000000000E+00 0.  1.
<mgrwt>
<rscale>  0 0.33748436E+04</rscale>
<asrwt>0</asrwt>
<pdfrwt beam="1">  1        1 0.51365935E+00 0.33748436E+04</pdfrwt>
<pdfrwt beam="2">  1       -1 0.13120349E+00 0.33748436E+04</pdfrwt>
<totfact> 0.13607030E-01</totfact>
</mgrwt>
</event>
<event>
12    1  0.2019083E-007  0.1693781E+04  0.7818608E-02  0.8764919E-01
         -2   -1    0    0    0  501 -0.00000000000E+00  0.00000000000E+00  0.51332415376E+03  0.51332415376E+03  0.00000000000E+00 0.  1.
          2   -1    0    0  501    0  0.00000000000E+00 -0.00000000000E+00 -0.13972144056E+04  0.13972144056E+04  0.00000000000E+00 0. -1.
         23    2    1    2    0    0 -0.20536875660E+03  0.46154291360E+03 -0.68187148274E+03  0.85325284835E+03  0.88845466664E+02 0.  0.
        254    2    1    2    0    0  0.20536875660E+03 -0.46154291360E+03 -0.20201876906E+03  0.10572857110E+04  0.90655573701E+03 0.  0.
        -24    2    4    4    0    0 -0.52666139199E+02 -0.63275391232E+03 -0.32104429652E+03  0.71601097303E+03  0.80318350257E+02 0.  0.
         24    2    4    4    0    0  0.25803489580E+03  0.17121099872E+03  0.11902552747E+03  0.34127473795E+03  0.80038472273E+02 0.  0.
         11    1    3    3    0    0 -0.11371817740E+03  0.35124054744E+03 -0.50452752922E+03  0.62517979316E+03  0.00000000000E+00 0. -1.
        -11    1    3    3    0    0 -0.91650579208E+02  0.11030236616E+03 -0.17734395352E+03  0.22807305519E+03  0.00000000000E+00 0.  1.
          2    1    6    6  502    0  0.20300732585E+03  0.16567157887E+03  0.11396014159E+03  0.28573757237E+03  0.00000000000E+00 0. -1.
          3    1    5    5  503    0  0.20041037753E+02 -0.20442773649E+03 -0.96075993580E+02  0.22676626554E+03  0.00000000000E+00 0. -1.
         -4    1    5    5    0  503 -0.72707176952E+02 -0.42832617583E+03 -0.22496830294E+03  0.48924470749E+03  0.00000000000E+00 0.  1.
         -1    1    6    6    0  502  0.55027569948E+02  0.55394198472E+01  0.50653858802E+01  0.55537165581E+02  0.00000000000E+00 0.  1.
<mgrwt>
<rscale>  0 0.16937815E+04</rscale>
<asrwt>0</asrwt>
<pdfrwt beam="1">  1        2 0.21495606E+00 0.16937815E+04</pdfrwt>
<pdfrwt beam="2">  1       -2 0.78972949E-01 0.16937815E+04</pdfrwt>
<totfact> 0.19676797E+01</totfact>
</mgrwt>
</event>
<event>
12    1  0.2019083E-007  0.2882704E+04  0.7818608E-02  0.8278042E-01
         -2   -1    0    0    0  501 -0.00000000000E+00  0.00000000000E+00  0.10889411100E+04  0.10889411100E+04  0.00000000000E+00 0.  1.
          2   -1    0    0  501    0  0.00000000000E+00 -0.00000000000E+00 -0.19078127024E+04  0.19078127024E+04  0.00000000000E+00 0. -1.
         23    2    1    2    0    0 -0.88157839800E+03 -0.90313621763E+03 -0.57919885279E+02  0.12665638158E+04  0.89407421100E+02 0.  0.
        254    2    1    2    0    0  0.88157839800E+03  0.90313621763E+03 -0.76095170715E+03  0.17301899966E+04  0.90646258845E+03 0.  0.
        -24    2    4    4    0    0  0.58723408852E+03  0.29224026766E+03 -0.81022519935E+03  0.10457367547E+04  0.82778243856E+02 0.  0.
         24    2    4    4    0    0  0.29434430948E+03  0.61089594998E+03  0.49273492198E+02  0.68445324192E+03  0.78841163863E+02 0.  0.
         11    1    3    3    0    0 -0.38883576692E+03 -0.34597886996E+03 -0.48332258144E+02  0.52271468247E+03  0.00000000000E+00 0.  1.
        -11    1    3    3    0    0 -0.49274263109E+03 -0.55715734767E+03 -0.95876271345E+01  0.74384913333E+03  0.00000000000E+00 0. -1.
          4    1    6    6  502    0  0.66855331132E+02  0.18312554457E+03 -0.15881053235E+02  0.19559347696E+03  0.00000000000E+00 0. -1.
          1    1    5    5  503    0  0.14520854248E+03  0.55789080301E+02 -0.14397612077E+03  0.21196005671E+03  0.00000000000E+00 0. -1.
         -2    1    5    5    0  503  0.44202554604E+03  0.23645118736E+03 -0.66624907858E+03  0.83377669796E+03  0.00000000000E+00 0.  1.
         -3    1    6    6    0  502  0.22748897835E+03  0.42777040540E+03  0.65154545433E+02  0.48885976496E+03  0.00000000000E+00 0.  1.
<mgrwt>
<rscale>  0 0.28827041E+04</rscale>
<asrwt>0</asrwt>
<pdfrwt beam="1">  1        2 0.29350965E+00 0.28827041E+04</pdfrwt>
<pdfrwt beam="2">  1       -2 0.16752940E+00 0.28827041E+04</pdfrwt>
<totfact> 0.14425514E+00</totfact>
</mgrwt>
</event>
<event>
12    1  0.2019083E-007  0.2294368E+04  0.7818608E-02  0.8480145E-01
         -2   -1    0    0    0  501 -0.00000000000E+00  0.00000000000E+00  0.96078889287E+03  0.96078889287E+03  0.00000000000E+00 0.  1.
          2   -1    0    0  501    0  0.00000000000E+00 -0.00000000000E+00 -0.13697407270E+04  0.13697407270E+04  0.00000000000E+00 0. -1.
         23    2    1    2    0    0 -0.19967428852E+03 -0.13755423379E+02 -0.11353754101E+04  0.11565529930E+04  0.92078611080E+02 0.  0.
        254    2    1    2    0    0  0.19967428852E+03  0.13755423379E+02  0.72642357595E+03  0.11739766269E+04  0.90026155953E+03 0.  0.
        -24    2    4    4    0    0  0.19163826745E+03  0.37324087966E+03  0.86506717642E+02  0.43593325180E+03  0.80749043489E+02 0.  0.
         24    2    4    4    0    0  0.80360210744E+01 -0.35948545628E+03  0.63991685831E+03  0.73804337507E+03  0.76941971801E+02 0.  0.
         11    1    3    3    0    0 -0.14804726324E+03 -0.48291961256E+02 -0.88441999731E+03  0.89802496475E+03  0.00000000000E+00 0. -1.
        -11    1    3    3    0    0 -0.51627025283E+02  0.34536537877E+02 -0.25095541275E+03  0.25852802822E+03  0.00000000000E+00 0.  1.
          2    1    6    6  502    0  0.13663078314E+00 -0.29004733837E+03  0.56795743886E+03  0.63773280418E+03  0.00000000000E+00 0. -1.
          3    1    5    5  503    0  0.14719595764E+03  0.28436026461E+03  0.29957504944E+02  0.32159736028E+03  0.00000000000E+00 0. -1.
         -4    1    5    5    0  503  0.44442309809E+02  0.88880615053E+02  0.56549212698E+02  0.11433589152E+03  0.00000000000E+00 0.  1.
         -1    1    6    6    0  502  0.78993902912E+01 -0.69438117911E+02  0.71959419449E+02  0.10031057090E+03  0.00000000000E+00 0.  1.
<mgrwt>
<rscale>  0 0.22943685E+04</rscale>
<asrwt>0</asrwt>
<pdfrwt beam="1">  1        2 0.21072934E+00 0.22943685E+04</pdfrwt>
<pdfrwt beam="2">  1       -2 0.14781368E+00 0.22943685E+04</pdfrwt>
<totfact> 0.42561342E+00</totfact>
</mgrwt>
</event>
<event>
12    1  0.2019083E-007  0.2750845E+04  0.7818608E-02  0.8318694E-01
         -4   -1    0    0    0  501 -0.00000000000E+00  0.00000000000E+00  0.12295539806E+04  0.12295539806E+04  0.00000000000E+00 0.  1.
          4   -1    0    0  501    0  0.00000000000E+00 -0.00000000000E+00 -0.15385958443E+04  0.15385958443E+04  0.00000000000E+00 0. -1.
         23    2    1    2    0    0  0.10250427863E+04 -0.25447345113E+03  0.48849859337E+03  0.11672809025E+04  0.91893299239E+02 0.  0.
        254    2    1    2    0    0 -0.10250427863E+04  0.25447345113E+03 -0.79754045709E+03  0.16008689224E+04  0.90068922211E+03 0.  0.
        -24    2    4    4    0    0 -0.41566668578E+03 -0.73663545037E+02 -0.79545848529E+03  0.90399391367E+03  0.79029631197E+02 0.  0.
         24    2    4    4    0    0 -0.60937610054E+03  0.32813699617E+03 -0.20819718017E+01  0.69687500870E+03  0.81346929780E+02 0.  0.
         11    1    3    3    0    0  0.20252563005E+03 -0.26028062436E+02  0.64543419561E+02  0.21414934945E+03  0.00000000000E+00 0. -1.
        -11    1    3    3    0    0  0.82251715627E+03 -0.22844538870E+03  0.42395517381E+03  0.95313155303E+03  0.00000000000E+00 0.  1.
          4    1    6    6  502    0 -0.30891869054E+03  0.19722444778E+03  0.29068574131E+02  0.36765911136E+03  0.00000000000E+00 0. -1.
          3    1    5    5  503    0 -0.37375046500E+03 -0.85206271830E+02 -0.74123256767E+03  0.83449100547E+03  0.00000000000E+00 0. -1.
         -4    1    5    5    0  503 -0.41916220783E+02  0.11542726792E+02 -0.54225917622E+02  0.69502908202E+02  0.00000000000E+00 0.  1.
         -3    1    6    6    0  502 -0.30045741000E+03  0.13091254840E+03 -0.31150545932E+02  0.32921589734E+03  0.00000000000E+00 0.  1.
<mgrwt>
<rscale>  0 0.27508447E+04</rscale>
<asrwt>0</asrwt>
<pdfrwt beam="1">  1        4 0.23670705E+00 0.27508447E+04</pdfrwt>
<pdfrwt beam="2">  1       -4 0.18916215E+00 0.27508447E+04</pdfrwt>
<totfact> 0.20674035E-02</totfact>
</mgrwt>
</event>
<event>
12    1  0.2019083E-007  0.2379239E+04  0.7818608E-02  0.8447317E-01
          1   -1    0    0  501    0  0.00000000000E+00  0.00000000000E+00  0.16157481482E+04  0.16157481482E+04  0.00000000000E+00 0. -1.
         -1   -1    0    0    0  501 -0.00000000000E+00 -0.00000000000E+00 -0.87587558842E+03  0.87587558842E+03  0.00000000000E+00 0.  1.
         23    2    1    2    0    0  0.90813751563E+03 -0.41676535112E+03  0.51454168729E+03  0.11275063238E+04  0.90056965573E+02 0.  0.
        254    2    1    2    0    0 -0.90813751563E+03  0.41676535112E+03  0.22533087253E+03  0.13641174129E+04  0.90090799128E+03 0.  0.
        -24    2    4    4    0    0 -0.30389830190E+03  0.44919983406E+02 -0.33122307307E+03  0.45882511924E+03  0.80248259217E+02 0.  0.
         24    2    4    4    0    0 -0.60423921373E+03  0.37184536772E+03  0.55655394559E+03  0.90529229362E+03  0.80173796400E+02 0.  0.
         13    1    3    3    0    0  0.80936932806E+03 -0.34677665907E+03  0.43044901354E+03  0.98011178635E+03  0.00000000000E+00 0.  1.
        -13    1    3    3    0    0  0.98768187566E+02 -0.69988692049E+02  0.84092673745E+02  0.14739453744E+03  0.00000000000E+00 0. -1.
          4    1    6    6  502    0 -0.37269532025E+03  0.18309745239E+03  0.31935758740E+03  0.52384706494E+03  0.00000000000E+00 0. -1.
          3    1    5    5  503    0 -0.23953818833E+03  0.41701729167E+01 -0.22969554462E+03  0.33189754026E+03  0.00000000000E+00 0. -1.
         -4    1    5    5    0  503 -0.64360113561E+02  0.40749810489E+02 -0.10152752844E+03  0.12692757897E+03  0.00000000000E+00 0.  1.
         -3    1    6    6    0  502 -0.23154389348E+03  0.18874791533E+03  0.23719635819E+03  0.38144522868E+03  0.00000000000E+00 0.  1.
<mgrwt>
<rscale>  0 0.23792388E+04</rscale>
<asrwt>0</asrwt>
<pdfrwt beam="1">  1        1 0.24857664E+00 0.23792388E+04</pdfrwt>
<pdfrwt beam="2">  1       -1 0.13475009E+00 0.23792388E+04</pdfrwt>
<totfact> 0.22614893E+00</totfact>
</mgrwt>
</event>
<event>
12    1  0.2019083E-007  0.1245649E+04  0.7818608E-02  0.9073812E-01
         -2   -1    0    0    0  501 -0.00000000000E+00  0.00000000000E+00  0.20103550999E+03  0.20103550999E+03  0.00000000000E+00 0.  1.
          2   -1    0    0  501    0  0.00000000000E+00 -0.00000000000E+00 -0.19295615621E+04  0.19295615621E+04  0.00000000000E+00 0. -1.
         23    2    1    2    0    0  0.27026928698E+03  0.80415237484E+02 -0.32400873084E+03  0.43914909479E+03  0.91423038086E+02 0.  0.
        254    2    1    2    0    0 -0.27026928698E+03 -0.80415237484E+02 -0.14045173213E+04  0.16914479774E+04  0.89934156821E+03 0.  0.
        -24    2    4    4    0    0 -0.35509564566E+03 -0.34275384047E+03 -0.38116358251E+03  0.62867206041E+03  0.79810840035E+02 0.  0.
         24    2    4    4    0    0  0.84826358683E+02  0.26233860298E+03 -0.10233537388E+04  0.10627759169E+04  0.78884226325E+02 0.  0.
         11    1    3    3    0    0  0.25526052413E+02 -0.39356679217E+01 -0.77477590714E+02  0.81669124500E+02  0.00000000000E+00 0. -1.
        -11    1    3    3    0    0  0.24474323456E+03  0.84350905405E+02 -0.24653114012E+03  0.35747997029E+03  0.00000000000E+00 0.  1.
          2    1    6    6  502    0 -0.13153212739E+02  0.52321183017E+02 -0.15952717033E+03  0.16840258689E+03  0.00000000000E+00 0. -1.
          1    1    5    5  503    0 -0.26416792835E+02 -0.19988699237E+01 -0.19216586735E+02  0.32727964043E+02  0.00000000000E+00 0. -1.
         -2    1    5    5    0  503 -0.32867885282E+03 -0.34075497054E+03 -0.36194699578E+03  0.59594409637E+03  0.00000000000E+00 0.  1.
         -1    1    6    6    0  502  0.97979571422E+02  0.21001741997E+03 -0.86382656847E+03  0.89437333005E+03  0.00000000000E+00 0.  1.
<mgrwt>
<rscale>  0 0.12456491E+04</rscale>
<asrwt>0</asrwt>
<pdfrwt beam="1">  1        2 0.29685564E+00 0.12456491E+04</pdfrwt>
<pdfrwt beam="2">  1       -2 0.30928538E-01 0.12456491E+04</pdfrwt>
<totfact> 0.69719644E+01</totfact>
</mgrwt>
</event>
<event>
12    1  0.2019083E-007  0.2018293E+04  0.7818608E-02  0.8598116E-01
         -1   -1    0    0    0  501 -0.00000000000E+00  0.00000000000E+00  0.76287207996E+03  0.76287207996E+03  0.00000000000E+00 0.  1.
          1   -1    0    0  501    0  0.00000000000E+00 -0.00000000000E+00 -0.13349245016E+04  0.13349245016E+04  0.00000000000E+00 0. -1.
         23    2    1    2    0    0 -0.43850327312E+03 -0.49559805422E+02  0.46747240691E+03  0.64911299974E+03  0.89866235927E+02 0.  0.
        254    2    1    2    0    0  0.43850327312E+03  0.49559805422E+02 -0.10395248286E+04  0.14486835818E+04  0.90737586272E+03 0.  0.
        -24    2    4    4    0    0  0.48787990761E+03  0.40261639978E+03 -0.73744246883E+03  0.97470035980E+03  0.78055281401E+02 0.  0.
         24    2    4    4    0    0 -0.49376634484E+02 -0.35305659436E+03 -0.30208235974E+03  0.47398322204E+03  0.79494225312E+02 0.  0.
         11    1    3    3    0    0 -0.14504383262E+03  0.25914039844E+02  0.15391062392E+03  0.21306743298E+03  0.00000000000E+00 0. -1.
        -11    1    3    3    0    0 -0.29345944050E+03 -0.75473845267E+02  0.31356178299E+03  0.43604556676E+03  0.00000000000E+00 0.  1.
          4    1    6    6  502    0 -0.22398095970E+02 -0.30277581349E+02 -0.54714076754E+02  0.66423164863E+02  0.00000000000E+00 0. -1.
          3    1    5    5  503    0  0.31118528951E+03  0.22401235275E+03 -0.40114524642E+03  0.55491920792E+03  0.00000000000E+00 0. -1.
         -4    1    5    5    0  503  0.17669461810E+03  0.17860404703E+03 -0.33629722240E+03  0.41978115188E+03  0.00000000000E+00 0.  1.
         -3    1    6    6    0  502 -0.26978538514E+02 -0.32277901301E+03 -0.24736828298E+03  0.40756005717E+03  0.00000000000E+00 0.  1.
<mgrwt>
<rscale>  0 0.20182930E+04</rscale>
<asrwt>0</asrwt>
<pdfrwt beam="1">  1        1 0.20537300E+00 0.20182930E+04</pdfrwt>
<pdfrwt beam="2">  1       -1 0.11736494E+00 0.20182930E+04</pdfrwt>
<totfact> 0.51702536E+00</totfact>
</mgrwt>
</event>
<event>
12    1  0.2019083E-007  0.2471896E+04  0.7818608E-02  0.8413067E-01
          2   -1    0    0  501    0  0.00000000000E+00  0.00000000000E+00  0.14851480302E+04  0.14851480302E+04  0.00000000000E+00 0. -1.
         -2   -1    0    0    0  501 -0.00000000000E+00 -0.00000000000E+00 -0.10285625338E+04  0.10285625338E+04  0.00000000000E+00 0.  1.
         23    2    1    2    0    0 -0.98751757076E+02  0.94059213683E+03 -0.30975293622E+03  0.99938570699E+03  0.91429931884E+02 0.  0.
        254    2    1    2    0    0  0.98751757076E+02 -0.94059213683E+03  0.76633843259E+03  0.15143248570E+04  0.90079947933E+03 0.  0.
        -24    2    4    4    0    0  0.51480580138E+02 -0.94189216659E+03  0.92965828592E+03  0.13268179550E+04  0.79813868179E+02 0.  0.
         24    2    4    4    0    0  0.47271176938E+02  0.13000297580E+01 -0.16331985333E+03  0.18750690202E+03  0.79051942204E+02 0.  0.
         13    1    3    3    0    0 -0.15203249696E+02  0.12080604942E+03 -0.73214104271E+02  0.14207584398E+03  0.00000000000E+00 0. -1.
        -13    1    3    3    0    0 -0.83548507380E+02  0.81978608741E+03 -0.23653883195E+03  0.85730986301E+03  0.00000000000E+00 0.  1.
          2    1    6    6  502    0  0.16629299895E+02 -0.35021454873E+02 -0.41725075206E+02  0.56956279877E+02  0.00000000000E+00 0. -1.
          3    1    5    5  503    0  0.24157735835E+02 -0.27165993319E+03  0.31907044718E+03  0.41974833623E+03  0.00000000000E+00 0. -1.
         -4    1    5    5    0  503  0.27322844303E+02 -0.67023223340E+03  0.61058783873E+03  0.90706961878E+03  0.00000000000E+00 0.  1.
         -1    1    6    6    0  502  0.30641877042E+02  0.36321484632E+02 -0.12159477812E+03  0.13055062214E+03  0.00000000000E+00 0.  1.
<mgrwt>
<rscale>  0 0.24718961E+04</rscale>
<asrwt>0</asrwt>
<pdfrwt beam="1">  1        2 0.22848431E+00 0.24718961E+04</pdfrwt>
<pdfrwt beam="2">  1       -2 0.15824039E+00 0.24718961E+04</pdfrwt>
<totfact> 0.30036749E+00</totfact>
</mgrwt>
</event>
<event>
12    1  0.2019083E-007  0.1678022E+04  0.7818608E-02  0.8773999E-01
         -1   -1    0    0    0  501 -0.00000000000E+00  0.00000000000E+00  0.97464398983E+03  0.97464398983E+03  0.00000000000E+00 0.  1.
          1   -1    0    0  501    0  0.00000000000E+00 -0.00000000000E+00 -0.72225317436E+03  0.72225317436E+03  0.00000000000E+00 0. -1.
         23    2    1    2    0    0  0.32781878728E+03  0.47905828519E+03 -0.20701160931E+02  0.58791399889E+03  0.90842358699E+02 0.  0.
        254    2    1    2    0    0 -0.32781878728E+03 -0.47905828519E+03  0.27309197640E+03  0.11089831653E+04  0.90460070498E+03 0.  0.
        -24    2    4    4    0    0 -0.55957692297E+03 -0.18735752258E+03 -0.65676197696E+02  0.59910552555E+03  0.79905530549E+02 0.  0.
         24    2    4    4    0    0  0.23175813570E+03 -0.29170076261E+03  0.33876817410E+03  0.50987763975E+03  0.80063495844E+02 0.  0.
         13    1    3    3    0    0  0.22296075667E+03  0.34874526605E+03 -0.53801548225E+02  0.41740791343E+03  0.00000000000E+00 0. -1.
        -13    1    3    3    0    0  0.10485803061E+03  0.13031301914E+03  0.33100387294E+02  0.17050608546E+03  0.00000000000E+00 0.  1.
          2    1    6    6  502    0  0.32880632796E+02 -0.14977266361E+02  0.58012695854E+02  0.68344183373E+02  0.00000000000E+00 0. -1.
          3    1    5    5  503    0 -0.11377524249E+03 -0.70496274095E+02 -0.19740776193E+01  0.13385973049E+03  0.00000000000E+00 0. -1.
         -4    1    5    5    0  503 -0.44580168048E+03 -0.11686124849E+03 -0.63702120077E+02  0.46524579506E+03  0.00000000000E+00 0.  1.
         -1    1    6    6    0  502  0.19887750290E+03 -0.27672349624E+03  0.28075547824E+03  0.44153345637E+03  0.00000000000E+00 0.  1.
<mgrwt>
<rscale>  0 0.16780223E+04</rscale>
<asrwt>0</asrwt>
<pdfrwt beam="1">  1        1 0.11111587E+00 0.16780223E+04</pdfrwt>
<pdfrwt beam="2">  1       -1 0.14994523E+00 0.16780223E+04</pdfrwt>
<totfact> 0.86470688E+00</totfact>
</mgrwt>
</event>
<event>
12    1  0.2019083E-007  0.1304580E+04  0.7818608E-02  0.9025941E-01
          2   -1    0    0  501    0  0.00000000000E+00  0.00000000000E+00  0.16529548912E+04  0.16529548912E+04  0.00000000000E+00 0. -1.
         -2   -1    0    0    0  501 -0.00000000000E+00 -0.00000000000E+00 -0.25740699363E+03  0.25740699363E+03  0.00000000000E+00 0.  1.
         23    2    1    2    0    0  0.31132885843E+03  0.84387794986E+02  0.24044453646E+03  0.41241242263E+03  0.90683367750E+02 0.  0.
        254    2    1    2    0    0 -0.31132885843E+03 -0.84387794986E+02  0.11551033611E+04  0.14979494622E+04  0.89751983733E+03 0.  0.
        -24    2    4    4    0    0 -0.58879455293E+03  0.17504210826E+02  0.97771963000E+03  0.11443927871E+04  0.81937496910E+02 0.  0.
         24    2    4    4    0    0  0.27746569449E+03 -0.10189200581E+03  0.17738373109E+03  0.35355667505E+03  0.78537519346E+02 0.  0.
         11    1    3    3    0    0  0.26615194470E+03  0.88791332152E+02  0.16830574835E+03  0.32718126973E+03  0.00000000000E+00 0.  1.
        -11    1    3    3    0    0  0.45176913728E+02 -0.44035371660E+01  0.72138788111E+02  0.85231152894E+02  0.00000000000E+00 0. -1.
          4    1    6    6  502    0  0.10973961013E+03 -0.14612305541E+01  0.53301930557E+02  0.12200824984E+03  0.00000000000E+00 0. -1.
          3    1    5    5  503    0 -0.23074664926E+03 -0.28850008028E+02  0.34876374952E+03  0.41918073916E+03  0.00000000000E+00 0. -1.
         -4    1    5    5    0  503 -0.35804790367E+03  0.46354218855E+02  0.62895588049E+03  0.72521204798E+03  0.00000000000E+00 0.  1.
         -3    1    6    6    0  502  0.16772608436E+03 -0.10043077526E+03  0.12408180053E+03  0.23154842521E+03  0.00000000000E+00 0.  1.
<mgrwt>
<rscale>  0 0.13045799E+04</rscale>
<asrwt>0</asrwt>
<pdfrwt beam="1">  1        2 0.25430075E+00 0.13045799E+04</pdfrwt>
<pdfrwt beam="2">  1       -2 0.39601077E-01 0.13045799E+04</pdfrwt>
<totfact> 0.61552125E+01</totfact>
</mgrwt>
</event>
<event>
12    1  0.2019083E-007  0.2422923E+04  0.7818608E-02  0.8430971E-01
          1   -1    0    0  501    0  0.00000000000E+00  0.00000000000E+00  0.96315270588E+03  0.96315270588E+03  0.00000000000E+00 0. -1.
         -1   -1    0    0    0  501 -0.00000000000E+00 -0.00000000000E+00 -0.15237864088E+04  0.15237864088E+04  0.00000000000E+00 0.  1.
         23    2    1    2    0    0  0.96024082587E+03  0.33901586807E+03 -0.46822313136E+03  0.11250789865E+04  0.97855110329E+02 0.  0.
        254    2    1    2    0    0 -0.96024082587E+03 -0.33901586807E+03 -0.92410571523E+02  0.13618601282E+04  0.89951603236E+03 0.  0.
        -24    2    4    4    0    0 -0.12033541415E+03  0.27767247499E+03 -0.38504995339E+02  0.31554721588E+03  0.80652312541E+02 0.  0.
         24    2    4    4    0    0 -0.83990541172E+03 -0.61668834306E+03 -0.53905576185E+02  0.10463129123E+04  0.78225866352E+02 0.  0.
         13    1    3    3    0    0  0.43202777258E+03  0.11522318054E+03 -0.16841817761E+03  0.47779604453E+03  0.00000000000E+00 0. -1.
        -13    1    3    3    0    0  0.52821305329E+03  0.22379268754E+03 -0.29980495375E+03  0.64728294196E+03  0.00000000000E+00 0.  1.
          4    1    6    6  502    0 -0.46113557244E+03 -0.29326073370E+03 -0.42074621904E+02  0.54810413965E+03  0.00000000000E+00 0. -1.
          1    1    5    5  503    0  0.10165665516E+02  0.92650413792E+01  0.34005180071E+01  0.14168460391E+02  0.00000000000E+00 0. -1.
         -2    1    5    5    0  503 -0.13050107967E+03  0.26840743361E+03 -0.41905513346E+02  0.30137875549E+03  0.00000000000E+00 0.  1.
         -3    1    6    6    0  502 -0.37876983928E+03 -0.32342760936E+03 -0.11830954281E+02  0.49820877263E+03  0.00000000000E+00 0.  1.
<mgrwt>
<rscale>  0 0.24229230E+04</rscale>
<asrwt>0</asrwt>
<pdfrwt beam="1">  1        1 0.14817734E+00 0.24229230E+04</pdfrwt>
<pdfrwt beam="2">  1       -1 0.23442868E+00 0.24229230E+04</pdfrwt>
<totfact> 0.12765450E+00</totfact>
</mgrwt>
</event>
<event>
12    1  0.2019083E-007  0.2692459E+04  0.7818608E-02  0.8337456E-01
          1   -1    0    0  501    0  0.00000000000E+00  0.00000000000E+00  0.18870491290E+04  0.18870491290E+04  0.00000000000E+00 0. -1.
         -1   -1    0    0    0  501 -0.00000000000E+00 -0.00000000000E+00 -0.96040617404E+03  0.96040617404E+03  0.00000000000E+00 0.  1.
         23    2    1    2    0    0 -0.75859881121E+03 -0.90649996042E+03  0.58328726359E+03  0.13210423691E+04  0.87832650126E+02 0.  0.
        254    2    1    2    0    0  0.75859881121E+03  0.90649996042E+03  0.34335569140E+03  0.15264129340E+04  0.90267877989E+03 0.  0.
        -24    2    4    4    0    0  0.83919782204E+03  0.42874900422E+03  0.34822000408E+02  0.94638490897E+03  0.79706530979E+02 0.  0.
         24    2    4    4    0    0 -0.80599010835E+02  0.47775095619E+03  0.30853369100E+03  0.58002802503E+03  0.80605797841E+02 0.  0.
         13    1    3    3    0    0 -0.62316859919E+03 -0.68862031554E+03  0.46077401499E+03  0.10367496009E+04  0.00000000000E+00 0. -1.
        -13    1    3    3    0    0 -0.13543021202E+03 -0.21787964487E+03  0.12251324860E+03  0.28429276822E+03  0.00000000000E+00 0.  1.
          4    1    6    6  502    0 -0.29066470839E+02  0.26397905138E+03  0.12461659274E+03  0.29335830393E+03  0.00000000000E+00 0. -1.
          1    1    5    5  503    0  0.66731934195E+03  0.30919253621E+03  0.44279143886E+02  0.73680103907E+03  0.00000000000E+00 0. -1.
         -2    1    5    5    0  503  0.17187848009E+03  0.11955646801E+03 -0.94571434779E+01  0.20958386990E+03  0.00000000000E+00 0.  1.
         -3    1    6    6    0  502 -0.51532539996E+02  0.21377190481E+03  0.18391709826E+03  0.28666972110E+03  0.00000000000E+00 0.  1.
<mgrwt>
<rscale>  0 0.26924588E+04</rscale>
<asrwt>0</asrwt>
<pdfrwt beam="1">  1        1 0.29031525E+00 0.26924588E+04</pdfrwt>
<pdfrwt beam="2">  1       -1 0.14775480E+00 0.26924588E+04</pdfrwt>
<totfact> 0.11286255E+00</totfact>
</mgrwt>
</event>
<event>
12    1  0.2019083E-007  0.1543783E+04  0.7818608E-02  0.8855849E-01
          2   -1    0    0  501    0  0.00000000000E+00  0.00000000000E+00  0.11619035732E+04  0.11619035732E+04  0.00000000000E+00 0. -1.
         -2   -1    0    0    0  501 -0.00000000000E+00 -0.00000000000E+00 -0.51279340756E+03  0.51279340756E+03  0.00000000000E+00 0.  1.
         23    2    1    2    0    0  0.14592268805E+03  0.48060632264E+03  0.27128249341E+03  0.57771737462E+03  0.88810503089E+02 0.  0.
        254    2    1    2    0    0 -0.14592268805E+03 -0.48060632264E+03  0.37782767220E+03  0.10969796061E+04  0.89907432289E+03 0.  0.
        -24    2    4    4    0    0 -0.29313014755E+03 -0.18793982914E+02 -0.18018123893E+03  0.35349195058E+03  0.78821209508E+02 0.  0.
         24    2    4    4    0    0  0.14720745950E+03 -0.46181233973E+03  0.55800891113E+03  0.74348765552E+03  0.80369619588E+02 0.  0.
         11    1    3    3    0    0  0.83587327484E+01  0.11896072300E+02 -0.63348911147E+01  0.15859249502E+02  0.00000000000E+00 0.  1.
        -11    1    3    3    0    0  0.13756395530E+03  0.46871025034E+03  0.27761738453E+03  0.56185812512E+03  0.00000000000E+00 0. -1.
          4    1    6    6  502    0  0.91920296640E+02 -0.26286505398E+03  0.37835247727E+03  0.46978503019E+03  0.00000000000E+00 0. -1.
          1    1    5    5  503    0 -0.31333626922E+02 -0.25085443305E+02 -0.10626341215E+02  0.41521015998E+02  0.00000000000E+00 0. -1.
         -2    1    5    5    0  503 -0.26179652063E+03  0.62914603909E+01 -0.16955489772E+03  0.31197093459E+03  0.00000000000E+00 0.  1.
         -3    1    6    6    0  502  0.55287162859E+02 -0.19894728575E+03  0.17965643387E+03  0.27370262533E+03  0.00000000000E+00 0.  1.
<mgrwt>
<rscale>  0 0.15437830E+04</rscale>
<asrwt>0</asrwt>
<pdfrwt beam="1">  1        2 0.17875440E+00 0.15437830E+04</pdfrwt>
<pdfrwt beam="2">  1       -2 0.78891294E-01 0.15437830E+04</pdfrwt>
<totfact> 0.27431915E+01</totfact>
</mgrwt>
</event>
<event>
12    1  0.2019083E-007  0.1923026E+04  0.7818608E-02  0.8643479E-01
         -2   -1    0    0    0  501 -0.00000000000E+00  0.00000000000E+00  0.61493545032E+03  0.61493545032E+03  0.00000000000E+00 0.  1.
          2   -1    0    0  501    0  0.00000000000E+00 -0.00000000000E+00 -0.15034212077E+04  0.15034212077E+04  0.00000000000E+00 0. -1.
         23    2    1    2    0    0  0.54901140355E+03 -0.44811347110E+03 -0.61045852547E+03  0.93990594113E+03  0.92435721735E+02 0.  0.
        254    2    1    2    0    0 -0.54901140355E+03  0.44811347110E+03 -0.27802723193E+03  0.11784507169E+04  0.89957086785E+03 0.  0.
        -24    2    4    4    0    0 -0.59543865524E+03  0.36152168288E+03  0.16266907390E+03  0.71998004877E+03  0.81638983873E+02 0.  0.
         24    2    4    4    0    0  0.46427251689E+02  0.86591788215E+02 -0.44069630583E+03  0.45847066813E+03  0.79551820107E+02 0.  0.
         13    1    3    3    0    0  0.22895260183E+03 -0.16562370818E+03 -0.18859218158E+03  0.33973153746E+03  0.00000000000E+00 0.  1.
        -13    1    3    3    0    0  0.32005880172E+03 -0.28248976292E+03 -0.42186634389E+03  0.60017440367E+03  0.00000000000E+00 0. -1.
          2    1    6    6  502    0  0.45676671496E+02  0.10135974588E+03 -0.37514246472E+03  0.39126976020E+03  0.00000000000E+00 0. -1.
          1    1    5    5  503    0 -0.41151859299E+03  0.21094861088E+03  0.87144999543E+02  0.47057530720E+03  0.00000000000E+00 0. -1.
         -2    1    5    5    0  503 -0.18392006225E+03  0.15057307200E+03  0.75524074357E+02  0.24940474157E+03  0.00000000000E+00 0.  1.
         -1    1    6    6    0  502  0.75058019343E+00 -0.14767957665E+02 -0.65553841101E+02  0.67200907935E+02  0.00000000000E+00 0.  1.
<mgrwt>
<rscale>  0 0.19230257E+04</rscale>
<asrwt>0</asrwt>
<pdfrwt beam="1">  1        2 0.23129557E+00 0.19230257E+04</pdfrwt>
<pdfrwt beam="2">  1       -2 0.94605454E-01 0.19230257E+04</pdfrwt>
<totfact> 0.11119224E+01</totfact>
</mgrwt>
</event>
<event>
12    1  0.2019083E-007  0.2498156E+04  0.7818608E-02  0.8403643E-01
          1   -1    0    0  501    0  0.00000000000E+00  0.00000000000E+00  0.48738107584E+04  0.48738107584E+04  0.00000000000E+00 0.  1.
         -1   -1    0    0    0  501 -0.00000000000E+00 -0.00000000000E+00 -0.32011831061E+03  0.32011831061E+03  0.00000000000E+00 0. -1.
         23    2    1    2    0    0 -0.80738025620E+03  0.67780274189E+03  0.14511230196E+04  0.17959106781E+04  0.90871946927E+02 0.  0.
        254    2    1    2    0    0  0.80738025620E+03 -0.67780274189E+03  0.31025694282E+04  0.33980183910E+04  0.89961797066E+03 0.  0.
        -24    2    4    4    0    0 -0.82073624633E+02 -0.29036010762E+02  0.11413308373E+04  0.11474641729E+04  0.80366523542E+02 0.  0.
         24    2    4    4    0    0  0.88945388083E+03 -0.64876673113E+03  0.19612385909E+04  0.22505542181E+04  0.80690769414E+02 0.  0.
         11    1    3    3    0    0 -0.15779795332E+03  0.89599546446E+02  0.23312619096E+03  0.29542527601E+03  0.00000000000E+00 0.  1.
        -11    1    3    3    0    0 -0.64958230288E+03  0.58820319545E+03  0.12179968286E+04  0.15004854021E+04  0.00000000000E+00 0. -1.
          4    1    6    6  502    0  0.25850117943E+03 -0.19031641733E+03  0.49927765078E+03  0.59356665257E+03  0.00000000000E+00 0. -1.
          3    1    5    5  503    0 -0.52185013535E+02 -0.28410648743E+02  0.10429574456E+04  0.10446485888E+04  0.00000000000E+00 0. -1.
         -4    1    5    5    0  503 -0.29888611098E+02 -0.62536201877E+00  0.98373391664E+02  0.10281558412E+03  0.00000000000E+00 0.  1.
         -3    1    6    6    0  502  0.63095270141E+03 -0.45845031380E+03  0.14619609402E+04  0.16569875655E+04  0.00000000000E+00 0.  1.
<mgrwt>
<rscale>  0 0.24981562E+04</rscale>
<asrwt>0</asrwt>
<pdfrwt beam="1">  1        1 0.74981699E+00 0.24981562E+04</pdfrwt>
<pdfrwt beam="2">  1       -1 0.49248974E-01 0.24981562E+04</pdfrwt>
<totfact> 0.45862097E-02</totfact>
</mgrwt>
</event>
<event>
12    1  0.2019083E-007  0.1043678E+04  0.7818608E-02  0.9261896E-01
         -2   -1    0    0    0  501 -0.00000000000E+00  0.00000000000E+00  0.95807128979E+02  0.95807128979E+02  0.00000000000E+00 0.  1.
          2   -1    0    0  501    0  0.00000000000E+00 -0.00000000000E+00 -0.28423339566E+04  0.28423339566E+04  0.00000000000E+00 0. -1.
         23    2    1    2    0    0 -0.15069755149E+02 -0.23247969744E+02 -0.65928806306E+02  0.11030285150E+03  0.83979437545E+02 0.  0.
        254    2    1    2    0    0  0.15069755149E+02  0.23247969744E+02 -0.26805980213E+04  0.28278382340E+04  0.90016429646E+03 0.  0.
        -24    2    4    4    0    0  0.25517641556E+03  0.20142228407E+03 -0.37899260144E+03  0.50553480350E+03  0.79019655911E+02 0.  0.
         24    2    4    4    0    0 -0.24010666041E+03 -0.17817431433E+03 -0.23016054198E+04  0.23223034305E+04  0.79425564182E+02 0.  0.
         11    1    3    3    0    0  0.18006389740E+02 -0.29290220085E+02 -0.68434529715E+02  0.76586107888E+02  0.00000000000E+00 0. -1.
        -11    1    3    3    0    0 -0.33076144889E+02  0.60422503414E+01  0.25057234086E+01  0.33716743611E+02  0.00000000000E+00 0.  1.
          2    1    6    6  502    0 -0.68920036186E+02 -0.44869226190E+02 -0.40044356881E+03  0.40880101595E+03  0.00000000000E+00 0. -1.
          1    1    5    5  503    0  0.62099627845E+02  0.38047758218E+02 -0.13873428687E+03  0.15668821920E+03  0.00000000000E+00 0. -1.
         -2    1    5    5    0  503  0.19307678772E+03  0.16337452585E+03 -0.24025831457E+03  0.34884658430E+03  0.00000000000E+00 0.  1.
         -1    1    6    6    0  502 -0.17118662423E+03 -0.13330508814E+03 -0.19011618510E+04  0.19135024146E+04  0.00000000000E+00 0.  1.
<mgrwt>
<rscale>  0 0.10436778E+04</rscale>
<asrwt>0</asrwt>
<pdfrwt beam="1">  1        2 0.43728205E+00 0.10436778E+04</pdfrwt>
<pdfrwt beam="2">  1       -2 0.14739562E-01 0.10436778E+04</pdfrwt>
<totfact> 0.79937066E+01</totfact>
</mgrwt>
</event>
<event>
12    1  0.2019083E-007  0.2663318E+04  0.7818608E-02  0.8347006E-01
          1   -1    0    0  501    0  0.00000000000E+00  0.00000000000E+00  0.15243649619E+04  0.15243649619E+04  0.00000000000E+00 0. -1.
         -1   -1    0    0    0  501 -0.00000000000E+00 -0.00000000000E+00 -0.11633142554E+04  0.11633142554E+04  0.00000000000E+00 0.  1.
         23    2    1    2    0    0  0.46554444746E+03 -0.10534430190E+04 -0.84733969465E+02  0.11585106131E+04  0.92158387245E+02 0.  0.
        254    2    1    2    0    0 -0.46554444746E+03  0.10534430190E+04  0.44578467596E+03  0.15291686042E+04  0.90175319010E+03 0.  0.
        -24    2    4    4    0    0 -0.28496332962E+03  0.71890558838E+03 -0.17453739548E+03  0.79712509449E+03  0.83161106368E+02 0.  0.
         24    2    4    4    0    0 -0.18058111785E+03  0.33453743058E+03  0.62032207144E+03  0.73204350967E+03  0.81014783472E+02 0.  0.
         13    1    3    3    0    0  0.58843601521E+02 -0.13467957501E+03  0.19933781329E+02  0.14831895699E+03  0.00000000000E+00 0. -1.
        -13    1    3    3    0    0  0.40670084594E+03 -0.91876344396E+03 -0.10466775079E+03  0.10101916561E+04  0.00000000000E+00 0.  1.
          4    1    6    6  502    0 -0.10777212337E+03  0.20773297854E+03  0.30473709850E+03  0.38422977520E+03  0.00000000000E+00 0. -1.
          1    1    5    5  503    0 -0.15341960934E+03  0.45440389717E+03 -0.14052179453E+03  0.49976679865E+03  0.00000000000E+00 0. -1.
         -2    1    5    5    0  503 -0.13154372027E+03  0.26450169121E+03 -0.34015600948E+02  0.29735829584E+03  0.00000000000E+00 0.  1.
         -3    1    6    6    0  502 -0.72808994477E+02  0.12680445204E+03  0.31558497294E+03  0.34781373446E+03  0.00000000000E+00 0.  1.
<mgrwt>
<rscale>  0 0.26633178E+04</rscale>
<asrwt>0</asrwt>
<pdfrwt beam="1">  1        1 0.23451769E+00 0.26633178E+04</pdfrwt>
<pdfrwt beam="2">  1       -1 0.17897142E+00 0.26633178E+04</pdfrwt>
<totfact> 0.11667801E+00</totfact>
</mgrwt>
</event>
<event>
12    1  0.2019083E-007  0.1905134E+04  0.7818608E-02  0.8652305E-01
         -2   -1    0    0    0  501 -0.00000000000E+00  0.00000000000E+00  0.34634306854E+03  0.34634306854E+03  0.00000000000E+00 0. -1.
          2   -1    0    0  501    0  0.00000000000E+00 -0.00000000000E+00 -0.26198996776E+04  0.26198996776E+04  0.00000000000E+00 0.  1.
         23    2    1    2    0    0  0.15567380326E+03 -0.50688644138E+03 -0.92636497333E+02  0.54602870347E+03  0.91638566651E+02 0.  0.
        254    2    1    2    0    0 -0.15567380326E+03  0.50688644138E+03 -0.21809201118E+04  0.24202140427E+04  0.90545860267E+03 0.  0.
        -24    2    4    4    0    0 -0.47365374885E+03  0.81645486477E+02 -0.13023983760E+04  0.13906020840E+04  0.80738880769E+02 0.  0.
         24    2    4    4    0    0  0.31797994559E+03  0.42524095490E+03 -0.87852173571E+03  0.10296119587E+04  0.79744779364E+02 0.  0.
         13    1    3    3    0    0  0.47138340568E+02 -0.23868838334E+03 -0.36485196526E+01  0.24332587036E+03  0.00000000000E+00 0. -1.
        -13    1    3    3    0    0  0.10853546269E+03 -0.26819805804E+03 -0.88987977680E+02  0.30270283311E+03  0.00000000000E+00 0.  1.
          2    1    6    6  502    0  0.15597217548E+03  0.14355681234E+03 -0.34907356715E+03  0.40839715129E+03  0.00000000000E+00 0. -1.
          1    1    5    5  503    0 -0.26244398107E+02  0.25175194974E+02 -0.10238576911E+03  0.10865267871E+03  0.00000000000E+00 0. -1.
         -2    1    5    5    0  503 -0.44740935074E+03  0.56470291503E+02 -0.12000126069E+04  0.12819494053E+04  0.00000000000E+00 0.  1.
         -1    1    6    6    0  502  0.16200777011E+03  0.28168414257E+03 -0.52944816856E+03  0.62121480740E+03  0.00000000000E+00 0.  1.
<mgrwt>
<rscale>  0 0.19051342E+04</rscale>
<asrwt>0</asrwt>
<pdfrwt beam="1">  1        2 0.40306149E+00 0.19051342E+04</pdfrwt>
<pdfrwt beam="2">  1       -2 0.53283549E-01 0.19051342E+04</pdfrwt>
<totfact> 0.92194323E+00</totfact>
</mgrwt>
</event>
<event>
12    1  0.2019083E-007  0.1299312E+04  0.7818608E-02  0.9030111E-01
         -1   -1    0    0    0  501 -0.00000000000E+00  0.00000000000E+00  0.15284032793E+03  0.15284032793E+03  0.00000000000E+00 0.  1.
          1   -1    0    0  501    0  0.00000000000E+00 -0.00000000000E+00 -0.27613958532E+04  0.27613958532E+04  0.00000000000E+00 0. -1.
         23    2    1    2    0    0  0.31792059817E+03 -0.30069721553E+02 -0.87136326913E+03  0.93249655882E+03  0.91094404475E+02 0.  0.
        254    2    1    2    0    0 -0.31792059817E+03  0.30069721553E+02 -0.17371922562E+04  0.19817396224E+04  0.89859740763E+03 0.  0.
        -24    2    4    4    0    0  0.19697548610E+02 -0.37724698160E+03 -0.99049308708E+03  0.10632172313E+04  0.81553950474E+02 0.  0.
         24    2    4    4    0    0 -0.33761814678E+03  0.40731670316E+03 -0.74669916910E+03  0.91852239105E+03  0.78935568819E+02 0.  0.
         13    1    3    3    0    0  0.22963570407E+03  0.20047623145E+02 -0.59738524333E+03  0.64031522919E+03  0.00000000000E+00 0. -1.
        -13    1    3    3    0    0  0.88284894098E+02 -0.50117344699E+02 -0.27397802580E+03  0.29218132964E+03  0.00000000000E+00 0.  1.
          2    1    6    6  502    0 -0.28826905798E+03  0.38200843516E+03 -0.65212251786E+03  0.80888396735E+03  0.00000000000E+00 0. -1.
          3    1    5    5  503    0 -0.24592230706E+02 -0.53990216318E+02 -0.17954525663E+03  0.18909315283E+03  0.00000000000E+00 0. -1.
         -4    1    5    5    0  503  0.44289779316E+02 -0.32325676529E+03 -0.81094783045E+03  0.87412407847E+03  0.00000000000E+00 0.  1.
         -1    1    6    6    0  502 -0.49349088797E+02  0.25308268000E+02 -0.94576651233E+02  0.10963842371E+03  0.00000000000E+00 0.  1.
<mgrwt>
<rscale>  0 0.12993116E+04</rscale>
<asrwt>0</asrwt>
<pdfrwt beam="1">  1        1 0.42483012E+00 0.12993116E+04</pdfrwt>
<pdfrwt beam="2">  1       -1 0.23513897E-01 0.12993116E+04</pdfrwt>
<totfact> 0.13670050E+01</totfact>
</mgrwt>
</event>
<event>
12    1  0.2019083E-007  0.1914330E+04  0.7818608E-02  0.8647756E-01
          2   -1    0    0  501    0  0.00000000000E+00  0.00000000000E+00  0.13877997431E+04  0.13877997431E+04  0.00000000000E+00 0.  1.
         -2   -1    0    0    0  501 -0.00000000000E+00 -0.00000000000E+00 -0.66015603362E+03  0.66015603362E+03  0.00000000000E+00 0. -1.
         23    2    1    2    0    0  0.33208130920E+03  0.60681835773E+03  0.57675671690E+03  0.90522870410E+03  0.91017476548E+02 0.  0.
        254    2    1    2    0    0 -0.33208130920E+03 -0.60681835773E+03  0.15088699255E+03  0.11427270726E+04  0.89696809457E+03 0.  0.
        -24    2    4    4    0    0 -0.52381692088E+03 -0.59980150657E+03 -0.11129700641E+03  0.80862728345E+03  0.85703243950E+02 0.  0.
         24    2    4    4    0    0  0.19173561167E+03 -0.70168511604E+01  0.26218399896E+03  0.33409978913E+03  0.77913020752E+02 0.  0.
         13    1    3    3    0    0  0.53442635144E+02  0.12734811844E+03  0.16107056328E+03  0.21217300694E+03  0.00000000000E+00 0.  1.
        -13    1    3    3    0    0  0.27863867406E+03  0.47947023929E+03  0.41568615362E+03  0.69305569716E+03  0.00000000000E+00 0. -1.
          4    1    6    6  502    0  0.12536738374E+03  0.31260314869E+02  0.18197226881E+03  0.22317727216E+03  0.00000000000E+00 0. -1.
          1    1    5    5  503    0 -0.35702513941E+01 -0.11808206767E+02  0.77170386373E+01  0.14551052450E+02  0.00000000000E+00 0. -1.
         -2    1    5    5    0  503 -0.52024666948E+03 -0.58799329980E+03 -0.11901404504E+03  0.79407623100E+03  0.00000000000E+00 0.  1.
         -1    1    6    6    0  502  0.66368227929E+02 -0.38277166030E+02  0.80211730151E+02  0.11092251697E+03  0.00000000000E+00 0.  1.
<mgrwt>
<rscale>  0 0.19143295E+04</rscale>
<asrwt>0</asrwt>
<pdfrwt beam="1">  1        2 0.21350765E+00 0.19143295E+04</pdfrwt>
<pdfrwt beam="2">  1       -2 0.10156247E+00 0.19143295E+04</pdfrwt>
<totfact> 0.10953159E+01</totfact>
</mgrwt>
</event>
<event>
12    1  0.2019083E-007  0.1593762E+04  0.7818608E-02  0.8824389E-01
         -1   -1    0    0    0  501 -0.00000000000E+00  0.00000000000E+00  0.13743362368E+04  0.13743362368E+04  0.00000000000E+00 0.  1.
          1   -1    0    0  501    0  0.00000000000E+00 -0.00000000000E+00 -0.46205531888E+03  0.46205531888E+03  0.00000000000E+00 0. -1.
         23    2    1    2    0    0 -0.46477064090E+03  0.10296913482E+03  0.21270601205E+02  0.48521209182E+03  0.91454601862E+02 0.  0.
        254    2    1    2    0    0  0.46477064090E+03 -0.10296913482E+03  0.89101031675E+03  0.13511794639E+04  0.89731386246E+03 0.  0.
        -24    2    4    4    0    0  0.37788979557E+03  0.12493359522E+03  0.99462959467E+03  0.10742984833E+04  0.80125525609E+02 0.  0.
         24    2    4    4    0    0  0.86880845330E+02 -0.22790273004E+03 -0.10361927792E+03  0.27688098059E+03  0.80238313876E+02 0.  0.
         11    1    3    3    0    0 -0.11965368363E+03  0.57691533393E+02  0.33241980520E+02  0.13693190388E+03  0.00000000000E+00 0.  1.
        -11    1    3    3    0    0 -0.34511695727E+03  0.45277601424E+02 -0.11971379315E+02  0.34828018794E+03  0.00000000000E+00 0. -1.
          2    1    6    6  502    0  0.58263981363E+02 -0.16764078905E+03 -0.11166879205E+03  0.20968558557E+03  0.00000000000E+00 0. -1.
          1    1    5    5  503    0  0.38079749482E+03  0.12748955940E+03  0.98942556918E+03  0.10678123790E+04  0.00000000000E+00 0. -1.
         -2    1    5    5    0  503 -0.29076992470E+01 -0.25559641829E+01  0.52040254922E+01  0.64861043114E+01  0.00000000000E+00 0.  1.
         -1    1    6    6    0  502  0.28616863967E+02 -0.60261940982E+02  0.80495141295E+01  0.67195395020E+02  0.00000000000E+00 0.  1.
<mgrwt>
<rscale>  0 0.15937621E+04</rscale>
<asrwt>0</asrwt>
<pdfrwt beam="1">  1        1 0.71085434E-01 0.15937621E+04</pdfrwt>
<pdfrwt beam="2">  1       -1 0.21143634E+00 0.15937621E+04</pdfrwt>
<totfact> 0.59601426E+00</totfact>
</mgrwt>
</event>
<event>
12    1  0.2019083E-007  0.2073398E+04  0.7818608E-02  0.8573053E-01
         -2   -1    0    0    0  501 -0.00000000000E+00  0.00000000000E+00  0.42510394900E+03  0.42510394900E+03  0.00000000000E+00 0.  1.
          2   -1    0    0  501    0  0.00000000000E+00 -0.00000000000E+00 -0.25281934936E+04  0.25281934936E+04  0.00000000000E+00 0. -1.
         23    2    1    2    0    0 -0.64440200694E+03 -0.53017625814E+03 -0.73364965273E+03  0.11149099908E+04  0.91878525128E+02 0.  0.
        254    2    1    2    0    0  0.64440200694E+03  0.53017625814E+03 -0.13694398918E+04  0.18383874518E+04  0.89886706149E+03 0.  0.
        -24    2    4    4    0    0  0.69803026075E+03  0.43446852622E+02 -0.97929011276E+03  0.12060363233E+04  0.79878747194E+02 0.  0.
         24    2    4    4    0    0 -0.53628253806E+02  0.48672940552E+03 -0.39014977907E+03  0.63235112847E+03  0.88710742090E+02 0.  0.
         13    1    3    3    0    0 -0.58707713147E+03 -0.51279368353E+03 -0.67649878666E+03  0.10321179819E+04  0.00000000000E+00 0. -1.
        -13    1    3    3    0    0 -0.57324875474E+02 -0.17382574607E+02 -0.57150866067E+02  0.82792008915E+02  0.00000000000E+00 0.  1.
          4    1    6    6  502    0 -0.98074174047E+01  0.26984095207E+03 -0.26406672335E+03  0.37767917500E+03  0.00000000000E+00 0. -1.
          1    1    5    5  503    0  0.16915266572E+03 -0.21306300164E+02 -0.25937542360E+03  0.31039038825E+03  0.00000000000E+00 0. -1.
         -2    1    5    5    0  503  0.52887759502E+03  0.64753152786E+02 -0.71991468915E+03  0.89564593505E+03  0.00000000000E+00 0.  1.
         -3    1    6    6    0  502 -0.43820836402E+02  0.21688845345E+03 -0.12608305573E+03  0.25467195347E+03  0.00000000000E+00 0.  1.
<mgrwt>
<rscale>  0 0.20733982E+04</rscale>
<asrwt>0</asrwt>
<pdfrwt beam="1">  1        2 0.38895285E+00 0.20733982E+04</pdfrwt>
<pdfrwt beam="2">  1       -2 0.65400606E-01 0.20733982E+04</pdfrwt>
<totfact> 0.66728978E+00</totfact>
</mgrwt>
</event>
<event>
12    1  0.2019083E-007  0.1628964E+04  0.7818608E-02  0.8802949E-01
         -2   -1    0    0    0  501 -0.00000000000E+00  0.00000000000E+00  0.23719831375E+03  0.23719831375E+03  0.00000000000E+00 0.  1.
          2   -1    0    0  501    0  0.00000000000E+00 -0.00000000000E+00 -0.27967347330E+04  0.27967347330E+04  0.00000000000E+00 0. -1.
         23    2    1    2    0    0  0.34979887279E+03  0.34371183185E+03 -0.13991103297E+04  0.14856238053E+04  0.95243379670E+02 0.  0.
        254    2    1    2    0    0 -0.34979887279E+03 -0.34371183185E+03 -0.11604260895E+04  0.15483092414E+04  0.90009761867E+03 0.  0.
        -24    2    4    4    0    0  0.14242966341E+03  0.12353561691E+03 -0.68722353504E+03  0.71716679056E+03  0.80652096710E+02 0.  0.
         24    2    4    4    0    0 -0.49222853620E+03 -0.46724744876E+03 -0.47320255444E+03  0.83114245085E+03  0.79170738663E+02 0.  0.
         13    1    3    3    0    0  0.99196334635E+02  0.13004254054E+03 -0.58477290646E+03  0.60721522320E+03  0.00000000000E+00 0. -1.
        -13    1    3    3    0    0  0.25060253815E+03  0.21366929131E+03 -0.81433742328E+03  0.87840858212E+03  0.00000000000E+00 0.  1.
          2    1    6    6  502    0 -0.48425373170E+03 -0.46985699240E+03 -0.46530449221E+03  0.81961914353E+03  0.00000000000E+00 0. -1.
          3    1    5    5  503    0  0.39513794343E+02  0.69152307838E+02 -0.38820536574E+03  0.39629129137E+03  0.00000000000E+00 0. -1.
         -4    1    5    5    0  503  0.10291586907E+03  0.54383309073E+02 -0.29901816930E+03  0.32087549919E+03  0.00000000000E+00 0.  1.
         -1    1    6    6    0  502 -0.79748044907E+01  0.26095436321E+01 -0.78980622297E+01  0.11523307321E+02  0.00000000000E+00 0.  1.
<mgrwt>
<rscale>  0 0.16289638E+04</rscale>
<asrwt>0</asrwt>
<pdfrwt beam="1">  1        2 0.43026688E+00 0.16289638E+04</pdfrwt>
<pdfrwt beam="2">  1       -2 0.36492049E-01 0.16289638E+04</pdfrwt>
<totfact> 0.15775744E+01</totfact>
</mgrwt>
</event>
<event>
12    1  0.2019083E-007  0.3893423E+04  0.7818608E-02  0.8026398E-01
          2   -1    0    0  501    0  0.00000000000E+00  0.00000000000E+00  0.33664368522E+04  0.33664368522E+04  0.00000000000E+00 0. -1.
         -2   -1    0    0    0  501 -0.00000000000E+00 -0.00000000000E+00 -0.11257261245E+04  0.11257261245E+04  0.00000000000E+00 0.  1.
         23    2    1    2    0    0 -0.34796817613E+03 -0.18087096445E+04  0.10999601248E+04  0.21472830723E+04  0.91650895279E+02 0.  0.
        254    2    1    2    0    0  0.34796817613E+03  0.18087096445E+04  0.11407506029E+04  0.23448799044E+04  0.89701582951E+03 0.  0.
        -24    2    4    4    0    0  0.15049822448E+03  0.12573650689E+04  0.12057506981E+04  0.17503228935E+04  0.78605682722E+02 0.  0.
         24    2    4    4    0    0  0.19746995165E+03  0.55134457564E+03 -0.65000095206E+02  0.59455701097E+03  0.79358704750E+02 0.  0.
         11    1    3    3    0    0 -0.20725381923E+03 -0.83817871659E+03  0.52331847353E+03  0.10096335629E+04  0.00000000000E+00 0. -1.
        -11    1    3    3    0    0 -0.14071435690E+03 -0.97053092793E+03  0.57664165128E+03  0.11376495094E+04  0.00000000000E+00 0.  1.
          2    1    6    6  502    0  0.19511509926E+03  0.49111190881E+03 -0.42284818472E+02  0.53014037274E+03  0.00000000000E+00 0. -1.
          1    1    5    5  503    0  0.65015510581E+02  0.60218020566E+03  0.63006049073E+03  0.87397038776E+03  0.00000000000E+00 0. -1.
         -2    1    5    5    0  503  0.85482713899E+02  0.65518486322E+03  0.57569020741E+03  0.87635250572E+03  0.00000000000E+00 0.  1.
         -1    1    6    6    0  502  0.23548523857E+01  0.60232666827E+02 -0.22715276733E+02  0.64416638223E+02  0.00000000000E+00 0.  1.
<mgrwt>
<rscale>  0 0.38934231E+04</rscale>
<asrwt>0</asrwt>
<pdfrwt beam="1">  1        2 0.51791336E+00 0.38934231E+04</pdfrwt>
<pdfrwt beam="2">  1       -2 0.17318864E+00 0.38934231E+04</pdfrwt>
<totfact> 0.16155691E-01</totfact>
</mgrwt>
</event>
<event>
12    1  0.2019083E-007  0.1248236E+04  0.7818608E-02  0.9071653E-01
         -2   -1    0    0    0  501 -0.00000000000E+00  0.00000000000E+00  0.32550394779E+03  0.32550394779E+03  0.00000000000E+00 0.  1.
          2   -1    0    0  501    0  0.00000000000E+00 -0.00000000000E+00 -0.11966767388E+04  0.11966767388E+04  0.00000000000E+00 0. -1.
         23    2    1    2    0    0  0.21301118932E+03  0.21873478701E+03 -0.17994513289E+03  0.36568212304E+03  0.90135955272E+02 0.  0.
        254    2    1    2    0    0 -0.21301118932E+03 -0.21873478701E+03 -0.69122765810E+03  0.11564985635E+04  0.87548533872E+03 0.  0.
        -24    2    4    4    0    0 -0.37591391439E+02 -0.53632706742E+03 -0.31696667075E+03  0.62937224982E+03  0.81127815966E+02 0.  0.
         24    2    4    4    0    0 -0.17541979788E+03  0.31759228041E+03 -0.37426098735E+03  0.52712631371E+03  0.78446809276E+02 0.  0.
         13    1    3    3    0    0  0.19620888576E+03  0.15497576676E+03 -0.12341646769E+03  0.27883156140E+03  0.00000000000E+00 0. -1.
        -13    1    3    3    0    0  0.16802303566E+02  0.63759020251E+02 -0.56528665197E+02  0.86850561641E+02  0.00000000000E+00 0.  1.
          4    1    6    6  502    0 -0.18280215609E+03  0.29478305077E+03 -0.35551076411E+03  0.49669062674E+03  0.00000000000E+00 0. -1.
          1    1    5    5  503    0  0.53838607033E+01 -0.33185957539E+03 -0.22570328839E+03  0.40137481002E+03  0.00000000000E+00 0. -1.
         -2    1    5    5    0  503 -0.42975252143E+02 -0.20446749204E+03 -0.91263382361E+02  0.22799743980E+03  0.00000000000E+00 0.  1.
         -3    1    6    6    0  502  0.73823582127E+01  0.22809229643E+02 -0.18750223241E+02  0.30435686969E+02  0.00000000000E+00 0.  1.
<mgrwt>
<rscale>  0 0.12482356E+04</rscale>
<asrwt>0</asrwt>
<pdfrwt beam="1">  1        2 0.18410411E+00 0.12482356E+04</pdfrwt>
<pdfrwt beam="2">  1       -2 0.50077531E-01 0.12482356E+04</pdfrwt>
<totfact> 0.70584181E+01</totfact>
</mgrwt>
</event>
<event>
12    1  0.2019083E-007  0.3906400E+04  0.7818608E-02  0.8023699E-01
         -2   -1    0    0    0  501 -0.00000000000E+00  0.00000000000E+00  0.14540005845E+04  0.14540005845E+04  0.00000000000E+00 0.  1.
          2   -1    0    0  501    0  0.00000000000E+00 -0.00000000000E+00 -0.26237892128E+04  0.26237892128E+04  0.00000000000E+00 0. -1.
         23    2    1    2    0    0  0.16556062436E+04 -0.64973437767E+03 -0.28588788442E+02  0.17810943158E+04  0.91065074827E+02 0.  0.
        254    2    1    2    0    0 -0.16556062436E+04  0.64973437767E+03 -0.11411998398E+04  0.22966954814E+04  0.89960339301E+03 0.  0.
        -24    2    4    4    0    0 -0.22043734489E+03  0.11599818020E+03 -0.62704628991E+03  0.67951085992E+03  0.80621078095E+02 0.  0.
         24    2    4    4    0    0 -0.14351688987E+04  0.53373619747E+03 -0.51415354992E+03  0.16171846215E+04  0.79675158632E+02 0.  0.
         11    1    3    3    0    0  0.30339611950E+03 -0.14105710741E+03  0.23729696367E+02  0.33542422597E+03  0.00000000000E+00 0.  1.
        -11    1    3    3    0    0  0.13522101241E+04 -0.50867727026E+03 -0.52318484808E+02  0.14456700899E+04  0.00000000000E+00 0. -1.
          4    1    6    6  502    0 -0.95480540496E+03  0.33356467643E+03 -0.37295744479E+03  0.10779684644E+04  0.00000000000E+00 0. -1.
          1    1    5    5  503    0 -0.12265935012E+03  0.99591948926E+02 -0.44500759141E+03  0.47222412991E+03  0.00000000000E+00 0. -1.
         -2    1    5    5    0  503 -0.97777994768E+02  0.16406231274E+02 -0.18203869850E+03  0.20728673001E+03  0.00000000000E+00 0.  1.
         -3    1    6    6    0  502 -0.48036349372E+03  0.20017152104E+03 -0.14119610513E+03  0.53921615706E+03  0.00000000000E+00 0.  1.
<mgrwt>
<rscale>  0 0.39064004E+04</rscale>
<asrwt>0</asrwt>
<pdfrwt beam="1">  1        2 0.40365988E+00 0.39064004E+04</pdfrwt>
<pdfrwt beam="2">  1       -2 0.22369240E+00 0.39064004E+04</pdfrwt>
<totfact> 0.21935376E-01</totfact>
</mgrwt>
</event>
<event>
12    1  0.2019083E-007  0.1349728E+04  0.7818608E-02  0.8991034E-01
         -2   -1    0    0    0  501 -0.00000000000E+00  0.00000000000E+00  0.20194382280E+04  0.20194382280E+04  0.00000000000E+00 0.  1.
          2   -1    0    0  501    0  0.00000000000E+00 -0.00000000000E+00 -0.22552865846E+03  0.22552865846E+03  0.00000000000E+00 0. -1.
         23    2    1    2    0    0 -0.28988981490E+03 -0.64886404943E+02  0.14184888451E+03  0.34202204833E+03  0.92798842550E+02 0.  0.
        254    2    1    2    0    0  0.28988981490E+03  0.64886404943E+02  0.16520606850E+04  0.19029448381E+04  0.89646427681E+03 0.  0.
        -24    2    4    4    0    0  0.12404652424E+03 -0.40394722069E+03  0.62092619594E+03  0.75536341484E+03  0.80396830717E+02 0.  0.
         24    2    4    4    0    0  0.16584329066E+03  0.46883362563E+03  0.10311344891E+04  0.11475814233E+04  0.79973888967E+02 0.  0.
         11    1    3    3    0    0 -0.10777610077E+03  0.98115787776E+01  0.18673783847E+02  0.10982105981E+03  0.00000000000E+00 0. -1.
        -11    1    3    3    0    0 -0.18211371414E+03 -0.74697983720E+02  0.12317510066E+03  0.23220098852E+03  0.00000000000E+00 0.  1.
          2    1    6    6  502    0  0.12606241756E+03  0.41229321697E+03  0.83714993201E+03  0.94164613234E+03  0.00000000000E+00 0. -1.
          3    1    5    5  503    0  0.12615499553E+03 -0.29998084648E+03  0.48885965554E+03  0.58727110772E+03  0.00000000000E+00 0. -1.
         -4    1    5    5    0  503 -0.21084712885E+01 -0.10396637421E+03  0.13206654041E+03  0.16809230712E+03  0.00000000000E+00 0.  1.
         -1    1    6    6    0  502  0.39780873100E+02  0.56540408664E+02  0.19398455706E+03  0.20593529094E+03  0.00000000000E+00 0.  1.
<mgrwt>
<rscale>  0 0.13497277E+04</rscale>
<asrwt>0</asrwt>
<pdfrwt beam="1">  1        2 0.34696718E-01 0.13497277E+04</pdfrwt>
<pdfrwt beam="2">  1       -2 0.31068279E+00 0.13497277E+04</pdfrwt>
<totfact> 0.40600063E+00</totfact>
</mgrwt>
</event>
<event>
12    1  0.2019083E-007  0.2058992E+04  0.7818608E-02  0.8579526E-01
         -1   -1    0    0    0  501 -0.00000000000E+00  0.00000000000E+00  0.78983351169E+03  0.78983351169E+03  0.00000000000E+00 0.  1.
          1   -1    0    0  501    0  0.00000000000E+00 -0.00000000000E+00 -0.13418803550E+04  0.13418803550E+04  0.00000000000E+00 0. -1.
         23    2    1    2    0    0  0.10974956869E+03  0.76869257794E+03  0.79689044100E+02  0.78583447986E+03  0.90841833831E+02 0.  0.
        254    2    1    2    0    0 -0.10974956869E+03 -0.76869257794E+03 -0.63173588737E+03  0.13458793868E+04  0.89964873434E+03 0.  0.
        -24    2    4    4    0    0 -0.37556663157E+03 -0.74799744544E+03 -0.65606702647E+03  0.10664403501E+04  0.79502225497E+02 0.  0.
         24    2    4    4    0    0  0.26581706288E+03 -0.20695132497E+02  0.24331139102E+02  0.27943903674E+03  0.80044809298E+02 0.  0.
         11    1    3    3    0    0  0.80784730548E+02  0.44597147130E+03  0.88075134446E+02  0.46170765124E+03  0.00000000000E+00 0.  1.
        -11    1    3    3    0    0  0.28964838143E+02  0.32272110664E+03 -0.83860903463E+01  0.32412682862E+03  0.00000000000E+00 0. -1.
          2    1    6    6  502    0  0.15700931399E+03  0.13778780200E+02 -0.15911912948E+02  0.15841391491E+03  0.00000000000E+00 0. -1.
          1    1    5    5  503    0 -0.25092852313E+03 -0.47656551549E+03 -0.37476480060E+03  0.65614668333E+03  0.00000000000E+00 0. -1.
         -2    1    5    5    0  503 -0.12463810845E+03 -0.27143192995E+03 -0.28130222587E+03  0.41029366673E+03  0.00000000000E+00 0.  1.
         -1    1    6    6    0  502  0.10880774889E+03 -0.34473912697E+02  0.40243052049E+02  0.12102512183E+03  0.00000000000E+00 0.  1.
<mgrwt>
<rscale>  0 0.20589921E+04</rscale>
<asrwt>0</asrwt>
<pdfrwt beam="1">  1        1 0.20644313E+00 0.20589921E+04</pdfrwt>
<pdfrwt beam="2">  1       -1 0.12151285E+00 0.20589921E+04</pdfrwt>
<totfact> 0.46789339E+00</totfact>
</mgrwt>
</event>
<event>
12    1  0.2019083E-007  0.1926414E+04  0.7818608E-02  0.8641819E-01
         -2   -1    0    0    0  501 -0.00000000000E+00  0.00000000000E+00  0.25994643016E+03  0.25994643016E+03  0.00000000000E+00 0.  1.
          2   -1    0    0  501    0  0.00000000000E+00 -0.00000000000E+00 -0.35690745061E+04  0.35690745061E+04  0.00000000000E+00 0. -1.
         23    2    1    2    0    0 -0.52462781307E+02 -0.45212997707E+03 -0.11380343128E+03  0.47761453135E+03  0.89389932314E+02 0.  0.
        254    2    1    2    0    0  0.52462781307E+02  0.45212997707E+03 -0.31953246447E+04  0.33514064049E+04  0.90258043766E+03 0.  0.
        -24    2    4    4    0    0  0.37405487564E+03  0.53900088684E+02 -0.66990423521E+03  0.77333540645E+03  0.80334905065E+02 0.  0.
         24    2    4    4    0    0 -0.32159209433E+03  0.39822988838E+03 -0.25254204095E+04  0.25780709985E+04  0.81812648298E+02 0.  0.
         11    1    3    3    0    0  0.11689799128E+02 -0.69591237611E+02 -0.44959675744E+02  0.83671764645E+02  0.00000000000E+00 0. -1.
        -11    1    3    3    0    0 -0.64152580436E+02 -0.38253873946E+03 -0.68843755534E+02  0.39394276670E+03  0.00000000000E+00 0.  1.
          2    1    6    6  502    0 -0.14035205704E+02  0.39551220394E+02 -0.13386445863E+03  0.14028891374E+03  0.00000000000E+00 0. -1.
          3    1    5    5  503    0  0.55730043367E+02  0.33927827814E+02 -0.85398872911E+02  0.10747047375E+03  0.00000000000E+00 0. -1.
         -4    1    5    5    0  503  0.31832483227E+03  0.19972260870E+02 -0.58450536230E+03  0.66586493270E+03  0.00000000000E+00 0.  1.
         -1    1    6    6    0  502 -0.30755688863E+03  0.35867866799E+03 -0.23915559509E+04  0.24377820848E+04  0.00000000000E+00 0.  1.
<mgrwt>
<rscale>  0 0.19264145E+04</rscale>
<asrwt>0</asrwt>
<pdfrwt beam="1">  1        2 0.54908836E+00 0.19264145E+04</pdfrwt>
<pdfrwt beam="2">  1       -2 0.39991761E-01 0.19264145E+04</pdfrwt>
<totfact> 0.40462184E+00</totfact>
</mgrwt>
</event>
<event>
12    1  0.2019083E-007  0.3597961E+04  0.7818608E-02  0.8090959E-01
          1   -1    0    0  501    0  0.00000000000E+00  0.00000000000E+00  0.18848147965E+04  0.18848147965E+04  0.00000000000E+00 0. -1.
         -1   -1    0    0    0  501 -0.00000000000E+00 -0.00000000000E+00 -0.17170554640E+04  0.17170554640E+04  0.00000000000E+00 0.  1.
         23    2    1    2    0    0 -0.12577436174E+03  0.46324922387E+03 -0.15354094646E+04  0.16110741376E+04  0.87513537998E+02 0.  0.
        254    2    1    2    0    0  0.12577436174E+03 -0.46324922387E+03  0.17031687971E+04  0.19907961229E+04  0.91217663750E+03 0.  0.
        -24    2    4    4    0    0  0.47472885393E+03 -0.44257553938E+03  0.90598089258E+03  0.11173516843E+04  0.80204836686E+02 0.  0.
         24    2    4    4    0    0 -0.34895449219E+03 -0.20673684487E+02  0.79718790449E+03  0.87344443858E+03  0.72110979614E+02 0.  0.
         11    1    3    3    0    0 -0.18919229955E+02  0.10611475387E+02 -0.94923221194E+02  0.97370214100E+02  0.00000000000E+00 0. -1.
        -11    1    3    3    0    0 -0.10685513178E+03  0.45263774848E+03 -0.14404862434E+04  0.15137039235E+04  0.00000000000E+00 0.  1.
          2    1    6    6  502    0 -0.10978168545E+03 -0.39651169380E+02  0.24490756059E+03  0.27130047351E+03  0.00000000000E+00 0. -1.
          3    1    5    5  503    0  0.10902370653E+03 -0.81444857536E+02  0.24266714694E+03  0.27822073540E+03  0.00000000000E+00 0. -1.
         -4    1    5    5    0  503  0.36570514740E+03 -0.36113068184E+03  0.66331374564E+03  0.83913094887E+03  0.00000000000E+00 0.  1.
         -1    1    6    6    0  502 -0.23917280674E+03  0.18977484893E+02  0.55228034390E+03  0.60214396507E+03  0.00000000000E+00 0.  1.
<mgrwt>
<rscale>  0 0.35979614E+04</rscale>
<asrwt>0</asrwt>
<pdfrwt beam="1">  1        1 0.28997151E+00 0.35979614E+04</pdfrwt>
<pdfrwt beam="2">  1       -1 0.26416238E+00 0.35979614E+04</pdfrwt>
<totfact> 0.16277623E-01</totfact>
</mgrwt>
</event>
<event>
12    1  0.2019083E-007  0.2428269E+04  0.7818608E-02  0.8428995E-01
          2   -1    0    0  501    0  0.00000000000E+00  0.00000000000E+00  0.22114740586E+04  0.22114740586E+04  0.00000000000E+00 0. -1.
         -2   -1    0    0    0  501 -0.00000000000E+00 -0.00000000000E+00 -0.66657907025E+03  0.66657907025E+03  0.00000000000E+00 0.  1.
         23    2    1    2    0    0 -0.67426312282E+03  0.78625525203E+03  0.50258576993E+03  0.11551205839E+04  0.94249812598E+02 0.  0.
        254    2    1    2    0    0  0.67426312282E+03 -0.78625525203E+03  0.10423092184E+04  0.17229325449E+04  0.89958877679E+03 0.  0.
        -24    2    4    4    0    0  0.62090694962E+03 -0.11674962364E+03  0.75636409661E+03  0.98851328410E+03  0.76915222860E+02 0.  0.
         24    2    4    4    0    0  0.53356173206E+02 -0.66950562839E+03  0.28594512183E+03  0.73441926081E+03  0.80761192893E+02 0.  0.
         13    1    3    3    0    0 -0.54084955752E+03  0.57525426600E+03  0.36189279150E+03  0.86856324292E+03  0.00000000000E+00 0. -1.
        -13    1    3    3    0    0 -0.13341356530E+03  0.21100098604E+03  0.14069297844E+03  0.28655734103E+03  0.00000000000E+00 0.  1.
          4    1    6    6  502    0 -0.35500169998E+01 -0.70885853188E+02  0.56856847169E+02  0.90940133456E+02  0.00000000000E+00 0. -1.
          1    1    5    5  503    0  0.53915471105E+02  0.74751411977E+01  0.86002289151E+02  0.10177990715E+03  0.00000000000E+00 0. -1.
         -2    1    5    5    0  503  0.56699147851E+03 -0.12422476484E+03  0.67036180746E+03  0.88673337695E+03  0.00000000000E+00 0.  1.
         -3    1    6    6    0  502  0.56906190206E+02 -0.59861977521E+03  0.22908827466E+03  0.64347912735E+03  0.00000000000E+00 0.  1.
<mgrwt>
<rscale>  0 0.24282688E+04</rscale>
<asrwt>0</asrwt>
<pdfrwt beam="1">  1        2 0.34022678E+00 0.24282688E+04</pdfrwt>
<pdfrwt beam="2">  1       -2 0.10255063E+00 0.24282688E+04</pdfrwt>
<totfact> 0.35499690E+00</totfact>
</mgrwt>
</event>
<event>
12    1  0.2019083E-007  0.2569612E+04  0.7818608E-02  0.8378597E-01
         -1   -1    0    0    0  501 -0.00000000000E+00  0.00000000000E+00  0.32195013531E+03  0.32195013531E+03  0.00000000000E+00 0.  1.
          1   -1    0    0  501    0  0.00000000000E+00 -0.00000000000E+00 -0.51272741150E+04  0.51272741150E+04  0.00000000000E+00 0. -1.
         23    2    1    2    0    0  0.74750544025E+03  0.12347275103E+02 -0.38952930406E+04  0.39673636123E+04  0.88030232188E+02 0.  0.
        254    2    1    2    0    0 -0.74750544025E+03 -0.12347275103E+02 -0.91003093911E+03  0.14818606380E+04  0.89935410264E+03 0.  0.
        -24    2    4    4    0    0 -0.37146475881E+03 -0.43705017477E+03 -0.58255472640E+03  0.82125271594E+03  0.78019817256E+02 0.  0.
         24    2    4    4    0    0 -0.37604068145E+03  0.42470289967E+03 -0.32747621271E+03  0.66060792207E+03  0.85924441925E+02 0.  0.
         13    1    3    3    0    0  0.29218809622E+03  0.38047229882E+02 -0.13874638154E+04  0.14184066110E+04  0.00000000000E+00 0.  1.
        -13    1    3    3    0    0  0.45531734404E+03 -0.25699954779E+02 -0.25078292252E+04  0.25489570013E+04  0.00000000000E+00 0. -1.
          2    1    6    6  502    0 -0.13114644059E+03  0.20918991687E+03 -0.12608281073E+03  0.27723038319E+03  0.00000000000E+00 0. -1.
          3    1    5    5  503    0 -0.31461839347E+03 -0.32172607885E+03 -0.46393881491E+03  0.64632161290E+03  0.00000000000E+00 0. -1.
         -4    1    5    5    0  503 -0.56846365338E+02 -0.11532409592E+03 -0.11861591148E+03  0.17493110304E+03  0.00000000000E+00 0.  1.
         -1    1    6    6    0  502 -0.24489424085E+03  0.21551298279E+03 -0.20139340198E+03  0.38337753888E+03  0.00000000000E+00 0.  1.
<mgrwt>
<rscale>  0 0.25696121E+04</rscale>
<asrwt>0</asrwt>
<pdfrwt beam="1">  1        1 0.78881134E+00 0.25696121E+04</pdfrwt>
<pdfrwt beam="2">  1       -1 0.49530794E-01 0.25696121E+04</pdfrwt>
<totfact> 0.21311292E-02</totfact>
</mgrwt>
</event>
<event>
12    1  0.2019083E-007  0.3014444E+04  0.7818608E-02  0.8239618E-01
          1   -1    0    0  501    0  0.00000000000E+00  0.00000000000E+00  0.13737665108E+04  0.13737665108E+04  0.00000000000E+00 0. -1.
         -1   -1    0    0    0  501 -0.00000000000E+00 -0.00000000000E+00 -0.16536419188E+04  0.16536419188E+04  0.00000000000E+00 0.  1.
         23    2    1    2    0    0  0.97322360689E+03  0.38894062135E+03  0.76043712340E+03  0.12980288614E+04  0.90417423476E+02 0.  0.
        254    2    1    2    0    0 -0.97322360689E+03 -0.38894062135E+03 -0.10403125314E+04  0.17293795682E+04  0.90003585050E+03 0.  0.
        -24    2    4    4    0    0 -0.27174924470E+03  0.77140479267E+02 -0.79663084880E+03  0.84978774098E+03  0.87864611305E+02 0.  0.
         24    2    4    4    0    0 -0.70147436219E+03 -0.46608110061E+03 -0.24368168257E+03  0.87959182727E+03  0.70732927355E+02 0.  0.
         13    1    3    3    0    0  0.73725127103E+03  0.25952443009E+03  0.59263162363E+03  0.98086931228E+03  0.00000000000E+00 0. -1.
        -13    1    3    3    0    0  0.23597233587E+03  0.12941619126E+03  0.16780549977E+03  0.31715954913E+03  0.00000000000E+00 0.  1.
          4    1    6    6  502    0 -0.20343000560E+01 -0.13048520144E+01  0.34405979857E+01  0.42046081859E+01  0.00000000000E+00 0. -1.
          1    1    5    5  503    0 -0.59839059870E+02 -0.32909553221E+01 -0.93783965984E+02  0.11129679128E+03  0.00000000000E+00 0. -1.
         -2    1    5    5    0  503 -0.21191018483E+03  0.80431434589E+02 -0.70284688281E+03  0.73849094970E+03  0.00000000000E+00 0.  1.
         -3    1    6    6    0  502 -0.69944006213E+03 -0.46477624860E+03 -0.24712228056E+03  0.87538721908E+03  0.00000000000E+00 0.  1.
<mgrwt>
<rscale>  0 0.30144438E+04</rscale>
<asrwt>0</asrwt>
<pdfrwt beam="1">  1        1 0.21134869E+00 0.30144438E+04</pdfrwt>
<pdfrwt beam="2">  1       -1 0.25440645E+00 0.30144438E+04</pdfrwt>
<totfact> 0.44463510E-01</totfact>
</mgrwt>
</event>
<event>
12    1  0.2019083E-007  0.1569363E+04  0.7818608E-02  0.8839594E-01
         -2   -1    0    0    0  501 -0.00000000000E+00  0.00000000000E+00  0.77711669114E+03  0.77711669114E+03  0.00000000000E+00 0.  1.
          2   -1    0    0  501    0  0.00000000000E+00 -0.00000000000E+00 -0.79231990400E+03  0.79231990400E+03  0.00000000000E+00 0. -1.
         23    2    1    2    0    0 -0.32074633440E+03 -0.40974266363E+03  0.79357550790E+01  0.52861952476E+03  0.92781271381E+02 0.  0.
        254    2    1    2    0    0  0.32074633440E+03  0.40974266363E+03 -0.23138967939E+02  0.10408170704E+04  0.90110903931E+03 0.  0.
        -24    2    4    4    0    0 -0.14380787711E+03 -0.50198277620E+02  0.26941192026E+03  0.31988713587E+03  0.80897616297E+02 0.  0.
         24    2    4    4    0    0  0.46455421151E+03  0.45994094125E+03 -0.29255088820E+03  0.72092993451E+03  0.82447943726E+02 0.  0.
         13    1    3    3    0    0 -0.26014107055E+03 -0.36429671302E+03 -0.19457193777E+02  0.44806701965E+03  0.00000000000E+00 0. -1.
        -13    1    3    3    0    0 -0.60605263846E+02 -0.45445950606E+02  0.27392948856E+02  0.80552505110E+02  0.00000000000E+00 0.  1.
          2    1    6    6  502    0  0.16901751339E+03  0.19015265270E+03 -0.73883218040E+02  0.26492202828E+03  0.00000000000E+00 0. -1.
          1    1    5    5  503    0 -0.89664908339E+01 -0.95042684979E+01 -0.28289965221E+01  0.13369079956E+02  0.00000000000E+00 0. -1.
         -2    1    5    5    0  503 -0.13484138628E+03 -0.40694009122E+02  0.27224091678E+03  0.30651805591E+03  0.00000000000E+00 0.  1.
         -1    1    6    6    0  502  0.29553669812E+03  0.26978828855E+03 -0.21866767016E+03  0.45600790623E+03  0.00000000000E+00 0.  1.
<mgrwt>
<rscale>  0 0.15693630E+04</rscale>
<asrwt>0</asrwt>
<pdfrwt beam="1">  1        2 0.12189537E+00 0.15693630E+04</pdfrwt>
<pdfrwt beam="2">  1       -2 0.11955641E+00 0.15693630E+04</pdfrwt>
<totfact> 0.17971527E+01</totfact>
</mgrwt>
</event>
<event>
12    1  0.2019083E-007  0.2047827E+04  0.7818608E-02  0.8584581E-01
         -1   -1    0    0    0  501 -0.00000000000E+00  0.00000000000E+00  0.37448037960E+03  0.37448037960E+03  0.00000000000E+00 0.  1.
          1   -1    0    0  501    0  0.00000000000E+00 -0.00000000000E+00 -0.27996097998E+04  0.27996097998E+04  0.00000000000E+00 0. -1.
         23    2    1    2    0    0  0.72113665656E+03  0.98662310802E+02 -0.38731479506E+03  0.82947681752E+03  0.90811405222E+02 0.  0.
        254    2    1    2    0    0 -0.72113665656E+03 -0.98662310802E+02 -0.20378146251E+04  0.23446133619E+04  0.90263560824E+03 0.  0.
        -24    2    4    4    0    0 -0.89383365667E+03  0.39306972056E+02 -0.13834715152E+04  0.16494255453E+04  0.78278683482E+02 0.  0.
         24    2    4    4    0    0  0.17269700011E+03 -0.13796928286E+03 -0.65434310997E+03  0.69518781660E+03  0.79129121803E+02 0.  0.
         11    1    3    3    0    0  0.23685607839E+03  0.66562171454E+02 -0.16046654236E+03  0.29373599670E+03  0.00000000000E+00 0. -1.
        -11    1    3    3    0    0  0.48428057817E+03  0.32100139348E+02 -0.22684825269E+03  0.53574082081E+03  0.00000000000E+00 0.  1.
          2    1    6    6  502    0  0.15490106741E+03 -0.14516132020E+03 -0.55945541483E+03  0.59837823385E+03  0.00000000000E+00 0. -1.
          1    1    5    5  503    0 -0.48497857586E+03  0.51768309406E+02 -0.70744648827E+03  0.85928150840E+03  0.00000000000E+00 0. -1.
         -2    1    5    5    0  503 -0.40885508082E+03 -0.12461337351E+02 -0.67602502689E+03  0.79014403689E+03  0.00000000000E+00 0.  1.
         -1    1    6    6    0  502  0.17795932699E+02  0.71920373377E+01 -0.94887695142E+02  0.96809582744E+02  0.00000000000E+00 0.  1.
<mgrwt>
<rscale>  0 0.20478271E+04</rscale>
<asrwt>0</asrwt>
<pdfrwt beam="1">  1        1 0.43070921E+00 0.20478271E+04</pdfrwt>
<pdfrwt beam="2">  1       -1 0.57612365E-01 0.20478271E+04</pdfrwt>
<totfact> 0.23533515E+00</totfact>
</mgrwt>
</event>
<event>
12    1  0.2019083E-007  0.1273963E+04  0.7818608E-02  0.9050472E-01
         -2   -1    0    0    0  501 -0.00000000000E+00  0.00000000000E+00  0.30942098996E+03  0.30942098996E+03  0.00000000000E+00 0.  1.
          2   -1    0    0  501    0  0.00000000000E+00 -0.00000000000E+00 -0.13113049904E+04  0.13113049904E+04  0.00000000000E+00 0. -1.
         23    2    1    2    0    0  0.32889194919E+02 -0.25426537078E+03 -0.29820273310E+02  0.27261986085E+03  0.87748287226E+02 0.  0.
        254    2    1    2    0    0 -0.32889194919E+02  0.25426537078E+03 -0.97206372709E+03  0.13481061195E+04  0.89819243034E+03 0.  0.
        -24    2    4    4    0    0  0.34622903883E+03  0.31071493258E+03 -0.26932989758E+03  0.54362359188E+03  0.81053681345E+02 0.  0.
         24    2    4    4    0    0 -0.37911823375E+03 -0.56449561800E+02 -0.70273382951E+03  0.80448252759E+03  0.80250320062E+02 0.  0.
         11    1    3    3    0    0  0.57547179208E+02 -0.22431054578E+03 -0.31922149371E+02  0.23376467313E+03  0.00000000000E+00 0. -1.
        -11    1    3    3    0    0 -0.24657984289E+02 -0.29954824995E+02  0.21018760612E+01  0.38855187719E+02  0.00000000000E+00 0.  1.
          4    1    6    6  502    0 -0.12471721327E+02  0.74281508028E+01 -0.86038360591E+01  0.16874455610E+02  0.00000000000E+00 0. -1.
          1    1    5    5  503    0  0.33420464765E+01  0.23768870124E+01 -0.17971031284E+02  0.18433036428E+02  0.00000000000E+00 0. -1.
         -2    1    5    5    0  503  0.34288699236E+03  0.30833804556E+03 -0.25135886629E+03  0.52519055545E+03  0.00000000000E+00 0.  1.
         -3    1    6    6    0  502 -0.36664651243E+03 -0.63877712603E+02 -0.69412999345E+03  0.78760807198E+03  0.00000000000E+00 0.  1.
<mgrwt>
<rscale>  0 0.12739628E+04</rscale>
<asrwt>0</asrwt>
<pdfrwt beam="1">  1        2 0.20173923E+00 0.12739628E+04</pdfrwt>
<pdfrwt beam="2">  1       -2 0.47603229E-01 0.12739628E+04</pdfrwt>
<totfact> 0.66834960E+01</totfact>
</mgrwt>
</event>
<event>
12    1  0.2019083E-007  0.2515642E+04  0.7818608E-02  0.8397434E-01
         -1   -1    0    0    0  501 -0.00000000000E+00  0.00000000000E+00  0.93457182751E+03  0.93457182751E+03  0.00000000000E+00 0.  1.
          1   -1    0    0  501    0  0.00000000000E+00 -0.00000000000E+00 -0.16928748994E+04  0.16928748994E+04  0.00000000000E+00 0. -1.
         23    2    1    2    0    0  0.90478211765E+02  0.85644785092E+03  0.37528326820E+03  0.94331070121E+03  0.85488709686E+02 0.  0.
        254    2    1    2    0    0 -0.90478211765E+02 -0.85644785092E+03 -0.11335863400E+04  0.16841360256E+04  0.89978160373E+03 0.  0.
        -24    2    4    4    0    0  0.35619881539E+03 -0.60170371413E+03 -0.49562281841E+03  0.86072597335E+03  0.79260755717E+02 0.  0.
         24    2    4    4    0    0 -0.44667702716E+03 -0.25474413679E+03 -0.63796352163E+03  0.82341005229E+03  0.81189392582E+02 0.  0.
         13    1    3    3    0    0  0.63569346739E+02  0.39956387686E+03  0.13584421806E+03  0.42678566648E+03  0.00000000000E+00 0. -1.
        -13    1    3    3    0    0  0.26908865026E+02  0.45688397406E+03  0.23943905014E+03  0.51652503473E+03  0.00000000000E+00 0.  1.
          4    1    6    6  502    0 -0.38806859417E+02 -0.25180079417E+00 -0.35092735464E+02  0.52321466186E+02  0.00000000000E+00 0. -1.
          1    1    5    5  503    0  0.17710866101E+03 -0.27572077381E+03 -0.18620778071E+03  0.37691213899E+03  0.00000000000E+00 0. -1.
         -2    1    5    5    0  503  0.17909015438E+03 -0.32598294032E+03 -0.30941503770E+03  0.48381383437E+03  0.00000000000E+00 0.  1.
         -3    1    6    6    0  502 -0.40787016774E+03 -0.25449233600E+03 -0.60287078617E+03  0.77108858611E+03  0.00000000000E+00 0.  1.
<mgrwt>
<rscale>  0 0.25156416E+04</rscale>
<asrwt>0</asrwt>
<pdfrwt beam="1">  1        1 0.26044229E+00 0.25156416E+04</pdfrwt>
<pdfrwt beam="2">  1       -1 0.14378028E+00 0.25156416E+04</pdfrwt>
<totfact> 0.16708170E+00</totfact>
</mgrwt>
</event>
<event>
12    1  0.2019083E-007  0.1366011E+04  0.7818608E-02  0.8978796E-01
          2   -1    0    0  501    0  0.00000000000E+00  0.00000000000E+00  0.14429723954E+04  0.14429723954E+04  0.00000000000E+00 0. -1.
         -2   -1    0    0    0  501 -0.00000000000E+00 -0.00000000000E+00 -0.32328846040E+03  0.32328846040E+03  0.00000000000E+00 0.  1.
         23    2    1    2    0    0 -0.33109572722E+03 -0.17681894011E+03  0.38100981177E+03  0.54259988953E+03  0.91415782501E+02 0.  0.
        254    2    1    2    0    0  0.33109572722E+03  0.17681894011E+03  0.73867412328E+03  0.12236609663E+04  0.90045398656E+03 0.  0.
        -24    2    4    4    0    0  0.80200305932E+02 -0.12553621751E+03  0.80026091261E+03  0.81810065095E+03  0.81729528730E+02 0.  0.
         24    2    4    4    0    0  0.25089542129E+03  0.30235515762E+03 -0.61586789330E+02  0.40556031536E+03  0.79492660106E+02 0.  0.
         13    1    3    3    0    0 -0.21839864814E+02 -0.10864562039E+01  0.58527934353E+02  0.62479430070E+02  0.00000000000E+00 0.  1.
        -13    1    3    3    0    0 -0.30925586241E+03 -0.17573248390E+03  0.32248187742E+03  0.48012045946E+03  0.00000000000E+00 0. -1.
          4    1    6    6  502    0  0.91377456320E+02  0.78856779570E+02 -0.50247079482E+02  0.13074020118E+03  0.00000000000E+00 0. -1.
          1    1    5    5  503    0  0.79134203817E+02 -0.65726078140E+02  0.61136604632E+03  0.61996014562E+03  0.00000000000E+00 0. -1.
         -4    1    5    5    0  503  0.10661021154E+01 -0.59810139372E+02  0.18889486629E+03  0.19814050534E+03  0.00000000000E+00 0.  1.
         -1    1    6    6    0  502  0.15951796497E+03  0.22349837805E+03 -0.11339709848E+02  0.27482011418E+03  0.00000000000E+00 0.  1.
<mgrwt>
<rscale>  0 0.13660107E+04</rscale>
<asrwt>0</asrwt>
<pdfrwt beam="1">  1        2 0.22199575E+00 0.13660107E+04</pdfrwt>
<pdfrwt beam="2">  1       -2 0.49736687E-01 0.13660107E+04</pdfrwt>
<totfact> 0.51026877E+01</totfact>
</mgrwt>
</event>
<event>
12    1  0.2019083E-007  0.1446697E+04  0.7818608E-02  0.8920693E-01
         -2   -1    0    0    0  501 -0.00000000000E+00  0.00000000000E+00  0.25179246816E+03  0.25179246816E+03  0.00000000000E+00 0.  1.
          2   -1    0    0  501    0  0.00000000000E+00 -0.00000000000E+00 -0.20780335001E+04  0.20780335001E+04  0.00000000000E+00 0. -1.
         23    2    1    2    0    0 -0.18374766288E+03  0.31831354734E+03 -0.93948490720E+03  0.10129510934E+04  0.91385495371E+02 0.  0.
        254    2    1    2    0    0  0.18374766288E+03 -0.31831354734E+03 -0.88675612478E+03  0.13168748749E+04  0.90151888124E+03 0.  0.
        -24    2    4    4    0    0 -0.32881996462E+03 -0.17089586645E+03 -0.59012167798E+03  0.70136423080E+03  0.79625518089E+02 0.  0.
         24    2    4    4    0    0  0.51256762749E+03 -0.14741768089E+03 -0.29663444680E+03  0.61551064408E+03  0.80023824909E+02 0.  0.
         13    1    3    3    0    0 -0.10496768439E+03  0.25875580052E+03 -0.72091231291E+03  0.77310241364E+03  0.00000000000E+00 0. -1.
        -13    1    3    3    0    0 -0.78779978484E+02  0.59557746820E+02 -0.21857259429E+03  0.23984867977E+03  0.00000000000E+00 0.  1.
          2    1    6    6  502    0  0.29195475440E+03 -0.57043901385E+02 -0.12999178068E+03  0.32463741057E+03  0.00000000000E+00 0. -1.
          1    1    5    5  503    0 -0.31938802839E+03 -0.17783220974E+03 -0.58136185741E+03  0.68674203071E+03  0.00000000000E+00 0. -1.
         -2    1    5    5    0  503 -0.94319362235E+01  0.69363432826E+01 -0.87598205694E+01  0.14622200090E+02  0.00000000000E+00 0.  1.
         -1    1    6    6    0  502  0.22061287310E+03 -0.90373779501E+02 -0.16664266612E+03  0.29087323351E+03  0.00000000000E+00 0.  1.
<mgrwt>
<rscale>  0 0.14466972E+04</rscale>
<asrwt>0</asrwt>
<pdfrwt beam="1">  1        2 0.31969746E+00 0.14466972E+04</pdfrwt>
<pdfrwt beam="2">  1       -2 0.38737304E-01 0.14466972E+04</pdfrwt>
<totfact> 0.36948500E+01</totfact>
</mgrwt>
</event>
<event>
12    1  0.2019083E-007  0.4913547E+04  0.7818608E-02  0.7841984E-01
         -2   -1    0    0    0  501 -0.00000000000E+00  0.00000000000E+00  0.19212071637E+04  0.19212071637E+04  0.00000000000E+00 0.  1.
          2   -1    0    0  501    0  0.00000000000E+00 -0.00000000000E+00 -0.31416371074E+04  0.31416371074E+04  0.00000000000E+00 0. -1.
         23    2    1    2    0    0 -0.13625969407E+04 -0.17974304178E+04 -0.13466217149E+04  0.26285664325E+04  0.92438720702E+02 0.  0.
        254    2    1    2    0    0  0.13625969407E+04  0.17974304178E+04  0.12619177112E+03  0.24342778387E+04  0.90683940306E+03 0.  0.
        -24    2    4    4    0    0  0.12919442434E+04  0.18815667322E+04  0.16181875015E+03  0.22894432001E+04  0.77146373186E+02 0.  0.
         24    2    4    4    0    0  0.70652697359E+02 -0.84136314439E+02 -0.35626979032E+02  0.14483463852E+03  0.87390318850E+02 0.  0.
         11    1    3    3    0    0 -0.74764278076E+03 -0.91152254571E+03 -0.71463406831E+03  0.13786025281E+04  0.00000000000E+00 0. -1.
        -11    1    3    3    0    0 -0.61495415998E+03 -0.88590787210E+03 -0.63198764657E+03  0.12499639043E+04  0.00000000000E+00 0.  1.
          2    1    6    6  502    0 -0.18049894968E+02 -0.33490903375E+02 -0.13100324566E+02  0.40237517580E+02  0.00000000000E+00 0. -1.
          1    1    5    5  503    0  0.14957647525E+03  0.23648076674E+03  0.42961146036E+02  0.28309350938E+03  0.00000000000E+00 0. -1.
         -2    1    5    5    0  503  0.11423677681E+04  0.16450859655E+04  0.11885760412E+03  0.20063496908E+04  0.00000000000E+00 0.  1.
         -1    1    6    6    0  502  0.88702592328E+02 -0.50645411063E+02 -0.22526654466E+02  0.10459712094E+03  0.00000000000E+00 0.  1.
<mgrwt>
<rscale>  0 0.49135469E+04</rscale>
<asrwt>0</asrwt>
<pdfrwt beam="1">  1        2 0.48332879E+00 0.49135469E+04</pdfrwt>
<pdfrwt beam="2">  1       -2 0.29557033E+00 0.49135469E+04</pdfrwt>
<totfact> 0.35060998E-02</totfact>
</mgrwt>
</event>
<event>
12    1  0.2019083E-007  0.1961502E+04  0.7818608E-02  0.8624834E-01
          2   -1    0    0  501    0  0.00000000000E+00  0.00000000000E+00  0.13587133025E+04  0.13587133025E+04  0.00000000000E+00 0. -1.
         -2   -1    0    0    0  501 -0.00000000000E+00 -0.00000000000E+00 -0.70792865560E+03  0.70792865560E+03  0.00000000000E+00 0.  1.
         23    2    1    2    0    0 -0.25478175242E+03  0.41726479531E+03  0.89230766107E+03  0.10215031922E+04  0.90731245796E+02 0.  0.
        254    2    1    2    0    0  0.25478175242E+03 -0.41726479531E+03 -0.24152301422E+03  0.10451387658E+04  0.89160418496E+03 0.  0.
        -24    2    4    4    0    0  0.22912405585E+03 -0.29450258070E+03 -0.56896294641E+03  0.68529851461E+03  0.81765620722E+02 0.  0.
         24    2    4    4    0    0  0.25657696569E+02 -0.12276221462E+03  0.32743993219E+03  0.35984025121E+03  0.80865434283E+02 0.  0.
         13    1    3    3    0    0 -0.18778907377E+03  0.25876824542E+03  0.50519043217E+03  0.59786546465E+03  0.00000000000E+00 0.  1.
        -13    1    3    3    0    0 -0.66992678652E+02  0.15849654990E+03  0.38711722890E+03  0.42363772759E+03  0.00000000000E+00 0. -1.
          4    1    6    6  502    0  0.33630934990E+02 -0.13140660974E+02  0.11673117626E+03  0.12218790558E+03  0.00000000000E+00 0. -1.
          1    1    5    5  503    0  0.10122006221E+02 -0.60280163686E+02 -0.99549278607E+02  0.11681700225E+03  0.00000000000E+00 0. -1.
         -2    1    5    5    0  503  0.21900204963E+03 -0.23422241701E+03 -0.46941366780E+03  0.56848151236E+03  0.00000000000E+00 0.  1.
         -3    1    6    6    0  502 -0.79732384207E+01 -0.10962155364E+03  0.21070875593E+03  0.23765234562E+03  0.00000000000E+00 0.  1.
<mgrwt>
<rscale>  0 0.19615015E+04</rscale>
<asrwt>0</asrwt>
<pdfrwt beam="1">  1        2 0.20903282E+00 0.19615015E+04</pdfrwt>
<pdfrwt beam="2">  1       -2 0.10891210E+00 0.19615015E+04</pdfrwt>
<totfact> 0.95879871E+00</totfact>
</mgrwt>
</event>
<event>
12    1  0.2019083E-007  0.1998990E+04  0.7818608E-02  0.8607093E-01
          1   -1    0    0  501    0  0.00000000000E+00  0.00000000000E+00  0.13910981604E+04  0.13910981604E+04  0.00000000000E+00 0. -1.
         -1   -1    0    0    0  501 -0.00000000000E+00 -0.00000000000E+00 -0.71813060759E+03  0.71813060759E+03  0.00000000000E+00 0.  1.
         23    2    1    2    0    0 -0.25450536830E+03 -0.73600806742E+03  0.42324731061E+03  0.89234019026E+03  0.10320790380E+03 0.  0.
        254    2    1    2    0    0  0.25450536830E+03  0.73600806742E+03  0.24972024218E+03  0.12168885777E+04  0.90109752714E+03 0.  0.
        -24    2    4    4    0    0  0.30996582608E+03  0.85525386168E+03  0.40406501632E+03  0.99836685571E+03  0.77005583578E+02 0.  0.
         24    2    4    4    0    0 -0.55460457778E+02 -0.11924579426E+03 -0.15434477415E+03  0.21852172201E+03  0.81449443567E+02 0.  0.
         11    1    3    3    0    0 -0.16183977610E+03 -0.55379635891E+03  0.35199451840E+03  0.67585698284E+03  0.00000000000E+00 0. -1.
        -11    1    3    3    0    0 -0.92665592198E+02 -0.18221170851E+03  0.71252792215E+02  0.21648320742E+03  0.00000000000E+00 0.  1.
          4    1    6    6  502    0 -0.85288902719E+01 -0.10196667037E+03 -0.12075392646E+03  0.15827651308E+03  0.00000000000E+00 0. -1.
          3    1    5    5  503    0  0.18221353333E+03  0.52430683591E+03  0.20592367687E+03  0.59203377489E+03  0.00000000000E+00 0. -1.
         -4    1    5    5    0  503  0.12775229275E+03  0.33094702577E+03  0.19814133945E+03  0.40633308082E+03  0.00000000000E+00 0.  1.
         -3    1    6    6    0  502 -0.46931567507E+02 -0.17279123889E+02 -0.33590847682E+02  0.60245208930E+02  0.00000000000E+00 0.  1.
<mgrwt>
<rscale>  0 0.19989899E+04</rscale>
<asrwt>0</asrwt>
<pdfrwt beam="1">  1        1 0.21401510E+00 0.19989899E+04</pdfrwt>
<pdfrwt beam="2">  1       -1 0.11048163E+00 0.19989899E+04</pdfrwt>
<totfact> 0.54619411E+00</totfact>
</mgrwt>
</event>
<event>
12    1  0.2019083E-007  0.3872649E+04  0.7818608E-02  0.8030742E-01
         -1   -1    0    0    0  501 -0.00000000000E+00  0.00000000000E+00  0.11800009670E+04  0.11800009670E+04  0.00000000000E+00 0.  1.
          1   -1    0    0  501    0  0.00000000000E+00 -0.00000000000E+00 -0.31774148033E+04  0.31774148033E+04  0.00000000000E+00 0. -1.
         23    2    1    2    0    0 -0.60800293454E+03 -0.17251001434E+04 -0.86227281794E+03  0.20241090380E+04  0.88684340344E+02 0.  0.
        254    2    1    2    0    0  0.60800293454E+03  0.17251001434E+04 -0.11351410184E+04  0.23333067322E+04  0.90007616449E+03 0.  0.
        -24    2    4    4    0    0  0.52626407466E+03  0.12544658354E+04 -0.34354658786E+03  0.14054042674E+04  0.80613201672E+02 0.  0.
         24    2    4    4    0    0  0.81738859881E+02  0.47063430794E+03 -0.79159443051E+03  0.92790246478E+03  0.78761340287E+02 0.  0.
         11    1    3    3    0    0 -0.37505844860E+03 -0.11380450828E+04 -0.52656330818E+03  0.13088484892E+04  0.00000000000E+00 0.  1.
        -11    1    3    3    0    0 -0.23294448594E+03 -0.58705506061E+03 -0.33570950976E+03  0.71526054879E+03  0.00000000000E+00 0. -1.
          2    1    6    6  502    0  0.47406289808E+02  0.34363209074E+03 -0.63324480189E+03  0.72203140460E+03  0.00000000000E+00 0. -1.
          3    1    5    5  503    0  0.41693824351E+03  0.10398727258E+04 -0.25661166389E+03  0.11493573555E+04  0.00000000000E+00 0. -1.
         -4    1    5    5    0  503  0.10932583115E+03  0.21459310968E+03 -0.86934923971E+02  0.25604691188E+03  0.00000000000E+00 0.  1.
         -1    1    6    6    0  502  0.34332570073E+02  0.12700221720E+03 -0.15834962861E+03  0.20587106019E+03  0.00000000000E+00 0.  1.
<mgrwt>
<rscale>  0 0.38726490E+04</rscale>
<asrwt>0</asrwt>
<pdfrwt beam="1">  1        1 0.48883305E+00 0.38726490E+04</pdfrwt>
<pdfrwt beam="2">  1       -1 0.18153861E+00 0.38726490E+04</pdfrwt>
<totfact> 0.70853520E-02</totfact>
</mgrwt>
</event>
<event>
12    1  0.2019083E-007  0.1695348E+04  0.7818608E-02  0.8764022E-01
          2   -1    0    0  501    0  0.00000000000E+00  0.00000000000E+00  0.14226186405E+04  0.14226186405E+04  0.00000000000E+00 0. -1.
         -2   -1    0    0    0  501 -0.00000000000E+00 -0.00000000000E+00 -0.50509047960E+03  0.50509047960E+03  0.00000000000E+00 0.  1.
         23    2    1    2    0    0 -0.85140469105E+02 -0.33259802976E+03  0.89661607236E+03  0.96438340827E+03  0.90799934235E+02 0.  0.
        254    2    1    2    0    0  0.85140469105E+02  0.33259802976E+03  0.20912088554E+02  0.96332571185E+03  0.89982707382E+03 0.  0.
        -24    2    4    4    0    0  0.13154834999E+03  0.18073200944E+03  0.44443004273E+03  0.50386087648E+03  0.79929295967E+02 0.  0.
         24    2    4    4    0    0 -0.46407880886E+02  0.15186602032E+03 -0.42351795417E+03  0.45946483537E+03  0.80768173790E+02 0.  0.
         11    1    3    3    0    0 -0.83276070430E+02 -0.33249574265E+03  0.89854283292E+03  0.96170034074E+03  0.00000000000E+00 0. -1.
        -11    1    3    3    0    0 -0.18643986749E+01 -0.10228710632E+00 -0.19267605659E+01  0.26830675261E+01  0.00000000000E+00 0.  1.
          4    1    6    6  502    0 -0.13337828891E+02  0.48877389613E+02 -0.52331159981E+02  0.72838500807E+02  0.00000000000E+00 0. -1.
          1    1    5    5  503    0  0.88550909020E+02  0.54345731719E+02  0.19470929032E+03  0.22069533249E+03  0.00000000000E+00 0. -1.
         -2    1    5    5    0  503  0.42997440972E+02  0.12638627772E+03  0.24972075240E+03  0.28316554400E+03  0.00000000000E+00 0.  1.
         -3    1    6    6    0  502 -0.33070051995E+02  0.10298863071E+03 -0.37118679419E+03  0.38662633456E+03  0.00000000000E+00 0.  1.
<mgrwt>
<rscale>  0 0.16953479E+04</rscale>
<asrwt>0</asrwt>
<pdfrwt beam="1">  1        2 0.21886440E+00 0.16953479E+04</pdfrwt>
<pdfrwt beam="2">  1       -2 0.77706228E-01 0.16953479E+04</pdfrwt>
<totfact> 0.19728461E+01</totfact>
</mgrwt>
</event>
<event>
12    1  0.2019083E-007  0.1496254E+04  0.7818608E-02  0.8886948E-01
         -2   -1    0    0    0  501 -0.00000000000E+00  0.00000000000E+00  0.16874936478E+03  0.16874936478E+03  0.00000000000E+00 0.  1.
          2   -1    0    0  501    0  0.00000000000E+00 -0.00000000000E+00 -0.33167173920E+04  0.33167173920E+04  0.00000000000E+00 0. -1.
         23    2    1    2    0    0  0.36410732290E+03  0.28980141833E+03 -0.84811554573E+03  0.97184175851E+03  0.92830059827E+02 0.  0.
        254    2    1    2    0    0 -0.36410732290E+03 -0.28980141833E+03 -0.22998524815E+04  0.25136249982E+04  0.90134909477E+03 0.  0.
        -24    2    4    4    0    0  0.17764497296E+03 -0.25626168101E+03 -0.15576893042E+04  0.15906258570E+04  0.80416807143E+02 0.  0.
         24    2    4    4    0    0 -0.54175229586E+03 -0.33539737321E+02 -0.74216317726E+03  0.92299914127E+03  0.80627346826E+02 0.  0.
         11    1    3    3    0    0  0.16687956425E+03  0.84016911141E+02 -0.38700946723E+03  0.42974871501E+03  0.00000000000E+00 0.  1.
        -11    1    3    3    0    0  0.19722775865E+03  0.20578450719E+03 -0.46110607850E+03  0.54209304350E+03  0.00000000000E+00 0. -1.
          4    1    6    6  502    0 -0.47337622044E+03 -0.69869282541E+01 -0.66737628999E+03  0.81824505845E+03  0.00000000000E+00 0. -1.
          1    1    5    5  503    0  0.13823307114E+03 -0.18431499351E+03 -0.95599422924E+03  0.98336430947E+03  0.00000000000E+00 0. -1.
         -2    1    5    5    0  503  0.39411901820E+02 -0.71946687497E+02 -0.60169507496E+03  0.60726154750E+03  0.00000000000E+00 0.  1.
         -3    1    6    6    0  502 -0.68376075422E+02 -0.26552809067E+02 -0.74786887278E+02  0.10475408282E+03  0.00000000000E+00 0.  1.
<mgrwt>
<rscale>  0 0.14962539E+04</rscale>
<asrwt>0</asrwt>
<pdfrwt beam="1">  1        2 0.51026418E+00 0.14962539E+04</pdfrwt>
<pdfrwt beam="2">  1       -2 0.25961442E-01 0.14962539E+04</pdfrwt>
<totfact> 0.14213925E+01</totfact>
</mgrwt>
</event>
<event>
12    1  0.2019083E-007  0.1872009E+04  0.7818608E-02  0.8668916E-01
         -2   -1    0    0    0  501 -0.00000000000E+00  0.00000000000E+00  0.83502762959E+03  0.83502762959E+03  0.00000000000E+00 0.  1.
          2   -1    0    0  501    0  0.00000000000E+00 -0.00000000000E+00 -0.10491925771E+04  0.10491925771E+04  0.00000000000E+00 0. -1.
         23    2    1    2    0    0 -0.33221130243E+03 -0.16831010762E+03  0.53188665604E+03  0.65525609308E+03  0.88116348450E+02 0.  0.
        254    2    1    2    0    0  0.33221130243E+03  0.16831010762E+03 -0.74605160359E+03  0.12289641137E+04  0.90281069756E+03 0.  0.
        -24    2    4    4    0    0  0.50742082636E+03  0.27249306078E+03 -0.15900716582E+03  0.60274934224E+03  0.79341840152E+02 0.  0.
         24    2    4    4    0    0 -0.17520952393E+03 -0.10418295316E+03 -0.58704443777E+03  0.62621477141E+03  0.77274206582E+02 0.  0.
         13    1    3    3    0    0 -0.22685564493E+03 -0.67633436515E+02  0.34063460856E+03  0.41481285168E+03  0.00000000000E+00 0.  1.
        -13    1    3    3    0    0 -0.10535565750E+03 -0.10067667111E+03  0.19125204748E+03  0.24044324140E+03  0.00000000000E+00 0. -1.
          4    1    6    6  502    0 -0.15942419085E+03 -0.11377319500E+03 -0.49508148054E+03  0.53241533120E+03  0.00000000000E+00 0. -1.
          1    1    5    5  503    0  0.47020993768E+03  0.22658003693E+03 -0.13647508714E+03  0.53950101764E+03  0.00000000000E+00 0. -1.
         -2    1    5    5    0  503  0.37210888681E+02  0.45913023850E+02 -0.22532078682E+02  0.63248324604E+02  0.00000000000E+00 0.  1.
         -3    1    6    6    0  502 -0.15785333079E+02  0.95902418410E+01 -0.91962957235E+02  0.93799440203E+02  0.00000000000E+00 0.  1.
<mgrwt>
<rscale>  0 0.18720094E+04</rscale>
<asrwt>0</asrwt>
<pdfrwt beam="1">  1        2 0.16141424E+00 0.18720094E+04</pdfrwt>
<pdfrwt beam="2">  1       -2 0.12846579E+00 0.18720094E+04</pdfrwt>
<totfact> 0.98458645E+00</totfact>
</mgrwt>
</event>
<event>
12    1  0.2019083E-007  0.2400196E+04  0.7818608E-02  0.8439430E-01
          2   -1    0    0  501    0  0.00000000000E+00  0.00000000000E+00  0.10408342899E+04  0.10408342899E+04  0.00000000000E+00 0.  1.
         -2   -1    0    0    0  501 -0.00000000000E+00 -0.00000000000E+00 -0.13837316963E+04  0.13837316963E+04  0.00000000000E+00 0. -1.
         23    2    1    2    0    0 -0.58472131221E+03  0.82301343434E+03 -0.34609450417E+03  0.10712589635E+04  0.92543152406E+02 0.  0.
        254    2    1    2    0    0  0.58472131221E+03 -0.82301343434E+03  0.31970977761E+01  0.13533070227E+04  0.90121004773E+03 0.  0.
        -24    2    4    4    0    0  0.16064755849E+03 -0.82543116548E+03 -0.21224774136E+03  0.87090950526E+03  0.79309618869E+02 0.  0.
         24    2    4    4    0    0  0.42407375371E+03  0.24177311445E+01  0.21544483914E+03  0.48239751741E+03  0.80290049704E+02 0.  0.
         11    1    3    3    0    0 -0.40803165647E+03  0.52122827106E+03 -0.19295341534E+03  0.68949239570E+03  0.00000000000E+00 0. -1.
        -11    1    3    3    0    0 -0.17668965573E+03  0.30178516328E+03 -0.15314108883E+03  0.38176656782E+03  0.00000000000E+00 0.  1.
          4    1    6    6  502    0  0.20403157261E+03  0.13816526653E+02  0.14638110738E+03  0.25148997520E+03  0.00000000000E+00 0. -1.
          1    1    5    5  503    0  0.10648533702E+03 -0.64659695245E+03 -0.19259675995E+03  0.68302288238E+03  0.00000000000E+00 0. -1.
         -2    1    5    5    0  503  0.54162221476E+02 -0.17883421304E+03 -0.19650981408E+02  0.18788662288E+03  0.00000000000E+00 0.  1.
         -3    1    6    6    0  502  0.22004218111E+03 -0.11398795508E+02  0.69063731758E+02  0.23090754221E+03  0.00000000000E+00 0.  1.
<mgrwt>
<rscale>  0 0.24001962E+04</rscale>
<asrwt>0</asrwt>
<pdfrwt beam="1">  1        2 0.16012835E+00 0.24001962E+04</pdfrwt>
<pdfrwt beam="2">  1       -2 0.21288180E+00 0.24001962E+04</pdfrwt>
<totfact> 0.23401899E+00</totfact>
</mgrwt>
</event>
<event>
12    1  0.2087526E-007  0.2315370E+04  0.7818608E-02  0.8471886E-01
         -2   -1    0    0    0  501 -0.00000000000E+00  0.00000000000E+00  0.71219817139E+03  0.71219817139E+03  0.00000000000E+00 0. -1.
          2   -1    0    0  501    0  0.00000000000E+00 -0.00000000000E+00 -0.18818276349E+04  0.18818276349E+04  0.00000000000E+00 0.  1.
         23    2    1    2    0    0  0.46322205043E+03  0.64428229067E+03  0.14787676912E+03  0.81184193760E+03  0.86864576882E+02 0.  0.
        254    2    1    2    0    0 -0.46322205043E+03 -0.64428229067E+03 -0.13175062326E+04  0.17821838687E+04  0.90037899283E+03 0.  0.
        -24    2    4    4    0    0 -0.49598822162E+03 -0.64066071338E+03 -0.14255653909E+04  0.16416115021E+04  0.78747536345E+02 0.  0.
         24    2    4    4    0    0  0.32766171193E+02 -0.36215772895E+01  0.10805915825E+03  0.14057236659E+03  0.83648495326E+02 0.  0.
         13    1    3    3    0    0  0.30770194879E+03  0.38029171201E+03  0.12316828185E+03  0.50445287309E+03  0.00000000000E+00 0. -1.
        -13    1    3    3    0    0  0.15552010164E+03  0.26399057866E+03  0.24708487274E+02  0.30738906451E+03  0.00000000000E+00 0.  1.
          4    1    6    6  502    0  0.30703463982E+02 -0.35557900448E+02  0.95050312865E+02  0.10602654838E+03  0.00000000000E+00 0. -1.
          1    1    5    5  503    0 -0.31767215787E+03 -0.35034212257E+03 -0.85403420057E+03  0.97623235886E+03  0.00000000000E+00 0. -1.
         -2    1    5    5    0  503 -0.17831606375E+03 -0.29031859081E+03 -0.57153119030E+03  0.66537914323E+03  0.00000000000E+00 0.  1.
         -3    1    6    6    0  502  0.20627072112E+01  0.31936323158E+02  0.13008845388E+02  0.34545818216E+02  0.00000000000E+00 0.  1.
<mgrwt>
<rscale>  0 0.23153697E+04</rscale>
<asrwt>0</asrwt>
<pdfrwt beam="1">  1        2 0.28951194E+00 0.23153697E+04</pdfrwt>
<pdfrwt beam="2">  1       -2 0.10956895E+00 0.23153697E+04</pdfrwt>
<totfact> 0.46678719E+00</totfact>
</mgrwt>
</event>
<event>
12    1  0.2019083E-007  0.1926176E+04  0.7818608E-02  0.8641935E-01
          2   -1    0    0  501    0  0.00000000000E+00  0.00000000000E+00  0.26285869728E+04  0.26285869728E+04  0.00000000000E+00 0. -1.
         -2   -1    0    0    0  501 -0.00000000000E+00 -0.00000000000E+00 -0.35286596159E+03  0.35286596159E+03  0.00000000000E+00 0.  1.
         23    2    1    2    0    0 -0.59169432170E+03  0.42881439181E+03  0.63566487671E+03  0.97281019008E+03  0.91136586987E+02 0.  0.
        254    2    1    2    0    0  0.59169432170E+03 -0.42881439181E+03  0.16400561345E+04  0.20086427443E+04  0.90048742189E+03 0.  0.
        -24    2    4    4    0    0  0.30647293018E+03 -0.38277454936E+03  0.16349589947E+04  0.17089193909E+04  0.82900892524E+02 0.  0.
         24    2    4    4    0    0  0.28522139152E+03 -0.46039842454E+02  0.50971398674E+01  0.29972335338E+03  0.79606522654E+02 0.  0.
         11    1    3    3    0    0 -0.18229370151E+03  0.89042790407E+02  0.14832850924E+03  0.25131844100E+03  0.00000000000E+00 0.  1.
        -11    1    3    3    0    0 -0.40940062019E+03  0.33977160141E+03  0.48733636747E+03  0.72149174908E+03  0.00000000000E+00 0. -1.
          2    1    6    6  502    0  0.62727000537E+02 -0.39692050754E+02  0.19260253825E+02  0.76688283765E+02  0.00000000000E+00 0. -1.
          1    1    5    5  503    0  0.15876161958E+03 -0.22185999771E+03  0.10380034532E+04  0.10732559244E+04  0.00000000000E+00 0. -1.
         -2    1    5    5    0  503  0.14771131060E+03 -0.16091455165E+03  0.59695554149E+03  0.63566346656E+03  0.00000000000E+00 0.  1.
         -1    1    6    6    0  502  0.22249439099E+03 -0.63477916999E+01 -0.14163113958E+02  0.22303506961E+03  0.00000000000E+00 0.  1.
<mgrwt>
<rscale>  0 0.19261764E+04</rscale>
<asrwt>0</asrwt>
<pdfrwt beam="1">  1        2 0.40439798E+00 0.19261764E+04</pdfrwt>
<pdfrwt beam="2">  1       -2 0.54287073E-01 0.19261764E+04</pdfrwt>
<totfact> 0.87505401E+00</totfact>
</mgrwt>
</event>
<event>
12    1  0.2019083E-007  0.2417300E+04  0.7818608E-02  0.8433055E-01
         -1   -1    0    0    0  501 -0.00000000000E+00  0.00000000000E+00  0.29928983673E+04  0.29928983673E+04  0.00000000000E+00 0.  1.
          1   -1    0    0  501    0  0.00000000000E+00 -0.00000000000E+00 -0.48810021779E+03  0.48810021779E+03  0.00000000000E+00 0. -1.
         23    2    1    2    0    0  0.96554016744E+03 -0.33869685991E+03  0.13328592406E+04  0.16826449202E+04  0.88299459506E+02 0.  0.
        254    2    1    2    0    0 -0.96554016744E+03  0.33869685991E+03  0.11719389089E+04  0.17983536648E+04  0.90202645179E+03 0.  0.
        -24    2    4    4    0    0 -0.14226460293E+03  0.49420443633E+03  0.40170778261E+03  0.65800809914E+03  0.84429105107E+02 0.  0.
         24    2    4    4    0    0 -0.82327556450E+03 -0.15550757642E+03  0.77023112630E+03  0.11403455657E+04  0.71880176814E+02 0.  0.
         11    1    3    3    0    0  0.55554073292E+03 -0.18172434661E+03  0.69185680707E+03  0.90571247401E+03  0.00000000000E+00 0. -1.
        -11    1    3    3    0    0  0.40999943451E+03 -0.15697251330E+03  0.64100243351E+03  0.77693244623E+03  0.00000000000E+00 0.  1.
          2    1    6    6  502    0 -0.96287182429E+02  0.30414233959E+01  0.10117584697E+03  0.13970334200E+03  0.00000000000E+00 0. -1.
          3    1    5    5  503    0 -0.71411418589E+02  0.12628975369E+03  0.90963192187E+02  0.17123958340E+03  0.00000000000E+00 0. -1.
         -4    1    5    5    0  503 -0.70853184342E+02  0.36791468265E+03  0.31074459042E+03  0.48676851574E+03  0.00000000000E+00 0.  1.
         -1    1    6    6    0  502 -0.72698838208E+03 -0.15854899982E+03  0.66905527933E+03  0.10006422237E+04  0.00000000000E+00 0.  1.
<mgrwt>
<rscale>  0 0.24172996E+04</rscale>
<asrwt>0</asrwt>
<pdfrwt beam="1">  1        1 0.75092343E-01 0.24172996E+04</pdfrwt>
<pdfrwt beam="2">  1       -1 0.46044589E+00 0.24172996E+04</pdfrwt>
<totfact> 0.11230747E-01</totfact>
</mgrwt>
</event>
<event>
12    1  0.2019083E-007  0.1904338E+04  0.7818608E-02  0.8652700E-01
          1   -1    0    0  501    0  0.00000000000E+00  0.00000000000E+00  0.12400515559E+04  0.12400515559E+04  0.00000000000E+00 0. -1.
         -1   -1    0    0    0  501 -0.00000000000E+00 -0.00000000000E+00 -0.73111934206E+03  0.73111934206E+03  0.00000000000E+00 0.  1.
         23    2    1    2    0    0  0.26303419873E+03  0.64838477352E+03 -0.37907123558E+02  0.70653588417E+03  0.90367036968E+02 0.  0.
        254    2    1    2    0    0 -0.26303419873E+03 -0.64838477352E+03  0.54683933740E+03  0.12646350138E+04  0.90037695048E+03 0.  0.
        -24    2    4    4    0    0 -0.49034296965E+03 -0.77163679247E+02  0.35577685246E+03  0.61604129778E+03  0.80865632681E+02 0.  0.
         24    2    4    4    0    0  0.22730877092E+03 -0.57122109427E+03  0.19106248495E+03  0.64859371601E+03  0.78778927513E+02 0.  0.
         11    1    3    3    0    0  0.26247952971E+02  0.11180891263E+03  0.22166280515E+02  0.11696808099E+03  0.00000000000E+00 0. -1.
        -11    1    3    3    0    0  0.23678624576E+03  0.53657586089E+03 -0.60073404073E+02  0.58956780318E+03  0.00000000000E+00 0.  1.
          2    1    6    6  502    0  0.91533726906E+02 -0.31032440746E+03  0.12706610336E+03  0.34759956221E+03  0.00000000000E+00 0. -1.
          3    1    5    5  503    0 -0.40550531103E+03 -0.34603190076E+02  0.27261193505E+03  0.48984610356E+03  0.00000000000E+00 0. -1.
         -4    1    5    5    0  503 -0.84837658618E+02 -0.42560489170E+02  0.83164917405E+02  0.12619519422E+03  0.00000000000E+00 0.  1.
         -1    1    6    6    0  502  0.13577504401E+03 -0.26089668681E+03  0.63996381583E+02  0.30099415380E+03  0.00000000000E+00 0.  1.
<mgrwt>
<rscale>  0 0.19043379E+04</rscale>
<asrwt>0</asrwt>
<pdfrwt beam="1">  1        1 0.19077716E+00 0.19043379E+04</pdfrwt>
<pdfrwt beam="2">  1       -1 0.11247990E+00 0.19043379E+04</pdfrwt>
<totfact> 0.67640881E+00</totfact>
</mgrwt>
</event>
<event>
12    1  0.2019083E-007  0.1357236E+04  0.7818608E-02  0.8985369E-01
         -2   -1    0    0    0  501 -0.00000000000E+00  0.00000000000E+00  0.65386502154E+03  0.65386502154E+03  0.00000000000E+00 0.  1.
          2   -1    0    0  501    0  0.00000000000E+00 -0.00000000000E+00 -0.70430770309E+03  0.70430770309E+03  0.00000000000E+00 0. -1.
         23    2    1    2    0    0 -0.17507851713E+03  0.76224874652E+02  0.30044003145E+03  0.37283935476E+03  0.11082532781E+03 0.  0.
        254    2    1    2    0    0  0.17507851713E+03 -0.76224874652E+02 -0.35088271301E+03  0.98533336986E+03  0.90072218403E+03 0.  0.
        -24    2    4    4    0    0  0.35130430065E+03  0.12242303693E+02  0.18742159585E+03  0.40662614875E+03  0.81568281828E+02 0.  0.
         24    2    4    4    0    0 -0.17622578353E+03 -0.88467178345E+02 -0.53830430885E+03  0.57870722112E+03  0.79047773020E+02 0.  0.
         11    1    3    3    0    0 -0.19957161795E+02 -0.21004883715E+01 -0.56619319952E+01  0.20850847278E+02  0.00000000000E+00 0. -1.
        -11    1    3    3    0    0 -0.15512135533E+03  0.78325363023E+02  0.30610196345E+03  0.35198850748E+03  0.00000000000E+00 0.  1.
          4    1    6    6  502    0 -0.83880409881E+02 -0.83848728742E+02 -0.26942504716E+03  0.29437457178E+03  0.00000000000E+00 0. -1.
          1    1    5    5  503    0  0.70439240064E+02  0.99371559671E+01  0.76987366063E+02  0.10482121991E+03  0.00000000000E+00 0. -1.
         -2    1    5    5    0  503  0.28086506059E+03  0.23051477260E+01  0.11043422978E+03  0.30180492884E+03  0.00000000000E+00 0.  1.
         -3    1    6    6    0  502 -0.92345373646E+02 -0.46184496024E+01 -0.26887926169E+03  0.28433264933E+03  0.00000000000E+00 0.  1.
<mgrwt>
<rscale>  0 0.13572357E+04</rscale>
<asrwt>0</asrwt>
<pdfrwt beam="1">  1        2 0.10835503E+00 0.13572357E+04</pdfrwt>
<pdfrwt beam="2">  1       -2 0.10059462E+00 0.13572357E+04</pdfrwt>
<totfact> 0.32333221E+01</totfact>
</mgrwt>
</event>
<event>
12    1  0.2019083E-007  0.1540067E+04  0.7818608E-02  0.8858237E-01
          2   -1    0    0  501    0  0.00000000000E+00  0.00000000000E+00  0.40014672203E+03  0.40014672203E+03  0.00000000000E+00 0. -1.
         -2   -1    0    0    0  501 -0.00000000000E+00 -0.00000000000E+00 -0.14818360174E+04  0.14818360174E+04  0.00000000000E+00 0.  1.
         23    2    1    2    0    0 -0.31696333492E+03 -0.14572008649E+03 -0.79857200570E+03  0.87618375234E+03  0.90997913588E+02 0.  0.
        254    2    1    2    0    0  0.31696333492E+03  0.14572008649E+03 -0.28311728962E+03  0.10057989870E+04  0.89987560438E+03 0.  0.
        -24    2    4    4    0    0  0.57539220762E+03 -0.21657789521E+02 -0.35131574010E+03  0.67933305349E+03  0.80779922522E+02 0.  0.
         24    2    4    4    0    0 -0.25842887270E+03  0.16737787602E+03  0.68198450478E+02  0.32646593356E+03  0.84428321686E+02 0.  0.
         13    1    3    3    0    0 -0.19707237834E+03 -0.41159635981E+02 -0.45740942029E+03  0.49975495566E+03  0.00000000000E+00 0.  1.
        -13    1    3    3    0    0 -0.11989095658E+03 -0.10456045051E+03 -0.34116258541E+03  0.37642879668E+03  0.00000000000E+00 0. -1.
          4    1    6    6  502    0 -0.93964369220E+02  0.94394078051E+02 -0.23183962807E+01  0.13321005824E+03  0.00000000000E+00 0. -1.
          3    1    5    5  503    0  0.37493936827E+02 -0.10553172874E+02 -0.44659110840E+01  0.39205983196E+02  0.00000000000E+00 0. -1.
         -4    1    5    5    0  503  0.53789827079E+03 -0.11104616647E+02 -0.34684982902E+03  0.64012707029E+03  0.00000000000E+00 0.  1.
         -3    1    6    6    0  502 -0.16446450348E+03  0.72983797965E+02  0.70516846758E+02  0.19325587532E+03  0.00000000000E+00 0.  1.
<mgrwt>
<rscale>  0 0.15400673E+04</rscale>
<asrwt>0</asrwt>
<pdfrwt beam="1">  1        2 0.61561033E-01 0.15400673E+04</pdfrwt>
<pdfrwt beam="2">  1       -2 0.22797477E+00 0.15400673E+04</pdfrwt>
<totfact> 0.67379476E+00</totfact>
</mgrwt>
</event>
<event>
12    1  0.2019083E-007  0.2743582E+04  0.7818608E-02  0.8321001E-01
          2   -1    0    0  501    0  0.00000000000E+00  0.00000000000E+00  0.16114185685E+04  0.16114185685E+04  0.00000000000E+00 0. -1.
         -2   -1    0    0    0  501 -0.00000000000E+00 -0.00000000000E+00 -0.11677971355E+04  0.11677971355E+04  0.00000000000E+00 0.  1.
         23    2    1    2    0    0  0.63386532921E+03 -0.98194254854E+03 -0.16385159858E+03  0.11836638911E+04  0.90644562036E+02 0.  0.
        254    2    1    2    0    0 -0.63386532921E+03  0.98194254854E+03  0.60747303159E+03  0.15955518128E+04  0.90042527678E+03 0.  0.
        -24    2    4    4    0    0 -0.36823730179E+03  0.10767235055E+04  0.32106242740E+03  0.11851953496E+04  0.81698938993E+02 0.  0.
         24    2    4    4    0    0 -0.26562802741E+03 -0.94780956951E+02  0.28641060419E+03  0.41035646325E+03  0.82581559616E+02 0.  0.
         11    1    3    3    0    0  0.38938673888E+03 -0.53612878899E+03 -0.11930370864E+03  0.67326776671E+03  0.00000000000E+00 0. -1.
        -11    1    3    3    0    0  0.24447859033E+03 -0.44581375955E+03 -0.44547889941E+02  0.51039612443E+03  0.00000000000E+00 0.  1.
          4    1    6    6  502    0 -0.26644006313E+03 -0.79745353768E+02  0.27738929319E+03  0.39280332059E+03  0.00000000000E+00 0. -1.
          3    1    5    5  503    0 -0.25097992478E+03  0.65009996516E+03  0.16597994018E+03  0.71635900768E+03  0.00000000000E+00 0. -1.
         -4    1    5    5    0  503 -0.11725737702E+03  0.42662354033E+03  0.15508248722E+03  0.46883634188E+03  0.00000000000E+00 0.  1.
         -3    1    6    6    0  502  0.81203571709E+00 -0.15035603183E+02  0.90213110030E+01  0.17553142662E+02  0.00000000000E+00 0.  1.
<mgrwt>
<rscale>  0 0.27435816E+04</rscale>
<asrwt>0</asrwt>
<pdfrwt beam="1">  1        2 0.24791055E+00 0.27435816E+04</pdfrwt>
<pdfrwt beam="2">  1       -2 0.17966110E+00 0.27435816E+04</pdfrwt>
<totfact> 0.17515945E+00</totfact>
</mgrwt>
</event>
<event>
12    1  0.2019083E-007  0.1735218E+04  0.7818608E-02  0.8741529E-01
         -1   -1    0    0    0  501 -0.00000000000E+00  0.00000000000E+00  0.11570631516E+04  0.11570631516E+04  0.00000000000E+00 0.  1.
          1   -1    0    0  501    0  0.00000000000E+00 -0.00000000000E+00 -0.65056552844E+03  0.65056552844E+03  0.00000000000E+00 0. -1.
         23    2    1    2    0    0 -0.36956493958E+02 -0.61262747644E+03  0.23252913067E+03  0.66290669817E+03  0.93259243721E+02 0.  0.
        254    2    1    2    0    0  0.36956493958E+02  0.61262747644E+03  0.27396849253E+03  0.11447219819E+04  0.92663448760E+03 0.  0.
        -24    2    4    4    0    0 -0.44088644164E+02  0.38018839840E+03 -0.31484354636E+03  0.50211891506E+03  0.80684071257E+02 0.  0.
         24    2    4    4    0    0  0.81045138122E+02  0.23243907804E+03  0.58881203888E+03  0.64260306684E+03  0.75118872224E+02 0.  0.
         13    1    3    3    0    0  0.94092720565E+01 -0.29293259241E+03  0.15119782783E+03  0.32978602341E+03  0.00000000000E+00 0.  1.
        -13    1    3    3    0    0 -0.46365766014E+02 -0.31969488403E+03  0.81331302841E+02  0.33312067477E+03  0.00000000000E+00 0. -1.
          4    1    6    6  502    0  0.39342053649E+02  0.30474571297E+02  0.90006684670E+02  0.10284794585E+03  0.00000000000E+00 0. -1.
          3    1    5    5  503    0  0.10145210466E+01  0.97505428868E+02 -0.40380308815E+02  0.10554102165E+03  0.00000000000E+00 0. -1.
         -4    1    5    5    0  503 -0.45103165211E+02  0.28268296953E+03 -0.27446323754E+03  0.39657789340E+03  0.00000000000E+00 0.  1.
         -3    1    6    6    0  502  0.41703084473E+02  0.20196450674E+03  0.49880535421E+03  0.53975512098E+03  0.00000000000E+00 0.  1.
<mgrwt>
<rscale>  0 0.17352180E+04</rscale>
<asrwt>0</asrwt>
<pdfrwt beam="1">  1        1 0.10008700E+00 0.17352180E+04</pdfrwt>
<pdfrwt beam="2">  1       -1 0.17800972E+00 0.17352180E+04</pdfrwt>
<totfact> 0.62071136E+00</totfact>
</mgrwt>
</event>
<event>
12    1  0.2019083E-007  0.1244752E+04  0.7818608E-02  0.9074562E-01
          1   -1    0    0  501    0  0.00000000000E+00  0.00000000000E+00  0.22621087948E+04  0.22621087948E+04  0.00000000000E+00 0. -1.
         -1   -1    0    0    0  501 -0.00000000000E+00 -0.00000000000E+00 -0.17123488601E+03  0.17123488601E+03  0.00000000000E+00 0.  1.
         23    2    1    2    0    0  0.20043336584E+03  0.58691130260E+02  0.88993828935E+03  0.91938160286E+03  0.98255737332E+02 0.  0.
        254    2    1    2    0    0 -0.20043336584E+03 -0.58691130260E+02  0.12009356194E+04  0.15139620779E+04  0.89789566682E+03 0.  0.
        -24    2    4    4    0    0 -0.11444718079E+03 -0.43919128500E+03  0.91224142885E+03  0.10220286065E+04  0.79817955768E+02 0.  0.
         24    2    4    4    0    0 -0.85986185047E+02  0.38050015474E+03  0.28869419060E+03  0.49193347141E+03  0.80499769129E+02 0.  0.
         11    1    3    3    0    0  0.68035389352E+02  0.45273637250E+02  0.51683790955E+03  0.52325896187E+03  0.00000000000E+00 0. -1.
        -11    1    3    3    0    0  0.13239797649E+03  0.13417493009E+02  0.37310037980E+03  0.39612264099E+03  0.00000000000E+00 0.  1.
          2    1    6    6  502    0 -0.29990827970E+02  0.29206123430E+03  0.21594330602E+03  0.36445949811E+03  0.00000000000E+00 0. -1.
          3    1    5    5  503    0 -0.11657563708E+03 -0.38866439168E+03  0.75898699066E+03  0.86064576947E+03  0.00000000000E+00 0. -1.
         -4    1    5    5    0  503  0.21284562858E+01 -0.50526893319E+02  0.15325443819E+03  0.16138283706E+03  0.00000000000E+00 0.  1.
         -1    1    6    6    0  502 -0.55995357077E+02  0.88438920435E+02  0.72750884577E+02  0.12747397330E+03  0.00000000000E+00 0.  1.
<mgrwt>
<rscale>  0 0.12447521E+04</rscale>
<asrwt>0</asrwt>
<pdfrwt beam="1">  1        1 0.34801672E+00 0.12447521E+04</pdfrwt>
<pdfrwt beam="2">  1       -1 0.26343830E-01 0.12447521E+04</pdfrwt>
<totfact> 0.25030397E+01</totfact>
</mgrwt>
</event>
<event>
12    1  0.2019083E-007  0.2793186E+04  0.7818608E-02  0.8305387E-01
          2   -1    0    0  501    0  0.00000000000E+00  0.00000000000E+00  0.17300001839E+04  0.17300001839E+04  0.00000000000E+00 0.  1.
         -2   -1    0    0    0  501 -0.00000000000E+00 -0.00000000000E+00 -0.11274404849E+04  0.11274404849E+04  0.00000000000E+00 0. -1.
         23    2    1    2    0    0 -0.10977735609E+04 -0.21288136728E+03 -0.30080718637E+03  0.11614838812E+04  0.90191880726E+02 0.  0.
        254    2    1    2    0    0  0.10977735609E+04  0.21288136728E+03  0.90336688532E+03  0.16959567876E+04  0.89987356245E+03 0.  0.
        -24    2    4    4    0    0  0.73226932913E+03  0.48626188828E+03  0.85696115240E+03  0.12301756797E+04  0.79251447437E+02 0.  0.
         24    2    4    4    0    0  0.36550423176E+03 -0.27338052100E+03  0.46405732921E+02  0.46578110786E+03  0.80425715407E+02 0.  0.
         11    1    3    3    0    0 -0.97886595559E+03 -0.20690786932E+03 -0.24532278258E+03  0.10301323668E+04  0.00000000000E+00 0.  1.
        -11    1    3    3    0    0 -0.11890760530E+03 -0.59734979595E+01 -0.55484403792E+02  0.13135151442E+03  0.00000000000E+00 0. -1.
          4    1    6    6  502    0  0.19181476974E+03 -0.18810290788E+03  0.44244339206E+02  0.27227407404E+03  0.00000000000E+00 0. -1.
          3    1    5    5  503    0  0.58236642926E+03  0.36524272947E+03  0.70631349052E+03  0.98561232553E+03  0.00000000000E+00 0. -1.
         -4    1    5    5    0  503  0.14990289987E+03  0.12101915881E+03  0.15064766188E+03  0.24456335421E+03  0.00000000000E+00 0.  1.
         -3    1    6    6    0  502  0.17368946202E+03 -0.85277613122E+02  0.21613937159E+01  0.19350703382E+03  0.00000000000E+00 0.  1.
<mgrwt>
<rscale>  0 0.27931862E+04</rscale>
<asrwt>0</asrwt>
<pdfrwt beam="1">  1        2 0.26615388E+00 0.27931862E+04</pdfrwt>
<pdfrwt beam="2">  1       -2 0.17345238E+00 0.27931862E+04</pdfrwt>
<totfact> 0.16556247E+00</totfact>
</mgrwt>
</event>
<event>
12    1  0.2019083E-007  0.2428083E+04  0.7818608E-02  0.8429064E-01
          2   -1    0    0  501    0  0.00000000000E+00  0.00000000000E+00  0.96211823297E+03  0.96211823297E+03  0.00000000000E+00 0.  1.
         -2   -1    0    0    0  501 -0.00000000000E+00 -0.00000000000E+00 -0.15319286533E+04  0.15319286533E+04  0.00000000000E+00 0. -1.
         23    2    1    2    0    0 -0.95927279524E+03  0.36744382768E+03 -0.45294234745E+02  0.10302202334E+04  0.63897569116E+02 0.  0.
        254    2    1    2    0    0  0.95927279524E+03 -0.36744382768E+03 -0.52451618554E+03  0.14638266529E+04  0.90136118096E+03 0.  0.
        -24    2    4    4    0    0  0.95017144991E+03  0.63345448955E+01 -0.50965172081E+03  0.10811747490E+04  0.79549045216E+02 0.  0.
         24    2    4    4    0    0  0.91013453367E+01 -0.37377837258E+03 -0.14864464728E+02  0.38265190390E+03  0.80052613659E+02 0.  0.
         13    1    3    3    0    0 -0.59899533412E+03  0.26221476227E+03 -0.31783726274E+02  0.65464662002E+03  0.00000000000E+00 0.  1.
        -13    1    3    3    0    0 -0.36027746112E+03  0.10522906541E+03 -0.13510508471E+02  0.37557361334E+03  0.00000000000E+00 0. -1.
          4    1    6    6  502    0  0.34600922799E+02 -0.86563571543E+02  0.69629224537E+01  0.93482394417E+02  0.00000000000E+00 0. -1.
          1    1    5    5  503    0  0.64080814905E+03  0.18891983221E+00 -0.38511655439E+03  0.74762950721E+03  0.00000000000E+00 0. -1.
         -4    1    5    5    0  503  0.30936330085E+03  0.61456250633E+01 -0.12453516643E+03  0.33354524176E+03  0.00000000000E+00 0.  1.
         -3    1    6    6    0  502 -0.25499577462E+02 -0.28721480103E+03 -0.21827387182E+02  0.28916950948E+03  0.00000000000E+00 0.  1.
<mgrwt>
<rscale>  0 0.24280828E+04</rscale>
<asrwt>0</asrwt>
<pdfrwt beam="1">  1        2 0.14801819E+00 0.24280828E+04</pdfrwt>
<pdfrwt beam="2">  1       -2 0.23568133E+00 0.24280828E+04</pdfrwt>
<totfact> 0.18840171E+00</totfact>
</mgrwt>
</event>
<event>
12    1  0.2019083E-007  0.2024296E+04  0.7818608E-02  0.8595345E-01
         -1   -1    0    0    0  501 -0.00000000000E+00  0.00000000000E+00  0.16023676285E+04  0.16023676285E+04  0.00000000000E+00 0.  1.
          1   -1    0    0  501    0  0.00000000000E+00 -0.00000000000E+00 -0.63933146568E+03  0.63933146568E+03  0.00000000000E+00 0. -1.
         23    2    1    2    0    0 -0.12198008569E+03  0.98916313920E+02  0.12662785350E+04  0.12792416378E+04  0.91292175202E+02 0.  0.
        254    2    1    2    0    0  0.12198008569E+03 -0.98916313920E+02 -0.30324237216E+03  0.96245745639E+03  0.89983600762E+03 0.  0.
        -24    2    4    4    0    0  0.38016447868E+03 -0.33648712269E+03 -0.31371205486E+03  0.60241048211E+03  0.82064127413E+02 0.  0.
         24    2    4    4    0    0 -0.25818439299E+03  0.23757080877E+03  0.10469682697E+02  0.36004697428E+03  0.80156967684E+02 0.  0.
         13    1    3    3    0    0 -0.87184985007E+01  0.58262061733E+02  0.32424331259E+03  0.32955152224E+03  0.00000000000E+00 0. -1.
        -13    1    3    3    0    0 -0.11326158719E+03  0.40654252188E+02  0.94203522243E+03  0.94969011559E+03  0.00000000000E+00 0.  1.
          2    1    6    6  502    0 -0.22086567467E+03  0.19315318186E+03  0.37948160260E+02  0.29585445878E+03  0.00000000000E+00 0. -1.
          1    1    5    5  503    0  0.13019810463E+03 -0.13052109544E+03 -0.15906909915E+03  0.24349595707E+03  0.00000000000E+00 0. -1.
         -2    1    5    5    0  503  0.24996637405E+03 -0.20596602725E+03 -0.15464295571E+03  0.35891452504E+03  0.00000000000E+00 0.  1.
         -1    1    6    6    0  502 -0.37318718312E+02  0.44417626914E+02 -0.27478477563E+02  0.64192515501E+02  0.00000000000E+00 0.  1.
<mgrwt>
<rscale>  0 0.20242965E+04</rscale>
<asrwt>0</asrwt>
<pdfrwt beam="1">  1        1 0.98358688E-01 0.20242965E+04</pdfrwt>
<pdfrwt beam="2">  1       -1 0.24651809E+00 0.20242965E+04</pdfrwt>
<totfact> 0.21228327E+00</totfact>
</mgrwt>
</event>
<event>
12    1  0.2019083E-007  0.1806716E+04  0.7818608E-02  0.8702736E-01
         -2   -1    0    0    0  501 -0.00000000000E+00  0.00000000000E+00  0.29724460780E+03  0.29724460780E+03  0.00000000000E+00 0.  1.
          2   -1    0    0  501    0  0.00000000000E+00 -0.00000000000E+00 -0.27454006991E+04  0.27454006991E+04  0.00000000000E+00 0. -1.
         23    2    1    2    0    0 -0.54322353826E+03  0.24464940076E+03 -0.14555322880E+04  0.15753390006E+04  0.90407872852E+02 0.  0.
        254    2    1    2    0    0  0.54322353826E+03 -0.24464940076E+03 -0.99262380332E+03  0.14673063064E+04  0.90152129201E+03 0.  0.
        -24    2    4    4    0    0 -0.14254153681E+02 -0.44814718315E+03 -0.27079201161E+03  0.52986864558E+03  0.79958672802E+02 0.  0.
         24    2    4    4    0    0  0.55747769194E+03  0.20349778239E+03 -0.72183179171E+03  0.93743766078E+03  0.74535279418E+02 0.  0.
         11    1    3    3    0    0 -0.20500092066E+03  0.50734553500E+02 -0.56624823961E+03  0.60434794717E+03  0.00000000000E+00 0. -1.
        -11    1    3    3    0    0 -0.33822261760E+03  0.19391484726E+03 -0.88928404839E+03  0.97099105339E+03  0.00000000000E+00 0.  1.
          2    1    6    6  502    0  0.10997179438E+03  0.14689740412E+02 -0.16089972499E+03  0.19544386799E+03  0.00000000000E+00 0. -1.
          1    1    5    5  503    0 -0.84282533309E+01 -0.38502918535E+02 -0.11900962982E+01  0.39432556589E+02  0.00000000000E+00 0. -1.
         -2    1    5    5    0  503 -0.58259003496E+01 -0.40964426461E+03 -0.26960191531E+03  0.49043608899E+03  0.00000000000E+00 0.  1.
         -1    1    6    6    0  502  0.44750589757E+03  0.18880804197E+03 -0.56093206672E+03  0.74199379279E+03  0.00000000000E+00 0.  1.
<mgrwt>
<rscale>  0 0.18067159E+04</rscale>
<asrwt>0</asrwt>
<pdfrwt beam="1">  1        2 0.42236934E+00 0.18067159E+04</pdfrwt>
<pdfrwt beam="2">  1       -2 0.45729939E-01 0.18067159E+04</pdfrwt>
<totfact> 0.10696997E+01</totfact>
</mgrwt>
</event>
<event>
12    1  0.2019083E-007  0.3218178E+04  0.7818608E-02  0.8184033E-01
         -2   -1    0    0    0  501 -0.00000000000E+00  0.00000000000E+00  0.14485843708E+04  0.14485843708E+04  0.00000000000E+00 0.  1.
          2   -1    0    0  501    0  0.00000000000E+00 -0.00000000000E+00 -0.17873778974E+04  0.17873778974E+04  0.00000000000E+00 0. -1.
         23    2    1    2    0    0  0.97619673303E+03  0.77764049580E+03 -0.95837060166E+03  0.15759341047E+04  0.86077233268E+02 0.  0.
        254    2    1    2    0    0 -0.97619673303E+03 -0.77764049580E+03  0.61957707508E+03  0.16600281634E+04  0.90229316144E+03 0.  0.
        -24    2    4    4    0    0 -0.10892044491E+04 -0.46605674578E+03  0.39504535786E+03  0.12514717770E+04  0.80904583617E+02 0.  0.
         24    2    4    4    0    0  0.11300771606E+03 -0.31158375003E+03  0.22453171722E+03  0.40855638645E+03  0.81539264791E+02 0.  0.
         11    1    3    3    0    0  0.81346516809E+02  0.75399729900E+02 -0.57644056597E+02  0.12500084930E+03  0.00000000000E+00 0.  1.
        -11    1    3    3    0    0  0.89485021622E+03  0.70224076591E+03 -0.90072654507E+03  0.14509332554E+04  0.00000000000E+00 0. -1.
          2    1    6    6  502    0  0.43799067662E+02 -0.23064088138E+03  0.15069799943E+03  0.27896856727E+03  0.00000000000E+00 0. -1.
          3    1    5    5  503    0 -0.66666623376E+03 -0.25017248581E+03  0.26127459340E+03  0.75848174207E+03  0.00000000000E+00 0. -1.
         -4    1    5    5    0  503 -0.42253821532E+03 -0.21588425997E+03  0.13377076446E+03  0.49299003492E+03  0.00000000000E+00 0.  1.
         -1    1    6    6    0  502  0.69208648399E+02 -0.80942868648E+02  0.73833717783E+02  0.12958781918E+03  0.00000000000E+00 0.  1.
<mgrwt>
<rscale>  0 0.32181782E+04</rscale>
<asrwt>0</asrwt>
<pdfrwt beam="1">  1        2 0.27498121E+00 0.32181782E+04</pdfrwt>
<pdfrwt beam="2">  1       -2 0.22285913E+00 0.32181782E+04</pdfrwt>
<totfact> 0.69905873E-01</totfact>
</mgrwt>
</event>
<event>
12    1  0.2019083E-007  0.1270631E+04  0.7818608E-02  0.9053185E-01
          2   -1    0    0  501    0  0.00000000000E+00  0.00000000000E+00  0.22485009299E+04  0.22485009299E+04  0.00000000000E+00 0. -1.
         -2   -1    0    0    0  501 -0.00000000000E+00 -0.00000000000E+00 -0.17950871605E+03  0.17950871605E+03  0.00000000000E+00 0.  1.
         23    2    1    2    0    0 -0.20875695156E+03 -0.20298387614E+03  0.33562234205E+03  0.45363536958E+03  0.91437264039E+02 0.  0.
        254    2    1    2    0    0  0.20875695156E+03  0.20298387614E+03  0.17333698718E+04  0.19743742763E+04  0.89933350427E+03 0.  0.
        -24    2    4    4    0    0  0.44654889822E+03 -0.17857010637E+03  0.83438193087E+03  0.96610405064E+03  0.76620028142E+02 0.  0.
         24    2    4    4    0    0 -0.23779194666E+03  0.38155398251E+03  0.89898794091E+03  0.10082702257E+04  0.79379334066E+02 0.  0.
         11    1    3    3    0    0 -0.19737558612E+03 -0.14855528933E+03  0.29498969129E+03  0.38476579104E+03  0.00000000000E+00 0. -1.
        -11    1    3    3    0    0 -0.11381365441E+02 -0.54428586807E+02  0.40632650756E+02  0.68869578542E+02  0.00000000000E+00 0.  1.
          4    1    6    6  502    0 -0.48769800062E+02  0.39476610775E+02  0.16848786246E+03  0.17979170168E+03  0.00000000000E+00 0. -1.
          1    1    5    5  503    0  0.33925528200E+02  0.39777179338E+01  0.40694666179E+02  0.53130213240E+02  0.00000000000E+00 0. -1.
         -2    1    5    5    0  503  0.41262337002E+03 -0.18254782430E+03  0.79368726469E+03  0.91297383740E+03  0.00000000000E+00 0.  1.
         -3    1    6    6    0  502 -0.18902214660E+03  0.34207737173E+03  0.73050007845E+03  0.82847852403E+03  0.00000000000E+00 0.  1.
<mgrwt>
<rscale>  0 0.12706306E+04</rscale>
<asrwt>0</asrwt>
<pdfrwt beam="1">  1        2 0.34592320E+00 0.12706306E+04</pdfrwt>
<pdfrwt beam="2">  1       -2 0.27616727E-01 0.12706306E+04</pdfrwt>
<totfact> 0.57095264E+01</totfact>
</mgrwt>
</event>
<event>
12    1  0.2019083E-007  0.1678392E+04  0.7818608E-02  0.8773785E-01
          1   -1    0    0  501    0  0.00000000000E+00  0.00000000000E+00  0.15498378770E+04  0.15498378770E+04  0.00000000000E+00 0. -1.
         -1   -1    0    0    0  501 -0.00000000000E+00 -0.00000000000E+00 -0.45440237480E+03  0.45440237480E+03  0.00000000000E+00 0.  1.
         23    2    1    2    0    0  0.20255110211E+03 -0.50511347429E+03  0.10676258212E+03  0.56249521266E+03  0.94000236410E+02 0.  0.
        254    2    1    2    0    0 -0.20255110211E+03  0.50511347429E+03  0.98867292006E+03  0.14417450391E+04  0.89721125945E+03 0.  0.
        -24    2    4    4    0    0 -0.20610323103E+03  0.75443597192E+03  0.71344508764E+03  0.10619255106E+04  0.83843422029E+02 0.  0.
         24    2    4    4    0    0  0.35521289161E+01 -0.24932249763E+03  0.27522783243E+03  0.37981952852E+03  0.79612744317E+02 0.  0.
         11    1    3    3    0    0  0.24773616658E+02 -0.28923711474E+02  0.29912014617E+02  0.48425631500E+02  0.00000000000E+00 0. -1.
        -11    1    3    3    0    0  0.17777748545E+03 -0.47618976282E+03  0.76850567503E+02  0.51406958116E+03  0.00000000000E+00 0.  1.
          4    1    6    6  502    0  0.39726247145E+02 -0.16897701733E+03  0.18610487007E+03  0.25449249451E+03  0.00000000000E+00 0. -1.
          1    1    5    5  503    0 -0.59667741083E+02  0.11596833802E+03  0.98211865448E+02  0.16326195289E+03  0.00000000000E+00 0. -1.
         -2    1    5    5    0  503 -0.14643548994E+03  0.63846763391E+03  0.61523322219E+03  0.89866355770E+03  0.00000000000E+00 0.  1.
         -3    1    6    6    0  502 -0.36174118229E+02 -0.80345480307E+02  0.89122962353E+02  0.12532703401E+03  0.00000000000E+00 0.  1.
<mgrwt>
<rscale>  0 0.16783921E+04</rscale>
<asrwt>0</asrwt>
<pdfrwt beam="1">  1        1 0.23843659E+00 0.16783921E+04</pdfrwt>
<pdfrwt beam="2">  1       -1 0.69908058E-01 0.16783921E+04</pdfrwt>
<totfact> 0.11916295E+01</totfact>
</mgrwt>
</event>
<event>
12    1  0.2019083E-007  0.1855490E+04  0.7818608E-02  0.8677335E-01
          2   -1    0    0  501    0  0.00000000000E+00  0.00000000000E+00  0.30929245845E+04  0.30929245845E+04  0.00000000000E+00 0. -1.
         -2   -1    0    0    0  501 -0.00000000000E+00 -0.00000000000E+00 -0.27828381699E+03  0.27828381699E+03  0.00000000000E+00 0.  1.
         23    2    1    2    0    0  0.51574715990E+03  0.46968587047E+03  0.81255538232E+03  0.10747063464E+04  0.90263679226E+02 0.  0.
        254    2    1    2    0    0 -0.51574715990E+03 -0.46968587047E+03  0.20020853852E+04  0.22965020551E+04  0.88259608518E+03 0.  0.
        -24    2    4    4    0    0 -0.33363415425E+03  0.83671129943E+02  0.14407525836E+04  0.14834233332E+04  0.80400071724E+02 0.  0.
         24    2    4    4    0    0 -0.18211300566E+03 -0.55335700041E+03  0.56133280163E+03  0.81307872190E+03  0.81445546777E+02 0.  0.
         11    1    3    3    0    0  0.49014667843E+03  0.42181298901E+03  0.72316709685E+03  0.97012401993E+03  0.00000000000E+00 0. -1.
        -11    1    3    3    0    0  0.25600481467E+02  0.47872881456E+02  0.89388285464E+02  0.10458232646E+03  0.00000000000E+00 0.  1.
          2    1    6    6  502    0 -0.12371375218E+03 -0.26598049079E+03  0.31091299444E+03  0.42745479770E+03  0.00000000000E+00 0. -1.
          1    1    5    5  503    0 -0.36974667457E+02  0.36316213536E+02  0.17530707378E+03  0.18280744929E+03  0.00000000000E+00 0. -1.
         -4    1    5    5    0  503 -0.29665948679E+03  0.47354916407E+02  0.12654455098E+04  0.13006158839E+04  0.00000000000E+00 0.  1.
         -1    1    6    6    0  502 -0.58399253473E+02 -0.28737650962E+03  0.25041980719E+03  0.38562392421E+03  0.00000000000E+00 0.  1.
<mgrwt>
<rscale>  0 0.18554901E+04</rscale>
<asrwt>0</asrwt>
<pdfrwt beam="1">  1        2 0.47583453E+00 0.18554901E+04</pdfrwt>
<pdfrwt beam="2">  1       -2 0.42812897E-01 0.18554901E+04</pdfrwt>
<totfact> 0.74219182E+00</totfact>
</mgrwt>
</event>
<event>
12    1  0.2019083E-007  0.1733612E+04  0.7818608E-02  0.8742423E-01
          2   -1    0    0  501    0  0.00000000000E+00  0.00000000000E+00  0.18822263432E+04  0.18822263432E+04  0.00000000000E+00 0. -1.
         -2   -1    0    0    0  501 -0.00000000000E+00 -0.00000000000E+00 -0.39918281002E+03  0.39918281002E+03  0.00000000000E+00 0.  1.
         23    2    1    2    0    0  0.47982096906E+03  0.28716701384E+03  0.20270827691E+03  0.60198616875E+03  0.92755838913E+02 0.  0.
        254    2    1    2    0    0 -0.47982096906E+03 -0.28716701384E+03  0.12803352563E+04  0.16794229845E+04  0.93193891223E+03 0.  0.
        -24    2    4    4    0    0  0.64019859114E+02  0.27921666768E+03  0.35845991503E+03  0.46554438734E+03  0.78597557371E+02 0.  0.
         24    2    4    4    0    0 -0.54384082817E+03 -0.56638368152E+03  0.92187534122E+03  0.12138785971E+04  0.84224596888E+02 0.  0.
         11    1    3    3    0    0  0.34326482569E+03  0.15649692529E+03  0.12223935467E+03  0.39656586844E+03  0.00000000000E+00 0. -1.
        -11    1    3    3    0    0  0.13655614337E+03  0.13067008855E+03  0.80468922239E+02  0.20542030031E+03  0.00000000000E+00 0.  1.
          4    1    6    6  502    0 -0.46282281187E+03 -0.51123515966E+03  0.77607380523E+03  0.10381988706E+04  0.00000000000E+00 0. -1.
          3    1    5    5  503    0  0.57547004355E+02  0.27226195486E+03  0.31177173135E+03  0.41789932070E+03  0.00000000000E+00 0. -1.
         -4    1    5    5    0  503  0.64728547591E+01  0.69547128233E+01  0.46688183686E+02  0.47645066640E+02  0.00000000000E+00 0.  1.
         -3    1    6    6    0  502 -0.81018016304E+02 -0.55148521856E+02  0.14580153599E+03  0.17567972656E+03  0.00000000000E+00 0.  1.
<mgrwt>
<rscale>  0 0.17336117E+04</rscale>
<asrwt>0</asrwt>
<pdfrwt beam="1">  1        2 0.28957328E+00 0.17336117E+04</pdfrwt>
<pdfrwt beam="2">  1       -2 0.61412741E-01 0.17336117E+04</pdfrwt>
<totfact> 0.18172362E+01</totfact>
</mgrwt>
</event>
<event>
12    1  0.2019083E-007  0.2637093E+04  0.7818608E-02  0.8355709E-01
          2   -1    0    0  501    0  0.00000000000E+00  0.00000000000E+00  0.10582113269E+04  0.10582113269E+04  0.00000000000E+00 0. -1.
         -2   -1    0    0    0  501 -0.00000000000E+00 -0.00000000000E+00 -0.16429283873E+04  0.16429283873E+04  0.00000000000E+00 0.  1.
         23    2    1    2    0    0 -0.28277850710E+03 -0.10893765543E+04  0.39936270971E+02  0.11298210089E+04  0.90529803451E+02 0.  0.
        254    2    1    2    0    0  0.28277850710E+03  0.10893765543E+04 -0.62465333131E+03  0.15713187053E+04  0.90119128276E+03 0.  0.
        -24    2    4    4    0    0  0.22109672940E+02 -0.13627696669E+03 -0.18372006850E+03  0.24066634915E+03  0.71463128643E+02 0.  0.
         24    2    4    4    0    0  0.26066883416E+03  0.12256535210E+04 -0.44093326282E+03  0.13306523561E+04  0.77709433421E+02 0.  0.
         13    1    3    3    0    0 -0.14720749888E+03 -0.47654577711E+03  0.56506402241E+02  0.50195507658E+03  0.00000000000E+00 0. -1.
        -13    1    3    3    0    0 -0.13557100822E+03 -0.61283077717E+03 -0.16570131269E+02  0.62786593232E+03  0.00000000000E+00 0.  1.
          4    1    6    6  502    0  0.13032255371E+03  0.75950183655E+03 -0.29443511745E+03  0.82493578302E+03  0.00000000000E+00 0. -1.
          1    1    5    5  503    0  0.25227350439E+02 -0.25198113388E+02 -0.15096322897E+02  0.38720318871E+02  0.00000000000E+00 0. -1.
         -2    1    5    5    0  503 -0.31176774991E+01 -0.11107885330E+03 -0.16862374560E+03  0.20194603027E+03  0.00000000000E+00 0.  1.
         -3    1    6    6    0  502  0.13034628045E+03  0.46615168442E+03 -0.14649814537E+03  0.50571657310E+03  0.00000000000E+00 0.  1.
<mgrwt>
<rscale>  0 0.26370934E+04</rscale>
<asrwt>0</asrwt>
<pdfrwt beam="1">  1        2 0.16280174E+00 0.26370934E+04</pdfrwt>
<pdfrwt beam="2">  1       -2 0.25275821E+00 0.26370934E+04</pdfrwt>
<totfact> 0.12605582E+00</totfact>
</mgrwt>
</event>
<event>
12    1  0.2019083E-007  0.2160820E+04  0.7818608E-02  0.8534915E-01
          2   -1    0    0  501    0  0.00000000000E+00  0.00000000000E+00  0.34680123718E+04  0.34680123718E+04  0.00000000000E+00 0. -1.
         -2   -1    0    0    0  501 -0.00000000000E+00 -0.00000000000E+00 -0.33658639056E+03  0.33658639056E+03  0.00000000000E+00 0.  1.
         23    2    1    2    0    0  0.62995195532E+03 -0.62386021418E+03  0.11575089065E+04  0.14608858523E+04  0.91211687178E+02 0.  0.
        254    2    1    2    0    0 -0.62995195532E+03  0.62386021418E+03  0.19739170748E+04  0.23437129101E+04  0.90033357937E+03 0.  0.
        -24    2    4    4    0    0 -0.60116946265E+03 -0.17875852591E+02  0.10989829932E+04  0.12553083772E+04  0.79443271901E+02 0.  0.
         24    2    4    4    0    0 -0.28782492671E+02  0.64173606677E+03  0.87493408155E+03  0.10884045330E+04  0.80381397290E+02 0.  0.
         13    1    3    3    0    0  0.44328702084E+03 -0.37801774497E+03  0.75338680528E+03  0.95236152627E+03  0.00000000000E+00 0.  1.
        -13    1    3    3    0    0  0.18666493449E+03 -0.24584246921E+03  0.40412210124E+03  0.50852432602E+03  0.00000000000E+00 0. -1.
          4    1    6    6  502    0 -0.41126305391E+02  0.45970844603E+03  0.57481057671E+03  0.73717733785E+03  0.00000000000E+00 0. -1.
          1    1    5    5  503    0 -0.68875418209E+02 -0.14393464616E+02  0.87242783874E+02  0.11208165950E+03  0.00000000000E+00 0. -1.
         -2    1    5    5    0  503 -0.53229404444E+03 -0.34823879751E+01  0.10117402093E+04  0.11432267177E+04  0.00000000000E+00 0.  1.
         -3    1    6    6    0  502  0.12343812721E+02  0.18202762074E+03  0.30012350484E+03  0.35122719511E+03  0.00000000000E+00 0.  1.
<mgrwt>
<rscale>  0 0.21608200E+04</rscale>
<asrwt>0</asrwt>
<pdfrwt beam="1">  1        2 0.53354034E+00 0.21608200E+04</pdfrwt>
<pdfrwt beam="2">  1       -2 0.51782524E-01 0.21608200E+04</pdfrwt>
<totfact> 0.27743674E+00</totfact>
</mgrwt>
</event>
<event>
12    1  0.2019083E-007  0.1737875E+04  0.7818608E-02  0.8740053E-01
          1   -1    0    0  501    0  0.00000000000E+00  0.00000000000E+00  0.18871481321E+04  0.18871481321E+04  0.00000000000E+00 0. -1.
         -1   -1    0    0    0  501 -0.00000000000E+00 -0.00000000000E+00 -0.40010214598E+03  0.40010214598E+03  0.00000000000E+00 0.  1.
         23    2    1    2    0    0 -0.32001275102E+03  0.40365445940E+03  0.63302075898E+02  0.52726258555E+03  0.93024716628E+02 0.  0.
        254    2    1    2    0    0  0.32001275102E+03 -0.40365445940E+03  0.14237439102E+04  0.17599876925E+04  0.89730979743E+03 0.  0.
        -24    2    4    4    0    0  0.29325108934E+03  0.23394182197E+03  0.43735971110E+03  0.58242317858E+03  0.84901499368E+02 0.  0.
         24    2    4    4    0    0  0.26761661676E+02 -0.63759628137E+03  0.98638419914E+03  0.11775645140E+04  0.80369096481E+02 0.  0.
         11    1    3    3    0    0 -0.12186574256E+03  0.15317106161E+03  0.69817827005E+02  0.20781521189E+03  0.00000000000E+00 0. -1.
        -11    1    3    3    0    0 -0.19814700846E+03  0.25048339778E+03 -0.65157511062E+01  0.31944737366E+03  0.00000000000E+00 0.  1.
          2    1    6    6  502    0 -0.26187038921E+02 -0.29608059985E+03  0.47594273525E+03  0.56113364705E+03  0.00000000000E+00 0. -1.
          3    1    5    5  503    0  0.17624924916E+03  0.12937616610E+03  0.19090336925E+03  0.29025176412E+03  0.00000000000E+00 0. -1.
         -4    1    5    5    0  503  0.11700184018E+03  0.10456565588E+03  0.24645634185E+03  0.29217141447E+03  0.00000000000E+00 0.  1.
         -1    1    6    6    0  502  0.52948700598E+02 -0.34151568152E+03  0.51044146389E+03  0.61643086691E+03  0.00000000000E+00 0.  1.
<mgrwt>
<rscale>  0 0.17378746E+04</rscale>
<asrwt>0</asrwt>
<pdfrwt beam="1">  1        1 0.29033048E+00 0.17378746E+04</pdfrwt>
<pdfrwt beam="2">  1       -1 0.61554178E-01 0.17378746E+04</pdfrwt>
<totfact> 0.90272998E+00</totfact>
</mgrwt>
</event>
<event>
12    1  0.2019083E-007  0.1363637E+04  0.7818608E-02  0.8980569E-01
          1   -1    0    0  501    0  0.00000000000E+00  0.00000000000E+00  0.60983460816E+03  0.60983460816E+03  0.00000000000E+00 0. -1.
         -1   -1    0    0    0  501 -0.00000000000E+00 -0.00000000000E+00 -0.76229919555E+03  0.76229919555E+03  0.00000000000E+00 0.  1.
         23    2    1    2    0    0  0.34515818082E+03  0.11359061600E+03  0.54994249159E+02  0.37888644059E+03  0.92160564192E+02 0.  0.
        254    2    1    2    0    0 -0.34515818082E+03 -0.11359061600E+03 -0.20745883655E+03  0.99324736313E+03  0.90081305367E+03 0.  0.
        -24    2    4    4    0    0 -0.19220192849E+03 -0.25986565600E+03  0.29291739472E+03  0.44348109508E+03  0.80019629327E+02 0.  0.
         24    2    4    4    0    0 -0.15295625233E+03  0.14627504000E+03 -0.50037623127E+03  0.54976626805E+03  0.84110488132E+02 0.  0.
         13    1    3    3    0    0  0.25841087333E+03  0.45194499000E+02  0.56764892650E+02  0.26840449928E+03  0.00000000000E+00 0. -1.
        -13    1    3    3    0    0  0.86747307485E+02  0.68396117001E+02 -0.17706434914E+01  0.11048194131E+03  0.00000000000E+00 0.  1.
          2    1    6    6  502    0 -0.22260451639E+02  0.72664684187E+02 -0.13739736279E+03  0.15701502902E+03  0.00000000000E+00 0. -1.
          3    1    5    5  503    0 -0.16664729243E+03 -0.24558104327E+03  0.23490203624E+03  0.37849747095E+03  0.00000000000E+00 0. -1.
         -4    1    5    5    0  503 -0.25554636061E+02 -0.14284612735E+02  0.58015358481E+02  0.64983624129E+02  0.00000000000E+00 0.  1.
         -1    1    6    6    0  502 -0.13069580069E+03  0.73610355813E+02 -0.36297886848E+03  0.39275123904E+03  0.00000000000E+00 0.  1.
<mgrwt>
<rscale>  0 0.13636369E+04</rscale>
<asrwt>0</asrwt>
<pdfrwt beam="1">  1        1 0.93820709E-01 0.13636369E+04</pdfrwt>
<pdfrwt beam="2">  1       -1 0.11727680E+00 0.13636369E+04</pdfrwt>
<totfact> 0.21422197E+01</totfact>
</mgrwt>
</event>
<event>
12    1  0.2019083E-007  0.1909346E+04  0.7818608E-02  0.8650218E-01
         -1   -1    0    0    0  501 -0.00000000000E+00  0.00000000000E+00  0.67374317588E+03  0.67374317588E+03  0.00000000000E+00 0.  1.
          1   -1    0    0  501    0  0.00000000000E+00 -0.00000000000E+00 -0.13527422957E+04  0.13527422957E+04  0.00000000000E+00 0. -1.
         23    2    1    2    0    0  0.46663445101E+03 -0.40100010339E+03  0.17034294151E+03  0.64459828380E+03  0.89114734788E+02 0.  0.
        254    2    1    2    0    0 -0.46663445101E+03  0.40100010339E+03 -0.84934206130E+03  0.13818871878E+04  0.89982302082E+03 0.  0.
        -24    2    4    4    0    0 -0.73188740014E+03  0.29523845966E+03 -0.60789447808E+03  0.99940192233E+03  0.80271983417E+02 0.  0.
         24    2    4    4    0    0  0.26525294913E+03  0.10576164373E+03 -0.24144758322E+03  0.38248526543E+03  0.80332997698E+02 0.  0.
         11    1    3    3    0    0  0.19167511714E+03 -0.17802356551E+03  0.28163641976E+02  0.26310631147E+03  0.00000000000E+00 0. -1.
        -11    1    3    3    0    0  0.27495933387E+03 -0.22297653788E+03  0.14217929954E+03  0.38149197232E+03  0.00000000000E+00 0.  1.
          4    1    6    6  502    0  0.13985027618E+03  0.88922844620E+02 -0.16893096209E+03  0.23664961862E+03  0.00000000000E+00 0. -1.
          3    1    5    5  503    0 -0.50592177961E+03  0.17608889630E+03 -0.37688531740E+03  0.65498602196E+03  0.00000000000E+00 0. -1.
         -4    1    5    5    0  503 -0.22596562053E+03  0.11914956336E+03 -0.23100916068E+03  0.34441590037E+03  0.00000000000E+00 0.  1.
         -3    1    6    6    0  502  0.12540267295E+03  0.16838799111E+02 -0.72516621134E+02  0.14583564680E+03  0.00000000000E+00 0.  1.
<mgrwt>
<rscale>  0 0.19093464E+04</rscale>
<asrwt>0</asrwt>
<pdfrwt beam="1">  1        1 0.20811420E+00 0.19093464E+04</pdfrwt>
<pdfrwt beam="2">  1       -1 0.10365280E+00 0.19093464E+04</pdfrwt>
<totfact> 0.68047997E+00</totfact>
</mgrwt>
</event>
<event>
12    1  0.2019083E-007  0.1625577E+04  0.7818608E-02  0.8804987E-01
          1   -1    0    0  501    0  0.00000000000E+00  0.00000000000E+00  0.21788642034E+04  0.21788642034E+04  0.00000000000E+00 0. -1.
         -1   -1    0    0    0  501 -0.00000000000E+00 -0.00000000000E+00 -0.30319700997E+03  0.30319700997E+03  0.00000000000E+00 0.  1.
         23    2    1    2    0    0  0.60270459675E+00 -0.49079946660E+03  0.24073240188E+03  0.55432243983E+03  0.91852045803E+02 0.  0.
        254    2    1    2    0    0 -0.60270459675E+00  0.49079946660E+03  0.16349347915E+04  0.19277387735E+04  0.89570113691E+03 0.  0.
        -24    2    4    4    0    0  0.85797212391E+02  0.53298624966E+03  0.17015651765E+04  0.17869172463E+04  0.79458739649E+02 0.  0.
         24    2    4    4    0    0 -0.86399916988E+02 -0.42186783058E+02 -0.66630384972E+02  0.14082152720E+03  0.78399132653E+02 0.  0.
         13    1    3    3    0    0  0.15027021492E+02 -0.27071401123E+03  0.84344170739E+02  0.28394687248E+03  0.00000000000E+00 0.  1.
        -13    1    3    3    0    0 -0.14424316896E+02 -0.22008545537E+03  0.15638823114E+03  0.27037556736E+03  0.00000000000E+00 0. -1.
          4    1    6    6  502    0 -0.20304397675E+02 -0.16287049883E+01 -0.59566669680E+02  0.62953231701E+02  0.00000000000E+00 0. -1.
          1    1    5    5  503    0  0.21970244662E+01  0.23221986719E+02  0.14524171020E+03  0.14710282786E+03  0.00000000000E+00 0. -1.
         -2    1    5    5    0  503  0.83600187925E+02  0.50976426294E+03  0.15563234663E+04  0.16398144184E+04  0.00000000000E+00 0.  1.
         -3    1    6    6    0  502 -0.66095519313E+02 -0.40558078069E+02 -0.70637152920E+01  0.77868295497E+02  0.00000000000E+00 0.  1.
<mgrwt>
<rscale>  0 0.16255770E+04</rscale>
<asrwt>0</asrwt>
<pdfrwt beam="1">  1        1 0.33520987E+00 0.16255770E+04</pdfrwt>
<pdfrwt beam="2">  1       -1 0.46645695E-01 0.16255770E+04</pdfrwt>
<totfact> 0.98802915E+00</totfact>
</mgrwt>
</event>
<event>
12    1  0.2019083E-007  0.3458813E+04  0.7818608E-02  0.8123621E-01
          2   -1    0    0  501    0  0.00000000000E+00  0.00000000000E+00  0.21390530693E+04  0.21390530693E+04  0.00000000000E+00 0. -1.
         -2   -1    0    0    0  501 -0.00000000000E+00 -0.00000000000E+00 -0.13982108397E+04  0.13982108397E+04  0.00000000000E+00 0.  1.
         23    2    1    2    0    0  0.99746577649E+03 -0.92975551545E+03  0.12226867422E+04  0.18338054389E+04  0.92174965216E+02 0.  0.
        254    2    1    2    0    0 -0.99746577649E+03  0.92975551545E+03 -0.48184451266E+03  0.17034584702E+04  0.90011850969E+03 0.  0.
        -24    2    4    4    0    0 -0.88239347508E+03  0.71030753311E+03  0.22393075348E+02  0.11358813569E+04  0.81055355884E+02 0.  0.
         24    2    4    4    0    0 -0.11507230140E+03  0.21944798234E+03 -0.50423758801E+03  0.56757711326E+03  0.80555464331E+02 0.  0.
         13    1    3    3    0    0  0.16054348880E+03 -0.18805389835E+03  0.19298151253E+03  0.31365641179E+03  0.00000000000E+00 0.  1.
        -13    1    3    3    0    0  0.83692228768E+03 -0.74170161710E+03  0.10297052297E+04  0.15201490271E+04  0.00000000000E+00 0. -1.
          2    1    6    6  502    0 -0.11588118299E+03  0.18280718150E+03 -0.37230133232E+03  0.43064509312E+03  0.00000000000E+00 0. -1.
          3    1    5    5  503    0 -0.45174130457E+03  0.35751259308E+03  0.51634502105E+02  0.57840434151E+03  0.00000000000E+00 0. -1.
         -4    1    5    5    0  503 -0.43065217051E+03  0.35279494003E+03 -0.29241426757E+02  0.55747701541E+03  0.00000000000E+00 0.  1.
         -1    1    6    6    0  502  0.80888158588E+00  0.36640800841E+02 -0.13193625568E+03  0.13693202014E+03  0.00000000000E+00 0.  1.
<mgrwt>
<rscale>  0 0.34588132E+04</rscale>
<asrwt>0</asrwt>
<pdfrwt beam="1">  1        2 0.32908509E+00 0.34588132E+04</pdfrwt>
<pdfrwt beam="2">  1       -2 0.21510936E+00 0.34588132E+04</pdfrwt>
<totfact> 0.48915535E-01</totfact>
</mgrwt>
</event>
<event>
12    1  0.2019083E-007  0.3266531E+04  0.7818608E-02  0.8171464E-01
          1   -1    0    0  501    0  0.00000000000E+00  0.00000000000E+00  0.16724536013E+04  0.16724536013E+04  0.00000000000E+00 0. -1.
         -1   -1    0    0    0  501 -0.00000000000E+00 -0.00000000000E+00 -0.15949959728E+04  0.15949959728E+04  0.00000000000E+00 0.  1.
         23    2    1    2    0    0  0.12251278783E+04  0.83410336036E+03 -0.23946990993E+03  0.15037299175E+04  0.84800313525E+02 0.  0.
        254    2    1    2    0    0 -0.12251278783E+04 -0.83410336036E+03  0.31692753840E+03  0.17637196566E+04  0.90199624653E+03 0.  0.
        -24    2    4    4    0    0 -0.56928887705E+03 -0.15037477009E+03  0.52244167872E+03  0.79106066951E+03  0.78289706594E+02 0.  0.
         24    2    4    4    0    0 -0.65583900121E+03 -0.68372859027E+03 -0.20551414033E+03  0.97265898713E+03  0.78866106217E+02 0.  0.
         13    1    3    3    0    0  0.10332581506E+04  0.73697617112E+03 -0.19355299269E+03  0.12838298343E+04  0.00000000000E+00 0. -1.
        -13    1    3    3    0    0  0.19186972769E+03  0.97127189240E+02 -0.45916917233E+02  0.21990008318E+03  0.00000000000E+00 0.  1.
          2    1    6    6  502    0 -0.21914178169E+03 -0.17988759844E+03 -0.74700440711E+02  0.29319417524E+03  0.00000000000E+00 0. -1.
          3    1    5    5  503    0 -0.56095934352E+02 -0.32685094572E+02  0.82179775188E+02  0.10473101121E+03  0.00000000000E+00 0. -1.
         -4    1    5    5    0  503 -0.51319294270E+03 -0.11768967552E+03  0.44026190353E+03  0.68632965830E+03  0.00000000000E+00 0.  1.
         -1    1    6    6    0  502 -0.43669721953E+03 -0.50384099183E+03 -0.13081369962E+03  0.67946481189E+03  0.00000000000E+00 0.  1.
<mgrwt>
<rscale>  0 0.32665313E+04</rscale>
<asrwt>0</asrwt>
<pdfrwt beam="1">  1        1 0.25730055E+00 0.32665313E+04</pdfrwt>
<pdfrwt beam="2">  1       -1 0.24538400E+00 0.32665313E+04</pdfrwt>
<totfact> 0.30948921E-01</totfact>
</mgrwt>
</event>
<event>
12    1  0.2019083E-007  0.1933269E+04  0.7818608E-02  0.8638471E-01
         -2   -1    0    0    0  501 -0.00000000000E+00  0.00000000000E+00  0.27135607407E+04  0.27135607407E+04  0.00000000000E+00 0.  1.
          2   -1    0    0  501    0  0.00000000000E+00 -0.00000000000E+00 -0.34433794651E+03  0.34433794651E+03  0.00000000000E+00 0. -1.
         23    2    1    2    0    0  0.70457098509E+03  0.21150261249E+03  0.68089845557E+03  0.10063523055E+04  0.89267171794E+02 0.  0.
        254    2    1    2    0    0 -0.70457098509E+03 -0.21150261249E+03  0.16883243386E+04  0.20515463817E+04  0.90401872530E+03 0.  0.
        -24    2    4    4    0    0 -0.42429936146E+03 -0.32325551343E+03  0.27747570283E+03  0.60634007734E+03  0.78303567166E+02 0.  0.
         24    2    4    4    0    0 -0.28027162363E+03  0.11175290094E+03  0.14108486358E+04  0.14452063044E+04  0.84181322717E+02 0.  0.
         11    1    3    3    0    0  0.59998063600E+03  0.21107595305E+03  0.59613445785E+03  0.87172593937E+03  0.00000000000E+00 0. -1.
        -11    1    3    3    0    0  0.10459034908E+03  0.42665943841E+00  0.84763997723E+02  0.13462636617E+03  0.00000000000E+00 0.  1.
          2    1    6    6  502    0 -0.18907543901E+03  0.49120100743E+02  0.10407695805E+04  0.10589445810E+04  0.00000000000E+00 0. -1.
          3    1    5    5  503    0 -0.11888474833E+03 -0.49389045680E+02  0.59858069238E+02  0.14197129876E+03  0.00000000000E+00 0. -1.
         -4    1    5    5    0  503 -0.30541461313E+03 -0.27386646775E+03  0.21761763359E+03  0.46436877858E+03  0.00000000000E+00 0.  1.
         -1    1    6    6    0  502 -0.91196184618E+02  0.62632800199E+02  0.37007905535E+03  0.38626172340E+03  0.00000000000E+00 0.  1.
<mgrwt>
<rscale>  0 0.19332687E+04</rscale>
<asrwt>0</asrwt>
<pdfrwt beam="1">  1        2 0.52975070E-01 0.19332687E+04</pdfrwt>
<pdfrwt beam="2">  1       -2 0.41747087E+00 0.19332687E+04</pdfrwt>
<totfact> 0.50256199E-01</totfact>
</mgrwt>
</event>
<event>
12    1  0.2019083E-007  0.2364086E+04  0.7818608E-02  0.8453073E-01
         -2   -1    0    0    0  501 -0.00000000000E+00  0.00000000000E+00  0.17352578643E+04  0.17352578643E+04  0.00000000000E+00 0.  1.
          2   -1    0    0  501    0  0.00000000000E+00 -0.00000000000E+00 -0.80519785238E+03  0.80519785238E+03  0.00000000000E+00 0. -1.
         23    2    1    2    0    0  0.24669312680E+03  0.79656665755E+03 -0.20876119200E+03  0.86440183541E+03  0.90737858963E+02 0.  0.
        254    2    1    2    0    0 -0.24669312680E+03 -0.79656665755E+03  0.11388212039E+04  0.16760538812E+04  0.90380691502E+03 0.  0.
        -24    2    4    4    0    0  0.26992778958E+02  0.23391975656E+02  0.69694307049E+03  0.70192040340E+03  0.75410971148E+02 0.  0.
         24    2    4    4    0    0 -0.27368590576E+03 -0.81995863321E+03  0.44187813339E+03  0.97413347782E+03  0.80272116370E+02 0.  0.
         13    1    3    3    0    0  0.54280944042E+02  0.21945506663E+03 -0.17692561028E+02  0.22675972718E+03  0.00000000000E+00 0.  1.
        -13    1    3    3    0    0  0.19241218276E+03  0.57711159092E+03 -0.19106863098E+03  0.63764210823E+03  0.00000000000E+00 0. -1.
          4    1    6    6  502    0 -0.27780214699E+03 -0.81694538818E+03  0.44063757461E+03  0.96888351844E+03  0.00000000000E+00 0. -1.
          1    1    5    5  503    0  0.45616404158E+02 -0.69663660311E+01  0.46109920980E+03  0.46340249013E+03  0.00000000000E+00 0. -1.
         -2    1    5    5    0  503 -0.18623625199E+02  0.30358341687E+02  0.23584386069E+03  0.23851791327E+03  0.00000000000E+00 0.  1.
         -3    1    6    6    0  502  0.41162412308E+01 -0.30132450231E+01  0.12405587802E+01  0.52499593834E+01  0.00000000000E+00 0.  1.
<mgrwt>
<rscale>  0 0.23640862E+04</rscale>
<asrwt>0</asrwt>
<pdfrwt beam="1">  1        2 0.12387659E+00 0.23640862E+04</pdfrwt>
<pdfrwt beam="2">  1       -2 0.26696275E+00 0.23640862E+04</pdfrwt>
<totfact> 0.15578365E+00</totfact>
</mgrwt>
</event>
<event>
12    1  0.2019083E-007  0.2715090E+04  0.7818608E-02  0.8330125E-01
         -1   -1    0    0    0  501 -0.00000000000E+00  0.00000000000E+00  0.12008142112E+04  0.12008142112E+04  0.00000000000E+00 0.  1.
          1   -1    0    0  501    0  0.00000000000E+00 -0.00000000000E+00 -0.15347325617E+04  0.15347325617E+04  0.00000000000E+00 0. -1.
         23    2    1    2    0    0 -0.93367126101E+03  0.63120314079E+02  0.61939269719E+03  0.11259486093E+04  0.91579254113E+02 0.  0.
        254    2    1    2    0    0  0.93367126101E+03 -0.63120314079E+02 -0.95331104768E+03  0.16095981636E+04  0.89792989534E+03 0.  0.
        -24    2    4    4    0    0  0.18516474577E+03 -0.21940258249E+03  0.90473605469E+02  0.31317167949E+03  0.86414994472E+02 0.  0.
         24    2    4    4    0    0  0.74850651524E+03  0.15628226841E+03 -0.10437846531E+04  0.12964264841E+04  0.80926360188E+02 0.  0.
         11    1    3    3    0    0 -0.58954141469E+03  0.77158546850E-01  0.41204139676E+03  0.71926156454E+03  0.00000000000E+00 0.  1.
        -11    1    3    3    0    0 -0.34412984632E+03  0.63043155532E+02  0.20735130043E+03  0.40668704476E+03  0.00000000000E+00 0. -1.
          2    1    6    6  502    0  0.32009047965E+03  0.32217047455E+02 -0.47325446742E+03  0.57224613956E+03  0.00000000000E+00 0. -1.
          3    1    5    5  503    0  0.91951623602E+02 -0.51328026099E+02  0.13625696917E+02  0.10618534250E+03  0.00000000000E+00 0. -1.
         -4    1    5    5    0  503  0.93213122167E+02 -0.16807455639E+03  0.76847908552E+02  0.20698633699E+03  0.00000000000E+00 0.  1.
         -1    1    6    6    0  502  0.42841603559E+03  0.12406522096E+03 -0.57053018572E+03  0.72418034454E+03  0.00000000000E+00 0.  1.
<mgrwt>
<rscale>  0 0.27150902E+04</rscale>
<asrwt>0</asrwt>
<pdfrwt beam="1">  1        1 0.23611270E+00 0.27150902E+04</pdfrwt>
<pdfrwt beam="2">  1       -1 0.18474065E+00 0.27150902E+04</pdfrwt>
<totfact> 0.10389329E+00</totfact>
</mgrwt>
</event>
<event>
12    1  0.2019083E-007  0.3242510E+04  0.7818608E-02  0.8177680E-01
          1   -1    0    0  501    0  0.00000000000E+00  0.00000000000E+00  0.88742219280E+03  0.88742219280E+03  0.00000000000E+00 0. -1.
         -1   -1    0    0    0  501 -0.00000000000E+00 -0.00000000000E+00 -0.29619135651E+04  0.29619135651E+04  0.00000000000E+00 0.  1.
         23    2    1    2    0    0  0.57605476951E+03  0.13739011579E+04 -0.11041126585E+04  0.18563003911E+04  0.85690666511E+02 0.  0.
        254    2    1    2    0    0 -0.57605476951E+03 -0.13739011579E+04 -0.97037871385E+03  0.19930353668E+04  0.90061736391E+03 0.  0.
        -24    2    4    4    0    0 -0.57586474545E+03 -0.13982066211E+04 -0.10792863917E+04  0.18595242074E+04  0.79807283103E+02 0.  0.
         24    2    4    4    0    0 -0.19002405512E+00  0.24305463237E+02  0.10890767784E+03  0.13351115941E+03  0.73304541063E+02 0.  0.
         11    1    3    3    0    0  0.14979594033E+03  0.42656998666E+03 -0.29928458025E+03  0.54219188230E+03  0.00000000000E+00 0. -1.
        -11    1    3    3    0    0  0.42625882918E+03  0.94733117119E+03 -0.80482807822E+03  0.13141085088E+04  0.00000000000E+00 0.  1.
          2    1    6    6  502    0  0.18025225869E+02 -0.15544209849E+02  0.73249434138E+02  0.77019548356E+02  0.00000000000E+00 0. -1.
          1    1    5    5  503    0 -0.29614959664E+03 -0.66631847507E+03 -0.56260084251E+03  0.92098023964E+03  0.00000000000E+00 0. -1.
         -2    1    5    5    0  503 -0.27971514882E+03 -0.73188814601E+03 -0.51668554919E+03  0.93854396780E+03  0.00000000000E+00 0.  1.
         -1    1    6    6    0  502 -0.18215249924E+02  0.39849673086E+02  0.35658243705E+02  0.56491611050E+02  0.00000000000E+00 0.  1.
<mgrwt>
<rscale>  0 0.32425100E+04</rscale>
<asrwt>0</asrwt>
<pdfrwt beam="1">  1        1 0.13652649E+00 0.32425100E+04</pdfrwt>
<pdfrwt beam="2">  1       -1 0.45567901E+00 0.32425100E+04</pdfrwt>
<totfact> 0.45888706E-02</totfact>
</mgrwt>
</event>
<event>
12    1  0.2019083E-007  0.1543278E+04  0.7818608E-02  0.8856173E-01
         -1   -1    0    0    0  501 -0.00000000000E+00  0.00000000000E+00  0.32035776866E+03  0.32035776866E+03  0.00000000000E+00 0.  1.
          1   -1    0    0  501    0  0.00000000000E+00 -0.00000000000E+00 -0.18586302326E+04  0.18586302326E+04  0.00000000000E+00 0. -1.
         23    2    1    2    0    0 -0.14323269718E+03 -0.47537809296E+03 -0.63089806765E+03  0.80794653999E+03  0.90803650342E+02 0.  0.
        254    2    1    2    0    0  0.14323269718E+03  0.47537809296E+03 -0.90737439632E+03  0.13710414613E+04  0.89995914169E+03 0.  0.
        -24    2    4    4    0    0  0.20850954451E+02 -0.17137890686E+03 -0.61931628556E+03  0.64795372763E+03  0.80534958700E+02 0.  0.
         24    2    4    4    0    0  0.12238174273E+03  0.64675699982E+03 -0.28805811076E+03  0.72308773367E+03  0.81280302955E+02 0.  0.
         13    1    3    3    0    0 -0.30187960099E+02 -0.24172067487E+03 -0.33719801871E+03  0.41598401582E+03  0.00000000000E+00 0. -1.
        -13    1    3    3    0    0 -0.11304473708E+03 -0.23365741808E+03 -0.29370004893E+03  0.39196252417E+03  0.00000000000E+00 0.  1.
          2    1    6    6  502    0 -0.78198834853E+01  0.13192285003E+03 -0.60414703891E+02  0.14530906848E+03  0.00000000000E+00 0. -1.
          3    1    5    5  503    0  0.28350286662E+02 -0.28349418101E+02 -0.74239484866E+02  0.84373748131E+02  0.00000000000E+00 0. -1.
         -4    1    5    5    0  503 -0.74993322112E+01 -0.14302948876E+03 -0.54507680070E+03  0.56357997950E+03  0.00000000000E+00 0.  1.
         -1    1    6    6    0  502  0.13020162621E+03  0.51483414979E+03 -0.22764340687E+03  0.57777866519E+03  0.00000000000E+00 0.  1.
<mgrwt>
<rscale>  0 0.15432779E+04</rscale>
<asrwt>0</asrwt>
<pdfrwt beam="1">  1        1 0.28594312E+00 0.15432779E+04</pdfrwt>
<pdfrwt beam="2">  1       -1 0.49285810E-01 0.15432779E+04</pdfrwt>
<totfact> 0.14784702E+01</totfact>
</mgrwt>
</event>
<event>
12    1  0.2019083E-007  0.1656782E+04  0.7818608E-02  0.8786404E-01
         -2   -1    0    0    0  501 -0.00000000000E+00  0.00000000000E+00  0.25910459300E+04  0.25910459300E+04  0.00000000000E+00 0.  1.
          2   -1    0    0  501    0  0.00000000000E+00 -0.00000000000E+00 -0.26484746131E+03  0.26484746131E+03  0.00000000000E+00 0. -1.
         23    2    1    2    0    0 -0.14351304920E+03 -0.54109693297E+03  0.55997378932E+03  0.79689840274E+03  0.89969624901E+02 0.  0.
        254    2    1    2    0    0  0.14351304920E+03  0.54109693297E+03  0.17662246794E+04  0.20589949886E+04  0.89806951777E+03 0.  0.
        -24    2    4    4    0    0  0.61819815237E+02  0.40548720947E+03  0.18245365633E+04  0.18717764850E+04  0.79824634951E+02 0.  0.
         24    2    4    4    0    0  0.81693233960E+02  0.13560972351E+03 -0.58311883944E+02  0.18721850356E+03  0.81158552740E+02 0.  0.
         11    1    3    3    0    0 -0.13889725479E+03 -0.41609632335E+03  0.39853603576E+03  0.59267155280E+03  0.00000000000E+00 0. -1.
        -11    1    3    3    0    0 -0.46157944035E+01 -0.12500060962E+03  0.16143775356E+03  0.20422684994E+03  0.00000000000E+00 0.  1.
          2    1    6    6  502    0  0.74589548782E+02  0.13929430929E+03 -0.70189899745E+02  0.17289629092E+03  0.00000000000E+00 0. -1.
          1    1    5    5  503    0  0.16577726942E+02  0.21587576131E+03  0.11218839513E+04  0.11425851239E+04  0.00000000000E+00 0. -1.
         -2    1    5    5    0  503  0.45242088295E+02  0.18961144815E+03  0.70265261205E+03  0.72919136106E+03  0.00000000000E+00 0.  1.
         -1    1    6    6    0  502  0.71036851780E+01 -0.36845857864E+01  0.11878015801E+02  0.14322212640E+02  0.00000000000E+00 0.  1.
<mgrwt>
<rscale>  0 0.16567823E+04</rscale>
<asrwt>0</asrwt>
<pdfrwt beam="1">  1        2 0.40745765E-01 0.16567823E+04</pdfrwt>
<pdfrwt beam="2">  1       -2 0.39862243E+00 0.16567823E+04</pdfrwt>
<totfact> 0.91900961E-01</totfact>
</mgrwt>
</event>
<event>
12    1  0.2019083E-007  0.2236144E+04  0.7818608E-02  0.8503533E-01
         -1   -1    0    0    0  501 -0.00000000000E+00  0.00000000000E+00  0.33337480879E+03  0.33337480879E+03  0.00000000000E+00 0.  1.
          1   -1    0    0  501    0  0.00000000000E+00 -0.00000000000E+00 -0.37497879864E+04  0.37497879864E+04  0.00000000000E+00 0. -1.
         23    2    1    2    0    0  0.53317559202E+03 -0.75724357767E+03 -0.16611163459E+04  0.19041596535E+04  0.93927755977E+02 0.  0.
        254    2    1    2    0    0 -0.53317559202E+03  0.75724357767E+03 -0.17552968317E+04  0.21790031417E+04  0.89960751247E+03 0.  0.
        -24    2    4    4    0    0 -0.14848699645E+03  0.22283918172E+03  0.23280982322E+02  0.28072113243E+03  0.80973211817E+02 0.  0.
         24    2    4    4    0    0 -0.38468859557E+03  0.53440439595E+03 -0.17785778140E+04  0.18982820093E+04  0.81007236544E+02 0.  0.
         13    1    3    3    0    0  0.10711719694E+03 -0.14668840570E+03 -0.25463530348E+03  0.31277902747E+03  0.00000000000E+00 0.  1.
        -13    1    3    3    0    0  0.42605839508E+03 -0.61055517196E+03 -0.14064810424E+04  0.15913806260E+04  0.00000000000E+00 0. -1.
          2    1    6    6  502    0 -0.34067773820E+03  0.42817926766E+03 -0.15120825763E+04  0.16080399635E+04  0.00000000000E+00 0. -1.
          1    1    5    5  503    0 -0.14777902878E+03  0.21650652491E+03  0.58896235310E+01  0.26219916922E+03  0.00000000000E+00 0. -1.
         -2    1    5    5    0  503 -0.70796767063E+00  0.63326568071E+01  0.17391358791E+02  0.18521963208E+02  0.00000000000E+00 0.  1.
         -1    1    6    6    0  502 -0.44010857373E+02  0.10622512829E+03 -0.26649523768E+03  0.29024204580E+03  0.00000000000E+00 0.  1.
<mgrwt>
<rscale>  0 0.22361439E+04</rscale>
<asrwt>0</asrwt>
<pdfrwt beam="1">  1        1 0.57689048E+00 0.22361439E+04</pdfrwt>
<pdfrwt beam="2">  1       -1 0.51288431E-01 0.22361439E+04</pdfrwt>
<totfact> 0.54741368E-01</totfact>
</mgrwt>
</event>
<event>
12    1  0.2019083E-007  0.3752101E+04  0.7818608E-02  0.8056513E-01
         -2   -1    0    0    0  501 -0.00000000000E+00  0.00000000000E+00  0.12307907203E+04  0.12307907203E+04  0.00000000000E+00 0.  1.
          2   -1    0    0  501    0  0.00000000000E+00 -0.00000000000E+00 -0.28595966508E+04  0.28595966508E+04  0.00000000000E+00 0. -1.
         23    2    1    2    0    0  0.13680059713E+04  0.66567582778E+03  0.21278289763E+03  0.15389749597E+04  0.92750847426E+02 0.  0.
        254    2    1    2    0    0 -0.13680059713E+04 -0.66567582778E+03 -0.18415888281E+04  0.25514124115E+04  0.89648828009E+03 0.  0.
        -24    2    4    4    0    0 -0.11262428216E+04 -0.39072261110E+03 -0.78213608242E+03  0.14276919588E+04  0.74029898773E+02 0.  0.
         24    2    4    4    0    0 -0.24176314974E+03 -0.27495321668E+03 -0.10594527457E+04  0.11237204526E+04  0.79112852366E+02 0.  0.
         11    1    3    3    0    0  0.12218478831E+04  0.57257480575E+03  0.16633611289E+03  0.13595667913E+04  0.00000000000E+00 0. -1.
        -11    1    3    3    0    0  0.14615808820E+03  0.93101022028E+02  0.46446784743E+02  0.17940816833E+03  0.00000000000E+00 0.  1.
          4    1    6    6  502    0 -0.24797405040E+03 -0.26829640403E+03 -0.10287462132E+04  0.10916926588E+04  0.00000000000E+00 0. -1.
          3    1    5    5  503    0 -0.91984955888E+03 -0.28975677065E+03 -0.64228015716E+03  0.11587087630E+04  0.00000000000E+00 0. -1.
         -4    1    5    5    0  503 -0.20639326270E+03 -0.10096584045E+03 -0.13985592526E+03  0.26898319586E+03  0.00000000000E+00 0.  1.
         -3    1    6    6    0  502  0.62109006576E+01 -0.66568126507E+01 -0.30706532463E+02  0.32027793829E+02  0.00000000000E+00 0.  1.
<mgrwt>
<rscale>  0 0.37521008E+04</rscale>
<asrwt>0</asrwt>
<pdfrwt beam="1">  1        2 0.43993794E+00 0.37521008E+04</pdfrwt>
<pdfrwt beam="2">  1       -2 0.18935242E+00 0.37521008E+04</pdfrwt>
<totfact> 0.26795963E-01</totfact>
</mgrwt>
</event>
<event>
12    1  0.2019083E-007  0.6467226E+04  0.7818608E-02  0.7635025E-01
         -2   -1    0    0    0  501 -0.00000000000E+00  0.00000000000E+00  0.47312021618E+04  0.47312021618E+04  0.00000000000E+00 0.  1.
          2   -1    0    0  501    0  0.00000000000E+00 -0.00000000000E+00 -0.22100622918E+04  0.22100622918E+04  0.00000000000E+00 0. -1.
         23    2    1    2    0    0  0.30555736102E+04 -0.70126462810E+03  0.72994787175E+03  0.32201933052E+04  0.92297678705E+02 0.  0.
        254    2    1    2    0    0 -0.30555736102E+04  0.70126462810E+03  0.17911919982E+04  0.37210711483E+04  0.89983306811E+03 0.  0.
        -24    2    4    4    0    0 -0.44340134994E+02  0.15800102194E+03  0.19835728651E+02  0.18454272956E+03  0.82049938440E+02 0.  0.
         24    2    4    4    0    0 -0.30112334752E+04  0.54326360616E+03  0.17713562696E+04  0.35365284188E+04  0.81656812398E+02 0.  0.
         11    1    3    3    0    0  0.23801379885E+04 -0.53050265982E+03  0.60371033698E+03  0.25121616364E+04  0.00000000000E+00 0. -1.
        -11    1    3    3    0    0  0.67543562164E+03 -0.17076196828E+03  0.12623753478E+03  0.70803166877E+03  0.00000000000E+00 0.  1.
          4    1    6    6  502    0 -0.10330187346E+04  0.15601320352E+03  0.57629462387E+03  0.11931401088E+04  0.00000000000E+00 0. -1.
          3    1    5    5  503    0 -0.27597428674E+02  0.10182988309E+03  0.52067354426E+02  0.11765182768E+03  0.00000000000E+00 0. -1.
         -4    1    5    5    0  503 -0.16742706319E+02  0.56171138853E+02 -0.32231625775E+02  0.66890901885E+02  0.00000000000E+00 0.  1.
         -3    1    6    6    0  502 -0.19782147406E+04  0.38725040264E+03  0.11950616457E+04  0.23433883100E+04  0.00000000000E+00 0.  1.
<mgrwt>
<rscale>  0 0.64672255E+04</rscale>
<asrwt>0</asrwt>
<pdfrwt beam="1">  1        2 0.34000958E+00 0.64672255E+04</pdfrwt>
<pdfrwt beam="2">  1       -2 0.72787726E+00 0.64672255E+04</pdfrwt>
<totfact> 0.60123215E-04</totfact>
</mgrwt>
</event>
<event>
12    1  0.2019083E-007  0.1238517E+04  0.7818608E-02  0.9079795E-01
          2   -1    0    0  501    0  0.00000000000E+00  0.00000000000E+00  0.63388314022E+03  0.63388314022E+03  0.00000000000E+00 0. -1.
         -2   -1    0    0    0  501 -0.00000000000E+00 -0.00000000000E+00 -0.60497175852E+03  0.60497175852E+03  0.00000000000E+00 0.  1.
         23    2    1    2    0    0 -0.95262984237E+02  0.26286709050E+03  0.39340877727E+02  0.29655758502E+03  0.90689322067E+02 0.  0.
        254    2    1    2    0    0  0.95262984237E+02 -0.26286709050E+03 -0.10429496030E+02  0.94229731372E+03  0.89980070550E+03 0.  0.
        -24    2    4    4    0    0  0.42279056044E+03 -0.10754558291E+03  0.23056198874E+03  0.49963873472E+03  0.78499198582E+02 0.  0.
         24    2    4    4    0    0 -0.32752757620E+03 -0.15532150759E+03 -0.24099148477E+03  0.44265857900E+03  0.80440275608E+02 0.  0.
         11    1    3    3    0    0 -0.19583127553E+02  0.11330553211E+03  0.56400333020E+02  0.12807279202E+03  0.00000000000E+00 0. -1.
        -11    1    3    3    0    0 -0.75679856684E+02  0.14956155839E+03 -0.17059455292E+02  0.16848479300E+03  0.00000000000E+00 0.  1.
          4    1    6    6  502    0 -0.13723387050E+03 -0.73278102488E+02 -0.57464002433E+02  0.16584609460E+03  0.00000000000E+00 0. -1.
          3    1    5    5  503    0 -0.12286828718E+01 -0.34392346768E+01 -0.27748399626E+01  0.45866909183E+01  0.00000000000E+00 0. -1.
         -4    1    5    5    0  503  0.42401924331E+03 -0.10410634824E+03  0.23333682870E+03  0.49505204380E+03  0.00000000000E+00 0.  1.
         -3    1    6    6    0  502 -0.19029370570E+03 -0.82043405099E+02 -0.18352748234E+03  0.27681248440E+03  0.00000000000E+00 0.  1.
<mgrwt>
<rscale>  0 0.12385175E+04</rscale>
<asrwt>0</asrwt>
<pdfrwt beam="1">  1        2 0.97520483E-01 0.12385175E+04</pdfrwt>
<pdfrwt beam="2">  1       -2 0.93072578E-01 0.12385175E+04</pdfrwt>
<totfact> 0.44645445E+01</totfact>
</mgrwt>
</event>
<event>
12    1  0.2019083E-007  0.1152210E+04  0.7818608E-02  0.9155747E-01
         -2   -1    0    0    0  501 -0.00000000000E+00  0.00000000000E+00  0.14139841801E+03  0.14139841801E+03  0.00000000000E+00 0.  1.
          2   -1    0    0  501    0  0.00000000000E+00 -0.00000000000E+00 -0.23472470844E+04  0.23472470844E+04  0.00000000000E+00 0. -1.
         23    2    1    2    0    0 -0.18655326643E+03 -0.10541340525E+02 -0.65666230786E+03  0.68944766759E+03  0.96018012387E+02 0.  0.
        254    2    1    2    0    0  0.18655326643E+03  0.10541340525E+02 -0.15491863585E+04  0.17991978348E+04  0.89566803798E+03 0.  0.
        -24    2    4    4    0    0  0.47456989934E+02  0.45424418875E+02 -0.16177802405E+04  0.16213698438E+04  0.85508597470E+02 0.  0.
         24    2    4    4    0    0  0.13909627650E+03 -0.34883078349E+02  0.68593881958E+02  0.17782799098E+03  0.79706150603E+02 0.  0.
         11    1    3    3    0    0 -0.49610656088E+02  0.34751055039E+02 -0.27121837162E+03  0.27789972675E+03  0.00000000000E+00 0. -1.
        -11    1    3    3    0    0 -0.13694261034E+03 -0.45292395564E+02 -0.38544393624E+03  0.41154794084E+03  0.00000000000E+00 0.  1.
          4    1    6    6  502    0  0.41468526486E+01 -0.11231007583E+02  0.34677397663E+02  0.36685880484E+02  0.00000000000E+00 0. -1.
          3    1    5    5  503    0  0.35858822808E+01 -0.23820525648E+02 -0.25843760317E+03  0.25955783695E+03  0.00000000000E+00 0. -1.
         -4    1    5    5    0  503  0.43871107653E+02  0.69244944522E+02 -0.13593426373E+04  0.13618120069E+04  0.00000000000E+00 0.  1.
         -3    1    6    6    0  502  0.13494942385E+03 -0.23652070767E+02  0.33916484294E+02  0.14114211050E+03  0.00000000000E+00 0.  1.
<mgrwt>
<rscale>  0 0.11522101E+04</rscale>
<asrwt>0</asrwt>
<pdfrwt beam="1">  1        2 0.36111494E+00 0.11522101E+04</pdfrwt>
<pdfrwt beam="2">  1       -2 0.21753602E-01 0.11522101E+04</pdfrwt>
<totfact> 0.78111276E+01</totfact>
</mgrwt>
</event>
<event>
12    1  0.2019083E-007  0.2208342E+04  0.7818608E-02  0.8514964E-01
          2   -1    0    0  501    0  0.00000000000E+00  0.00000000000E+00  0.54454697127E+03  0.54454697127E+03  0.00000000000E+00 0. -1.
         -2   -1    0    0    0  501 -0.00000000000E+00 -0.00000000000E+00 -0.22389130332E+04  0.22389130332E+04  0.00000000000E+00 0.  1.
         23    2    1    2    0    0 -0.20033037702E+03 -0.56851939094E+03  0.16471594996E+03  0.63172225585E+03  0.92709797424E+02 0.  0.
        254    2    1    2    0    0  0.20033037702E+03  0.56851939094E+03 -0.18590820119E+04  0.21517377486E+04  0.90024599645E+03 0.  0.
        -24    2    4    4    0    0 -0.25805352125E+02 -0.16822531461E+03 -0.89751493247E+03  0.91696081351E+03  0.79488406939E+02 0.  0.
         24    2    4    4    0    0  0.22613572915E+03  0.73674470554E+03 -0.96156707942E+03  0.12347769351E+04  0.78311570901E+02 0.  0.
         11    1    3    3    0    0 -0.11675616811E+03 -0.23049935755E+03  0.10269377819E+03  0.27804310584E+03  0.00000000000E+00 0.  1.
        -11    1    3    3    0    0 -0.83574208912E+02 -0.33802003338E+03  0.62022171762E+02  0.35367915001E+03  0.00000000000E+00 0. -1.
          2    1    6    6  502    0  0.25819772809E+02  0.95317645071E+02 -0.16845007587E+03  0.19526275167E+03  0.00000000000E+00 0. -1.
          1    1    5    5  503    0 -0.20990260267E+02 -0.57540075947E+02 -0.16281561292E+03  0.17395509529E+03  0.00000000000E+00 0. -1.
         -2    1    5    5    0  503 -0.48150918580E+01 -0.11068523866E+03 -0.73469931955E+03  0.74300571823E+03  0.00000000000E+00 0.  1.
         -1    1    6    6    0  502  0.20031595634E+03  0.64142706047E+03 -0.79311700355E+03  0.10395141834E+04  0.00000000000E+00 0.  1.
<mgrwt>
<rscale>  0 0.22083417E+04</rscale>
<asrwt>0</asrwt>
<pdfrwt beam="1">  1        2 0.83776457E-01 0.22083417E+04</pdfrwt>
<pdfrwt beam="2">  1       -2 0.34444816E+00 0.22083417E+04</pdfrwt>
<totfact> 0.85910224E-01</totfact>
</mgrwt>
</event>
<event>
12    1  0.2019083E-007  0.1318570E+04  0.7818608E-02  0.9014967E-01
         -1   -1    0    0    0  501 -0.00000000000E+00  0.00000000000E+00  0.24632688793E+03  0.24632688793E+03  0.00000000000E+00 0.  1.
          1   -1    0    0  501    0  0.00000000000E+00 -0.00000000000E+00 -0.17645533456E+04  0.17645533456E+04  0.00000000000E+00 0. -1.
         23    2    1    2    0    0  0.15439585360E+03  0.70407368607E+02  0.51091512107E+02  0.19357857583E+03  0.77891239863E+02 0.  0.
        254    2    1    2    0    0 -0.15439585360E+03 -0.70407368607E+02 -0.15693179698E+04  0.18173016577E+04  0.90057267760E+03 0.  0.
        -24    2    4    4    0    0  0.20692788023E+03  0.31202708884E+03 -0.70983195241E+03  0.80641687391E+03  0.79162630593E+02 0.  0.
         24    2    4    4    0    0 -0.36132373383E+03 -0.38243445745E+03 -0.85948601736E+03  0.10108847838E+04  0.79755107407E+02 0.  0.
         11    1    3    3    0    0 -0.66505132132E+01  0.14547163005E+02  0.15722643802E+01  0.16072376700E+02  0.00000000000E+00 0. -1.
        -11    1    3    3    0    0  0.16104636681E+03  0.55860205602E+02  0.49519247727E+02  0.17750619913E+03  0.00000000000E+00 0.  1.
          4    1    6    6  502    0 -0.30314572391E+03 -0.35364678237E+03 -0.72822040205E+03  0.86444683501E+03  0.00000000000E+00 0. -1.
          3    1    5    5  503    0  0.18377048923E+03  0.28148642391E+03 -0.67733405542E+03  0.75616639848E+03  0.00000000000E+00 0. -1.
         -4    1    5    5    0  503  0.23157391000E+02  0.30540664938E+02 -0.32497896989E+02  0.50250475436E+02  0.00000000000E+00 0.  1.
         -3    1    6    6    0  502 -0.58178009919E+02 -0.28787675087E+02 -0.13126561532E+03  0.14643794877E+03  0.00000000000E+00 0.  1.
<mgrwt>
<rscale>  0 0.13185703E+04</rscale>
<asrwt>0</asrwt>
<pdfrwt beam="1">  1        1 0.27146975E+00 0.13185703E+04</pdfrwt>
<pdfrwt beam="2">  1       -1 0.37896443E-01 0.13185703E+04</pdfrwt>
<totfact> 0.28413777E+01</totfact>
</mgrwt>
</event>
<event>
12    1  0.2019083E-007  0.2218019E+04  0.7818608E-02  0.8510965E-01
         -2   -1    0    0    0  501 -0.00000000000E+00  0.00000000000E+00  0.90662009294E+03  0.90662009294E+03  0.00000000000E+00 0.  1.
          2   -1    0    0  501    0  0.00000000000E+00 -0.00000000000E+00 -0.13565793417E+04  0.13565793417E+04  0.00000000000E+00 0. -1.
         23    2    1    2    0    0 -0.84236219838E+03  0.18166081592E+03  0.15153824869E+03  0.87998860215E+03  0.94028579638E+02 0.  0.
        254    2    1    2    0    0  0.84236219838E+03 -0.18166081592E+03 -0.60149749747E+03  0.13832108325E+04  0.89938770417E+03 0.  0.
        -24    2    4    4    0    0  0.10271638231E+03  0.29670473387E+03 -0.31889999701E+03  0.45478258198E+03  0.80905095521E+02 0.  0.
         24    2    4    4    0    0  0.73964581607E+03 -0.47836554979E+03 -0.28259750045E+03  0.92842825053E+03  0.78791729687E+02 0.  0.
         13    1    3    3    0    0 -0.24064197809E+03  0.52710354034E+02  0.86881309757E+02  0.26121888337E+03  0.00000000000E+00 0. -1.
        -13    1    3    3    0    0 -0.60172022029E+03  0.12895046188E+03  0.64656938928E+02  0.61876971878E+03  0.00000000000E+00 0.  1.
          4    1    6    6  502    0  0.49456608428E+03 -0.35826912751E+03 -0.17752653011E+03  0.63597802505E+03  0.00000000000E+00 0. -1.
          3    1    5    5  503    0  0.10226195865E+03  0.20796405806E+03 -0.25990647735E+03  0.34822110017E+03  0.00000000000E+00 0. -1.
         -4    1    5    5    0  503  0.45442365774E+00  0.88740675808E+02 -0.58993519660E+02  0.10656148181E+03  0.00000000000E+00 0.  1.
         -3    1    6    6    0  502  0.24507973179E+03 -0.12009642228E+03 -0.10507097034E+03  0.29245022548E+03  0.00000000000E+00 0.  1.
<mgrwt>
<rscale>  0 0.22180190E+04</rscale>
<asrwt>0</asrwt>
<pdfrwt beam="1">  1        2 0.20870451E+00 0.22180190E+04</pdfrwt>
<pdfrwt beam="2">  1       -2 0.13948001E+00 0.22180190E+04</pdfrwt>
<totfact> 0.50739833E+00</totfact>
</mgrwt>
</event>
<event>
12    1  0.2019083E-007  0.2072602E+04  0.7818608E-02  0.8573409E-01
         -1   -1    0    0    0  501 -0.00000000000E+00  0.00000000000E+00  0.80912703392E+03  0.80912703392E+03  0.00000000000E+00 0.  1.
          1   -1    0    0  501    0  0.00000000000E+00 -0.00000000000E+00 -0.13272576137E+04  0.13272576137E+04  0.00000000000E+00 0. -1.
         23    2    1    2    0    0  0.20389357781E+02 -0.70098291046E+03 -0.67870554592E+03  0.98021426860E+03  0.91575256693E+02 0.  0.
        254    2    1    2    0    0 -0.20389357781E+02  0.70098291046E+03  0.16057496609E+03  0.11561703791E+04  0.90507063759E+03 0.  0.
        -24    2    4    4    0    0  0.19897142693E+03 -0.39094305980E+02  0.29681619286E+03  0.36825827857E+03  0.79976958518E+02 0.  0.
         24    2    4    4    0    0 -0.21936078471E+03  0.74007721644E+03 -0.13624122677E+03  0.78791210050E+03  0.80064761765E+02 0.  0.
         11    1    3    3    0    0 -0.26741873125E+02 -0.24867917539E+03 -0.20313334555E+03  0.32221051523E+03  0.00000000000E+00 0.  1.
        -11    1    3    3    0    0  0.47131230906E+02 -0.45230373507E+03 -0.47557220037E+03  0.65800375337E+03  0.00000000000E+00 0. -1.
          4    1    6    6  502    0 -0.15505464667E+03  0.62564818473E+03 -0.12000423748E+03  0.65565128806E+03  0.00000000000E+00 0. -1.
          3    1    5    5  503    0  0.19343015038E+03 -0.15981930829E+02  0.26047543332E+03  0.32483549152E+03  0.00000000000E+00 0. -1.
         -4    1    5    5    0  503  0.55412765560E+01 -0.23112375151E+02  0.36340759542E+02  0.43422787049E+02  0.00000000000E+00 0.  1.
         -3    1    6    6    0  502 -0.64306138041E+02  0.11442903171E+03 -0.16236989290E+02  0.13226081244E+03  0.00000000000E+00 0.  1.
<mgrwt>
<rscale>  0 0.20726022E+04</rscale>
<asrwt>0</asrwt>
<pdfrwt beam="1">  1        1 0.20419348E+00 0.20726022E+04</pdfrwt>
<pdfrwt beam="2">  1       -1 0.12448108E+00 0.20726022E+04</pdfrwt>
<totfact> 0.45089118E+00</totfact>
</mgrwt>
</event>
<event>
12    1  0.2019083E-007  0.1465317E+04  0.7818608E-02  0.8907850E-01
          2   -1    0    0  501    0  0.00000000000E+00  0.00000000000E+00  0.27655714377E+04  0.27655714377E+04  0.00000000000E+00 0. -1.
         -2   -1    0    0    0  501 -0.00000000000E+00 -0.00000000000E+00 -0.19409668919E+03  0.19409668919E+03  0.00000000000E+00 0.  1.
         23    2    1    2    0    0  0.24281315431E+03 -0.18406139278E+03  0.14765060060E+04  0.15109260471E+04  0.99953538259E+02 0.  0.
        254    2    1    2    0    0 -0.24281315431E+03  0.18406139278E+03  0.10949687425E+04  0.14487420798E+04  0.89836531683E+03 0.  0.
        -24    2    4    4    0    0 -0.33054513659E+03  0.21519489536E+02  0.54825530333E+01  0.34078315690E+03  0.79874438267E+02 0.  0.
         24    2    4    4    0    0  0.87731982281E+02  0.16254190325E+03  0.10894861894E+04  0.11079589229E+04  0.80473888577E+02 0.  0.
         11    1    3    3    0    0  0.44897483615E+02 -0.74930184745E+02  0.28172143367E+03  0.29495301797E+03  0.00000000000E+00 0.  1.
        -11    1    3    3    0    0  0.19791567069E+03 -0.10913120804E+03  0.11947845724E+04  0.12159730292E+04  0.00000000000E+00 0. -1.
          4    1    6    6  502    0  0.41935024577E+02  0.61866053106E+02  0.66929332685E+03  0.67345342242E+03  0.00000000000E+00 0. -1.
          1    1    5    5  503    0 -0.28745664655E+03  0.40994668541E+02 -0.11361576222E+02  0.29058728794E+03  0.00000000000E+00 0. -1.
         -2    1    5    5    0  503 -0.43088490038E+02 -0.19475179006E+02  0.16844129256E+02  0.50195868968E+02  0.00000000000E+00 0.  1.
         -3    1    6    6    0  502  0.45796957704E+02  0.10067585014E+03  0.42019286260E+03  0.43450550045E+03  0.00000000000E+00 0.  1.
<mgrwt>
<rscale>  0 0.14653167E+04</rscale>
<asrwt>0</asrwt>
<pdfrwt beam="1">  1        2 0.42547250E+00 0.14653167E+04</pdfrwt>
<pdfrwt beam="2">  1       -2 0.29861031E-01 0.14653167E+04</pdfrwt>
<totfact> 0.24437358E+01</totfact>
</mgrwt>
</event>
<event>
12    1  0.2019083E-007  0.1464982E+04  0.7818608E-02  0.8908079E-01
          1   -1    0    0  501    0  0.00000000000E+00  0.00000000000E+00  0.23450308638E+04  0.23450308638E+04  0.00000000000E+00 0. -1.
         -1   -1    0    0    0  501 -0.00000000000E+00 -0.00000000000E+00 -0.22880004521E+03  0.22880004521E+03  0.00000000000E+00 0.  1.
         23    2    1    2    0    0 -0.33293561850E+03 -0.30025589952E+03  0.73914892020E+03  0.86923263047E+03  0.90689075318E+02 0.  0.
        254    2    1    2    0    0  0.33293561850E+03  0.30025589952E+03  0.13770818984E+04  0.17045982785E+04  0.89905561845E+03 0.  0.
        -24    2    4    4    0    0  0.35425010550E+03  0.52357544655E+03  0.13109955077E+04  0.14576696689E+04  0.80419257432E+02 0.  0.
         24    2    4    4    0    0 -0.21314486993E+02 -0.22331954703E+03  0.66086390653E+02  0.24692860960E+03  0.79248973314E+02 0.  0.
         11    1    3    3    0    0 -0.24117821567E+03 -0.21455111451E+03  0.60341908923E+03  0.68433450132E+03  0.00000000000E+00 0. -1.
        -11    1    3    3    0    0 -0.91757402837E+02 -0.85704785014E+02  0.13572983097E+03  0.18489812915E+03  0.00000000000E+00 0.  1.
          2    1    6    6  502    0  0.30890544900E+01 -0.19283069076E+03  0.74907606983E+02  0.20689216307E+03  0.00000000000E+00 0. -1.
          3    1    5    5  503    0  0.12884346027E+03  0.21916820276E+03  0.44591084607E+03  0.51329506232E+03  0.00000000000E+00 0. -1.
         -4    1    5    5    0  503  0.22540664523E+03  0.30440724379E+03  0.86508466164E+03  0.94437460660E+03  0.00000000000E+00 0.  1.
         -1    1    6    6    0  502 -0.24403541483E+02 -0.30488856266E+02 -0.88212163296E+01  0.40036446532E+02  0.00000000000E+00 0.  1.
<mgrwt>
<rscale>  0 0.14649821E+04</rscale>
<asrwt>0</asrwt>
<pdfrwt beam="1">  1        1 0.36077396E+00 0.14649821E+04</pdfrwt>
<pdfrwt beam="2">  1       -1 0.35200009E-01 0.14649821E+04</pdfrwt>
<totfact> 0.12941744E+01</totfact>
</mgrwt>
</event>
<event>
12    1  0.2019083E-007  0.2363941E+04  0.7818608E-02  0.8453128E-01
         -1   -1    0    0    0  501 -0.00000000000E+00  0.00000000000E+00  0.27785815954E+04  0.27785815954E+04  0.00000000000E+00 0.  1.
          1   -1    0    0  501    0  0.00000000000E+00 -0.00000000000E+00 -0.50279411286E+03  0.50279411286E+03  0.00000000000E+00 0. -1.
         23    2    1    2    0    0  0.96650129693E+03  0.21464965417E+02  0.57804287636E+03  0.11299654160E+04  0.90015402377E+02 0.  0.
        254    2    1    2    0    0 -0.96650129693E+03 -0.21464965417E+02  0.16977446062E+04  0.21514102923E+04  0.90091286829E+03 0.  0.
        -24    2    4    4    0    0 -0.23350003347E+03 -0.34220288534E+03  0.23732576468E+03  0.48399229994E+03  0.79372208304E+02 0.  0.
         24    2    4    4    0    0 -0.73300126346E+03  0.32073791992E+03  0.14604188415E+04  0.16674179923E+04  0.85416058897E+02 0.  0.
         13    1    3    3    0    0  0.18707097835E+03  0.39511386145E+02  0.11978498675E+03  0.22562168253E+03  0.00000000000E+00 0. -1.
        -13    1    3    3    0    0  0.77943031858E+03 -0.18046420728E+02  0.45825788961E+03  0.90434373344E+03  0.00000000000E+00 0.  1.
          4    1    6    6  502    0 -0.37977826365E+03  0.20232594189E+03  0.83803778503E+03  0.94205872718E+03  0.00000000000E+00 0. -1.
          1    1    5    5  503    0 -0.77641052213E+02 -0.55357887934E+02  0.54353766753E+02  0.10975864752E+03  0.00000000000E+00 0. -1.
         -2    1    5    5    0  503 -0.15585898126E+03 -0.28684499741E+03  0.18297199793E+03  0.37423365242E+03  0.00000000000E+00 0.  1.
         -3    1    6    6    0  502 -0.35322299981E+03  0.11841197803E+03  0.62238105644E+03  0.72535926516E+03  0.00000000000E+00 0.  1.
<mgrwt>
<rscale>  0 0.23639412E+04</rscale>
<asrwt>0</asrwt>
<pdfrwt beam="1">  1        1 0.77352942E-01 0.23639412E+04</pdfrwt>
<pdfrwt beam="2">  1       -1 0.42747408E+00 0.23639412E+04</pdfrwt>
<totfact> 0.18305372E-01</totfact>
</mgrwt>
</event>
<event>
12    1  0.2019083E-007  0.1494416E+04  0.7818608E-02  0.8888175E-01
         -2   -1    0    0    0  501 -0.00000000000E+00  0.00000000000E+00  0.83690784597E+03  0.83690784597E+03  0.00000000000E+00 0.  1.
          2   -1    0    0  501    0  0.00000000000E+00 -0.00000000000E+00 -0.66712243267E+03  0.66712243267E+03  0.00000000000E+00 0. -1.
         23    2    1    2    0    0 -0.40549684210E+03  0.23226002686E+03  0.98647962653E+02  0.48569197814E+03  0.88277222811E+02 0.  0.
        254    2    1    2    0    0  0.40549684210E+03 -0.23226002686E+03  0.71137450644E+02  0.10183383005E+04  0.90198666750E+03 0.  0.
        -24    2    4    4    0    0  0.44137463328E+02  0.28520713032E+03 -0.16277416511E+03  0.34120679722E+03  0.81458129023E+02 0.  0.
         24    2    4    4    0    0  0.36135937877E+03 -0.51746715718E+03  0.23391161576E+03  0.67713150328E+03  0.73753436272E+02 0.  0.
         11    1    3    3    0    0 -0.29975754585E+03  0.15667417815E+03  0.32331326872E+02  0.33977448269E+03  0.00000000000E+00 0. -1.
        -11    1    3    3    0    0 -0.10573929625E+03  0.75585848710E+02  0.66316635782E+02  0.14591749545E+03  0.00000000000E+00 0.  1.
          2    1    6    6  502    0  0.28676272567E+03 -0.35841580669E+03  0.15426672857E+03  0.48424474686E+03  0.00000000000E+00 0. -1.
          3    1    5    5  503    0  0.18575154207E+02  0.15932849892E+03 -0.13530979267E+03  0.20985553820E+03  0.00000000000E+00 0. -1.
         -4    1    5    5    0  503  0.25562309121E+02  0.12587863140E+03 -0.27464372444E+02  0.13135125902E+03  0.00000000000E+00 0.  1.
         -1    1    6    6    0  502  0.74596653100E+02 -0.15905135049E+03  0.79644887185E+02  0.19288675642E+03  0.00000000000E+00 0.  1.
<mgrwt>
<rscale>  0 0.14944163E+04</rscale>
<asrwt>0</asrwt>
<pdfrwt beam="1">  1        2 0.10263422E+00 0.14944163E+04</pdfrwt>
<pdfrwt beam="2">  1       -2 0.12875505E+00 0.14944163E+04</pdfrwt>
<totfact> 0.18718943E+01</totfact>
</mgrwt>
</event>
<event>
12    1  0.2019083E-007  0.2014641E+04  0.7818608E-02  0.8599806E-01
         -1   -1    0    0    0  501 -0.00000000000E+00  0.00000000000E+00  0.82155957318E+03  0.82155957318E+03  0.00000000000E+00 0.  1.
          1   -1    0    0  501    0  0.00000000000E+00 -0.00000000000E+00 -0.12350835956E+04  0.12350835956E+04  0.00000000000E+00 0. -1.
         23    2    1    2    0    0 -0.61350023527E+02 -0.72632216263E+03  0.17453346616E+03  0.75553722283E+03  0.95220034380E+02 0.  0.
        254    2    1    2    0    0  0.61350023527E+02  0.72632216263E+03 -0.58805748857E+03  0.13011059460E+04  0.90319287165E+03 0.  0.
        -24    2    4    4    0    0  0.33552164820E+03  0.75476490318E+03 -0.26979850919E+03  0.87257919965E+03  0.79739504750E+02 0.  0.
         24    2    4    4    0    0 -0.27417162467E+03 -0.28442740550E+02 -0.31825897939E+03  0.42852674630E+03  0.79795520343E+02 0.  0.
         11    1    3    3    0    0 -0.59918570527E+02 -0.45437208892E+03  0.67369725784E+02  0.46323094698E+03  0.00000000000E+00 0. -1.
        -11    1    3    3    0    0 -0.14314530009E+01 -0.27195007371E+03  0.10716374038E+03  0.29230627585E+03  0.00000000000E+00 0.  1.
          2    1    6    6  502    0 -0.85692165220E+02 -0.22164654982E+02 -0.53344561194E+02  0.10334438214E+03  0.00000000000E+00 0. -1.
          3    1    5    5  503    0  0.20883545673E+02  0.62094500371E+02 -0.41857790873E+00  0.65513545650E+02  0.00000000000E+00 0. -1.
         -4    1    5    5    0  503  0.31463810253E+03  0.69267040281E+03 -0.26937993128E+03  0.80706565400E+03  0.00000000000E+00 0.  1.
         -1    1    6    6    0  502 -0.18847945945E+03 -0.62780855678E+01 -0.26491441820E+03  0.32518236416E+03  0.00000000000E+00 0.  1.
<mgrwt>
<rscale>  0 0.20146412E+04</rscale>
<asrwt>0</asrwt>
<pdfrwt beam="1">  1        1 0.19001286E+00 0.20146412E+04</pdfrwt>
<pdfrwt beam="2">  1       -1 0.12639378E+00 0.20146412E+04</pdfrwt>
<totfact> 0.50812307E+00</totfact>
</mgrwt>
</event>
<event>
12    1  0.2019083E-007  0.1906326E+04  0.7818608E-02  0.8651714E-01
          2   -1    0    0  501    0  0.00000000000E+00  0.00000000000E+00  0.24868045666E+04  0.24868045666E+04  0.00000000000E+00 0. -1.
         -2   -1    0    0    0  501 -0.00000000000E+00 -0.00000000000E+00 -0.36533627889E+03  0.36533627889E+03  0.00000000000E+00 0.  1.
         23    2    1    2    0    0 -0.43565999266E+03  0.55569162510E+03  0.50942782097E+03  0.87522373718E+03  0.88921729261E+02 0.  0.
        254    2    1    2    0    0  0.43565999266E+03 -0.55569162510E+03  0.16120404667E+04  0.19769171083E+04  0.90051872567E+03 0.  0.
        -24    2    4    4    0    0  0.65764735511E+03 -0.28319140428E+03  0.13578955521E+04  0.15368575654E+04  0.73167142414E+02 0.  0.
         24    2    4    4    0    0 -0.22198736244E+03 -0.27250022082E+03  0.25414491462E+03  0.44005954291E+03  0.74350549721E+02 0.  0.
         11    1    3    3    0    0 -0.29535323097E+03  0.34458662124E+03  0.27954021408E+03  0.53302551709E+03  0.00000000000E+00 0.  1.
        -11    1    3    3    0    0 -0.14030676169E+03  0.21110500386E+03  0.22988760689E+03  0.34219822009E+03  0.00000000000E+00 0. -1.
          4    1    6    6  502    0 -0.16925528071E+03 -0.20896687129E+03  0.23048052490E+03  0.35416913432E+03  0.00000000000E+00 0. -1.
          1    1    5    5  503    0  0.21377158327E+03 -0.97129520528E+02  0.37490219504E+03  0.44236194391E+03  0.00000000000E+00 0. -1.
         -2    1    5    5    0  503  0.44387577184E+03 -0.18606188375E+03  0.98299335703E+03  0.10944956215E+04  0.00000000000E+00 0.  1.
         -3    1    6    6    0  502 -0.52732081734E+02 -0.63533349533E+02  0.23664389718E+02  0.85890408589E+02  0.00000000000E+00 0.  1.
<mgrwt>
<rscale>  0 0.19063262E+04</rscale>
<asrwt>0</asrwt>
<pdfrwt beam="1">  1        2 0.38258531E+00 0.19063262E+04</pdfrwt>
<pdfrwt beam="2">  1       -2 0.56205583E-01 0.19063262E+04</pdfrwt>
<totfact> 0.98626385E+00</totfact>
</mgrwt>
</event>
<event>
12    1  0.2019083E-007  0.2862058E+04  0.7818608E-02  0.8284257E-01
         -1   -1    0    0    0  501 -0.00000000000E+00  0.00000000000E+00  0.95140203937E+03  0.95140203937E+03  0.00000000000E+00 0.  1.
          1   -1    0    0  501    0  0.00000000000E+00 -0.00000000000E+00 -0.21524491039E+04  0.21524491039E+04  0.00000000000E+00 0. -1.
         23    2    1    2    0    0 -0.12739302495E+04  0.23119625656E+00 -0.34670607784E+03  0.13234692537E+04  0.92018623295E+02 0.  0.
        254    2    1    2    0    0  0.12739302495E+04 -0.23119625656E+00 -0.85434098665E+03  0.17803818896E+04  0.90385995446E+03 0.  0.
        -24    2    4    4    0    0  0.13857797180E+04  0.16034465957E+02 -0.64728572728E+03  0.15315891894E+04  0.78384318375E+02 0.  0.
         24    2    4    4    0    0 -0.11184946853E+03 -0.16265662214E+02 -0.20705525937E+03  0.24879270019E+03  0.79063593749E+02 0.  0.
         11    1    3    3    0    0 -0.35418552168E+03  0.14233596518E+02 -0.13693877458E+03  0.38000290396E+03  0.00000000000E+00 0. -1.
        -11    1    3    3    0    0 -0.91974472779E+03 -0.14002400261E+02 -0.20976730326E+03  0.94346634970E+03  0.00000000000E+00 0.  1.
          4    1    6    6  502    0 -0.12046459881E+03 -0.24318356048E+01 -0.19157499434E+03  0.22631529300E+03  0.00000000000E+00 0. -1.
          1    1    5    5  503    0  0.74488952205E+03  0.28905989187E+02 -0.38482038997E+03  0.83891756973E+03  0.00000000000E+00 0. -1.
         -2    1    5    5    0  503  0.64089019595E+03 -0.12871523229E+02 -0.26246533731E+03  0.69267161965E+03  0.00000000000E+00 0.  1.
         -3    1    6    6    0  502  0.86151302787E+01 -0.13833826609E+02 -0.15480265028E+02  0.22477407184E+02  0.00000000000E+00 0.  1.
<mgrwt>
<rscale>  0 0.28620583E+04</rscale>
<asrwt>0</asrwt>
<pdfrwt beam="1">  1        1 0.33114601E+00 0.28620583E+04</pdfrwt>
<pdfrwt beam="2">  1       -1 0.14636955E+00 0.28620583E+04</pdfrwt>
<totfact> 0.75310675E-01</totfact>
</mgrwt>
</event>
<event>
12    1  0.2019083E-007  0.1874918E+04  0.7818608E-02  0.8667443E-01
         -2   -1    0    0    0  501 -0.00000000000E+00  0.00000000000E+00  0.42649052313E+03  0.42649052313E+03  0.00000000000E+00 0. -1.
          2   -1    0    0  501    0  0.00000000000E+00 -0.00000000000E+00 -0.20606069377E+04  0.20606069377E+04  0.00000000000E+00 0.  1.
         23    2    1    2    0    0  0.40875035668E+03 -0.37595052606E+03 -0.12361454815E+04  0.13580224564E+04  0.88055031535E+02 0.  0.
        254    2    1    2    0    0 -0.40875035668E+03  0.37595052606E+03 -0.39797093312E+03  0.11290750045E+04  0.89889590607E+03 0.  0.
        -24    2    4    4    0    0  0.17477824405E+03  0.22087292073E+03  0.13281715328E+03  0.32121812903E+03  0.78793454730E+02 0.  0.
         24    2    4    4    0    0 -0.58352860074E+03  0.15507760533E+03 -0.53078808640E+03  0.80785687542E+03  0.79636969798E+02 0.  0.
         13    1    3    3    0    0  0.12910404963E+03 -0.98620037729E+02 -0.45647271136E+03  0.48452152036E+03  0.00000000000E+00 0.  1.
        -13    1    3    3    0    0  0.27964630706E+03 -0.27733048833E+03 -0.77967277010E+03  0.87350093603E+03  0.00000000000E+00 0. -1.
          2    1    6    6  502    0 -0.20753020620E+03  0.44146340174E+02 -0.13919333319E+03  0.25375671388E+03  0.00000000000E+00 0. -1.
          1    1    5    5  503    0  0.99188955316E+01  0.96182852371E+01 -0.10479738332E+02  0.17341303728E+02  0.00000000000E+00 0. -1.
         -2    1    5    5    0  503  0.16485934852E+03  0.21125463550E+03  0.14329689161E+03  0.30387682531E+03  0.00000000000E+00 0.  1.
         -1    1    6    6    0  502 -0.37599839454E+03  0.11093126516E+03 -0.39159475320E+03  0.55410016154E+03  0.00000000000E+00 0.  1.
<mgrwt>
<rscale>  0 0.18749180E+04</rscale>
<asrwt>0</asrwt>
<pdfrwt beam="1">  1        2 0.31701645E+00 0.18749180E+04</pdfrwt>
<pdfrwt beam="2">  1       -2 0.65613927E-01 0.18749180E+04</pdfrwt>
<totfact> 0.12409944E+01</totfact>
</mgrwt>
</event>
<event>
12    1  0.2019083E-007  0.1615863E+04  0.7818608E-02  0.8810862E-01
         -2   -1    0    0    0  501 -0.00000000000E+00  0.00000000000E+00  0.20473910349E+03  0.20473910349E+03  0.00000000000E+00 0.  1.
          2   -1    0    0  501    0  0.00000000000E+00 -0.00000000000E+00 -0.31882189643E+04  0.31882189643E+04  0.00000000000E+00 0. -1.
         23    2    1    2    0    0 -0.53135329613E+03  0.12830930337E+03 -0.86025915300E+03  0.10232006420E+04  0.89967443368E+02 0.  0.
        254    2    1    2    0    0  0.53135329613E+03 -0.12830930337E+03 -0.21232207078E+04  0.23697574258E+04  0.89938005329E+03 0.  0.
        -24    2    4    4    0    0  0.18422608357E+03 -0.49928294236E+03 -0.11088640466E+04  0.12325101279E+04  0.79240364128E+02 0.  0.
         24    2    4    4    0    0  0.34712721255E+03  0.37097363898E+03 -0.10143566612E+04  0.11372472978E+04  0.79329929322E+02 0.  0.
         11    1    3    3    0    0 -0.43889200754E+03  0.88106254734E+02 -0.64062233557E+03  0.78152791584E+03  0.00000000000E+00 0.  1.
        -11    1    3    3    0    0 -0.92461288589E+02  0.40203048637E+02 -0.21963681744E+03  0.24167272618E+03  0.00000000000E+00 0. -1.
          2    1    6    6  502    0  0.15207768598E+03  0.11048609869E+03 -0.40265976374E+03  0.44437561354E+03  0.00000000000E+00 0. -1.
          1    1    5    5  503    0  0.56419349806E+02 -0.10143226770E+03 -0.30875885698E+03  0.32985402791E+03  0.00000000000E+00 0. -1.
         -2    1    5    5    0  503  0.12780673377E+03 -0.39785067465E+03 -0.80010518959E+03  0.90265610003E+03  0.00000000000E+00 0.  1.
         -1    1    6    6    0  502  0.19504952658E+03  0.26048754029E+03 -0.61169689748E+03  0.69287168427E+03  0.00000000000E+00 0.  1.
<mgrwt>
<rscale>  0 0.16158627E+04</rscale>
<asrwt>0</asrwt>
<pdfrwt beam="1">  1        2 0.49049521E+00 0.16158627E+04</pdfrwt>
<pdfrwt beam="2">  1       -2 0.31498325E-01 0.16158627E+04</pdfrwt>
<totfact> 0.11922536E+01</totfact>
</mgrwt>
</event>
<event>
12    1  0.2019083E-007  0.1179005E+04  0.7818608E-02  0.9131435E-01
          2   -1    0    0  501    0  0.00000000000E+00  0.00000000000E+00  0.10248913818E+04  0.10248913818E+04  0.00000000000E+00 0. -1.
         -2   -1    0    0    0  501 -0.00000000000E+00 -0.00000000000E+00 -0.33907308253E+03  0.33907308253E+03  0.00000000000E+00 0.  1.
         23    2    1    2    0    0  0.54427465698E+02  0.18260032625E+03  0.29822306769E+03  0.36559122674E+03  0.91731776383E+02 0.  0.
        254    2    1    2    0    0 -0.54427465698E+02 -0.18260032625E+03  0.38759523158E+03  0.99837323758E+03  0.90011878650E+03 0.  0.
        -24    2    4    4    0    0 -0.79488629617E+01 -0.35878552359E+02 -0.28796221598E+03  0.30104949577E+03  0.79737733379E+02 0.  0.
         24    2    4    4    0    0 -0.46478602736E+02 -0.14672177389E+03  0.67555744757E+03  0.69732374182E+03  0.78708300027E+02 0.  0.
         11    1    3    3    0    0  0.38136236131E+01  0.79974203076E+02  0.56018480902E+02  0.97716360377E+02  0.00000000000E+00 0.  1.
        -11    1    3    3    0    0  0.50613842085E+02  0.10262612317E+03  0.24220458679E+03  0.26787486636E+03  0.00000000000E+00 0. -1.
          2    1    6    6  502    0 -0.51324624723E+02 -0.10419323118E+03  0.34546038297E+03  0.36446306086E+03  0.00000000000E+00 0. -1.
          1    1    5    5  503    0  0.27070629067E+00 -0.55827587471E+02 -0.25891582436E+03  0.26486637557E+03  0.00000000000E+00 0. -1.
         -2    1    5    5    0  503 -0.82195692524E+01  0.19949035112E+02 -0.29046391630E+02  0.36183120199E+02  0.00000000000E+00 0.  1.
         -1    1    6    6    0  502  0.48460219868E+01 -0.42528542705E+02  0.33009706460E+03  0.33286068096E+03  0.00000000000E+00 0.  1.
<mgrwt>
<rscale>  0 0.11790048E+04</rscale>
<asrwt>0</asrwt>
<pdfrwt beam="1">  1        2 0.15767560E+00 0.11790048E+04</pdfrwt>
<pdfrwt beam="2">  1       -2 0.52165090E-01 0.11790048E+04</pdfrwt>
<totfact> 0.83217894E+01</totfact>
</mgrwt>
</event>
<event>
12    1  0.2019083E-007  0.3947239E+04  0.7818608E-02  0.8015275E-01
          2   -1    0    0  501    0  0.00000000000E+00  0.00000000000E+00  0.23894214122E+04  0.23894214122E+04  0.00000000000E+00 0. -1.
         -2   -1    0    0    0  501 -0.00000000000E+00 -0.00000000000E+00 -0.16301748855E+04  0.16301748855E+04  0.00000000000E+00 0.  1.
         23    2    1    2    0    0 -0.59841968196E+03 -0.62577874651E+03  0.20485426517E+04  0.22252521334E+04  0.74262412751E+02 0.  0.
        254    2    1    2    0    0  0.59841968196E+03  0.62577874651E+03 -0.12892961249E+04  0.17943441643E+04  0.89871092516E+03 0.  0.
        -24    2    4    4    0    0  0.40113881658E+03  0.34118798251E+03 -0.13334307716E+04  0.14358017482E+04  0.78533100785E+02 0.  0.
         24    2    4    4    0    0  0.19728086538E+03  0.28459076400E+03  0.44134646652E+02  0.35854241615E+03  0.81811700567E+02 0.  0.
         13    1    3    3    0    0 -0.26015033282E+03 -0.27617460136E+03  0.99261883139E+03  0.10626583414E+04  0.00000000000E+00 0. -1.
        -13    1    3    3    0    0 -0.33826934914E+03 -0.34960414514E+03  0.10559238203E+04  0.11625937920E+04  0.00000000000E+00 0.  1.
          2    1    6    6  502    0  0.12218933906E+02 -0.27026383366E+01 -0.46271086185E+01  0.13342291181E+02  0.00000000000E+00 0. -1.
          1    1    5    5  503    0  0.49675623548E+02  0.81209571605E+02 -0.22953162165E+03  0.24849029645E+03  0.00000000000E+00 0. -1.
         -2    1    5    5    0  503  0.35146319303E+03  0.25997841091E+03 -0.11038991499E+04  0.11873114517E+04  0.00000000000E+00 0.  1.
         -1    1    6    6    0  502  0.18506193147E+03  0.28729340233E+03  0.48761755271E+02  0.34520012497E+03  0.00000000000E+00 0.  1.
<mgrwt>
<rscale>  0 0.39472394E+04</rscale>
<asrwt>0</asrwt>
<pdfrwt beam="1">  1        2 0.36760329E+00 0.39472394E+04</pdfrwt>
<pdfrwt beam="2">  1       -2 0.25079614E+00 0.39472394E+04</pdfrwt>
<totfact> 0.20294876E-01</totfact>
</mgrwt>
</event>
<event>
12    1  0.2019083E-007  0.1162403E+04  0.7818608E-02  0.9146417E-01
         -2   -1    0    0    0  501 -0.00000000000E+00  0.00000000000E+00  0.14469156722E+03  0.14469156722E+03  0.00000000000E+00 0.  1.
          2   -1    0    0  501    0  0.00000000000E+00 -0.00000000000E+00 -0.23345862031E+04  0.23345862031E+04  0.00000000000E+00 0. -1.
         23    2    1    2    0    0 -0.10365271036E+03 -0.13091529287E+03 -0.74346933936E+03  0.76713818192E+03  0.88722225631E+02 0.  0.
        254    2    1    2    0    0  0.10365271036E+03  0.13091529287E+03 -0.14464252965E+04  0.17121395884E+04  0.90077363056E+03 0.  0.
        -24    2    4    4    0    0  0.23169924037E+03  0.69968690644E+02  0.25086433117E+01  0.25400915743E+03  0.77033779034E+02 0.  0.
         24    2    4    4    0    0 -0.12804653000E+03  0.60946602223E+02 -0.14489339398E+04  0.14581304310E+04  0.81390353017E+02 0.  0.
         11    1    3    3    0    0 -0.93647486085E+02 -0.12558427958E+03 -0.73819506999E+03  0.75463449714E+03  0.00000000000E+00 0. -1.
        -11    1    3    3    0    0 -0.10005224279E+02 -0.53310132839E+01 -0.52742693689E+01  0.12503684772E+02  0.00000000000E+00 0.  1.
          2    1    6    6  502    0 -0.10993609202E+03  0.65203601864E+02 -0.91632982117E+03  0.92520148897E+03  0.00000000000E+00 0. -1.
          1    1    5    5  503    0  0.22529322933E+03  0.52164767578E+02 -0.97582873345E+01  0.23145934055E+03  0.00000000000E+00 0. -1.
         -2    1    5    5    0  503  0.64060110410E+01  0.17803923066E+02  0.12266930646E+02  0.22549816884E+02  0.00000000000E+00 0.  1.
         -1    1    6    6    0  502 -0.18110437982E+02 -0.42569996409E+01 -0.53260411868E+03  0.53292894202E+03  0.00000000000E+00 0.  1.
<mgrwt>
<rscale>  0 0.11624026E+04</rscale>
<asrwt>0</asrwt>
<pdfrwt beam="1">  1        2 0.35916710E+00 0.11624026E+04</pdfrwt>
<pdfrwt beam="2">  1       -2 0.22260242E-01 0.11624026E+04</pdfrwt>
<totfact> 0.76152096E+01</totfact>
</mgrwt>
</event>
<event>
12    1  0.2019083E-007  0.1628506E+04  0.7818608E-02  0.8803225E-01
         -1   -1    0    0    0  501 -0.00000000000E+00  0.00000000000E+00  0.67916223615E+03  0.67916223615E+03  0.00000000000E+00 0.  1.
          1   -1    0    0  501    0  0.00000000000E+00 -0.00000000000E+00 -0.97621398324E+03  0.97621398324E+03  0.00000000000E+00 0. -1.
         23    2    1    2    0    0 -0.20831686479E+02  0.46633420818E+03 -0.42052990334E+03  0.63472943271E+03  0.90191464490E+02 0.  0.
        254    2    1    2    0    0  0.20831686479E+02 -0.46633420818E+03  0.12347815626E+03  0.10206467867E+04  0.89920601378E+03 0.  0.
        -24    2    4    4    0    0 -0.37077755897E+02 -0.14519956962E+03  0.49235515073E+03  0.52124933725E+03  0.82641406908E+02 0.  0.
         24    2    4    4    0    0  0.57909442376E+02 -0.32113463856E+03 -0.36887699447E+03  0.49939744943E+03  0.82744279869E+02 0.  0.
         13    1    3    3    0    0  0.15124180864E+01  0.43635259795E+03 -0.40060615343E+03  0.59236067333E+03  0.00000000000E+00 0.  1.
        -13    1    3    3    0    0 -0.22344104565E+02  0.29981610227E+02 -0.19923749913E+02  0.42368759378E+02  0.00000000000E+00 0. -1.
          4    1    6    6  502    0  0.78426698120E+02 -0.25653690266E+03 -0.30611570771E+03  0.40702426943E+03  0.00000000000E+00 0. -1.
          3    1    5    5  503    0 -0.39685612236E+02 -0.30338950709E+02  0.22098022488E+03  0.22655608475E+03  0.00000000000E+00 0. -1.
         -4    1    5    5    0  503  0.26078563390E+01 -0.11486061891E+03  0.27137492585E+03  0.29469325250E+03  0.00000000000E+00 0.  1.
         -3    1    6    6    0  502 -0.20517255744E+02 -0.64597735899E+02 -0.62761286767E+02  0.92373179999E+02  0.00000000000E+00 0.  1.
<mgrwt>
<rscale>  0 0.16285057E+04</rscale>
<asrwt>0</asrwt>
<pdfrwt beam="1">  1        1 0.15018677E+00 0.16285057E+04</pdfrwt>
<pdfrwt beam="2">  1       -1 0.10448650E+00 0.16285057E+04</pdfrwt>
<totfact> 0.13025883E+01</totfact>
</mgrwt>
</event>
<event>
12    1  0.2019083E-007  0.1480581E+04  0.7818608E-02  0.8897470E-01
          2   -1    0    0  501    0  0.00000000000E+00  0.00000000000E+00  0.17401906438E+04  0.17401906438E+04  0.00000000000E+00 0. -1.
         -2   -1    0    0    0  501 -0.00000000000E+00 -0.00000000000E+00 -0.31492515419E+03  0.31492515419E+03  0.00000000000E+00 0.  1.
         23    2    1    2    0    0  0.19191362190E+03 -0.31086638078E+03  0.64515091975E+02  0.38147368792E+03  0.88832609524E+02 0.  0.
        254    2    1    2    0    0 -0.19191362190E+03  0.31086638078E+03  0.13607503976E+04  0.16736421100E+04  0.90330920670E+03 0.  0.
        -24    2    4    4    0    0 -0.22263068001E+03 -0.28473081863E+03  0.48309304815E+03  0.60940669395E+03  0.85799572859E+02 0.  0.
         24    2    4    4    0    0  0.30717058109E+02  0.59559719941E+03  0.87765734946E+03  0.10642354161E+04  0.81455731445E+02 0.  0.
         13    1    3    3    0    0  0.95724813370E+02 -0.14350690677E+03  0.75120216212E+02  0.18815025663E+03  0.00000000000E+00 0.  1.
        -13    1    3    3    0    0  0.96188808528E+02 -0.16735947401E+03 -0.10605124238E+02  0.19332343130E+03  0.00000000000E+00 0. -1.
          2    1    6    6  502    0  0.57400158485E+02  0.39330198904E+03  0.59833572793E+03  0.71832226479E+03  0.00000000000E+00 0. -1.
          1    1    5    5  503    0 -0.16200486533E+03 -0.25836089207E+03  0.40770762951E+03  0.50913793622E+03  0.00000000000E+00 0. -1.
         -2    1    5    5    0  503 -0.60625814682E+02 -0.26369926556E+02  0.75385418644E+02  0.10026875773E+03  0.00000000000E+00 0.  1.
         -1    1    6    6    0  502 -0.26683100376E+02  0.20229521036E+03  0.27932162152E+03  0.34591315129E+03  0.00000000000E+00 0.  1.
<mgrwt>
<rscale>  0 0.14805807E+04</rscale>
<asrwt>0</asrwt>
<pdfrwt beam="1">  1        2 0.26772163E+00 0.14805807E+04</pdfrwt>
<pdfrwt beam="2">  1       -2 0.48450024E-01 0.14805807E+04</pdfrwt>
<totfact> 0.36363621E+01</totfact>
</mgrwt>
</event>
<event>
12    1  0.2019083E-007  0.3466109E+04  0.7818608E-02  0.8121869E-01
          2   -1    0    0  501    0  0.00000000000E+00  0.00000000000E+00  0.37824950170E+04  0.37824950170E+04  0.00000000000E+00 0.  1.
         -2   -1    0    0    0  501 -0.00000000000E+00 -0.00000000000E+00 -0.79404669885E+03  0.79404669885E+03  0.00000000000E+00 0. -1.
         23    2    1    2    0    0  0.42424548043E+02 -0.10272214399E+04  0.30418605129E+04  0.32122091884E+04  0.91590183085E+02 0.  0.
        254    2    1    2    0    0 -0.42424548043E+02  0.10272214399E+04 -0.53412194731E+02  0.13643325274E+04  0.89530254880E+03 0.  0.
        -24    2    4    4    0    0  0.31830146283E+02 -0.63923011213E+02 -0.23045131680E+03  0.25375869617E+03  0.78653397192E+02 0.  0.
         24    2    4    4    0    0 -0.74254694327E+02  0.10911444511E+04  0.17703912207E+03  0.11105738312E+04  0.76950705196E+02 0.  0.
         13    1    3    3    0    0  0.69220409655E+02 -0.65693730174E+03  0.19868174013E+04  0.20937529629E+04  0.00000000000E+00 0. -1.
        -13    1    3    3    0    0 -0.26795861612E+02 -0.37028413817E+03  0.10550431116E+04  0.11184562255E+04  0.00000000000E+00 0.  1.
          4    1    6    6  502    0 -0.69316298678E+02  0.45866840353E+03  0.74754208218E+02  0.46986130433E+03  0.00000000000E+00 0. -1.
          3    1    5    5  503    0  0.51934970904E+02 -0.55440813172E+02 -0.12662831508E+03  0.14766738011E+03  0.00000000000E+00 0. -1.
         -4    1    5    5    0  503 -0.20104824621E+02 -0.84821980413E+01 -0.10382300172E+03  0.10609131606E+03  0.00000000000E+00 0.  1.
         -3    1    6    6    0  502 -0.49383956487E+01  0.63247604758E+03  0.10228491385E+03  0.64071252689E+03  0.00000000000E+00 0.  1.
<mgrwt>
<rscale>  0 0.34661089E+04</rscale>
<asrwt>0</asrwt>
<pdfrwt beam="1">  1        2 0.58192230E+00 0.34661089E+04</pdfrwt>
<pdfrwt beam="2">  1       -2 0.12216103E+00 0.34661089E+04</pdfrwt>
<totfact> 0.21146744E-01</totfact>
</mgrwt>
</event>
<event>
12    1  0.2019083E-007  0.3891741E+04  0.7818608E-02  0.8026749E-01
         -2   -1    0    0    0  501 -0.00000000000E+00  0.00000000000E+00  0.76309618006E+03  0.76309618006E+03  0.00000000000E+00 0.  1.
          2   -1    0    0  501    0  0.00000000000E+00 -0.00000000000E+00 -0.49619055270E+04  0.49619055270E+04  0.00000000000E+00 0. -1.
         23    2    1    2    0    0 -0.16739096484E+04  0.63242070928E+03 -0.13520276024E+04  0.22445405303E+04  0.89744580832E+02 0.  0.
        254    2    1    2    0    0  0.16739096484E+04 -0.63242070928E+03 -0.28467817445E+04  0.34804611768E+04  0.89861795985E+03 0.  0.
        -24    2    4    4    0    0  0.30254467222E+03  0.73025326526E+01 -0.75901828946E+02  0.32228773353E+03  0.80756980365E+02 0.  0.
         24    2    4    4    0    0  0.13713649762E+04 -0.63972324193E+03 -0.27708799156E+04  0.31581734433E+04  0.79976665860E+02 0.  0.
         11    1    3    3    0    0 -0.10629772808E+04  0.37904744537E+03 -0.80471097969E+03  0.13860582333E+04  0.00000000000E+00 0. -1.
        -11    1    3    3    0    0 -0.61093236757E+03  0.25337326391E+03 -0.54731662275E+03  0.85848229693E+03  0.00000000000E+00 0.  1.
          4    1    6    6  502    0  0.10925072233E+04 -0.49822297499E+03 -0.22603266369E+04  0.25594676539E+04  0.00000000000E+00 0. -1.
          1    1    5    5  503    0  0.14788780987E+03 -0.37056668591E+01  0.37395071364E+01  0.14798148597E+03  0.00000000000E+00 0. -1.
         -2    1    5    5    0  503  0.15465686235E+03  0.11008199512E+02 -0.79641336083E+02  0.17430624756E+03  0.00000000000E+00 0.  1.
         -3    1    6    6    0  502  0.27885775286E+03 -0.14150026694E+03 -0.51055327864E+03  0.59870578936E+03  0.00000000000E+00 0.  1.
<mgrwt>
<rscale>  0 0.38917406E+04</rscale>
<asrwt>0</asrwt>
<pdfrwt beam="1">  1        2 0.76337010E+00 0.38917406E+04</pdfrwt>
<pdfrwt beam="2">  1       -2 0.11739941E+00 0.38917406E+04</pdfrwt>
<totfact> 0.16909344E-02</totfact>
</mgrwt>
</event>
<event>
12    1  0.2019083E-007  0.1676110E+04  0.7818608E-02  0.8775108E-01
          2   -1    0    0  501    0  0.00000000000E+00  0.00000000000E+00  0.13692635863E+04  0.13692635863E+04  0.00000000000E+00 0. -1.
         -2   -1    0    0    0  501 -0.00000000000E+00 -0.00000000000E+00 -0.51292972432E+03  0.51292972432E+03  0.00000000000E+00 0.  1.
         23    2    1    2    0    0  0.33462182855E+03 -0.16690127158E+03 -0.21025051382E+03  0.43874502173E+03  0.92000613786E+02 0.  0.
        254    2    1    2    0    0 -0.33462182855E+03  0.16690127158E+03  0.10665843758E+04  0.14434482888E+04  0.89783791932E+03 0.  0.
        -24    2    4    4    0    0 -0.55345894912E+03 -0.24252365645E+02  0.98320296117E+03  0.11313150313E+04  0.79250562251E+02 0.  0.
         24    2    4    4    0    0  0.21883712056E+03  0.19115363722E+03  0.83381414580E+02  0.31213325753E+03  0.77751603194E+02 0.  0.
         11    1    3    3    0    0  0.33469273948E+03 -0.17410521690E+03 -0.20941257962E+03  0.43149216090E+03  0.00000000000E+00 0.  1.
        -11    1    3    3    0    0 -0.70910922922E-01  0.72039453250E+01 -0.83793419394E+00  0.72528608368E+01  0.00000000000E+00 0. -1.
          2    1    6    6  502    0  0.63511025417E+02  0.70858730989E+02  0.64091446938E+02  0.11472717062E+03  0.00000000000E+00 0. -1.
          1    1    5    5  503    0 -0.47800792757E+02  0.15427813018E+02  0.12058575270E+03  0.13062869882E+03  0.00000000000E+00 0. -1.
         -4    1    5    5    0  503 -0.50565815636E+03 -0.39680178663E+02  0.86261720848E+03  0.10006863325E+04  0.00000000000E+00 0.  1.
         -1    1    6    6    0  502  0.15532609515E+03  0.12029490623E+03  0.19289967642E+02  0.19740608692E+03  0.00000000000E+00 0.  1.
<mgrwt>
<rscale>  0 0.16761098E+04</rscale>
<asrwt>0</asrwt>
<pdfrwt beam="1">  1        2 0.21065593E+00 0.16761098E+04</pdfrwt>
<pdfrwt beam="2">  1       -2 0.78912266E-01 0.16761098E+04</pdfrwt>
<totfact> 0.20481855E+01</totfact>
</mgrwt>
</event>
<event>
12    1  0.2019083E-007  0.1738041E+04  0.7818608E-02  0.8739961E-01
         -2   -1    0    0    0  501 -0.00000000000E+00  0.00000000000E+00  0.97317001032E+03  0.97317001032E+03  0.00000000000E+00 0.  1.
          2   -1    0    0  501    0  0.00000000000E+00 -0.00000000000E+00 -0.77601743438E+03  0.77601743438E+03  0.00000000000E+00 0. -1.
         23    2    1    2    0    0 -0.41147733199E+03  0.32305674896E+03  0.42825407058E+03  0.68244903747E+03  0.93036992568E+02 0.  0.
        254    2    1    2    0    0  0.41147733199E+03 -0.32305674896E+03 -0.23110149464E+03  0.10667384072E+04  0.90046858405E+03 0.  0.
        -24    2    4    4    0    0  0.56344481290E+03 -0.51070770435E+03 -0.79229359896E+02  0.76885065715E+03  0.81003858302E+02 0.  0.
         24    2    4    4    0    0 -0.15196748092E+03  0.18765095539E+03 -0.15187213475E+03  0.29788775009E+03  0.85819403549E+02 0.  0.
         13    1    3    3    0    0 -0.21780590809E+03  0.21601372089E+03  0.28588036752E+03  0.41931959857E+03  0.00000000000E+00 0.  1.
        -13    1    3    3    0    0 -0.19367142389E+03  0.10704302807E+03  0.14237370306E+03  0.26312943890E+03  0.00000000000E+00 0. -1.
          2    1    6    6  502    0 -0.39778228292E+02  0.85813378249E+02 -0.10022878218E+03  0.13781165447E+03  0.00000000000E+00 0. -1.
          1    1    5    5  503    0  0.74649030048E+02 -0.10187823943E+03  0.30063446335E+01  0.12633563022E+03  0.00000000000E+00 0. -1.
         -2    1    5    5    0  503  0.48879578285E+03 -0.40882946492E+03 -0.82235704529E+02  0.64251502692E+03  0.00000000000E+00 0.  1.
         -1    1    6    6    0  502 -0.11218925262E+03  0.10183757714E+03 -0.51643352571E+02  0.16007609561E+03  0.00000000000E+00 0.  1.
<mgrwt>
<rscale>  0 0.17380413E+04</rscale>
<asrwt>0</asrwt>
<pdfrwt beam="1">  1        2 0.11938730E+00 0.17380413E+04</pdfrwt>
<pdfrwt beam="2">  1       -2 0.14971846E+00 0.17380413E+04</pdfrwt>
<totfact> 0.10240923E+01</totfact>
</mgrwt>
</event>
<event>
12    1  0.2019083E-007  0.3920896E+04  0.7818608E-02  0.8020697E-01
         -2   -1    0    0    0  501 -0.00000000000E+00  0.00000000000E+00  0.91277623050E+03  0.91277623050E+03  0.00000000000E+00 0.  1.
          2   -1    0    0  501    0  0.00000000000E+00 -0.00000000000E+00 -0.42106218383E+04  0.42106218383E+04  0.00000000000E+00 0. -1.
         23    2    1    2    0    0  0.70779906455E+03 -0.15624936005E+04 -0.24888126777E+04  0.30239522070E+04  0.87935418526E+02 0.  0.
        254    2    1    2    0    0 -0.70779906455E+03  0.15624936005E+04 -0.80903293007E+03  0.20994458618E+04  0.90042927407E+03 0.  0.
        -24    2    4    4    0    0 -0.53630537677E+03  0.10851075635E+04 -0.90261873062E+02  0.12163938442E+04  0.79905550529E+02 0.  0.
         24    2    4    4    0    0 -0.17149368778E+03  0.47738603699E+03 -0.71877105701E+03  0.88305201765E+03  0.76429838531E+02 0.  0.
         13    1    3    3    0    0  0.30564012949E+03 -0.69912554278E+03 -0.11822034807E+04  0.14070527648E+04  0.00000000000E+00 0. -1.
        -13    1    3    3    0    0  0.40215893506E+03 -0.86336805769E+03 -0.13066091971E+04  0.16168994421E+04  0.00000000000E+00 0.  1.
          4    1    6    6  502    0 -0.67088015331E+02  0.29763667333E+03 -0.42548324461E+03  0.52356888998E+03  0.00000000000E+00 0. -1.
          1    1    5    5  503    0 -0.24250273381E+03  0.40314146680E+03 -0.38479157662E+02  0.47202888019E+03  0.00000000000E+00 0. -1.
         -2    1    5    5    0  503 -0.29380264295E+03  0.68196609668E+03 -0.51782715400E+02  0.74436496401E+03  0.00000000000E+00 0.  1.
         -3    1    6    6    0  502 -0.10440567245E+03  0.17974936366E+03 -0.29328781240E+03  0.35948312767E+03  0.00000000000E+00 0.  1.
<mgrwt>
<rscale>  0 0.39208956E+04</rscale>
<asrwt>0</asrwt>
<pdfrwt beam="1">  1        2 0.64778798E+00 0.39208956E+04</pdfrwt>
<pdfrwt beam="2">  1       -2 0.14042711E+00 0.39208956E+04</pdfrwt>
<totfact> 0.64093036E-02</totfact>
</mgrwt>
</event>
<event>
12    1  0.2019083E-007  0.1776988E+04  0.7818608E-02  0.8718633E-01
         -2   -1    0    0    0  501 -0.00000000000E+00  0.00000000000E+00  0.48836324385E+03  0.48836324385E+03  0.00000000000E+00 0.  1.
          2   -1    0    0  501    0  0.00000000000E+00 -0.00000000000E+00 -0.16164642858E+04  0.16164642858E+04  0.00000000000E+00 0. -1.
         23    2    1    2    0    0 -0.45021999064E+03 -0.45464820980E+03 -0.60562129739E+03  0.88564786527E+03  0.90509396011E+02 0.  0.
        254    2    1    2    0    0  0.45021999064E+03  0.45464820980E+03 -0.52247974459E+03  0.12191796644E+04  0.89666656900E+03 0.  0.
        -24    2    4    4    0    0  0.47717731904E+03  0.41750734247E+03 -0.74326915511E+03  0.98027361635E+03  0.80478265127E+02 0.  0.
         24    2    4    4    0    0 -0.26957328402E+02  0.37140867329E+02  0.22078941052E+03  0.23890604806E+03  0.78879619819E+02 0.  0.
         13    1    3    3    0    0 -0.19765579103E+03 -0.19032431278E+03 -0.32123486088E+03  0.42247247438E+03  0.00000000000E+00 0.  1.
        -13    1    3    3    0    0 -0.25256419961E+03 -0.26432389702E+03 -0.28438643651E+03  0.46317539089E+03  0.00000000000E+00 0. -1.
          2    1    6    6  502    0  0.80682429057E+01 -0.14800680602E+02  0.11410537937E+02  0.20355762474E+02  0.00000000000E+00 0. -1.
          3    1    5    5  503    0  0.16295987463E+03  0.13159564428E+03 -0.19064987703E+03  0.28323260749E+03  0.00000000000E+00 0. -1.
         -4    1    5    5    0  503  0.31421744441E+03  0.28591169819E+03 -0.55261927808E+03  0.69704100886E+03  0.00000000000E+00 0.  1.
         -1    1    6    6    0  502 -0.35025571308E+02  0.51941547932E+02  0.20937887258E+03  0.21855028559E+03  0.00000000000E+00 0.  1.
<mgrwt>
<rscale>  0 0.17769882E+04</rscale>
<asrwt>0</asrwt>
<pdfrwt beam="1">  1        2 0.24868682E+00 0.17769882E+04</pdfrwt>
<pdfrwt beam="2">  1       -2 0.75132806E-01 0.17769882E+04</pdfrwt>
<totfact> 0.16422867E+01</totfact>
</mgrwt>
</event>
<event>
12    1  0.2019083E-007  0.1578978E+04  0.7818608E-02  0.8833568E-01
          2   -1    0    0  501    0  0.00000000000E+00  0.00000000000E+00  0.29271435881E+04  0.29271435881E+04  0.00000000000E+00 0. -1.
         -2   -1    0    0    0  501 -0.00000000000E+00 -0.00000000000E+00 -0.21293553281E+03  0.21293553281E+03  0.00000000000E+00 0.  1.
         23    2    1    2    0    0 -0.21871626749E+03 -0.41970207011E+03  0.43964250339E+03  0.64935783365E+03  0.66282969341E+02 0.  0.
        254    2    1    2    0    0  0.21871626749E+03  0.41970207011E+03  0.22745655519E+04  0.24907212872E+04  0.89780702134E+03 0.  0.
        -24    2    4    4    0    0  0.31562157154E+02 -0.27661032067E+03  0.70625197713E+03  0.76277521195E+03  0.74328524152E+02 0.  0.
         24    2    4    4    0    0  0.18715411033E+03  0.69631239079E+03  0.15683135747E+04  0.17279460753E+04  0.79451644166E+02 0.  0.
         11    1    3    3    0    0 -0.46446076270E+02 -0.15395656077E+03  0.13588544245E+03  0.21053435367E+03  0.00000000000E+00 0.  1.
        -11    1    3    3    0    0 -0.17227019122E+03 -0.26574550934E+03  0.30375706094E+03  0.43882347998E+03  0.00000000000E+00 0. -1.
          2    1    6    6  502    0  0.17507093870E+03  0.64951043367E+03  0.14068739850E+04  0.15594255502E+04  0.00000000000E+00 0. -1.
          1    1    5    5  503    0 -0.10683860798E+02 -0.11983080513E+03  0.37578074653E+03  0.39456905125E+03  0.00000000000E+00 0. -1.
         -2    1    5    5    0  503  0.42246017951E+02 -0.15677951555E+03  0.33047123060E+03  0.36820616070E+03  0.00000000000E+00 0.  1.
         -1    1    6    6    0  502  0.12083171633E+02  0.46801957112E+02  0.16143958976E+03  0.16852052506E+03  0.00000000000E+00 0.  1.
<mgrwt>
<rscale>  0 0.15789780E+04</rscale>
<asrwt>0</asrwt>
<pdfrwt beam="1">  1        2 0.45032975E+00 0.15789780E+04</pdfrwt>
<pdfrwt beam="2">  1       -2 0.32759315E-01 0.15789780E+04</pdfrwt>
<totfact> 0.16223150E+01</totfact>
</mgrwt>
</event>
<event>
12    1  0.2019083E-007  0.1315471E+04  0.7818608E-02  0.9017385E-01
          1   -1    0    0  501    0  0.00000000000E+00  0.00000000000E+00  0.29028772280E+04  0.29028772280E+04  0.00000000000E+00 0. -1.
         -1   -1    0    0    0  501 -0.00000000000E+00 -0.00000000000E+00 -0.14903016942E+03  0.14903016942E+03  0.00000000000E+00 0.  1.
         23    2    1    2    0    0 -0.22523804243E+03 -0.19063375919E+03  0.34853354090E+03  0.46586215607E+03  0.92078843495E+02 0.  0.
        254    2    1    2    0    0  0.22523804243E+03  0.19063375919E+03  0.24053135177E+04  0.25860452414E+04  0.90278650083E+03 0.  0.
        -24    2    4    4    0    0  0.10019695184E+03  0.22019519178E+02  0.23505605904E+04  0.23541914687E+04  0.80982058204E+02 0.  0.
         24    2    4    4    0    0  0.12504109059E+03  0.16861424001E+03  0.54752927267E+02  0.23185377264E+03  0.81806189098E+02 0.  0.
         11    1    3    3    0    0 -0.10160261768E+03 -0.65147315991E+02  0.20813115946E+03  0.24059477184E+03  0.00000000000E+00 0. -1.
        -11    1    3    3    0    0 -0.12363542475E+03 -0.12548644319E+03  0.14040238144E+03  0.22526738422E+03  0.00000000000E+00 0.  1.
          4    1    6    6  502    0  0.39120514978E+02  0.38864298536E+01  0.59403864891E+01  0.39759366454E+02  0.00000000000E+00 0. -1.
          1    1    5    5  503    0 -0.13802666067E+02 -0.21460544601E+01  0.21422232169E+03  0.21467725136E+03  0.00000000000E+00 0. -1.
         -2    1    5    5    0  503  0.11399961791E+03  0.24165573638E+02  0.21363382687E+04  0.21395142174E+04  0.00000000000E+00 0.  1.
         -3    1    6    6    0  502  0.85920575612E+02  0.16472781015E+03  0.48812540778E+02  0.19209440619E+03  0.00000000000E+00 0.  1.
<mgrwt>
<rscale>  0 0.13154715E+04</rscale>
<asrwt>0</asrwt>
<pdfrwt beam="1">  1        1 0.44659645E+00 0.13154715E+04</pdfrwt>
<pdfrwt beam="2">  1       -1 0.22927721E-01 0.13154715E+04</pdfrwt>
<totfact> 0.11302410E+01</totfact>
</mgrwt>
</event>
<event>
12    1  0.2019083E-007  0.1120750E+04  0.7818608E-02  0.9185200E-01
          1   -1    0    0  501    0  0.00000000000E+00  0.00000000000E+00  0.14699340863E+04  0.14699340863E+04  0.00000000000E+00 0. -1.
         -1   -1    0    0    0  501 -0.00000000000E+00 -0.00000000000E+00 -0.21362887882E+03  0.21362887882E+03  0.00000000000E+00 0.  1.
         23    2    1    2    0    0  0.11378604555E+03  0.13704167730E+03  0.15746801383E+03  0.25436155691E+03  0.90420908938E+02 0.  0.
        254    2    1    2    0    0 -0.11378604555E+03 -0.13704167730E+03  0.10988371936E+04  0.14292014082E+04  0.89635138289E+03 0.  0.
        -24    2    4    4    0    0  0.98613666215E+02  0.18248232290E+03  0.10010764486E+04  0.10253052466E+04  0.77925216596E+02 0.  0.
         24    2    4    4    0    0 -0.21239971176E+03 -0.31952400020E+03  0.97760745004E+02  0.40389616159E+03  0.79785473756E+02 0.  0.
         11    1    3    3    0    0  0.53282011041E+01  0.48186364216E+02  0.74945826026E+01  0.49055929221E+02  0.00000000000E+00 0.  1.
        -11    1    3    3    0    0  0.10845784444E+03  0.88855313087E+02  0.14997343123E+03  0.20530562769E+03  0.00000000000E+00 0. -1.
          4    1    6    6  502    0 -0.97856531556E+02 -0.21718081203E+03  0.55615162743E+02  0.24461490594E+03  0.00000000000E+00 0. -1.
          1    1    5    5  503    0  0.84668230380E+02  0.18394970755E+03  0.85933777504E+03  0.88287463195E+03  0.00000000000E+00 0. -1.
         -2    1    5    5    0  503  0.13945435835E+02 -0.14673846465E+01  0.14173867360E+03  0.14243061466E+03  0.00000000000E+00 0.  1.
         -3    1    6    6    0  502 -0.11454318020E+03 -0.10234318817E+03  0.42145582261E+02  0.15928125565E+03  0.00000000000E+00 0.  1.
<mgrwt>
<rscale>  0 0.11207504E+04</rscale>
<asrwt>0</asrwt>
<pdfrwt beam="1">  1        1 0.22614370E+00 0.11207504E+04</pdfrwt>
<pdfrwt beam="2">  1       -1 0.32865982E-01 0.11207504E+04</pdfrwt>
<totfact> 0.59293103E+01</totfact>
</mgrwt>
</event>
<event>
12    1  0.2019083E-007  0.1535712E+04  0.7818608E-02  0.8861046E-01
          3   -1    0    0  501    0  0.00000000000E+00  0.00000000000E+00  0.10277316641E+04  0.10277316641E+04  0.00000000000E+00 0. -1.
         -3   -1    0    0    0  501 -0.00000000000E+00 -0.00000000000E+00 -0.57369348654E+03  0.57369348654E+03  0.00000000000E+00 0.  1.
         23    2    1    2    0    0 -0.31919024526E+03  0.20989858525E+03  0.48365358880E+03  0.62302799975E+03  0.91122257181E+02 0.  0.
        254    2    1    2    0    0  0.31919024526E+03 -0.20989858525E+03 -0.29615411218E+02  0.97839715092E+03  0.90024667930E+03 0.  0.
        -24    2    4    4    0    0  0.30881112450E+03  0.30458158123E+03  0.75121317314E+02  0.44692129000E+03  0.77208658187E+02 0.  0.
         24    2    4    4    0    0  0.10379120761E+02 -0.51448016647E+03 -0.10473672853E+03  0.53147586092E+03  0.81848888798E+02 0.  0.
         13    1    3    3    0    0 -0.10171289720E+02 -0.86555474346E+01  0.97956784516E+01  0.16562878744E+02  0.00000000000E+00 0.  1.
        -13    1    3    3    0    0 -0.30901895554E+03  0.21855413268E+03  0.47385791035E+03  0.60646512101E+03  0.00000000000E+00 0. -1.
          4    1    6    6  502    0  0.11667007104E+02 -0.21820920687E+02 -0.19480946974E+02  0.31492521801E+02  0.00000000000E+00 0. -1.
          3    1    5    5  503    0  0.11510130319E+03  0.15669888008E+03  0.10107655429E+02  0.19469209977E+03  0.00000000000E+00 0. -1.
         -4    1    5    5    0  503  0.19370982131E+03  0.14788270115E+03  0.65013661886E+02  0.25222919023E+03  0.00000000000E+00 0.  1.
         -3    1    6    6    0  502 -0.12878863428E+01 -0.49265924579E+03 -0.85255781559E+02  0.49998333912E+03  0.00000000000E+00 0.  1.
<mgrwt>
<rscale>  0 0.15357122E+04</rscale>
<asrwt>0</asrwt>
<pdfrwt beam="1">  1        3 0.15811256E+00 0.15357122E+04</pdfrwt>
<pdfrwt beam="2">  1       -3 0.88260536E-01 0.15357122E+04</pdfrwt>
<totfact> 0.82923319E-01</totfact>
</mgrwt>
</event>
<event>
12    1  0.2019083E-007  0.2051005E+04  0.7818608E-02  0.8583138E-01
         -1   -1    0    0    0  501 -0.00000000000E+00  0.00000000000E+00  0.85395930459E+03  0.85395930459E+03  0.00000000000E+00 0.  1.
          1   -1    0    0  501    0  0.00000000000E+00 -0.00000000000E+00 -0.12315057320E+04  0.12315057320E+04  0.00000000000E+00 0. -1.
         23    2    1    2    0    0  0.42964555872E+03 -0.69284334824E+03 -0.28278634059E+03  0.86813850943E+03  0.95232062914E+02 0.  0.
        254    2    1    2    0    0 -0.42964555872E+03  0.69284334824E+03 -0.94760086852E+02  0.12173265272E+04  0.89904237297E+03 0.  0.
        -24    2    4    4    0    0 -0.46139275026E+03  0.25947961744E+03 -0.41028437256E+03  0.67445682768E+03  0.79660555956E+02 0.  0.
         24    2    4    4    0    0  0.31747191541E+02  0.43336373080E+03  0.31552428571E+03  0.54286969950E+03  0.79623667467E+02 0.  0.
         13    1    3    3    0    0  0.89617485990E+02 -0.10129578026E+03 -0.18839441861E+02  0.13655421437E+03  0.00000000000E+00 0. -1.
        -13    1    3    3    0    0  0.34002807273E+03 -0.59154756798E+03 -0.26394689873E+03  0.73158429506E+03  0.00000000000E+00 0.  1.
          4    1    6    6  502    0 -0.18751902724E+02  0.10014279450E+03  0.48265537301E+02  0.11273763895E+03  0.00000000000E+00 0. -1.
          3    1    5    5  503    0 -0.33250485645E+03  0.14433358417E+03 -0.27826143080E+03  0.45696945954E+03  0.00000000000E+00 0. -1.
         -2    1    5    5    0  503 -0.12888789381E+03  0.11514603327E+03 -0.13202294177E+03  0.21748736814E+03  0.00000000000E+00 0.  1.
         -3    1    6    6    0  502  0.50499094265E+02  0.33322093630E+03  0.26725874841E+03  0.43013206055E+03  0.00000000000E+00 0.  1.
<mgrwt>
<rscale>  0 0.20510054E+04</rscale>
<asrwt>0</asrwt>
<pdfrwt beam="1">  1        1 0.18946242E+00 0.20510054E+04</pdfrwt>
<pdfrwt beam="2">  1       -1 0.13137835E+00 0.20510054E+04</pdfrwt>
<totfact> 0.46222631E+00</totfact>
</mgrwt>
</event>
<event>
12    1  0.2019083E-007  0.2426908E+04  0.7818608E-02  0.8429498E-01
         -2   -1    0    0    0  501 -0.00000000000E+00  0.00000000000E+00  0.59393782443E+03  0.59393782443E+03  0.00000000000E+00 0.  1.
          2   -1    0    0  501    0  0.00000000000E+00 -0.00000000000E+00 -0.24791665770E+04  0.24791665770E+04  0.00000000000E+00 0. -1.
         23    2    1    2    0    0  0.90132576252E+03 -0.35908127847E+03 -0.32355536692E+03  0.10267023034E+04  0.90011385899E+02 0.  0.
        254    2    1    2    0    0 -0.90132576252E+03  0.35908127847E+03 -0.15616733856E+04  0.20464020980E+04  0.89867140195E+03 0.  0.
        -24    2    4    4    0    0 -0.86497180235E+03 -0.47250921148E+02 -0.12662149134E+04  0.15361856719E+04  0.78468740477E+02 0.  0.
         24    2    4    4    0    0 -0.36353960171E+02  0.40633219962E+03 -0.29545847221E+03  0.51021642610E+03  0.81225770556E+02 0.  0.
         11    1    3    3    0    0  0.63425665476E+03 -0.27393915984E+03 -0.19209482385E+03  0.71709454659E+03  0.00000000000E+00 0.  1.
        -11    1    3    3    0    0  0.26706910776E+03 -0.85142118626E+02 -0.13146054307E+03  0.30960775679E+03  0.00000000000E+00 0. -1.
          4    1    6    6  502    0  0.16906691097E+02  0.24515442951E+03 -0.18668586703E+03  0.30860677805E+03  0.00000000000E+00 0. -1.
          1    1    5    5  503    0 -0.40891729428E+02 -0.34768518783E+01 -0.34730823001E+02  0.53762924966E+02  0.00000000000E+00 0. -1.
         -2    1    5    5    0  503 -0.82408007292E+03 -0.43774069270E+02 -0.12314840904E+04  0.14824227470E+04  0.00000000000E+00 0.  1.
         -3    1    6    6    0  502 -0.53260651268E+02  0.16117777010E+03 -0.10877260518E+03  0.20160964805E+03  0.00000000000E+00 0.  1.
<mgrwt>
<rscale>  0 0.24269082E+04</rscale>
<asrwt>0</asrwt>
<pdfrwt beam="1">  1        2 0.38141025E+00 0.24269082E+04</pdfrwt>
<pdfrwt beam="2">  1       -2 0.91375049E-01 0.24269082E+04</pdfrwt>
<totfact> 0.32764566E+00</totfact>
</mgrwt>
</event>
<event>
12    1  0.2019083E-007  0.2144813E+04  0.7818608E-02  0.8541756E-01
          2   -1    0    0  501    0  0.00000000000E+00  0.00000000000E+00  0.83600522450E+03  0.83600522450E+03  0.00000000000E+00 0. -1.
         -2   -1    0    0    0  501 -0.00000000000E+00 -0.00000000000E+00 -0.13756566048E+04  0.13756566048E+04  0.00000000000E+00 0.  1.
         23    2    1    2    0    0  0.27444149675E+02 -0.86690895111E+03 -0.63533003954E+02  0.87426142153E+03  0.89511338511E+02 0.  0.
        254    2    1    2    0    0 -0.27444149675E+02  0.86690895111E+03 -0.47611837631E+03  0.13374004077E+04  0.89981488734E+03 0.  0.
        -24    2    4    4    0    0  0.10113185639E+03  0.13523588174E+03 -0.55571784236E+03  0.58621133989E+03  0.79404147244E+02 0.  0.
         24    2    4    4    0    0 -0.12857600607E+03  0.73167306936E+03  0.79599466053E+02  0.75118906784E+03  0.77920927117E+02 0.  0.
         11    1    3    3    0    0  0.12416661511E+02 -0.66237180356E+03 -0.85573421788E+02  0.66799205845E+03  0.00000000000E+00 0.  1.
        -11    1    3    3    0    0  0.15027488164E+02 -0.20453714755E+03  0.22040417835E+02  0.20626936308E+03  0.00000000000E+00 0. -1.
          2    1    6    6  502    0 -0.74039157700E+02  0.24627392870E+03  0.60851345515E+01  0.25723466659E+03  0.00000000000E+00 0. -1.
          3    1    5    5  503    0  0.42335138508E+02  0.51878414909E+01 -0.15820793519E+03  0.16385642620E+03  0.00000000000E+00 0. -1.
         -4    1    5    5    0  503  0.58796717886E+02  0.13004804025E+03 -0.39750990718E+03  0.42235491368E+03  0.00000000000E+00 0.  1.
         -1    1    6    6    0  502 -0.54536848368E+02  0.48539914066E+03  0.73514331502E+02  0.49395440126E+03  0.00000000000E+00 0.  1.
<mgrwt>
<rscale>  0 0.21448134E+04</rscale>
<asrwt>0</asrwt>
<pdfrwt beam="1">  1        2 0.12861619E+00 0.21448134E+04</pdfrwt>
<pdfrwt beam="2">  1       -2 0.21163948E+00 0.21448134E+04</pdfrwt>
<totfact> 0.33300712E+00</totfact>
</mgrwt>
</event>
<event>
12    1  0.2019083E-007  0.1230730E+04  0.7818608E-02  0.9086376E-01
          1   -1    0    0  501    0  0.00000000000E+00  0.00000000000E+00  0.58573951633E+03  0.58573951633E+03  0.00000000000E+00 0. -1.
         -1   -1    0    0    0  501 -0.00000000000E+00 -0.00000000000E+00 -0.64648930559E+03  0.64648930559E+03  0.00000000000E+00 0.  1.
         23    2    1    2    0    0  0.10243721192E+03 -0.25056485566E+03 -0.74051042128E+02  0.29527557789E+03  0.91804034655E+02 0.  0.
        254    2    1    2    0    0 -0.10243721192E+03  0.25056485566E+03  0.13301252861E+02  0.93695324403E+03  0.89689928582E+03 0.  0.
        -24    2    4    4    0    0 -0.44978582769E+03 -0.54308092028E+02 -0.54345718521E+02  0.46346489782E+03  0.81176318801E+02 0.  0.
         24    2    4    4    0    0  0.34734861578E+03  0.30487294769E+03  0.67646971383E+02  0.47348834622E+03  0.77566269423E+02 0.  0.
         11    1    3    3    0    0  0.58687005135E+02 -0.20141025721E+03 -0.88852591954E+02  0.22782677494E+03  0.00000000000E+00 0. -1.
        -11    1    3    3    0    0  0.43750206781E+02 -0.49154598454E+02  0.14801549827E+02  0.67448802953E+02  0.00000000000E+00 0.  1.
          4    1    6    6  502    0  0.14645161121E+03  0.16996083196E+03  0.55882306873E+02  0.23120897701E+03  0.00000000000E+00 0. -1.
          3    1    5    5  503    0 -0.34095116130E+03 -0.65278663187E+02 -0.15860932489E+02  0.34750621209E+03  0.00000000000E+00 0. -1.
         -4    1    5    5    0  503 -0.10883466639E+03  0.10970571159E+02 -0.38484786032E+02  0.11595868572E+03  0.00000000000E+00 0.  1.
         -3    1    6    6    0  502  0.20089700457E+03  0.13491211573E+03  0.11764664510E+02  0.24227936921E+03  0.00000000000E+00 0.  1.
<mgrwt>
<rscale>  0 0.12307304E+04</rscale>
<asrwt>0</asrwt>
<pdfrwt beam="1">  1        1 0.90113772E-01 0.12307304E+04</pdfrwt>
<pdfrwt beam="2">  1       -1 0.99459893E-01 0.12307304E+04</pdfrwt>
<totfact> 0.33809898E+01</totfact>
</mgrwt>
</event>
<event>
12    1  0.2019083E-007  0.1548421E+04  0.7818608E-02  0.8852877E-01
         -1   -1    0    0    0  501 -0.00000000000E+00  0.00000000000E+00  0.59868145012E+03  0.59868145012E+03  0.00000000000E+00 0.  1.
          1   -1    0    0  501    0  0.00000000000E+00 -0.00000000000E+00 -0.10012037978E+04  0.10012037978E+04  0.00000000000E+00 0. -1.
         23    2    1    2    0    0 -0.11642689232E+03 -0.44415141281E+03 -0.36157899340E+03  0.59145867778E+03  0.90875190788E+02 0.  0.
        254    2    1    2    0    0  0.11642689232E+03  0.44415141281E+03 -0.40943354249E+02  0.10084265701E+04  0.89689580794E+03 0.  0.
        -24    2    4    4    0    0  0.10629841934E+03  0.70484549241E+03  0.56592492239E+02  0.71849872606E+03  0.70222411295E+02 0.  0.
         24    2    4    4    0    0  0.10128472983E+02 -0.26069407961E+03 -0.97535846488E+02  0.28992784405E+03  0.80504188090E+02 0.  0.
         11    1    3    3    0    0 -0.38702659035E+02 -0.12749899889E+03 -0.15962823466E+03  0.20793043027E+03  0.00000000000E+00 0. -1.
        -11    1    3    3    0    0 -0.77724233287E+02 -0.31665241392E+03 -0.20195075874E+03  0.38352824751E+03  0.00000000000E+00 0.  1.
          2    1    6    6  502    0 -0.16200610954E+01 -0.23554144652E+03 -0.59691001931E+02  0.24299261993E+03  0.00000000000E+00 0. -1.
          3    1    5    5  503    0  0.92601526592E+02  0.65357853245E+03  0.69882284612E+02  0.66379475330E+03  0.00000000000E+00 0. -1.
         -2    1    5    5    0  503  0.13696892746E+02  0.51266959965E+02 -0.13289792373E+02  0.54703972765E+02  0.00000000000E+00 0.  1.
         -1    1    6    6    0  502  0.11748534079E+02 -0.25152633083E+02 -0.37844844557E+02  0.46935224124E+02  0.00000000000E+00 0.  1.
<mgrwt>
<rscale>  0 0.15484213E+04</rscale>
<asrwt>0</asrwt>
<pdfrwt beam="1">  1        1 0.15403135E+00 0.15484213E+04</pdfrwt>
<pdfrwt beam="2">  1       -1 0.92104838E-01 0.15484213E+04</pdfrwt>
<totfact> 0.16698878E+01</totfact>
</mgrwt>
</event>
<event>
12    1  0.2019083E-007  0.1971676E+04  0.7818608E-02  0.8619979E-01
          2   -1    0    0  501    0  0.00000000000E+00  0.00000000000E+00  0.48003718756E+03  0.48003718756E+03  0.00000000000E+00 0.  1.
         -2   -1    0    0    0  501 -0.00000000000E+00 -0.00000000000E+00 -0.20245869080E+04  0.20245869080E+04  0.00000000000E+00 0. -1.
         23    2    1    2    0    0 -0.13295222265E+03 -0.86287682769E+02 -0.15788665976E+04  0.15896284153E+04  0.94746546093E+02 0.  0.
        254    2    1    2    0    0  0.13295222265E+03  0.86287682769E+02  0.34316877174E+02  0.91499568025E+03  0.90050962744E+03 0.  0.
        -24    2    4    4    0    0  0.24729312471E+03 -0.32982511762E+03 -0.14033074229E+03  0.44270257629E+03  0.79714215073E+02 0.  0.
         24    2    4    4    0    0 -0.11434090205E+03  0.41611280039E+03  0.17464761946E+03  0.47229310395E+03  0.79594475479E+02 0.  0.
         13    1    3    3    0    0 -0.36475537589E+02 -0.65267801479E+02 -0.42343965317E+03  0.42999010527E+03  0.00000000000E+00 0.  1.
        -13    1    3    3    0    0 -0.96476685065E+02 -0.21019881290E+02 -0.11554269444E+04  0.11596383100E+04  0.00000000000E+00 0. -1.
          2    1    6    6  502    0 -0.87252872394E+02  0.18890022389E+03  0.10523307855E+03  0.23317452508E+03  0.00000000000E+00 0. -1.
          1    1    5    5  503    0  0.64818721580E+02 -0.41371681340E+02 -0.41385560441E+02  0.87326097458E+02  0.00000000000E+00 0. -1.
         -2    1    5    5    0  503  0.18247440313E+03 -0.28845343628E+03 -0.98945181847E+02  0.35537647884E+03  0.00000000000E+00 0.  1.
         -1    1    6    6    0  502 -0.27088029661E+02  0.22721257650E+03  0.69414540915E+02  0.23911857887E+03  0.00000000000E+00 0.  1.
<mgrwt>
<rscale>  0 0.19716764E+04</rscale>
<asrwt>0</asrwt>
<pdfrwt beam="1">  1        2 0.73851875E-01 0.19716764E+04</pdfrwt>
<pdfrwt beam="2">  1       -2 0.31147491E+00 0.19716764E+04</pdfrwt>
<totfact> 0.16270956E+00</totfact>
</mgrwt>
</event>
<event>
12    1  0.2019083E-007  0.1178615E+04  0.7818608E-02  0.9131783E-01
          2   -1    0    0  501    0  0.00000000000E+00  0.00000000000E+00  0.38598270479E+03  0.38598270479E+03  0.00000000000E+00 0. -1.
         -2   -1    0    0    0  501 -0.00000000000E+00 -0.00000000000E+00 -0.89973819459E+03  0.89973819459E+03  0.00000000000E+00 0.  1.
         23    2    1    2    0    0  0.16962795944E+03  0.35900553578E+02  0.55138967761E+02  0.20404804648E+03  0.92373184081E+02 0.  0.
        254    2    1    2    0    0 -0.16962795944E+03 -0.35900553578E+02 -0.56889445756E+03  0.10816728529E+04  0.90350028361E+03 0.  0.
        -24    2    4    4    0    0 -0.38719207496E+03 -0.18634486764E+02 -0.70743263352E+03  0.81056806864E+03  0.79339245762E+02 0.  0.
         24    2    4    4    0    0  0.21756411552E+03 -0.17266066814E+02  0.13853817597E+03  0.27110478426E+03  0.81686696711E+02 0.  0.
         11    1    3    3    0    0  0.22850953996E+02 -0.21265212304E+02  0.32241011149E+02  0.44876030938E+02  0.00000000000E+00 0. -1.
        -11    1    3    3    0    0  0.14677700544E+03  0.57165765882E+02  0.22897956612E+02  0.15917201554E+03  0.00000000000E+00 0.  1.
          4    1    6    6  502    0  0.13509467083E+03  0.29400653030E+02  0.80460055361E+02  0.15996496177E+03  0.00000000000E+00 0. -1.
          3    1    5    5  503    0 -0.11356205764E+03 -0.37616626949E+02 -0.25120517798E+03  0.27823621800E+03  0.00000000000E+00 0. -1.
         -4    1    5    5    0  503 -0.27363001731E+03  0.18982140185E+02 -0.45622745554E+03  0.53233185065E+03  0.00000000000E+00 0.  1.
         -3    1    6    6    0  502  0.82469444688E+02 -0.46666719845E+02  0.58078120608E+02  0.11113982248E+03  0.00000000000E+00 0.  1.
<mgrwt>
<rscale>  0 0.11786151E+04</rscale>
<asrwt>0</asrwt>
<pdfrwt beam="1">  1        2 0.59381954E-01 0.11786151E+04</pdfrwt>
<pdfrwt beam="2">  1       -2 0.13842126E+00 0.11786151E+04</pdfrwt>
<totfact> 0.30231088E+01</totfact>
</mgrwt>
</event>
<event>
12    1  0.2019083E-007  0.3626815E+04  0.7818608E-02  0.8084377E-01
          2   -1    0    0  501    0  0.00000000000E+00  0.00000000000E+00  0.28892606633E+04  0.28892606633E+04  0.00000000000E+00 0. -1.
         -2   -1    0    0    0  501 -0.00000000000E+00 -0.00000000000E+00 -0.11381619342E+04  0.11381619342E+04  0.00000000000E+00 0.  1.
         23    2    1    2    0    0 -0.89795561825E+03 -0.14437200458E+04  0.81644163811E+03  0.18881817906E+04  0.89452014037E+02 0.  0.
        254    2    1    2    0    0  0.89795561825E+03  0.14437200458E+04  0.93465709103E+03  0.21392408069E+04  0.90117450524E+03 0.  0.
        -24    2    4    4    0    0  0.44600237370E+03  0.50850765072E+02  0.26211850809E+03  0.52582885129E+03  0.79283988955E+02 0.  0.
         24    2    4    4    0    0  0.45195324455E+03  0.13928692807E+04  0.67253858293E+03  0.16134119556E+04  0.80270943488E+02 0.  0.
         13    1    3    3    0    0 -0.73351931971E+03 -0.11095722620E+04  0.63473393718E+03  0.14738006541E+04  0.00000000000E+00 0.  1.
        -13    1    3    3    0    0 -0.16443629855E+03 -0.33414778378E+03  0.18170770093E+03  0.41438113647E+03  0.00000000000E+00 0. -1.
          2    1    6    6  502    0  0.39726480983E+03  0.11567804541E+04  0.53751450799E+03  0.13359948332E+04  0.00000000000E+00 0. -1.
          1    1    5    5  503    0  0.50665856579E+02 -0.13718420363E+02  0.12888085464E+02  0.54049299968E+02  0.00000000000E+00 0. -1.
         -2    1    5    5    0  503  0.39533651712E+03  0.64569185435E+02  0.24923042263E+03  0.47177955132E+03  0.00000000000E+00 0.  1.
         -3    1    6    6    0  502  0.54688434723E+02  0.23608882668E+03  0.13502407494E+03  0.27741712238E+03  0.00000000000E+00 0.  1.
<mgrwt>
<rscale>  0 0.36268149E+04</rscale>
<asrwt>0</asrwt>
<pdfrwt beam="1">  1        2 0.44450164E+00 0.36268149E+04</pdfrwt>
<pdfrwt beam="2">  1       -2 0.17510184E+00 0.36268149E+04</pdfrwt>
<totfact> 0.32524070E-01</totfact>
</mgrwt>
</event>
<event>
12    1  0.2769144E-007  0.3429917E+04  0.7818608E-02  0.8130602E-01
          1   -1    0    0  501    0  0.00000000000E+00  0.00000000000E+00  0.39719895207E+04  0.39719895207E+04  0.00000000000E+00 0. -1.
         -1   -1    0    0    0  501 -0.00000000000E+00 -0.00000000000E+00 -0.74045590250E+03  0.74045590250E+03  0.00000000000E+00 0.  1.
         23    2    1    2    0    0 -0.15199367309E+04  0.44034508395E+03  0.17617687293E+04  0.23699074366E+04  0.92307873874E+02 0.  0.
        254    2    1    2    0    0  0.15199367309E+04 -0.44034508395E+03  0.14697648889E+04  0.23425379867E+04  0.90728382065E+03 0.  0.
        -24    2    4    4    0    0  0.39452676108E+03 -0.55413264310E+03  0.64145083740E+03  0.93824151813E+03  0.78253550552E+02 0.  0.
         24    2    4    4    0    0  0.11254099698E+04  0.11378755916E+03  0.82831405154E+03  0.14042964685E+04  0.80306878410E+02 0.  0.
         13    1    3    3    0    0 -0.49586948768E+03  0.18898233597E+03  0.58784373964E+03  0.79193505690E+03  0.00000000000E+00 0.  1.
        -13    1    3    3    0    0 -0.10240672432E+04  0.25136274797E+03  0.11739249896E+04  0.15779723797E+04  0.00000000000E+00 0. -1.
          4    1    6    6  502    0  0.99033097178E+03  0.12393322194E+03  0.71580232033E+03  0.12282051290E+04  0.00000000000E+00 0. -1.
          1    1    5    5  503    0  0.36175157636E+03 -0.46107196554E+03  0.54758622958E+03  0.80206124407E+03  0.00000000000E+00 0. -1.
         -2    1    5    5    0  503  0.32775184717E+02 -0.93060677563E+02  0.93864607825E+02  0.13618027406E+03  0.00000000000E+00 0.  1.
         -3    1    6    6    0  502  0.13507899804E+03 -0.10145662784E+02  0.11251173121E+03  0.17609133950E+03  0.00000000000E+00 0.  1.
<mgrwt>
<rscale>  0 0.34299172E+04</rscale>
<asrwt>0</asrwt>
<pdfrwt beam="1">  1        1 0.61107530E+00 0.34299172E+04</pdfrwt>
<pdfrwt beam="2">  1       -1 0.11391629E+00 0.34299172E+04</pdfrwt>
<totfact> 0.58376258E-02</totfact>
</mgrwt>
</event>
<event>
12    1  0.2019083E-007  0.1318729E+04  0.7818608E-02  0.9014843E-01
          1   -1    0    0  501    0  0.00000000000E+00  0.00000000000E+00  0.14036817497E+04  0.14036817497E+04  0.00000000000E+00 0. -1.
         -1   -1    0    0    0  501 -0.00000000000E+00 -0.00000000000E+00 -0.30972961507E+03  0.30972961507E+03  0.00000000000E+00 0.  1.
         23    2    1    2    0    0 -0.92812313337E+00  0.11625848010E+03 -0.12456533990E+03  0.19331227032E+03  0.91302871513E+02 0.  0.
        254    2    1    2    0    0  0.92812313337E+00 -0.11625848010E+03  0.12185174745E+04  0.15200990944E+04  0.90133208396E+03 0.  0.
        -24    2    4    4    0    0  0.12093988011E+03 -0.47233433839E+03  0.87835307837E+03  0.10077726495E+04  0.79846108053E+02 0.  0.
         24    2    4    4    0    0 -0.12001175697E+03  0.35607585829E+03  0.34016439611E+03  0.51232644490E+03  0.74657424890E+02 0.  0.
         11    1    3    3    0    0 -0.45582787336E+01  0.12057756316E+03 -0.72139905940E+02  0.14058411244E+03  0.00000000000E+00 0. -1.
        -11    1    3    3    0    0  0.36301556003E+01 -0.43190830578E+01 -0.52425433955E+02  0.52728157881E+02  0.00000000000E+00 0.  1.
          4    1    6    6  502    0 -0.23727400033E+02  0.17295599332E+03  0.17935466635E+03  0.25028955527E+03  0.00000000000E+00 0. -1.
          3    1    5    5  503    0  0.16849339627E+02 -0.58339129275E+02  0.63418399687E+02  0.87802321548E+02  0.00000000000E+00 0. -1.
         -4    1    5    5    0  503  0.10409054048E+03 -0.41399520912E+03  0.81493467868E+03  0.91997032795E+03  0.00000000000E+00 0.  1.
         -3    1    6    6    0  502 -0.96284356940E+02  0.18311986497E+03  0.16080972976E+03  0.26203688963E+03  0.00000000000E+00 0.  1.
<mgrwt>
<rscale>  0 0.13187294E+04</rscale>
<asrwt>0</asrwt>
<pdfrwt beam="1">  1        1 0.21595103E+00 0.13187294E+04</pdfrwt>
<pdfrwt beam="2">  1       -1 0.47650711E-01 0.13187294E+04</pdfrwt>
<totfact> 0.32947945E+01</totfact>
</mgrwt>
</event>
<event>
12    1  0.2019083E-007  0.2269777E+04  0.7818608E-02  0.8489934E-01
         -2   -1    0    0    0  501 -0.00000000000E+00  0.00000000000E+00  0.32198036691E+03  0.32198036691E+03  0.00000000000E+00 0.  1.
          2   -1    0    0  501    0  0.00000000000E+00 -0.00000000000E+00 -0.40001571177E+04  0.40001571177E+04  0.00000000000E+00 0. -1.
         23    2    1    2    0    0  0.66123871033E+03  0.58681686448E+03 -0.22359352516E+04  0.24060297816E+04  0.89343135503E+02 0.  0.
        254    2    1    2    0    0 -0.66123871033E+03 -0.58681686448E+03 -0.14422414992E+04  0.19161077030E+04  0.89989861830E+03 0.  0.
        -24    2    4    4    0    0 -0.35706673333E+03 -0.80006938444E+03 -0.10440030185E+04  0.13653667001E+04  0.81708329268E+02 0.  0.
         24    2    4    4    0    0 -0.30417197700E+03  0.21325251996E+03 -0.39823848066E+03  0.55074100295E+03  0.82003268139E+02 0.  0.
         13    1    3    3    0    0  0.35905154850E+03  0.26980223470E+03 -0.12015902835E+04  0.12827823158E+04  0.00000000000E+00 0. -1.
        -13    1    3    3    0    0  0.30218716183E+03  0.31701462978E+03 -0.10343449681E+04  0.11232474658E+04  0.00000000000E+00 0.  1.
          2    1    6    6  502    0 -0.14282131906E+03  0.51155147989E+02 -0.16005147742E+03  0.22052495044E+03  0.00000000000E+00 0. -1.
          3    1    5    5  503    0 -0.23346816784E+03 -0.60851870005E+03 -0.78610763588E+03  0.10211599331E+04  0.00000000000E+00 0. -1.
         -4    1    5    5    0  503 -0.12359856549E+03 -0.19155068440E+03 -0.25789538262E+03  0.34420676702E+03  0.00000000000E+00 0.  1.
         -1    1    6    6    0  502 -0.16135065795E+03  0.16209737197E+03 -0.23818700324E+03  0.33021605251E+03  0.00000000000E+00 0.  1.
<mgrwt>
<rscale>  0 0.22697771E+04</rscale>
<asrwt>0</asrwt>
<pdfrwt beam="1">  1        2 0.61540878E+00 0.22697771E+04</pdfrwt>
<pdfrwt beam="2">  1       -2 0.49535441E-01 0.22697771E+04</pdfrwt>
<totfact> 0.12064075E+00</totfact>
</mgrwt>
</event>
