<event>
12    7  0.1707730E-007  0.1527827E+04  0.7818608E-02  0.8866156E-01
          2   -1    0    0  501    0  0.00000000000E+00  0.00000000000E+00  0.67524326741E+03  0.67524326741E+03  0.00000000000E+00 0. -1.
         -1   -1    0    0    0  501 -0.00000000000E+00 -0.00000000000E+00 -0.86422749032E+03  0.86422749032E+03  0.00000000000E+00 0.  1.
         24    2    1    2    0    0 -0.33927740319E+03 -0.31024534396E+03  0.12425916450E+03  0.48283312559E+03  0.79537145032E+02 0.  0.
        254    2    1    2    0    0  0.33927740319E+03  0.31024534396E+03 -0.31324338742E+03  0.10566376321E+04  0.89833197435E+03 0.  0.
         23    2    4    4    0    0  0.38557366675E+03  0.59046785177E+03 -0.22005055596E+03  0.74400232134E+03  0.88305551957E+02 0.  0.
         23    2    4    4    0    0 -0.46296263562E+02 -0.28022250781E+03 -0.93192831460E+02  0.31263531080E+03  0.91585674761E+02 0.  0.
          2    1    3    3  502    0 -0.15325186459E+03 -0.11938302648E+03  0.90065637613E+02  0.21412673838E+03  0.00000000000E+00 0. -1.
         -1    1    3    3    0  502 -0.18602553860E+03 -0.19086231748E+03  0.34193526892E+02  0.26870638721E+03  0.00000000000E+00 0.  1.
         13    1    5    5    0    0  0.33706437500E+03  0.52492600579E+03 -0.16389984105E+03  0.64499834290E+03  0.00000000000E+00 0.  1.
        -13    1    5    5    0    0  0.48509291751E+02  0.65541845981E+02 -0.56150714910E+02  0.99003978434E+02  0.00000000000E+00 0. -1.
          1    1    6    6  503    0 -0.35387192357E+02 -0.26611467726E+02 -0.89164763905E+01  0.45165552678E+02  0.00000000000E+00 0. -1.
         -1    1    6    6    0  503 -0.10909071205E+02 -0.25361104009E+03 -0.84276355069E+02  0.26746975813E+03  0.00000000000E+00 0.  1.
<mgrwt>
<rscale>  0 0.15278269E+04</rscale>
<asrwt>0</asrwt>
<pdfrwt beam="1">  1        2 0.10388358E+00 0.15278269E+04</pdfrwt>
<pdfrwt beam="2">  1       -1 0.13295808E+00 0.15278269E+04</pdfrwt>
<totfact> 0.22622411E+01</totfact>
</mgrwt>
</event>
<event>
12    7  0.1707730E-007  0.2825230E+04  0.7818608E-02  0.8295478E-01
         -1   -1    0    0    0  501 -0.00000000000E+00  0.00000000000E+00  0.54985322024E+03  0.54985322024E+03  0.00000000000E+00 0.  1.
          2   -1    0    0  501    0  0.00000000000E+00 -0.00000000000E+00 -0.36291159933E+04  0.36291159933E+04  0.00000000000E+00 0. -1.
         24    2    1    2    0    0 -0.48543721786E+03  0.44644179415E+03 -0.29972588099E+04  0.30700152835E+04  0.80460545195E+02 0.  0.
        254    2    1    2    0    0  0.48543721786E+03 -0.44644179415E+03 -0.82003963076E+02  0.11089539300E+04  0.88774692382E+03 0.  0.
         23    2    4    4    0    0  0.31045446022E+03 -0.16166972315E+03  0.38513944461E+03  0.52834557896E+03  0.91091095909E+02 0.  0.
         23    2    4    4    0    0  0.17498275764E+03 -0.28477207099E+03 -0.46714340769E+03  0.58060835100E+03  0.84669923898E+02 0.  0.
          2    1    3    3  502    0 -0.24151963541E+03  0.23982626172E+03 -0.17207826894E+04  0.17541212713E+04  0.00000000000E+00 0. -1.
         -1    1    3    3    0  502 -0.24391758245E+03  0.20661553243E+03 -0.12764761205E+04  0.13158940122E+04  0.00000000000E+00 0.  1.
         13    1    5    5    0    0  0.97781554701E+02 -0.30903475832E+02  0.17118397730E+03  0.19955002215E+03  0.00000000000E+00 0. -1.
        -13    1    5    5    0    0  0.21267290552E+03 -0.13076624732E+03  0.21395546731E+03  0.32879555681E+03  0.00000000000E+00 0.  1.
          1    1    6    6  503    0  0.17581108212E+03 -0.25237238886E+03 -0.38825271379E+03  0.49531962309E+03  0.00000000000E+00 0. -1.
         -1    1    6    6    0  503 -0.82832448280E+00 -0.32399682136E+02 -0.78890693902E+02  0.85288727909E+02  0.00000000000E+00 0.  1.
<mgrwt>
<rscale>  0 0.28252300E+04</rscale>
<asrwt>0</asrwt>
<pdfrwt beam="1">  1        2 0.55832551E+00 0.28252300E+04</pdfrwt>
<pdfrwt beam="2">  1       -1 0.84592807E-01 0.28252300E+04</pdfrwt>
<totfact> 0.89792010E-01</totfact>
</mgrwt>
</event>
<event>
12    7  0.1707730E-007  0.1206823E+04  0.7818608E-02  0.9106905E-01
          2   -1    0    0  501    0  0.00000000000E+00  0.00000000000E+00  0.17088666072E+04  0.17088666072E+04  0.00000000000E+00 0. -1.
         -1   -1    0    0    0  501 -0.00000000000E+00 -0.00000000000E+00 -0.21306832083E+03  0.21306832083E+03  0.00000000000E+00 0.  1.
         24    2    1    2    0    0 -0.10144303191E+03  0.16501341586E+03  0.41733749854E+03  0.46544453288E+03  0.70341377312E+02 0.  0.
        254    2    1    2    0    0  0.10144303191E+03 -0.16501341586E+03  0.10784607878E+04  0.14564903951E+04  0.95956577896E+03 0.  0.
         23    2    4    4    0    0  0.36240268776E+03 -0.36388021862E+03  0.96550249034E+03  0.10971091278E+04  0.87800101222E+02 0.  0.
         23    2    4    4    0    0 -0.26095965585E+03  0.19886680277E+03  0.11295829746E+03  0.35938126737E+03  0.93527381800E+02 0.  0.
          4    1    3    3  502    0 -0.91561620167E+02  0.11119940580E+03  0.35130732191E+03  0.37969154924E+03  0.00000000000E+00 0. -1.
         -3    1    3    3    0  502 -0.98814117420E+01  0.53814010059E+02  0.66030176625E+02  0.85752983632E+02  0.00000000000E+00 0.  1.
         13    1    5    5    0    0  0.31745097404E+03 -0.28564525218E+03  0.84262712478E+03  0.94466332755E+03  0.00000000000E+00 0.  1.
        -13    1    5    5    0    0  0.44951713722E+02 -0.78234966443E+02  0.12287536556E+03  0.15244580021E+03  0.00000000000E+00 0. -1.
          3    1    6    6  503    0 -0.11745205229E+03  0.14308055833E+03  0.81355037219E+02  0.20220205944E+03  0.00000000000E+00 0. -1.
         -3    1    6    6    0  503 -0.14350760356E+03  0.55786244432E+02  0.31603260243E+02  0.15717920793E+03  0.00000000000E+00 0.  1.
<mgrwt>
<rscale>  0 0.12068228E+04</rscale>
<asrwt>0</asrwt>
<pdfrwt beam="1">  1        2 0.26290255E+00 0.12068228E+04</pdfrwt>
<pdfrwt beam="2">  1       -1 0.32779743E-01 0.12068228E+04</pdfrwt>
<totfact> 0.95040969E+01</totfact>
</mgrwt>
</event>
<event>
12    7  0.1707730E-007  0.1762697E+04  0.7818608E-02  0.8726392E-01
          2   -1    0    0  501    0  0.00000000000E+00  0.00000000000E+00  0.74806336558E+03  0.74806336558E+03  0.00000000000E+00 0. -1.
         -1   -1    0    0    0  501 -0.00000000000E+00 -0.00000000000E+00 -0.10383817390E+04  0.10383817390E+04  0.00000000000E+00 0.  1.
         24    2    1    2    0    0 -0.27082213423E+03  0.52908140374E+02 -0.69984780567E+03  0.75648016856E+03  0.79570060995E+02 0.  0.
        254    2    1    2    0    0  0.27082213423E+03 -0.52908140374E+02  0.40952943222E+03  0.10299649361E+04  0.90386365894E+03 0.  0.
         23    2    4    4    0    0  0.55855094573E+03 -0.21145198637E+03  0.22351046656E+03  0.64385969130E+03  0.88922842413E+02 0.  0.
         23    2    4    4    0    0 -0.28772881149E+03  0.15854384600E+03  0.18601896566E+03  0.38610524477E+03  0.80933209386E+02 0.  0.
          2    1    3    3  502    0 -0.84304882432E+02 -0.66641431345E+01 -0.14207824875E+03  0.16534192684E+03  0.00000000000E+00 0. -1.
         -1    1    3    3    0  502 -0.18651725180E+03  0.59572283508E+02 -0.55776955693E+03  0.59113824171E+03  0.00000000000E+00 0.  1.
         13    1    5    5    0    0  0.22056948344E+01 -0.11973646568E+02  0.58433775265E+00  0.12189124351E+02  0.00000000000E+00 0.  1.
        -13    1    5    5    0    0  0.55634525089E+03 -0.19947833981E+03  0.22292612880E+03  0.63167056695E+03  0.00000000000E+00 0. -1.
          1    1    6    6  503    0 -0.12912582379E+03  0.27685054221E+02  0.61049713874E+02  0.14548885923E+03  0.00000000000E+00 0. -1.
         -1    1    6    6    0  503 -0.15860298770E+03  0.13085879178E+03  0.12496925179E+03  0.24061638553E+03  0.00000000000E+00 0.  1.
<mgrwt>
<rscale>  0 0.17626972E+04</rscale>
<asrwt>0</asrwt>
<pdfrwt beam="1">  1        2 0.11508667E+00 0.17626972E+04</pdfrwt>
<pdfrwt beam="2">  1       -1 0.15975104E+00 0.17626972E+04</pdfrwt>
<totfact> 0.11939105E+01</totfact>
</mgrwt>
</event>
<event>
12    7  0.1707730E-007  0.2403504E+04  0.7818608E-02  0.8438193E-01
         -1   -1    0    0    0  501 -0.00000000000E+00  0.00000000000E+00  0.68307272517E+03  0.68307272517E+03  0.00000000000E+00 0.  1.
          2   -1    0    0  501    0  0.00000000000E+00 -0.00000000000E+00 -0.21142812264E+04  0.21142812264E+04  0.00000000000E+00 0. -1.
         24    2    1    2    0    0  0.25158594943E+03 -0.93599536036E+03 -0.10280856289E+04  0.14152896289E+04  0.81864942355E+02 0.  0.
        254    2    1    2    0    0 -0.25158594943E+03  0.93599536036E+03 -0.40312287229E+03  0.13820643226E+04  0.89900552677E+03 0.  0.
         23    2    4    4    0    0 -0.20463137718E+03 -0.74176934735E+02 -0.26884787521E+03  0.35785763072E+03  0.91687980091E+02 0.  0.
         23    2    4    4    0    0 -0.46954572253E+02  0.10101722951E+04 -0.13427499709E+03  0.10242066919E+04  0.91196355610E+02 0.  0.
          4    1    3    3  502    0  0.47181830477E+02 -0.21902412310E+03 -0.19180656489E+03  0.29493634900E+03  0.00000000000E+00 0. -1.
         -3    1    3    3    0  502  0.20440411895E+03 -0.71697123726E+03 -0.83627906404E+03  0.11203532799E+04  0.00000000000E+00 0.  1.
         13    1    5    5    0    0  0.16092086647E+01  0.29215820654E+01  0.52850649820E+01  0.62495684775E+01  0.00000000000E+00 0. -1.
        -13    1    5    5    0    0 -0.20624058584E+03 -0.77098516800E+02 -0.27413294019E+03  0.35160806225E+03  0.00000000000E+00 0.  1.
          1    1    6    6  503    0 -0.26856838839E+02  0.69935824060E+02 -0.97725579950E+01  0.75550063991E+02  0.00000000000E+00 0. -1.
         -1    1    6    6    0  503 -0.20097733415E+02  0.94023647103E+03 -0.12450243909E+03  0.94865662792E+03  0.00000000000E+00 0.  1.
<mgrwt>
<rscale>  0 0.24035040E+04</rscale>
<asrwt>0</asrwt>
<pdfrwt beam="1">  1        2 0.32527404E+00 0.24035040E+04</pdfrwt>
<pdfrwt beam="2">  1       -1 0.10508811E+00 0.24035040E+04</pdfrwt>
<totfact> 0.50133209E+00</totfact>
</mgrwt>
</event>
<event>
12    7  0.1707730E-007  0.1758434E+04  0.7818608E-02  0.8728721E-01
          2   -1    0    0  501    0  0.00000000000E+00  0.00000000000E+00  0.11272565373E+04  0.11272565373E+04  0.00000000000E+00 0. -1.
         -1   -1    0    0    0  501 -0.00000000000E+00 -0.00000000000E+00 -0.68575589286E+03  0.68575589286E+03  0.00000000000E+00 0.  1.
         24    2    1    2    0    0 -0.12284446917E+03 -0.57176700460E+03  0.45473996813E+03  0.74723086876E+03  0.97761247216E+02 0.  0.
        254    2    1    2    0    0  0.12284446917E+03  0.57176700460E+03 -0.13239323695E+02  0.10657815614E+04  0.89090223133E+03 0.  0.
         23    2    4    4    0    0  0.19894665203E+03 -0.16830420984E+03  0.12619450775E+03  0.30359693810E+03  0.91323434191E+02 0.  0.
         23    2    4    4    0    0 -0.76102182864E+02  0.74007121444E+03 -0.13943383144E+03  0.76218462331E+03  0.89368126179E+02 0.  0.
          4    1    3    3  502    0 -0.22535606970E+02 -0.21680087010E+03  0.11843222630E+03  0.24806584426E+03  0.00000000000E+00 0. -1.
         -3    1    3    3    0  502 -0.10030886220E+03 -0.35496613449E+03  0.33630774183E+03  0.49916502450E+03  0.00000000000E+00 0.  1.
         13    1    5    5    0    0  0.15652832194E+03 -0.75617770988E+02  0.72041091891E+02  0.18817301023E+03  0.00000000000E+00 0. -1.
        -13    1    5    5    0    0  0.42418330088E+02 -0.92686438855E+02  0.54153415855E+02  0.11542392787E+03  0.00000000000E+00 0.  1.
          3    1    6    6  503    0 -0.28278333916E+01  0.16865139765E+02 -0.18661051775E+02  0.25311349911E+02  0.00000000000E+00 0. -1.
         -3    1    6    6    0  503 -0.73274349472E+02  0.72320607467E+03 -0.12077277967E+03  0.73687327340E+03  0.00000000000E+00 0.  1.
<mgrwt>
<rscale>  0 0.17584343E+04</rscale>
<asrwt>0</asrwt>
<pdfrwt beam="1">  1        2 0.17342408E+00 0.17584343E+04</pdfrwt>
<pdfrwt beam="2">  1       -1 0.10550091E+00 0.17584343E+04</pdfrwt>
<totfact> 0.19067361E+01</totfact>
</mgrwt>
</event>
<event>
12    7  0.1707730E-007  0.3512688E+04  0.7818608E-02  0.8110790E-01
          2   -1    0    0  501    0  0.00000000000E+00  0.00000000000E+00  0.17861758627E+04  0.17861758627E+04  0.00000000000E+00 0. -1.
         -1   -1    0    0    0  501 -0.00000000000E+00 -0.00000000000E+00 -0.17270101170E+04  0.17270101170E+04  0.00000000000E+00 0.  1.
         24    2    1    2    0    0  0.11368447255E+04 -0.29736624921E+03  0.11722801075E+04  0.16618636817E+04  0.81900122636E+02 0.  0.
        254    2    1    2    0    0 -0.11368447255E+04  0.29736624921E+03 -0.11131143617E+04  0.18513222980E+04  0.89862564655E+03 0.  0.
         23    2    4    4    0    0 -0.17442652339E+03  0.44307193056E+03 -0.24423316968E+03  0.54323091769E+03  0.93341529028E+02 0.  0.
         23    2    4    4    0    0 -0.96241820212E+03 -0.14570568135E+03 -0.86888119206E+03  0.13080913803E+04  0.93110643668E+02 0.  0.
          4    1    3    3  502    0  0.94642402698E+03 -0.27028464145E+03  0.95037219565E+03  0.13682030319E+04  0.00000000000E+00 0. -1.
         -3    1    3    3    0  502  0.19042069852E+03 -0.27081607764E+02  0.22190791186E+03  0.29366064982E+03  0.00000000000E+00 0.  1.
         13    1    5    5    0    0 -0.10184953508E+03  0.32589144485E+03 -0.13420238295E+03  0.36686351851E+03  0.00000000000E+00 0. -1.
        -13    1    5    5    0    0 -0.72576988306E+02  0.11718048571E+03 -0.11003078673E+03  0.17636739918E+03  0.00000000000E+00 0.  1.
          3    1    6    6  503    0 -0.72085936244E+03 -0.68105062251E+02 -0.64869683820E+03  0.97215436419E+03  0.00000000000E+00 0. -1.
         -3    1    6    6    0  503 -0.24155883967E+03 -0.77600619100E+02 -0.22018435386E+03  0.33593701611E+03  0.00000000000E+00 0.  1.
<mgrwt>
<rscale>  0 0.35126877E+04</rscale>
<asrwt>0</asrwt>
<pdfrwt beam="1">  1        2 0.27479629E+00 0.35126877E+04</pdfrwt>
<pdfrwt beam="2">  1       -1 0.26569386E+00 0.35126877E+04</pdfrwt>
<totfact> 0.45205789E-01</totfact>
</mgrwt>
</event>
<event>
12    7  0.1707730E-007  0.1970144E+04  0.7818608E-02  0.8620708E-01
         -1   -1    0    0    0  501 -0.00000000000E+00  0.00000000000E+00  0.43044371803E+03  0.43044371803E+03  0.00000000000E+00 0.  1.
          2   -1    0    0  501    0  0.00000000000E+00 -0.00000000000E+00 -0.22543411875E+04  0.22543411875E+04  0.00000000000E+00 0. -1.
         24    2    1    2    0    0 -0.63857284320E+03 -0.40121906765E+03 -0.10406214048E+04  0.12876266438E+04  0.79608098567E+02 0.  0.
        254    2    1    2    0    0  0.63857284320E+03  0.40121906765E+03 -0.78327606465E+03  0.13971582617E+04  0.87736981856E+03 0.  0.
         23    2    4    4    0    0  0.48118632707E+03 -0.18366387504E+03 -0.49446259781E+03  0.71997414572E+03  0.92718981483E+02 0.  0.
         23    2    4    4    0    0  0.15738651614E+03  0.58488294270E+03 -0.28881346684E+03  0.67718411600E+03  0.91140200879E+02 0.  0.
          2    1    3    3  502    0 -0.57776194737E+03 -0.38384252193E+03 -0.92983818600E+03  0.11600616370E+04  0.00000000000E+00 0. -1.
         -1    1    3    3    0  502 -0.60810895835E+02 -0.17376545720E+02 -0.11078321881E+03  0.12756500681E+03  0.00000000000E+00 0.  1.
         13    1    5    5    0    0  0.89556608414E+02 -0.73774070454E+02 -0.12362597050E+03  0.16954757492E+03  0.00000000000E+00 0. -1.
        -13    1    5    5    0    0  0.39162971865E+03 -0.10988980459E+03 -0.37083662731E+03  0.55042657080E+03  0.00000000000E+00 0.  1.
          4    1    6    6  503    0  0.22690903070E+02  0.19930583779E+02 -0.44801518427E+01  0.30531574025E+02  0.00000000000E+00 0. -1.
         -4    1    6    6    0  503  0.13469561307E+03  0.56495235892E+03 -0.28433331500E+03  0.64665254198E+03  0.00000000000E+00 0.  1.
<mgrwt>
<rscale>  0 0.19701442E+04</rscale>
<asrwt>0</asrwt>
<pdfrwt beam="1">  1        2 0.34682172E+00 0.19701442E+04</pdfrwt>
<pdfrwt beam="2">  1       -1 0.66222111E-01 0.19701442E+04</pdfrwt>
<totfact> 0.11791264E+01</totfact>
</mgrwt>
</event>
<event>
12    7  0.1707730E-007  0.2711551E+04  0.7818608E-02  0.8331267E-01
         -1   -1    0    0    0  501 -0.00000000000E+00  0.00000000000E+00  0.12029560809E+04  0.12029560809E+04  0.00000000000E+00 0.  1.
          2   -1    0    0  501    0  0.00000000000E+00 -0.00000000000E+00 -0.15280082972E+04  0.15280082972E+04  0.00000000000E+00 0. -1.
         24    2    1    2    0    0  0.18991895240E+03 -0.93920645334E+03  0.60127933802E+03  0.11339480153E+04  0.78251444095E+02 0.  0.
        254    2    1    2    0    0 -0.18991895240E+03  0.93920645334E+03 -0.92633155433E+03  0.15970163628E+04  0.87988246031E+03 0.  0.
         23    2    4    4    0    0 -0.20432455756E+03  0.82793985170E+02 -0.65105298697E+03  0.69250296252E+03  0.84184276752E+02 0.  0.
         23    2    4    4    0    0  0.14405605165E+02  0.85641246817E+03 -0.27527856737E+03  0.90451340027E+03  0.93361472318E+02 0.  0.
          2    1    3    3  502    0  0.75693974909E+02 -0.33012946171E+03  0.17013941073E+03  0.37902830819E+03  0.00000000000E+00 0. -1.
         -1    1    3    3    0  502  0.11422497749E+03 -0.60907699163E+03  0.43113992729E+03  0.75491970707E+03  0.00000000000E+00 0.  1.
         13    1    5    5    0    0 -0.15661214629E+00  0.18954481845E+02 -0.28541400940E+02  0.34262347803E+02  0.00000000000E+00 0.  1.
        -13    1    5    5    0    0 -0.20416794542E+03  0.63839503325E+02 -0.62251158603E+03  0.65824061471E+03  0.00000000000E+00 0. -1.
          4    1    6    6  503    0 -0.25196098563E+01  0.82196018006E+03 -0.27278818912E+03  0.86604750572E+03  0.00000000000E+00 0. -1.
         -4    1    6    6    0  503  0.16925215021E+02  0.34452288111E+02 -0.24903782447E+01  0.38465894548E+02  0.00000000000E+00 0.  1.
<mgrwt>
<rscale>  0 0.27115508E+04</rscale>
<asrwt>0</asrwt>
<pdfrwt beam="1">  1        2 0.23507820E+00 0.27115508E+04</pdfrwt>
<pdfrwt beam="2">  1       -1 0.18507017E+00 0.27115508E+04</pdfrwt>
<totfact> 0.23390255E+00</totfact>
</mgrwt>
</event>
<event>
12    7  0.1707730E-007  0.1125189E+04  0.7818608E-02  0.9180983E-01
         -1   -1    0    0    0  501 -0.00000000000E+00  0.00000000000E+00  0.36058518739E+03  0.36058518739E+03  0.00000000000E+00 0.  1.
          2   -1    0    0  501    0  0.00000000000E+00 -0.00000000000E+00 -0.87777500654E+03  0.87777500654E+03  0.00000000000E+00 0. -1.
         24    2    1    2    0    0  0.13354354639E+03  0.80842392655E+02 -0.17518732270E+03  0.24805780306E+03  0.80453119226E+02 0.  0.
        254    2    1    2    0    0 -0.13354354639E+03 -0.80842392655E+02 -0.34200249646E+03  0.99030239087E+03  0.91616796852E+03 0.  0.
         23    2    4    4    0    0  0.31185351736E+03 -0.28249398956E+03 -0.13479078837E+03  0.45211395340E+03  0.95827969825E+02 0.  0.
         23    2    4    4    0    0 -0.44539706376E+03  0.20165159690E+03 -0.20721170808E+03  0.53818843746E+03  0.87568209527E+02 0.  0.
          4    1    3    3  502    0 -0.72261647102E+01 -0.21454248155E+01  0.11732975236E+01  0.76286913122E+01  0.00000000000E+00 0. -1.
         -3    1    3    3    0  502  0.14076971110E+03  0.82987817471E+02 -0.17636062022E+03  0.24042911175E+03  0.00000000000E+00 0.  1.
         13    1    5    5    0    0  0.29375376636E+03 -0.27813015068E+03 -0.14635711685E+03  0.43019537610E+03  0.00000000000E+00 0.  1.
        -13    1    5    5    0    0  0.18099751006E+02 -0.43638388766E+01  0.11566328480E+02  0.21918577297E+02  0.00000000000E+00 0. -1.
          2    1    6    6  503    0 -0.32089650559E+03  0.10047774120E+03 -0.14215447077E+03  0.36507292058E+03  0.00000000000E+00 0. -1.
         -2    1    6    6    0  503 -0.12450055816E+03  0.10117385571E+03 -0.65057237315E+02  0.17311551689E+03  0.00000000000E+00 0.  1.
<mgrwt>
<rscale>  0 0.11251892E+04</rscale>
<asrwt>0</asrwt>
<pdfrwt beam="1">  1        2 0.13504231E+00 0.11251892E+04</pdfrwt>
<pdfrwt beam="2">  1       -1 0.55474644E-01 0.11251892E+04</pdfrwt>
<totfact> 0.11284978E+02</totfact>
</mgrwt>
</event>
<event>
12    7  0.1707730E-007  0.1061761E+04  0.7818608E-02  0.9243285E-01
         -1   -1    0    0    0  501 -0.00000000000E+00  0.00000000000E+00  0.20797185656E+03  0.20797185656E+03  0.00000000000E+00 0.  1.
          2   -1    0    0  501    0  0.00000000000E+00 -0.00000000000E+00 -0.13551553161E+04  0.13551553161E+04  0.00000000000E+00 0. -1.
         24    2    1    2    0    0  0.10039150630E+03  0.53483274239E+02 -0.89734443340E+02  0.16545698855E+03  0.79905128617E+02 0.  0.
        254    2    1    2    0    0 -0.10039150630E+03 -0.53483274239E+02 -0.10574490162E+04  0.13976701841E+04  0.90683218210E+03 0.  0.
         23    2    4    4    0    0 -0.18003454485E+03 -0.59298924842E+02  0.10067773522E+03  0.23342001406E+03  0.91761085268E+02 0.  0.
         23    2    4    4    0    0  0.79643038549E+02  0.58156506030E+01 -0.11581267514E+04  0.11642501700E+04  0.88566645673E+02 0.  0.
          2    1    3    3  502    0  0.20750695008E+02 -0.76783136339E+01 -0.54865891428E+02  0.59159224858E+02  0.00000000000E+00 0. -1.
         -1    1    3    3    0  502  0.79640811289E+02  0.61161587873E+02 -0.34868551911E+02  0.10629776369E+03  0.00000000000E+00 0.  1.
         13    1    5    5    0    0 -0.17237911578E+03 -0.28477120992E+02  0.10070719029E+03  0.20166170720E+03  0.00000000000E+00 0.  1.
        -13    1    5    5    0    0 -0.76554290703E+01 -0.30821803850E+02 -0.29455072265E-01  0.31758306857E+02  0.00000000000E+00 0. -1.
          4    1    6    6  503    0  0.17071504031E+02  0.43137822108E+02 -0.45330173656E+03  0.45566958677E+03  0.00000000000E+00 0. -1.
         -4    1    6    6    0  503  0.62571534518E+02 -0.37322171506E+02 -0.70482501482E+03  0.70858058323E+03  0.00000000000E+00 0.  1.
<mgrwt>
<rscale>  0 0.10617611E+04</rscale>
<asrwt>0</asrwt>
<pdfrwt beam="1">  1        2 0.20848544E+00 0.10617611E+04</pdfrwt>
<pdfrwt beam="2">  1       -1 0.31995670E-01 0.10617611E+04</pdfrwt>
<totfact> 0.15841030E+02</totfact>
</mgrwt>
</event>
<event>
12    7  0.1707730E-007  0.1465319E+04  0.7818608E-02  0.8907848E-01
          2   -1    0    0  501    0  0.00000000000E+00  0.00000000000E+00  0.10158326180E+04  0.10158326180E+04  0.00000000000E+00 0. -1.
         -1   -1    0    0    0  501 -0.00000000000E+00 -0.00000000000E+00 -0.52842376051E+03  0.52842376051E+03  0.00000000000E+00 0.  1.
         24    2    1    2    0    0 -0.42871978371E+03  0.13423946773E+02  0.29083015221E+03  0.52407787166E+03  0.78067809203E+02 0.  0.
        254    2    1    2    0    0  0.42871978371E+03 -0.13423946773E+02  0.19657870528E+03  0.10201785068E+04  0.90451099671E+03 0.  0.
         23    2    4    4    0    0  0.25346586668E+02 -0.27040474990E+03 -0.23261310159E+03  0.37117534092E+03  0.99504273548E+02 0.  0.
         23    2    4    4    0    0  0.40337319705E+03  0.25698080313E+03  0.42919180687E+03  0.64900316592E+03  0.90831894289E+02 0.  0.
          4    1    3    3  502    0 -0.41421097475E+03  0.14334880115E+02  0.29526531472E+03  0.50887899001E+03  0.00000000000E+00 0. -1.
         -3    1    3    3    0  502 -0.14508808961E+02 -0.91093334123E+00 -0.44351625091E+01  0.15198881653E+02  0.00000000000E+00 0.  1.
         13    1    5    5    0    0  0.57167837555E+02 -0.14182566782E+03 -0.94231922591E+02  0.17961719556E+03  0.00000000000E+00 0.  1.
        -13    1    5    5    0    0 -0.31821250887E+02 -0.12857908208E+03 -0.13838117900E+03  0.19155814537E+03  0.00000000000E+00 0. -1.
          3    1    6    6  503    0  0.16437824575E+03  0.54977199771E+02  0.13809925861E+03  0.22161702417E+03  0.00000000000E+00 0. -1.
         -3    1    6    6    0  503  0.23899495130E+03  0.20200360336E+03  0.29109254825E+03  0.42738614175E+03  0.00000000000E+00 0.  1.
<mgrwt>
<rscale>  0 0.14653192E+04</rscale>
<asrwt>0</asrwt>
<pdfrwt beam="1">  1        2 0.15628194E+00 0.14653192E+04</pdfrwt>
<pdfrwt beam="2">  1       -1 0.81295963E-01 0.14653192E+04</pdfrwt>
<totfact> 0.40995432E+01</totfact>
</mgrwt>
</event>
<event>
12    7  0.1707730E-007  0.1734515E+04  0.7818608E-02  0.8741921E-01
          2   -1    0    0  501    0  0.00000000000E+00  0.00000000000E+00  0.16355452075E+04  0.16355452075E+04  0.00000000000E+00 0. -1.
         -1   -1    0    0    0  501 -0.00000000000E+00 -0.00000000000E+00 -0.45986826662E+03  0.45986826662E+03  0.00000000000E+00 0.  1.
         24    2    1    2    0    0 -0.59288303314E+03  0.86232638171E+01  0.27408740213E+03  0.65826346996E+03  0.81254170440E+02 0.  0.
        254    2    1    2    0    0  0.59288303314E+03 -0.86232638171E+01  0.90158953873E+03  0.14371500041E+04  0.94918480097E+03 0.  0.
         23    2    4    4    0    0 -0.40165175269E+02 -0.28651705788E+03  0.61030844052E+03  0.68154416222E+03  0.91218346359E+02 0.  0.
         23    2    4    4    0    0  0.63304820841E+03  0.27789379407E+03  0.29128109821E+03  0.75560584193E+03  0.90113901411E+02 0.  0.
          2    1    3    3  502    0 -0.15474789713E+02 -0.10283477296E+02 -0.55168960869E+00  0.18588259289E+02  0.00000000000E+00 0. -1.
         -1    1    3    3    0  502 -0.57740824343E+03  0.18906741113E+02  0.27463909174E+03  0.63967521067E+03  0.00000000000E+00 0.  1.
         13    1    5    5    0    0 -0.67413057109E+01 -0.13341496749E+01  0.64053409758E+02  0.64420993935E+02  0.00000000000E+00 0.  1.
        -13    1    5    5    0    0 -0.33423869558E+02 -0.28518290821E+03  0.54625503077E+03  0.61712316828E+03  0.00000000000E+00 0. -1.
          3    1    6    6  503    0  0.28916785738E+03  0.14267541572E+03  0.18203280602E+03  0.37028403484E+03  0.00000000000E+00 0. -1.
         -3    1    6    6    0  503  0.34388035103E+03  0.13521837835E+03  0.10924829219E+03  0.38532180708E+03  0.00000000000E+00 0.  1.
<mgrwt>
<rscale>  0 0.17345147E+04</rscale>
<asrwt>0</asrwt>
<pdfrwt beam="1">  1        2 0.25162234E+00 0.17345147E+04</pdfrwt>
<pdfrwt beam="2">  1       -1 0.70748965E-01 0.17345147E+04</pdfrwt>
<totfact> 0.23246173E+01</totfact>
</mgrwt>
</event>
<event>
12    7  0.1707730E-007  0.1911551E+04  0.7818608E-02  0.8649128E-01
          2   -1    0    0  501    0  0.00000000000E+00  0.00000000000E+00  0.17465412775E+04  0.17465412775E+04  0.00000000000E+00 0. -1.
         -1   -1    0    0    0  501 -0.00000000000E+00 -0.00000000000E+00 -0.52303748740E+03  0.52303748740E+03  0.00000000000E+00 0.  1.
         24    2    1    2    0    0 -0.38836119455E+02 -0.41239082006E+03 -0.25039025403E+03  0.49070465442E+03  0.80754850695E+02 0.  0.
        254    2    1    2    0    0  0.38836119455E+02  0.41239082006E+03  0.14738940442E+04  0.17788741105E+04  0.90578971897E+03 0.  0.
         23    2    4    4    0    0 -0.10591508610E+03  0.66884062519E+03  0.10956876737E+04  0.12909791994E+04  0.86775732079E+02 0.  0.
         23    2    4    4    0    0  0.14475120555E+03 -0.25644980513E+03  0.37820637045E+03  0.48789491108E+03  0.91005338013E+02 0.  0.
          2    1    3    3  502    0 -0.37517641037E+02 -0.84188718682E+02 -0.73353618355E+02  0.11779671926E+03  0.00000000000E+00 0. -1.
         -1    1    3    3    0  502 -0.13184784174E+01 -0.32820210138E+03 -0.17703663567E+03  0.37290793516E+03  0.00000000000E+00 0.  1.
         13    1    5    5    0    0 -0.35596029502E+02  0.42997645656E+03  0.74438930841E+03  0.86038495628E+03  0.00000000000E+00 0.  1.
        -13    1    5    5    0    0 -0.70319056595E+02  0.23886416863E+03  0.35129836529E+03  0.43059424315E+03  0.00000000000E+00 0. -1.
          3    1    6    6  503    0  0.27842554632E+02 -0.12939367891E+03  0.12982346796E+03  0.18539704643E+03  0.00000000000E+00 0. -1.
         -3    1    6    6    0  503  0.11690865092E+03 -0.12705612622E+03  0.24838290249E+03  0.30249786465E+03  0.00000000000E+00 0.  1.
<mgrwt>
<rscale>  0 0.19115507E+04</rscale>
<asrwt>0</asrwt>
<pdfrwt beam="1">  1        2 0.26869866E+00 0.19115507E+04</pdfrwt>
<pdfrwt beam="2">  1       -1 0.80467306E-01 0.19115507E+04</pdfrwt>
<totfact> 0.15169094E+01</totfact>
</mgrwt>
</event>
<event>
12    7  0.1707730E-007  0.1685605E+04  0.7818608E-02  0.8769617E-01
          2   -1    0    0  501    0  0.00000000000E+00  0.00000000000E+00  0.18093771091E+04  0.18093771091E+04  0.00000000000E+00 0. -1.
         -1   -1    0    0    0  501 -0.00000000000E+00 -0.00000000000E+00 -0.39257509090E+03  0.39257509090E+03  0.00000000000E+00 0.  1.
         24    2    1    2    0    0 -0.13146157005E+03  0.30776422371E+03 -0.14099795941E+03  0.37184046402E+03  0.79899589047E+02 0.  0.
        254    2    1    2    0    0  0.13146157005E+03 -0.30776422371E+03  0.15577999777E+04  0.18301117360E+04  0.90031507492E+03 0.  0.
         23    2    4    4    0    0  0.23170283503E+01  0.30403302101E+03  0.65944050447E+03  0.73180707917E+03  0.90765498398E+02 0.  0.
         23    2    4    4    0    0  0.12914454170E+03 -0.61179724472E+03  0.89835947319E+03  0.10983046569E+04  0.90825078606E+02 0.  0.
          2    1    3    3  502    0 -0.10035202447E+02  0.52377020097E+00  0.43063524459E+01  0.10932716715E+02  0.00000000000E+00 0. -1.
         -1    1    3    3    0  502 -0.12142636760E+03  0.30724045351E+03 -0.14530431186E+03  0.36090774731E+03  0.00000000000E+00 0.  1.
         13    1    5    5    0    0 -0.12700193181E+02  0.27299934112E+03  0.62903391962E+03  0.68583788696E+03  0.00000000000E+00 0. -1.
        -13    1    5    5    0    0  0.15017221532E+02  0.31033679884E+02  0.30406584850E+02  0.45969192204E+02  0.00000000000E+00 0.  1.
          2    1    6    6  503    0  0.11320494125E+03 -0.41801898350E+03  0.55822917777E+03  0.70652320854E+03  0.00000000000E+00 0. -1.
         -2    1    6    6    0  503  0.15939600449E+02 -0.19377826122E+03  0.34013029541E+03  0.39178144831E+03  0.00000000000E+00 0.  1.
<mgrwt>
<rscale>  0 0.16856054E+04</rscale>
<asrwt>0</asrwt>
<pdfrwt beam="1">  1        2 0.27836570E+00 0.16856054E+04</pdfrwt>
<pdfrwt beam="2">  1       -1 0.60396169E-01 0.16856054E+04</pdfrwt>
<totfact> 0.25718677E+01</totfact>
</mgrwt>
</event>
<event>
12    7  0.1707730E-007  0.1445141E+04  0.7818608E-02  0.8921776E-01
         -1   -1    0    0    0  501 -0.00000000000E+00  0.00000000000E+00  0.42954834364E+03  0.42954834364E+03  0.00000000000E+00 0.  1.
          2   -1    0    0  501    0  0.00000000000E+00 -0.00000000000E+00 -0.12154823215E+04  0.12154823215E+04  0.00000000000E+00 0. -1.
         24    2    1    2    0    0 -0.25471856178E+03  0.12087341072E+03  0.13319370458E+03  0.32408258393E+03  0.88300799150E+02 0.  0.
        254    2    1    2    0    0  0.25471856178E+03 -0.12087341072E+03 -0.91912768241E+03  0.13209480812E+04  0.90587869469E+03 0.  0.
         23    2    4    4    0    0 -0.10310684561E+03  0.31683623222E+03 -0.19022118992E+03  0.39435580746E+03  0.91193103485E+02 0.  0.
         23    2    4    4    0    0  0.35782540739E+03 -0.43770964294E+03 -0.72890649249E+03  0.92659227373E+03  0.87406025194E+02 0.  0.
          2    1    3    3  502    0 -0.23189980882E+03  0.10879907136E+03  0.85849640358E+02  0.27015721351E+03  0.00000000000E+00 0. -1.
         -1    1    3    3    0  502 -0.22818752958E+02  0.12074339353E+02  0.47344064225E+02  0.53925370418E+02  0.00000000000E+00 0.  1.
         13    1    5    5    0    0 -0.10704213236E+03  0.18650402482E+03 -0.11665648221E+03  0.24464362697E+03  0.00000000000E+00 0. -1.
        -13    1    5    5    0    0  0.39352867457E+01  0.13033220740E+03 -0.73564707710E+02  0.14971218049E+03  0.00000000000E+00 0.  1.
          1    1    6    6  503    0  0.30621413410E+03 -0.34276559550E+03 -0.54154838223E+03  0.71030275213E+03  0.00000000000E+00 0. -1.
         -1    1    6    6    0  503  0.51611273296E+02 -0.94944047439E+02 -0.18735811026E+03  0.21628952160E+03  0.00000000000E+00 0.  1.
<mgrwt>
<rscale>  0 0.14451414E+04</rscale>
<asrwt>0</asrwt>
<pdfrwt beam="1">  1        2 0.18699728E+00 0.14451414E+04</pdfrwt>
<pdfrwt beam="2">  1       -1 0.66084361E-01 0.14451414E+04</pdfrwt>
<totfact> 0.47597234E+01</totfact>
</mgrwt>
</event>
<event>
12    7  0.1707730E-007  0.1250639E+04  0.7818608E-02  0.9069652E-01
          2   -1    0    0  501    0  0.00000000000E+00  0.00000000000E+00  0.23335387114E+04  0.23335387114E+04  0.00000000000E+00 0. -1.
         -1   -1    0    0    0  501 -0.00000000000E+00 -0.00000000000E+00 -0.16756714933E+03  0.16756714933E+03  0.00000000000E+00 0.  1.
         24    2    1    2    0    0  0.40014264733E+02  0.22364502185E+03  0.93145974617E+03  0.96212407086E+03  0.80294656230E+02 0.  0.
        254    2    1    2    0    0 -0.40014264733E+02 -0.22364502185E+03  0.12345118159E+04  0.15389817899E+04  0.89040849545E+03 0.  0.
         23    2    4    4    0    0  0.29213877247E+02 -0.34884867503E+03  0.78116960792E+02  0.37023486338E+03  0.91775518559E+02 0.  0.
         23    2    4    4    0    0 -0.69228141981E+02  0.12520365317E+03  0.11563948552E+04  0.11687469265E+04  0.90839566419E+02 0.  0.
          4    1    3    3  502    0  0.37953136674E+02  0.17427348056E+03  0.83393380481E+03  0.85279380709E+03  0.00000000000E+00 0. -1.
         -3    1    3    3    0  502  0.20611280589E+01  0.49371541289E+02  0.97525941361E+02  0.10933026377E+03  0.00000000000E+00 0.  1.
         13    1    5    5    0    0 -0.53625596378E+01 -0.18190397869E+03  0.82227242846E+02  0.19969760634E+03  0.00000000000E+00 0.  1.
        -13    1    5    5    0    0  0.34576436885E+02 -0.16694469633E+03 -0.41102820532E+01  0.17053725704E+03  0.00000000000E+00 0. -1.
          1    1    6    6  503    0 -0.41127707890E+02  0.48108583833E+01  0.42113909617E+03  0.42316990800E+03  0.00000000000E+00 0. -1.
         -1    1    6    6    0  503 -0.28100434091E+02  0.12039279479E+03  0.73525575899E+03  0.74557701853E+03  0.00000000000E+00 0.  1.
<mgrwt>
<rscale>  0 0.12506389E+04</rscale>
<asrwt>0</asrwt>
<pdfrwt beam="1">  1        2 0.35900593E+00 0.12506389E+04</pdfrwt>
<pdfrwt beam="2">  1       -1 0.25779563E-01 0.12506389E+04</pdfrwt>
<totfact> 0.64812735E+01</totfact>
</mgrwt>
</event>
<event>
12    7  0.1707730E-007  0.1220129E+04  0.7818608E-02  0.9095418E-01
          2   -1    0    0  501    0  0.00000000000E+00  0.00000000000E+00  0.56469974444E+03  0.56469974444E+03  0.00000000000E+00 0. -1.
         -1   -1    0    0    0  501 -0.00000000000E+00 -0.00000000000E+00 -0.65907308243E+03  0.65907308243E+03  0.00000000000E+00 0.  1.
         24    2    1    2    0    0 -0.10690575416E+03  0.18798314383E+03  0.12580930910E+03  0.26355624858E+03  0.82869845389E+02 0.  0.
        254    2    1    2    0    0  0.10690575416E+03 -0.18798314383E+03 -0.22018264709E+03  0.96021657829E+03  0.90926837430E+03 0.  0.
         23    2    4    4    0    0 -0.14310209376E+03 -0.49359895843E+03 -0.18254459957E+03  0.55299237784E+03  0.91432478442E+02 0.  0.
         23    2    4    4    0    0  0.25000784792E+03  0.30561581459E+03 -0.37638047516E+02  0.40722420045E+03  0.92249534750E+02 0.  0.
          4    1    3    3  502    0 -0.11516648689E+03  0.18115753360E+03  0.10245765805E+03  0.23786328716E+03  0.00000000000E+00 0. -1.
         -3    1    3    3    0  502  0.82607327346E+01  0.68256102299E+01  0.23351651044E+02  0.25692961425E+02  0.00000000000E+00 0.  1.
         13    1    5    5    0    0 -0.10234170688E+03 -0.28381125246E+03 -0.63313391446E+02  0.30827136994E+03  0.00000000000E+00 0. -1.
        -13    1    5    5    0    0 -0.40760386884E+02 -0.20978770596E+03 -0.11923120813E+03  0.24472100789E+03  0.00000000000E+00 0.  1.
          4    1    6    6  503    0  0.24759499380E+03  0.31050341048E+03 -0.30584860822E+02  0.39831028431E+03  0.00000000000E+00 0. -1.
         -4    1    6    6    0  503  0.24128541190E+01 -0.48875958825E+01 -0.70531866940E+01  0.89139161456E+01  0.00000000000E+00 0.  1.
<mgrwt>
<rscale>  0 0.12201285E+04</rscale>
<asrwt>0</asrwt>
<pdfrwt beam="1">  1        2 0.86876884E-01 0.12201285E+04</pdfrwt>
<pdfrwt beam="2">  1       -1 0.10139586E+00 0.12201285E+04</pdfrwt>
<totfact> 0.55511240E+01</totfact>
</mgrwt>
</event>
<event>
12    7  0.1707730E-007  0.2200014E+04  0.7818608E-02  0.8518422E-01
         -1   -1    0    0    0  501 -0.00000000000E+00  0.00000000000E+00  0.88407656267E+03  0.88407656267E+03  0.00000000000E+00 0.  1.
          2   -1    0    0  501    0  0.00000000000E+00 -0.00000000000E+00 -0.13686768701E+04  0.13686768701E+04  0.00000000000E+00 0. -1.
         24    2    1    2    0    0 -0.24731220895E+03  0.82320475187E+03  0.18873152696E+03  0.88379254431E+03  0.81487912667E+02 0.  0.
        254    2    1    2    0    0  0.24731220895E+03 -0.82320475187E+03 -0.67333183437E+03  0.13689608884E+04  0.82574134129E+03 0.  0.
         23    2    4    4    0    0  0.26744386832E+03  0.21284464345E+01 -0.40897626135E+03  0.49729770514E+03  0.92264143638E+02 0.  0.
         23    2    4    4    0    0 -0.20131659373E+02 -0.82533319830E+03 -0.26435557302E+03  0.87166318331E+03  0.91283427939E+02 0.  0.
          2    1    3    3  502    0 -0.12419537339E+03  0.35759219867E+03  0.45137354215E+02  0.38122703481E+03  0.00000000000E+00 0. -1.
         -1    1    3    3    0  502 -0.12311683555E+03  0.46561255320E+03  0.14359417275E+03  0.50256550950E+03  0.00000000000E+00 0.  1.
         13    1    5    5    0    0  0.19830186380E+03  0.18576257799E+02 -0.35854927891E+03  0.41015398565E+03  0.00000000000E+00 0.  1.
        -13    1    5    5    0    0  0.69142004515E+02 -0.16447811365E+02 -0.50426982438E+02  0.87143719480E+02  0.00000000000E+00 0. -1.
          1    1    6    6  503    0  0.62908669150E+01 -0.58497226214E+02 -0.43656597423E+02  0.73262534626E+02  0.00000000000E+00 0. -1.
         -1    1    6    6    0  503 -0.26422526288E+02 -0.76683597209E+03 -0.22069897560E+03  0.79840064868E+03  0.00000000000E+00 0.  1.
<mgrwt>
<rscale>  0 0.22000138E+04</rscale>
<asrwt>0</asrwt>
<pdfrwt beam="1">  1        2 0.21056567E+00 0.22000138E+04</pdfrwt>
<pdfrwt beam="2">  1       -1 0.13601178E+00 0.22000138E+04</pdfrwt>
<totfact> 0.70996178E+00</totfact>
</mgrwt>
</event>
<event>
12    7  0.1707730E-007  0.1795429E+04  0.7818608E-02  0.8708734E-01
          2   -1    0    0  501    0  0.00000000000E+00  0.00000000000E+00  0.57416351371E+03  0.57416351371E+03  0.00000000000E+00 0. -1.
         -1   -1    0    0    0  501 -0.00000000000E+00 -0.00000000000E+00 -0.14035919895E+04  0.14035919895E+04  0.00000000000E+00 0.  1.
         24    2    1    2    0    0  0.30546414338E+03  0.54693114231E+03 -0.56086119835E+03  0.84492867754E+03  0.83049196281E+02 0.  0.
        254    2    1    2    0    0 -0.30546414338E+03 -0.54693114231E+03 -0.26856727749E+03  0.11328268257E+04  0.90483491157E+03 0.  0.
         23    2    4    4    0    0  0.15371223374E+03 -0.13366075753E+03 -0.43208251638E+03  0.48615054210E+03  0.90301714924E+02 0.  0.
         23    2    4    4    0    0 -0.45917637712E+03 -0.41327038478E+03  0.16351523889E+03  0.64667628361E+03  0.99083935128E+02 0.  0.
          4    1    3    3  502    0  0.40066796476E+02  0.93774420747E+02 -0.55454339535E+02  0.11607830951E+03  0.00000000000E+00 0. -1.
         -3    1    3    3    0  502  0.26539734690E+03  0.45315672156E+03 -0.50540685881E+03  0.72885036803E+03  0.00000000000E+00 0.  1.
         13    1    5    5    0    0  0.12059154276E+03 -0.11197087505E+03 -0.24642881675E+03  0.29632238992E+03  0.00000000000E+00 0.  1.
        -13    1    5    5    0    0  0.33120690983E+02 -0.21689882479E+02 -0.18565369963E+03  0.18982815218E+03  0.00000000000E+00 0. -1.
          1    1    6    6  503    0 -0.10146918353E+03 -0.64632287953E+02 -0.24298928065E+01  0.12032968143E+03  0.00000000000E+00 0.  1.
         -1    1    6    6    0  503 -0.35770719358E+03 -0.34863809683E+03  0.16594513170E+03  0.52634660219E+03  0.00000000000E+00 0. -1.
<mgrwt>
<rscale>  0 0.17954290E+04</rscale>
<asrwt>0</asrwt>
<pdfrwt beam="1">  1        2 0.88332848E-01 0.17954290E+04</pdfrwt>
<pdfrwt beam="2">  1       -1 0.21593723E+00 0.17954290E+04</pdfrwt>
<totfact> 0.66116148E+00</totfact>
</mgrwt>
</event>
<event>
12    7  0.1707730E-007  0.3067212E+04  0.7818608E-02  0.8224794E-01
         -1   -1    0    0    0  501 -0.00000000000E+00  0.00000000000E+00  0.85591543306E+03  0.85591543306E+03  0.00000000000E+00 0.  1.
          2   -1    0    0  501    0  0.00000000000E+00 -0.00000000000E+00 -0.27478732984E+04  0.27478732984E+04  0.00000000000E+00 0. -1.
         24    2    1    2    0    0 -0.74312211402E+02 -0.61735763963E+03  0.60937434885E+03  0.87418667079E+03  0.78819276776E+02 0.  0.
        254    2    1    2    0    0  0.74312211402E+02  0.61735763963E+03 -0.25013322142E+04  0.27296020607E+04  0.89856096283E+03 0.  0.
         23    2    4    4    0    0 -0.39921750568E+03  0.36226654560E+03 -0.12376240910E+04  0.13530661023E+04  0.91993585731E+02 0.  0.
         23    2    4    4    0    0  0.47352971709E+03  0.25509109402E+03 -0.12637081232E+04  0.13765359583E+04  0.92688536018E+02 0.  0.
          4    1    3    3  502    0 -0.44865857072E+02 -0.26049096802E+03  0.20840802636E+03  0.33660421121E+03  0.00000000000E+00 0. -1.
         -3    1    3    3    0  502 -0.29446354329E+02 -0.35686667161E+03  0.40096632248E+03  0.53758245959E+03  0.00000000000E+00 0.  1.
         13    1    5    5    0    0 -0.53684293984E+01  0.17985404938E+02 -0.18066839420E+02  0.26051977116E+02  0.00000000000E+00 0. -1.
        -13    1    5    5    0    0 -0.39384907628E+03  0.34428114066E+03 -0.12195572516E+04  0.13270141252E+04  0.00000000000E+00 0.  1.
          1    1    6    6  503    0  0.17049273927E+03  0.14356607435E+03 -0.51692935694E+03  0.56293423409E+03  0.00000000000E+00 0. -1.
         -1    1    6    6    0  503  0.30303697781E+03  0.11152501967E+03 -0.74677876626E+03  0.81360172423E+03  0.00000000000E+00 0.  1.
<mgrwt>
<rscale>  0 0.30672119E+04</rscale>
<asrwt>0</asrwt>
<pdfrwt beam="1">  1        2 0.42274974E+00 0.30672119E+04</pdfrwt>
<pdfrwt beam="2">  1       -1 0.13167930E+00 0.30672119E+04</pdfrwt>
<totfact> 0.11799961E+00</totfact>
</mgrwt>
</event>
<event>
12    7  0.1707730E-007  0.1746259E+04  0.7818608E-02  0.8735412E-01
         -1   -1    0    0    0  501 -0.00000000000E+00  0.00000000000E+00  0.39942669032E+03  0.39942669032E+03  0.00000000000E+00 0.  1.
          2   -1    0    0  501    0  0.00000000000E+00 -0.00000000000E+00 -0.19086243997E+04  0.19086243997E+04  0.00000000000E+00 0. -1.
         24    2    1    2    0    0  0.43300588837E+03 -0.21412586752E+03 -0.98924499587E+03  0.11034872270E+04  0.75725898951E+02 0.  0.
        254    2    1    2    0    0 -0.43300588837E+03  0.21412586752E+03 -0.51995271355E+03  0.12045638631E+04  0.97328273867E+03 0.  0.
         23    2    4    4    0    0 -0.47718608236E+03  0.52439665822E+03 -0.51062565627E+03  0.87852682800E+03  0.91500897974E+02 0.  0.
         23    2    4    4    0    0  0.44180193988E+02 -0.31027079070E+03 -0.93270572775E+01  0.32603703507E+03  0.89405263487E+02 0.  0.
          2    1    3    3  502    0  0.26945969979E+03 -0.12846632088E+03 -0.69099973639E+03  0.75272356221E+03  0.00000000000E+00 0. -1.
         -1    1    3    3    0  502  0.16354618858E+03 -0.85659546639E+02 -0.29824525948E+03  0.35076366478E+03  0.00000000000E+00 0.  1.
         13    1    5    5    0    0 -0.75431550103E+02  0.10611356682E+03 -0.56540376426E+02  0.14193950113E+03  0.00000000000E+00 0.  1.
        -13    1    5    5    0    0 -0.40175453225E+03  0.41828309139E+03 -0.45408527985E+03  0.73658732687E+03  0.00000000000E+00 0. -1.
          4    1    6    6  503    0  0.38694507386E+01 -0.24505266709E+03 -0.29244195844E+02  0.24682180878E+03  0.00000000000E+00 0.  1.
         -4    1    6    6    0  503  0.40310743250E+02 -0.65218123611E+02  0.19917138567E+02  0.79215226298E+02  0.00000000000E+00 0. -1.
<mgrwt>
<rscale>  0 0.17462595E+04</rscale>
<asrwt>0</asrwt>
<pdfrwt beam="1">  1        2 0.29363453E+00 0.17462595E+04</pdfrwt>
<pdfrwt beam="2">  1       -1 0.61450259E-01 0.17462595E+04</pdfrwt>
<totfact> 0.21782141E+01</totfact>
</mgrwt>
</event>
<event>
12    7  0.1707730E-007  0.1301738E+04  0.7818608E-02  0.9028188E-01
         -1   -1    0    0    0  501 -0.00000000000E+00  0.00000000000E+00  0.26804313752E+03  0.26804313752E+03  0.00000000000E+00 0.  1.
          2   -1    0    0  501    0  0.00000000000E+00 -0.00000000000E+00 -0.15804566915E+04  0.15804566915E+04  0.00000000000E+00 0. -1.
         24    2    1    2    0    0  0.25980475689E+03 -0.72251871914E+01 -0.57076145527E+02  0.27777442858E+03  0.79688341358E+02 0.  0.
        254    2    1    2    0    0 -0.25980475689E+03  0.72251871914E+01 -0.12553374084E+04  0.15707254004E+04  0.90760980574E+03 0.  0.
         23    2    4    4    0    0 -0.12900458017E+03  0.10891104604E+03  0.90447603465E+02  0.21202734189E+03  0.90945187253E+02 0.  0.
         23    2    4    4    0    0 -0.13080017673E+03 -0.10168585885E+03 -0.13457850119E+04  0.13586980585E+04  0.86454704074E+02 0.  0.
          2    1    3    3  502    0  0.14242638679E+02  0.93137603950E+01 -0.24032649493E+02  0.29447701624E+02  0.00000000000E+00 0. -1.
         -1    1    3    3    0  502  0.24556211821E+03 -0.16538947586E+02 -0.33043496034E+02  0.24832672695E+03  0.00000000000E+00 0.  1.
         13    1    5    5    0    0 -0.52588470189E+02  0.44987290401E+01 -0.23006041318E+01  0.52830659083E+02  0.00000000000E+00 0. -1.
        -13    1    5    5    0    0 -0.76416109978E+02  0.10441231700E+03  0.92748207597E+02  0.15919668281E+03  0.00000000000E+00 0.  1.
          4    1    6    6  503    0  0.12524693353E+02 -0.30591658648E+01 -0.90673907982E+02  0.91585937938E+02  0.00000000000E+00 0. -1.
         -4    1    6    6    0  503 -0.14332487008E+03 -0.98626692985E+02 -0.12551111039E+04  0.12671121206E+04  0.00000000000E+00 0.  1.
<mgrwt>
<rscale>  0 0.13017382E+04</rscale>
<asrwt>0</asrwt>
<pdfrwt beam="1">  1        2 0.24314718E+00 0.13017382E+04</pdfrwt>
<pdfrwt beam="2">  1       -1 0.41237406E-01 0.13017382E+04</pdfrwt>
<totfact> 0.73531739E+01</totfact>
</mgrwt>
</event>
<event>
12    7  0.1707730E-007  0.3306999E+04  0.7818608E-02  0.8161117E-01
          2   -1    0    0  501    0  0.00000000000E+00  0.00000000000E+00  0.13004229468E+04  0.13004229468E+04  0.00000000000E+00 0. -1.
         -1   -1    0    0    0  501 -0.00000000000E+00 -0.00000000000E+00 -0.21024399022E+04  0.21024399022E+04  0.00000000000E+00 0.  1.
         24    2    1    2    0    0 -0.36344609798E+03 -0.57862550272E+03 -0.17809307973E+04  0.19091080827E+04  0.77965557142E+02 0.  0.
        254    2    1    2    0    0  0.36344609798E+03  0.57862550272E+03  0.97891384194E+03  0.14937547662E+04  0.89784767816E+03 0.  0.
         23    2    4    4    0    0 -0.17240307590E+03 -0.10731920653E+03  0.35380607731E+03  0.41820074505E+03  0.92048303341E+02 0.  0.
         23    2    4    4    0    0  0.53584917388E+03  0.68594470925E+03  0.62510776463E+03  0.10755540212E+04  0.91663808511E+02 0.  0.
          4    1    3    3  502    0 -0.90464910132E+02 -0.10598740020E+03 -0.43282150890E+03  0.45469955744E+03  0.00000000000E+00 0. -1.
         -3    1    3    3    0  502 -0.27298118785E+03 -0.47263810252E+03 -0.13481092884E+04  0.14544085253E+04  0.00000000000E+00 0.  1.
         13    1    5    5    0    0  0.94930594084E+01  0.40019601448E-02  0.31192859333E+02  0.32605408544E+02  0.00000000000E+00 0. -1.
        -13    1    5    5    0    0 -0.18189613531E+03 -0.10732320849E+03  0.32261321797E+03  0.38559533650E+03  0.00000000000E+00 0.  1.
          1    1    6    6  503    0  0.16490280882E+03  0.20580625411E+03  0.24239063794E+03  0.35819320478E+03  0.00000000000E+00 0. -1.
         -1    1    6    6    0  503  0.37094636507E+03  0.48013845514E+03  0.38271712669E+03  0.71736081641E+03  0.00000000000E+00 0.  1.
<mgrwt>
<rscale>  0 0.33069993E+04</rscale>
<asrwt>0</asrwt>
<pdfrwt beam="1">  1        2 0.20006507E+00 0.33069993E+04</pdfrwt>
<pdfrwt beam="2">  1       -1 0.32345229E+00 0.33069993E+04</pdfrwt>
<totfact> 0.36489921E-01</totfact>
</mgrwt>
</event>
<event>
12    7  0.1707730E-007  0.1780443E+04  0.7818608E-02  0.8716769E-01
         -1   -1    0    0    0  501 -0.00000000000E+00  0.00000000000E+00  0.89579009542E+03  0.89579009542E+03  0.00000000000E+00 0.  1.
          2   -1    0    0  501    0  0.00000000000E+00 -0.00000000000E+00 -0.88468773962E+03  0.88468773962E+03  0.00000000000E+00 0. -1.
         24    2    1    2    0    0  0.23351360339E+03 -0.25839688399E+02  0.62427938189E+03  0.67145858360E+03  0.77042782724E+02 0.  0.
        254    2    1    2    0    0 -0.23351360339E+03  0.25839688399E+02 -0.61317702609E+03  0.11090192514E+04  0.89372330296E+03 0.  0.
         23    2    4    4    0    0 -0.41202554496E+03  0.32800883362E+03 -0.23200569886E+03  0.58328386604E+03  0.95071443882E+02 0.  0.
         23    2    4    4    0    0  0.17851194157E+03 -0.30216914522E+03 -0.38117132723E+03  0.52573538539E+03  0.89069687029E+02 0.  0.
          2    1    3    3  502    0  0.28592558296E+01  0.71503642749E+01  0.66848398130E+02  0.67290499966E+02  0.00000000000E+00 0. -1.
         -1    1    3    3    0  502  0.23065434756E+03 -0.32990052674E+02  0.55743098376E+03  0.60416808363E+03  0.00000000000E+00 0.  1.
         13    1    5    5    0    0 -0.23459480302E+03  0.17969673896E+03 -0.18079460715E+03  0.34642795726E+03  0.00000000000E+00 0. -1.
        -13    1    5    5    0    0 -0.17743074194E+03  0.14831209466E+03 -0.51211091711E+02  0.23685590877E+03  0.00000000000E+00 0.  1.
          4    1    6    6  503    0  0.84281838591E+02 -0.64139929936E+02 -0.10426321025E+03  0.14862091354E+03  0.00000000000E+00 0. -1.
         -4    1    6    6    0  503  0.94230102983E+02 -0.23802921529E+03 -0.27690811698E+03  0.37711447186E+03  0.00000000000E+00 0.  1.
<mgrwt>
<rscale>  0 0.17804432E+04</rscale>
<asrwt>0</asrwt>
<pdfrwt beam="1">  1        2 0.13610581E+00 0.17804432E+04</pdfrwt>
<pdfrwt beam="2">  1       -1 0.13781386E+00 0.17804432E+04</pdfrwt>
<totfact> 0.14155880E+01</totfact>
</mgrwt>
</event>
<event>
12    7  0.1707730E-007  0.2194953E+04  0.7818608E-02  0.8520532E-01
          2   -1    0    0  501    0  0.00000000000E+00  0.00000000000E+00  0.89869222921E+03  0.89869222921E+03  0.00000000000E+00 0. -1.
         -1   -1    0    0    0  501 -0.00000000000E+00 -0.00000000000E+00 -0.13402308296E+04  0.13402308296E+04  0.00000000000E+00 0.  1.
         24    2    1    2    0    0 -0.38653315184E+02 -0.86750096141E+03  0.11244555608E+03  0.87919206284E+03  0.79263380317E+02 0.  0.
        254    2    1    2    0    0  0.38653315184E+02  0.86750096141E+03 -0.55398415642E+03  0.13597309959E+04  0.88764741812E+03 0.  0.
         23    2    4    4    0    0  0.23781502440E+03 -0.40401269128E+02  0.27529772453E+02  0.25912098406E+03  0.90540309419E+02 0.  0.
         23    2    4    4    0    0 -0.19916170922E+03  0.90790223054E+03 -0.58151392887E+03  0.11006100119E+04  0.96083828575E+02 0.  0.
          4    1    3    3  502    0 -0.57933190240E+02 -0.76107258773E+03  0.10861512732E+03  0.77096367243E+03  0.00000000000E+00 0. -1.
         -3    1    3    3    0  502  0.19279875057E+02 -0.10642837368E+03  0.38304287607E+01  0.10822839041E+03  0.00000000000E+00 0.  1.
         13    1    5    5    0    0  0.11237543046E+03 -0.17069511382E+02  0.58485290435E+02  0.12782853667E+03  0.00000000000E+00 0.  1.
        -13    1    5    5    0    0  0.12543959394E+03 -0.23331757746E+02 -0.30955517982E+02  0.13129244739E+03  0.00000000000E+00 0. -1.
          3    1    6    6  503    0 -0.15049255359E+03  0.79355514692E+03 -0.47557472522E+03  0.93730950019E+03  0.00000000000E+00 0. -1.
         -3    1    6    6    0  503 -0.48669155631E+02  0.11434708362E+03 -0.10593920365E+03  0.16330051168E+03  0.00000000000E+00 0.  1.
<mgrwt>
<rscale>  0 0.21949533E+04</rscale>
<asrwt>0</asrwt>
<pdfrwt beam="1">  1        2 0.13826034E+00 0.21949533E+04</pdfrwt>
<pdfrwt beam="2">  1       -1 0.20618936E+00 0.21949533E+04</pdfrwt>
<totfact> 0.41823114E+00</totfact>
</mgrwt>
</event>
<event>
12    7  0.1707730E-007  0.1909477E+04  0.7818608E-02  0.8650154E-01
          2   -1    0    0  501    0  0.00000000000E+00  0.00000000000E+00  0.14934266497E+04  0.14934266497E+04  0.00000000000E+00 0. -1.
         -1   -1    0    0    0  501 -0.00000000000E+00 -0.00000000000E+00 -0.61035821820E+03  0.61035821820E+03  0.00000000000E+00 0.  1.
         24    2    1    2    0    0 -0.50033299894E+02  0.16602285760E+03 -0.44780472484E+03  0.48654958276E+03  0.78323078018E+02 0.  0.
        254    2    1    2    0    0  0.50033299894E+02 -0.16602285760E+03  0.13308731563E+04  0.16172352851E+04  0.90230797895E+03 0.  0.
         23    2    4    4    0    0 -0.29303826789E+03  0.14438656877E+02  0.99536541986E+02  0.32315421244E+03  0.91876115307E+02 0.  0.
         23    2    4    4    0    0  0.34307156779E+03 -0.18046151447E+03  0.12313366143E+04  0.12940810727E+04  0.90506939236E+02 0.  0.
          2    1    3    3  502    0  0.19495376663E+02  0.17701814250E+02 -0.68320636269E+02  0.73219760168E+02  0.00000000000E+00 0. -1.
         -1    1    3    3    0  502 -0.69528676557E+02  0.14832104335E+03 -0.37948408857E+03  0.41332982259E+03  0.00000000000E+00 0.  1.
         13    1    5    5    0    0 -0.45796936533E+02  0.30458673314E+02  0.40924696483E+02  0.68555969529E+02  0.00000000000E+00 0.  1.
        -13    1    5    5    0    0 -0.24724133136E+03 -0.16020016437E+02  0.58611845503E+02  0.25459824291E+03  0.00000000000E+00 0. -1.
          4    1    6    6  503    0  0.42438595855E+02 -0.42224863208E+02  0.29456452131E+03  0.30058647791E+03  0.00000000000E+00 0.  1.
         -4    1    6    6    0  503  0.30063297193E+03 -0.13823665127E+03  0.93677209301E+03  0.99349459475E+03  0.00000000000E+00 0. -1.
<mgrwt>
<rscale>  0 0.19094766E+04</rscale>
<asrwt>0</asrwt>
<pdfrwt beam="1">  1        2 0.22975794E+00 0.19094766E+04</pdfrwt>
<pdfrwt beam="2">  1       -1 0.93901265E-01 0.19094766E+04</pdfrwt>
<totfact> 0.15005369E+01</totfact>
</mgrwt>
</event>
<event>
12    7  0.1707730E-007  0.3154339E+04  0.7818608E-02  0.8200981E-01
         -1   -1    0    0    0  501 -0.00000000000E+00  0.00000000000E+00  0.11547040531E+04  0.11547040531E+04  0.00000000000E+00 0.  1.
          2   -1    0    0  501    0  0.00000000000E+00 -0.00000000000E+00 -0.21542003831E+04  0.21542003831E+04  0.00000000000E+00 0. -1.
         24    2    1    2    0    0  0.20184988998E+03  0.10700268512E+04  0.54193591097E+03  0.12188050020E+04  0.78040123845E+02 0.  0.
        254    2    1    2    0    0 -0.20184988998E+03 -0.10700268512E+04 -0.15414322410E+04  0.20900994342E+04  0.89822127050E+03 0.  0.
         23    2    4    4    0    0  0.74554592385E+02  0.10294634160E+03 -0.39232466661E+03  0.42255282028E+03  0.92064680515E+02 0.  0.
         23    2    4    4    0    0 -0.27640448236E+03 -0.11729731928E+04 -0.11491075744E+04  0.16675466139E+04  0.89431220029E+02 0.  0.
          4    1    3    3  502    0  0.74438191987E+01  0.50652205301E+02  0.82080147880E+01  0.51850051618E+02  0.00000000000E+00 0. -1.
         -3    1    3    3    0  502  0.19440607078E+03  0.10193746459E+04  0.53372789618E+03  0.11669549504E+04  0.00000000000E+00 0.  1.
         13    1    5    5    0    0  0.29261912228E+02 -0.50769699948E+01 -0.15588472475E+03  0.15868863394E+03  0.00000000000E+00 0. -1.
        -13    1    5    5    0    0  0.45292680157E+02  0.10802331160E+03 -0.23643994186E+03  0.26386418634E+03  0.00000000000E+00 0.  1.
          1    1    6    6  503    0 -0.13167925080E+03 -0.74722802152E+03 -0.72219164081E+03  0.10474969724E+04  0.00000000000E+00 0. -1.
         -1    1    6    6    0  503 -0.14472523157E+03 -0.42574517128E+03 -0.42691593362E+03  0.62004964148E+03  0.00000000000E+00 0.  1.
<mgrwt>
<rscale>  0 0.31543392E+04</rscale>
<asrwt>0</asrwt>
<pdfrwt beam="1">  1        2 0.33141544E+00 0.31543392E+04</pdfrwt>
<pdfrwt beam="2">  1       -1 0.17764678E+00 0.31543392E+04</pdfrwt>
<totfact> 0.11395954E+00</totfact>
</mgrwt>
</event>
<event>
12    7  0.1707730E-007  0.2164620E+04  0.7818608E-02  0.8533300E-01
         -1   -1    0    0    0  501 -0.00000000000E+00  0.00000000000E+00  0.13356177446E+04  0.13356177446E+04  0.00000000000E+00 0.  1.
          2   -1    0    0  501    0  0.00000000000E+00 -0.00000000000E+00 -0.87704382694E+03  0.87704382694E+03  0.00000000000E+00 0. -1.
         24    2    1    2    0    0  0.19608234825E+03 -0.15446895217E+02  0.10940111259E+04  0.11146197324E+04  0.82643272364E+02 0.  0.
        254    2    1    2    0    0 -0.19608234825E+03  0.15446895217E+02 -0.63543720819E+03  0.10980418392E+04  0.87362952167E+03 0.  0.
         23    2    4    4    0    0 -0.34175264046E+02 -0.11952618295E+03  0.18823309508E+03  0.24304410965E+03  0.90467033056E+02 0.  0.
         23    2    4    4    0    0 -0.16190708420E+03  0.13497307817E+03 -0.82367030326E+03  0.85499772951E+03  0.90314523933E+02 0.  0.
          4    1    3    3  502    0  0.14799013726E+02 -0.14081324768E+02  0.27627610887E+03  0.27703029229E+03  0.00000000000E+00 0. -1.
         -3    1    3    3    0  502  0.18128333452E+03 -0.13655704488E+01  0.81773501701E+03  0.83758944012E+03  0.00000000000E+00 0.  1.
         13    1    5    5    0    0 -0.44216456975E+02 -0.95449585005E+02  0.81227344019E+02  0.13290447608E+03  0.00000000000E+00 0.  1.
        -13    1    5    5    0    0  0.10041192929E+02 -0.24076597949E+02  0.10700575106E+03  0.11013963357E+03  0.00000000000E+00 0. -1.
          2    1    6    6  503    0 -0.50921313407E+02  0.10099783304E+03 -0.39140995490E+03  0.40742520201E+03  0.00000000000E+00 0.  1.
         -2    1    6    6    0  503 -0.11098577079E+03  0.33975245133E+02 -0.43226034836E+03  0.44757252749E+03  0.00000000000E+00 0. -1.
<mgrwt>
<rscale>  0 0.21646203E+04</rscale>
<asrwt>0</asrwt>
<pdfrwt beam="1">  1        2 0.13492982E+00 0.21646203E+04</pdfrwt>
<pdfrwt beam="2">  1       -1 0.20547965E+00 0.21646203E+04</pdfrwt>
<totfact> 0.43869023E+00</totfact>
</mgrwt>
</event>
<event>
12    7  0.1707730E-007  0.1872172E+04  0.7818608E-02  0.8668833E-01
          2   -1    0    0  501    0  0.00000000000E+00  0.00000000000E+00  0.94725614627E+03  0.94725614627E+03  0.00000000000E+00 0. -1.
         -1   -1    0    0    0  501 -0.00000000000E+00 -0.00000000000E+00 -0.92504801586E+03  0.92504801586E+03  0.00000000000E+00 0.  1.
         24    2    1    2    0    0  0.39263900615E+03  0.16262484279E+03  0.58896796391E+03  0.73131265798E+03  0.85572849462E+02 0.  0.
        254    2    1    2    0    0 -0.39263900615E+03 -0.16262484279E+03 -0.56675983350E+03  0.11409915042E+04  0.89444545671E+03 0.  0.
         23    2    4    4    0    0 -0.26375636543E+02 -0.48216053637E+03 -0.22912926243E+03  0.54224437268E+03  0.91401771094E+02 0.  0.
         23    2    4    4    0    0 -0.36626336961E+03  0.31953569358E+03 -0.33763057107E+03  0.59874713147E+03  0.90839471261E+02 0.  0.
          4    1    3    3  502    0  0.28911855124E+03  0.10059907673E+03  0.47644578955E+03  0.56631290052E+03  0.00000000000E+00 0. -1.
         -3    1    3    3    0  502  0.10352045491E+03  0.62025766061E+02  0.11252217436E+03  0.16499975746E+03  0.00000000000E+00 0.  1.
         13    1    5    5    0    0 -0.13886588300E+02 -0.10468707207E+02 -0.18869527751E+02  0.25661064723E+02  0.00000000000E+00 0. -1.
        -13    1    5    5    0    0 -0.12489048243E+02 -0.47169182917E+03 -0.21025973468E+03  0.51658330795E+03  0.00000000000E+00 0.  1.
          2    1    6    6  503    0 -0.62803115480E+02  0.15821469547E+02 -0.52271082015E+02  0.83227496824E+02  0.00000000000E+00 0. -1.
         -2    1    6    6    0  503 -0.30346025413E+03  0.30371422403E+03 -0.28535948905E+03  0.51551963465E+03  0.00000000000E+00 0.  1.
<mgrwt>
<rscale>  0 0.18721724E+04</rscale>
<asrwt>0</asrwt>
<pdfrwt beam="1">  1        2 0.14573171E+00 0.18721724E+04</pdfrwt>
<pdfrwt beam="2">  1       -1 0.14231508E+00 0.18721724E+04</pdfrwt>
<totfact> 0.11723216E+01</totfact>
</mgrwt>
</event>
<event>
12    7  0.1707730E-007  0.2051855E+04  0.7818608E-02  0.8582753E-01
         -1   -1    0    0    0  501 -0.00000000000E+00  0.00000000000E+00  0.13393514560E+04  0.13393514560E+04  0.00000000000E+00 0.  1.
          2   -1    0    0  501    0  0.00000000000E+00 -0.00000000000E+00 -0.78584824434E+03  0.78584824434E+03  0.00000000000E+00 0. -1.
         24    2    1    2    0    0  0.45029161465E+03  0.31310148536E+03  0.86349134145E+03  0.10264481712E+04  0.84755371570E+02 0.  0.
        254    2    1    2    0    0 -0.45029161465E+03 -0.31310148536E+03 -0.30998812983E+03  0.10987515291E+04  0.90020397897E+03 0.  0.
         23    2    4    4    0    0 -0.13316849877E+03 -0.15497927279E+03 -0.59460021805E+03  0.63544739494E+03  0.92149597759E+02 0.  0.
         23    2    4    4    0    0 -0.31712311588E+03 -0.15812221257E+03  0.28461208822E+03  0.46330413418E+03  0.89871993713E+02 0.  0.
          2    1    3    3  502    0  0.15546065661E+03  0.14903762645E+03  0.29271499332E+03  0.36340376603E+03  0.00000000000E+00 0. -1.
         -1    1    3    3    0  502  0.29483095804E+03  0.16406385890E+03  0.57077634813E+03  0.66304440515E+03  0.00000000000E+00 0.  1.
         13    1    5    5    0    0 -0.25800267741E+02 -0.41452635837E+02 -0.54382750715E+02  0.73085281751E+02  0.00000000000E+00 0. -1.
        -13    1    5    5    0    0 -0.10736823103E+03 -0.11352663695E+03 -0.54021746734E+03  0.56236211319E+03  0.00000000000E+00 0.  1.
          1    1    6    6  503    0 -0.17532841939E+03 -0.37439016540E+02  0.13428551771E+03  0.22399628316E+03  0.00000000000E+00 0. -1.
         -1    1    6    6    0  503 -0.14179469650E+03 -0.12068319603E+03  0.15032657051E+03  0.23930785102E+03  0.00000000000E+00 0.  1.
<mgrwt>
<rscale>  0 0.20518548E+04</rscale>
<asrwt>0</asrwt>
<pdfrwt beam="1">  1        2 0.12089973E+00 0.20518548E+04</pdfrwt>
<pdfrwt beam="2">  1       -1 0.20605407E+00 0.20518548E+04</pdfrwt>
<totfact> 0.50927988E+00</totfact>
</mgrwt>
</event>
<event>
12    7  0.1707730E-007  0.1304771E+04  0.7818608E-02  0.9025790E-01
          2   -1    0    0  501    0  0.00000000000E+00  0.00000000000E+00  0.94136319687E+03  0.94136319687E+03  0.00000000000E+00 0. -1.
         -1   -1    0    0    0  501 -0.00000000000E+00 -0.00000000000E+00 -0.45211743223E+03  0.45211743223E+03  0.00000000000E+00 0.  1.
         24    2    1    2    0    0  0.15124530579E+03 -0.21863701193E+03 -0.23948701712E+02  0.27728851572E+03  0.75087250084E+02 0.  0.
        254    2    1    2    0    0 -0.15124530579E+03  0.21863701193E+03  0.51319446636E+03  0.11161921134E+04  0.95490260663E+03 0.  0.
         23    2    4    4    0    0  0.37458929366E+03  0.49625120731E+01  0.34622741027E+03  0.51795485591E+03  0.89788906240E+02 0.  0.
         23    2    4    4    0    0 -0.52583459945E+03  0.21367449986E+03  0.16696705609E+03  0.59823725747E+03  0.88605871924E+02 0.  0.
          4    1    3    3  502    0  0.32011222412E+02 -0.66228089205E+02  0.24991078048E+02  0.77688043752E+02  0.00000000000E+00 0. -1.
         -3    1    3    3    0  502  0.11923408338E+03 -0.15240892273E+03 -0.48939779760E+02  0.19960047197E+03  0.00000000000E+00 0.  1.
         13    1    5    5    0    0  0.28341023413E+03  0.37976184294E+02  0.28223714402E+03  0.40177276768E+03  0.00000000000E+00 0.  1.
        -13    1    5    5    0    0  0.91179059526E+02 -0.33013672221E+02  0.63990266249E+02  0.11618208822E+03  0.00000000000E+00 0. -1.
          1    1    6    6  503    0 -0.14791140474E+03  0.82908601314E+02  0.86355808997E+02  0.19028648289E+03  0.00000000000E+00 0. -1.
         -1    1    6    6    0  503 -0.37792319471E+03  0.13076589855E+03  0.80611247089E+02  0.40795077458E+03  0.00000000000E+00 0.  1.
<mgrwt>
<rscale>  0 0.13047708E+04</rscale>
<asrwt>0</asrwt>
<pdfrwt beam="1">  1        2 0.14482511E+00 0.13047708E+04</pdfrwt>
<pdfrwt beam="2">  1       -1 0.69556528E-01 0.13047708E+04</pdfrwt>
<totfact> 0.64307024E+01</totfact>
</mgrwt>
</event>
<event>
12    7  0.1707730E-007  0.1733838E+04  0.7818608E-02  0.8742297E-01
         -1   -1    0    0    0  501 -0.00000000000E+00  0.00000000000E+00  0.26223980410E+03  0.26223980410E+03  0.00000000000E+00 0.  1.
          2   -1    0    0  501    0  0.00000000000E+00 -0.00000000000E+00 -0.28658833689E+04  0.28658833689E+04  0.00000000000E+00 0. -1.
         24    2    1    2    0    0 -0.51417747535E+03 -0.21747668986E+03 -0.14672863118E+04  0.15716403050E+04  0.73821003851E+02 0.  0.
        254    2    1    2    0    0  0.51417747535E+03  0.21747668986E+03 -0.11363572530E+04  0.15564828680E+04  0.90534884173E+03 0.  0.
         23    2    4    4    0    0  0.48115899614E+03  0.53445084625E+03 -0.86722836715E+03  0.11303685710E+04  0.92175804578E+02 0.  0.
         23    2    4    4    0    0  0.33018479216E+02 -0.31697415639E+03 -0.26912888583E+03  0.42611429699E+03  0.87064350448E+02 0.  0.
          2    1    3    3  502    0 -0.35454030322E+03 -0.15247605260E+03 -0.11045882793E+04  0.11700696731E+04  0.00000000000E+00 0. -1.
         -1    1    3    3    0  502 -0.15963717213E+03 -0.65000637256E+02 -0.36269803250E+03  0.40157063183E+03  0.00000000000E+00 0.  1.
         13    1    5    5    0    0  0.15948241653E+03  0.11707404396E+03 -0.22436907995E+03  0.29913618469E+03  0.00000000000E+00 0.  1.
        -13    1    5    5    0    0  0.32167657961E+03  0.41737680229E+03 -0.64285928720E+03  0.83123238634E+03  0.00000000000E+00 0. -1.
          1    1    6    6  503    0  0.40506364511E+02 -0.79790558454E+02 -0.10299392266E+03  0.13643697039E+03  0.00000000000E+00 0. -1.
         -1    1    6    6    0  503 -0.74878852955E+01 -0.23718359794E+03 -0.16613496317E+03  0.28967732660E+03  0.00000000000E+00 0.  1.
<mgrwt>
<rscale>  0 0.17338382E+04</rscale>
<asrwt>0</asrwt>
<pdfrwt beam="1">  1        2 0.44090514E+00 0.17338382E+04</pdfrwt>
<pdfrwt beam="2">  1       -1 0.40344584E-01 0.17338382E+04</pdfrwt>
<totfact> 0.13707801E+01</totfact>
</mgrwt>
</event>
<event>
12    7  0.1707730E-007  0.1603406E+04  0.7818608E-02  0.8818458E-01
         -3   -1    0    0    0  501 -0.00000000000E+00  0.00000000000E+00  0.16965266190E+03  0.16965266190E+03  0.00000000000E+00 0.  1.
          2   -1    0    0  501    0  0.00000000000E+00 -0.00000000000E+00 -0.37884914172E+04  0.37884914172E+04  0.00000000000E+00 0. -1.
         24    2    1    2    0    0 -0.32861190294E+03 -0.16046336585E+03 -0.32145402699E+03  0.49301227733E+03  0.77421828928E+02 0.  0.
        254    2    1    2    0    0  0.32861190294E+03  0.16046336585E+03 -0.32973847283E+04  0.34651318017E+04  0.10003289872E+04 0.  0.
         23    2    4    4    0    0  0.33750486427E+03  0.45424854718E+03 -0.29254247955E+04  0.29811036692E+04  0.92830904031E+02 0.  0.
         23    2    4    4    0    0 -0.88929613277E+01 -0.29378518133E+03 -0.37195993281E+03  0.48402813251E+03  0.97674069813E+02 0.  0.
          2    1    3    3  502    0 -0.26603066365E+03 -0.14475159693E+03 -0.29648462113E+03  0.42382598951E+03  0.00000000000E+00 0. -1.
         -1    1    3    3    0  502 -0.62581239288E+02 -0.15711768923E+02 -0.24969405864E+02  0.69186287823E+02  0.00000000000E+00 0.  1.
         13    1    5    5    0    0  0.12262113696E+03  0.22958168038E+03 -0.12010569774E+04  0.12289351302E+04  0.00000000000E+00 0. -1.
        -13    1    5    5    0    0  0.21488372730E+03  0.22466686680E+03 -0.17243678181E+04  0.17521685391E+04  0.00000000000E+00 0.  1.
          4    1    6    6  503    0 -0.34636469730E+02 -0.27661916261E+03 -0.33415390146E+03  0.43517430533E+03  0.00000000000E+00 0. -1.
         -4    1    6    6    0  503  0.25743508402E+02 -0.17166018717E+02 -0.37806031346E+02  0.48853827175E+02  0.00000000000E+00 0.  1.
<mgrwt>
<rscale>  0 0.16034059E+04</rscale>
<asrwt>0</asrwt>
<pdfrwt beam="1">  1        2 0.58284478E+00 0.16034059E+04</pdfrwt>
<pdfrwt beam="2">  1       -3 0.26100412E-01 0.16034059E+04</pdfrwt>
<totfact> 0.44917167E+00</totfact>
</mgrwt>
</event>
<event>
12    7  0.1707730E-007  0.2156807E+04  0.7818608E-02  0.8536624E-01
          2   -1    0    0  501    0  0.00000000000E+00  0.00000000000E+00  0.11079976626E+04  0.11079976626E+04  0.00000000000E+00 0. -1.
         -1   -1    0    0    0  501 -0.00000000000E+00 -0.00000000000E+00 -0.10495999124E+04  0.10495999124E+04  0.00000000000E+00 0.  1.
         24    2    1    2    0    0  0.16716759856E+03  0.16434692338E+03 -0.84482634008E+03  0.88031386746E+03  0.79158342098E+02 0.  0.
        254    2    1    2    0    0 -0.16716759856E+03 -0.16434692338E+03  0.90322409020E+03  0.12772837075E+04  0.87217257189E+03 0.  0.
         23    2    4    4    0    0 -0.46733635426E+03 -0.13811742853E+03  0.80890160113E+03  0.94863920793E+03  0.90082486869E+02 0.  0.
         23    2    4    4    0    0  0.30016875570E+03 -0.26229494851E+02  0.94322489075E+02  0.32864449960E+03  0.91220649355E+02 0.  0.
          4    1    3    3  502    0  0.15820631486E+02  0.63032966948E+02 -0.24218435718E+03  0.25075228845E+03  0.00000000000E+00 0. -1.
         -3    1    3    3    0  502  0.15134696707E+03  0.10131395643E+03 -0.60264198290E+03  0.62956157901E+03  0.00000000000E+00 0.  1.
         13    1    5    5    0    0 -0.38365477109E+03 -0.91686976216E+02  0.58980896777E+03  0.70955768155E+03  0.00000000000E+00 0.  1.
        -13    1    5    5    0    0 -0.83681583170E+02 -0.46430452312E+02  0.21909263336E+03  0.23908152638E+03  0.00000000000E+00 0. -1.
          1    1    6    6  503    0  0.10357772274E+03  0.33874493051E+02  0.39157745624E+02  0.11579790573E+03  0.00000000000E+00 0. -1.
         -1    1    6    6    0  503  0.19659103296E+03 -0.60103987903E+02  0.55164743451E+02  0.21284659387E+03  0.00000000000E+00 0.  1.
<mgrwt>
<rscale>  0 0.21568071E+04</rscale>
<asrwt>0</asrwt>
<pdfrwt beam="1">  1        2 0.17046118E+00 0.21568071E+04</pdfrwt>
<pdfrwt beam="2">  1       -1 0.16147691E+00 0.21568071E+04</pdfrwt>
<totfact> 0.64170461E+00</totfact>
</mgrwt>
</event>
<event>
12    7  0.1707730E-007  0.1958881E+04  0.7818608E-02  0.8626090E-01
          2   -1    0    0  501    0  0.00000000000E+00  0.00000000000E+00  0.15332496480E+04  0.15332496480E+04  0.00000000000E+00 0. -1.
         -1   -1    0    0    0  501 -0.00000000000E+00 -0.00000000000E+00 -0.62566706606E+03  0.62566706606E+03  0.00000000000E+00 0.  1.
         24    2    1    2    0    0 -0.56737529066E+03 -0.27824434187E+03  0.79622503622E+03  0.10197405321E+04  0.81005001697E+02 0.  0.
        254    2    1    2    0    0  0.56737529066E+03  0.27824434187E+03  0.11135754573E+03  0.11391761819E+04  0.94126895003E+03 0.  0.
         23    2    4    4    0    0  0.30241046103E+03  0.61795452873E+03  0.74832780638E+02  0.69707313387E+03  0.83612931912E+02 0.  0.
         23    2    4    4    0    0  0.26496482962E+03 -0.33971018686E+03  0.36524765089E+02  0.44210304808E+03  0.92258737597E+02 0.  0.
          2    1    3    3  502    0 -0.55088893144E+03 -0.28175128933E+03  0.76194603719E+03  0.98154172984E+03  0.00000000000E+00 0. -1.
         -1    1    3    3    0  502 -0.16486359217E+02  0.35069474638E+01  0.34278999029E+02  0.38198802275E+02  0.00000000000E+00 0.  1.
         13    1    5    5    0    0  0.26909088330E+03  0.59228660804E+03  0.64327805539E+02  0.65372119141E+03  0.00000000000E+00 0.  1.
        -13    1    5    5    0    0  0.33319577729E+02  0.25667920691E+02  0.10504975100E+02  0.43351942454E+02  0.00000000000E+00 0. -1.
          1    1    6    6  503    0  0.69597150787E+02 -0.41702773082E+02 -0.13566238699E+02  0.82261336683E+02  0.00000000000E+00 0. -1.
         -1    1    6    6    0  503  0.19536767884E+03 -0.29800741378E+03  0.50091003788E+02  0.35984171140E+03  0.00000000000E+00 0.  1.
<mgrwt>
<rscale>  0 0.19588811E+04</rscale>
<asrwt>0</asrwt>
<pdfrwt beam="1">  1        2 0.23588456E+00 0.19588811E+04</pdfrwt>
<pdfrwt beam="2">  1       -1 0.96256472E-01 0.19588811E+04</pdfrwt>
<totfact> 0.13421259E+01</totfact>
</mgrwt>
</event>
<event>
12    7  0.1707730E-007  0.2407039E+04  0.7818608E-02  0.8436873E-01
          2   -1    0    0  501    0  0.00000000000E+00  0.00000000000E+00  0.32758061685E+04  0.32758061685E+04  0.00000000000E+00 0. -1.
         -3   -1    0    0    0  501 -0.00000000000E+00 -0.00000000000E+00 -0.44216874072E+03  0.44216874072E+03  0.00000000000E+00 0.  1.
         24    2    1    2    0    0  0.92723569810E+02 -0.59799765895E+03 -0.73768517916E+02  0.61491451645E+03  0.80493526396E+02 0.  0.
        254    2    1    2    0    0 -0.92723569810E+02  0.59799765895E+03  0.29074059457E+04  0.31030603927E+04  0.89987532893E+03 0.  0.
         23    2    4    4    0    0 -0.33001632990E+03 -0.76158889407E+02  0.74043325815E+03  0.81944471154E+03  0.92397354161E+02 0.  0.
         23    2    4    4    0    0  0.23729276009E+03  0.67415654836E+03  0.21669726875E+04  0.22836156812E+04  0.91296469372E+02 0.  0.
          4    1    3    3  502    0  0.34863183000E+02 -0.63637684544E+02 -0.13488972015E+01  0.72574209927E+02  0.00000000000E+00 0. -1.
         -3    1    3    3    0  502  0.57860386811E+02 -0.53435997441E+03 -0.72419620715E+02  0.54234030652E+03  0.00000000000E+00 0.  1.
         13    1    5    5    0    0 -0.33190086408E+02  0.17294962919E+02  0.53278936794E+02  0.65110234864E+02  0.00000000000E+00 0. -1.
        -13    1    5    5    0    0 -0.29682624349E+03 -0.93453852326E+02  0.68715432136E+03  0.75433447668E+03  0.00000000000E+00 0.  1.
          2    1    6    6  503    0  0.49698527396E+02  0.22544073777E+03  0.80312399258E+03  0.83564443235E+03  0.00000000000E+00 0. -1.
         -2    1    6    6    0  503  0.18759423270E+03  0.44871581059E+03  0.13638486949E+04  0.14479712488E+04  0.00000000000E+00 0.  1.
<mgrwt>
<rscale>  0 0.24070389E+04</rscale>
<asrwt>0</asrwt>
<pdfrwt beam="1">  1        2 0.50397016E+00 0.24070389E+04</pdfrwt>
<pdfrwt beam="2">  1       -3 0.68025962E-01 0.24070389E+04</pdfrwt>
<totfact> 0.13895648E+00</totfact>
</mgrwt>
</event>
<event>
12    7  0.1707730E-007  0.1933162E+04  0.7818608E-02  0.8638523E-01
         -1   -1    0    0    0  501 -0.00000000000E+00  0.00000000000E+00  0.99834590467E+03  0.99834590467E+03  0.00000000000E+00 0.  1.
          2   -1    0    0  501    0  0.00000000000E+00 -0.00000000000E+00 -0.93582685428E+03  0.93582685428E+03  0.00000000000E+00 0. -1.
         24    2    1    2    0    0  0.43346374577E+02 -0.72610153478E+03  0.22894935002E+03  0.76680785580E+03  0.80462014934E+02 0.  0.
        254    2    1    2    0    0 -0.43346374577E+02  0.72610153478E+03 -0.16643029963E+03  0.11673649031E+04  0.89774129094E+03 0.  0.
         23    2    4    4    0    0 -0.39883662523E+03  0.10912776472E+03 -0.15036158536E+03  0.44928724245E+03  0.90944473299E+02 0.  0.
         23    2    4    4    0    0  0.35549025065E+03  0.61697377006E+03 -0.16068714278E+02  0.71807766069E+03  0.91363953243E+02 0.  0.
          2    1    3    3  502    0  0.24284899202E+02 -0.67766342465E+03  0.19873596810E+03  0.70662115625E+03  0.00000000000E+00 0. -1.
         -1    1    3    3    0  502  0.19061475374E+02 -0.48438110126E+02  0.30213381920E+02  0.60186699553E+02  0.00000000000E+00 0.  1.
         13    1    5    5    0    0 -0.19413114353E+03  0.80741209970E+02 -0.11490904570E+03  0.23960411654E+03  0.00000000000E+00 0. -1.
        -13    1    5    5    0    0 -0.20470548169E+03  0.28386554746E+02 -0.35452539658E+02  0.20968312592E+03  0.00000000000E+00 0.  1.
          2    1    6    6  503    0  0.19560550006E+03  0.25844545332E+03  0.13490490550E+02  0.32440338674E+03  0.00000000000E+00 0. -1.
         -2    1    6    6    0  503  0.15988475059E+03  0.35852831674E+03 -0.29559204828E+02  0.39367427395E+03  0.00000000000E+00 0.  1.
<mgrwt>
<rscale>  0 0.19331621E+04</rscale>
<asrwt>0</asrwt>
<pdfrwt beam="1">  1        2 0.14397336E+00 0.19331621E+04</pdfrwt>
<pdfrwt beam="2">  1       -1 0.15359168E+00 0.19331621E+04</pdfrwt>
<totfact> 0.96743740E+00</totfact>
</mgrwt>
</event>
<event>
12    7  0.1707730E-007  0.1970489E+04  0.7818608E-02  0.8620544E-01
         -1   -1    0    0    0  501 -0.00000000000E+00  0.00000000000E+00  0.25860478038E+03  0.25860478038E+03  0.00000000000E+00 0.  1.
          2   -1    0    0  501    0  0.00000000000E+00 -0.00000000000E+00 -0.37536309458E+04  0.37536309458E+04  0.00000000000E+00 0. -1.
         24    2    1    2    0    0 -0.65147030063E+03 -0.33955225255E+03 -0.86853349370E+03  0.11403497891E+04  0.79611098527E+02 0.  0.
        254    2    1    2    0    0  0.65147030063E+03  0.33955225255E+03 -0.26264926717E+04  0.28718859371E+04  0.89975318629E+03 0.  0.
         23    2    4    4    0    0  0.85108102604E+03  0.31608402111E+03 -0.23109497794E+04  0.24845056838E+04  0.89619131119E+02 0.  0.
         23    2    4    4    0    0 -0.19961072541E+03  0.23468231436E+02 -0.31554289232E+03  0.38738025328E+03  0.10050345345E+03 0.  0.
          2    1    3    3  502    0 -0.62186588972E+03 -0.32111880582E+03 -0.79641074368E+03  0.10602379662E+04  0.00000000000E+00 0. -1.
         -1    1    3    3    0  502 -0.29604410906E+02 -0.18433446729E+02 -0.72122750013E+02  0.80111822929E+02  0.00000000000E+00 0.  1.
         13    1    5    5    0    0  0.33021254924E+03  0.16436461890E+03 -0.88097520264E+03  0.95507767396E+03  0.00000000000E+00 0. -1.
        -13    1    5    5    0    0  0.52086847680E+03  0.15171940221E+03 -0.14299745768E+04  0.15294280099E+04  0.00000000000E+00 0.  1.
          4    1    6    6  503    0 -0.60178356079E+02  0.52485609747E+01 -0.18825087049E+03  0.19770526592E+03  0.00000000000E+00 0. -1.
         -4    1    6    6    0  503 -0.13943236933E+03  0.18219670461E+02 -0.12729202182E+03  0.18967498736E+03  0.00000000000E+00 0.  1.
<mgrwt>
<rscale>  0 0.19704892E+04</rscale>
<asrwt>0</asrwt>
<pdfrwt beam="1">  1        2 0.57748162E+00 0.19704892E+04</pdfrwt>
<pdfrwt beam="2">  1       -1 0.39785355E-01 0.19704892E+04</pdfrwt>
<totfact> 0.35005714E+00</totfact>
</mgrwt>
</event>
<event>
12    7  0.1707730E-007  0.1865129E+04  0.7818608E-02  0.8672411E-01
         -1   -1    0    0    0  501 -0.00000000000E+00  0.00000000000E+00  0.31745007394E+03  0.31745007394E+03  0.00000000000E+00 0.  1.
          2   -1    0    0  501    0  0.00000000000E+00 -0.00000000000E+00 -0.27395686596E+04  0.27395686596E+04  0.00000000000E+00 0. -1.
         24    2    1    2    0    0 -0.41758889289E+03  0.18545176869E+03 -0.34852513356E+02  0.46529096128E+03  0.80673037527E+02 0.  0.
        254    2    1    2    0    0  0.41758889289E+03 -0.18545176869E+03 -0.23872660723E+04  0.25917277723E+04  0.89957806975E+03 0.  0.
         23    2    4    4    0    0  0.27783928403E+03 -0.54205056053E+03 -0.15079560348E+04  0.16285347065E+04  0.84737297403E+02 0.  0.
         23    2    4    4    0    0  0.13974960887E+03  0.35659879184E+03 -0.87931003755E+03  0.96319306577E+03  0.88668417731E+02 0.  0.
          2    1    3    3  502    0 -0.71131500946E+01 -0.73355098557E+01  0.15626327278E+01  0.10336751431E+02  0.00000000000E+00 0. -1.
         -1    1    3    3    0  502 -0.41047574280E+03  0.19278727854E+03 -0.36415146084E+02  0.45495420985E+03  0.00000000000E+00 0.  1.
         13    1    5    5    0    0  0.20119606165E+03 -0.31131593432E+03 -0.95920605788E+03  0.10283354159E+04  0.00000000000E+00 0. -1.
        -13    1    5    5    0    0  0.76643222378E+02 -0.23073462620E+03 -0.54874997691E+03  0.60019929059E+03  0.00000000000E+00 0.  1.
          4    1    6    6  503    0  0.72706679283E+02  0.28629465941E+03 -0.63793474517E+03  0.70300187220E+03  0.00000000000E+00 0. -1.
         -4    1    6    6    0  503  0.67042929583E+02  0.70304132428E+02 -0.24137529238E+03  0.26019119358E+03  0.00000000000E+00 0.  1.
<mgrwt>
<rscale>  0 0.18651287E+04</rscale>
<asrwt>0</asrwt>
<pdfrwt beam="1">  1        2 0.42147212E+00 0.18651287E+04</pdfrwt>
<pdfrwt beam="2">  1       -1 0.48838471E-01 0.18651287E+04</pdfrwt>
<totfact> 0.11307221E+01</totfact>
</mgrwt>
</event>
<event>
12    7  0.1707730E-007  0.2121416E+04  0.7818608E-02  0.8551868E-01
         -1   -1    0    0    0  501 -0.00000000000E+00  0.00000000000E+00  0.56621135495E+03  0.56621135495E+03  0.00000000000E+00 0.  1.
          2   -1    0    0  501    0  0.00000000000E+00 -0.00000000000E+00 -0.19870689764E+04  0.19870689764E+04  0.00000000000E+00 0. -1.
         24    2    1    2    0    0  0.23930992773E+03 -0.48760154800E+03 -0.14170338761E+04  0.15197492355E+04  0.81413891421E+02 0.  0.
        254    2    1    2    0    0 -0.23930992773E+03  0.48760154800E+03 -0.38237453230E+01  0.10335310958E+04  0.87928800392E+03 0.  0.
         23    2    4    4    0    0 -0.35150910125E+03 -0.13732184647E+02 -0.26549291945E+03  0.44977683997E+03  0.89808097260E+02 0.  0.
         23    2    4    4    0    0  0.11219917352E+03  0.50133373265E+03  0.26166917413E+03  0.58375425583E+03  0.91510155085E+02 0.  0.
          2    1    3    3  502    0  0.22097343788E+03 -0.47185953903E+03 -0.13839191727E+04  0.14787538542E+04  0.00000000000E+00 0. -1.
         -1    1    3    3    0  502  0.18336489853E+02 -0.15742008970E+02 -0.33114703460E+02  0.40995381347E+02  0.00000000000E+00 0.  1.
         13    1    5    5    0    0 -0.26867552747E+03  0.27797705843E+02 -0.20540393546E+03  0.33933763159E+03  0.00000000000E+00 0. -1.
        -13    1    5    5    0    0 -0.82833573783E+02 -0.41529890489E+02 -0.60088983995E+02  0.11043920838E+03  0.00000000000E+00 0.  1.
          4    1    6    6  503    0  0.38988493001E+02  0.44682196593E+02  0.27510486046E+02  0.65371462592E+02  0.00000000000E+00 0. -1.
         -4    1    6    6    0  503  0.73210680521E+02  0.45665153606E+03  0.23415868808E+03  0.51838279324E+03  0.00000000000E+00 0.  1.
<mgrwt>
<rscale>  0 0.21214156E+04</rscale>
<asrwt>0</asrwt>
<pdfrwt beam="1">  1        2 0.30570292E+00 0.21214156E+04</pdfrwt>
<pdfrwt beam="2">  1       -1 0.87109440E-01 0.21214156E+04</pdfrwt>
<totfact> 0.92320266E+00</totfact>
</mgrwt>
</event>
<event>
12    7  0.1707730E-007  0.1951559E+04  0.7818608E-02  0.8629609E-01
          2   -1    0    0  501    0  0.00000000000E+00  0.00000000000E+00  0.73805244591E+03  0.73805244591E+03  0.00000000000E+00 0. -1.
         -1   -1    0    0    0  501 -0.00000000000E+00 -0.00000000000E+00 -0.12900788532E+04  0.12900788532E+04  0.00000000000E+00 0.  1.
         24    2    1    2    0    0  0.44310195302E+03  0.17313862530E+03  0.40376078664E+03  0.62912855215E+03  0.80396753474E+02 0.  0.
        254    2    1    2    0    0 -0.44310195302E+03 -0.17313862530E+03 -0.95578719398E+03  0.13990027470E+04  0.90408141316E+03 0.  0.
         23    2    4    4    0    0 -0.40182167596E+03 -0.37640141561E+02  0.15014332475E+02  0.41399976751E+03  0.91065568664E+02 0.  0.
         23    2    4    4    0    0 -0.41280277057E+02 -0.13549848374E+03 -0.97080152645E+03  0.98500297949E+03  0.87814380796E+02 0.  0.
          4    1    3    3  502    0  0.33458047009E+03  0.10063916538E+03  0.26406150621E+03  0.43795069544E+03  0.00000000000E+00 0. -1.
         -3    1    3    3    0  502  0.10852148292E+03  0.72499459917E+02  0.13969928043E+03  0.19117785671E+03  0.00000000000E+00 0.  1.
         13    1    5    5    0    0 -0.17127002706E+01 -0.80880013559E+01 -0.88259102468E+01  0.12093212966E+02  0.00000000000E+00 0.  1.
        -13    1    5    5    0    0 -0.40010897569E+03 -0.29552140205E+02  0.23840242722E+02  0.40190655455E+03  0.00000000000E+00 0. -1.
          4    1    6    6  503    0 -0.38136981007E+02 -0.91257200380E+01 -0.27968084250E+03  0.28241650403E+03  0.00000000000E+00 0.  1.
         -4    1    6    6    0  503 -0.31432960501E+01 -0.12637276370E+03 -0.69112068396E+03  0.70258647547E+03  0.00000000000E+00 0. -1.
<mgrwt>
<rscale>  0 0.19515592E+04</rscale>
<asrwt>0</asrwt>
<pdfrwt beam="1">  1        2 0.11354653E+00 0.19515592E+04</pdfrwt>
<pdfrwt beam="2">  1       -1 0.19847367E+00 0.19515592E+04</pdfrwt>
<totfact> 0.62855028E+00</totfact>
</mgrwt>
</event>
<event>
12    7  0.1707730E-007  0.1560930E+04  0.7818608E-02  0.8844916E-01
         -1   -1    0    0    0  501 -0.00000000000E+00  0.00000000000E+00  0.47518228645E+03  0.47518228645E+03  0.00000000000E+00 0.  1.
          2   -1    0    0  501    0  0.00000000000E+00 -0.00000000000E+00 -0.12818781614E+04  0.12818781614E+04  0.00000000000E+00 0. -1.
         24    2    1    2    0    0 -0.50685627500E+03 -0.65749047634E+02 -0.14227691388E+03  0.53574682834E+03  0.74536723030E+02 0.  0.
        254    2    1    2    0    0  0.50685627500E+03  0.65749047634E+02 -0.66441896105E+03  0.12213136195E+04  0.88821629155E+03 0.  0.
         23    2    4    4    0    0  0.65025866489E+03 -0.57115704858E+02 -0.74682054591E+03  0.99637793472E+03  0.94496169286E+02 0.  0.
         23    2    4    4    0    0 -0.14340238989E+03  0.12286475249E+03  0.82401584860E+02  0.22493568476E+03  0.90255461104E+02 0.  0.
          2    1    3    3  502    0 -0.15038867244E+03 -0.11972050559E+02 -0.77017499539E+02  0.16938647534E+03  0.00000000000E+00 0. -1.
         -1    1    3    3    0  502 -0.35646760256E+03 -0.53776997075E+02 -0.65259414341E+02  0.36636035300E+03  0.00000000000E+00 0.  1.
         13    1    5    5    0    0  0.15475002951E+03 -0.23090802855E+02 -0.24211833865E+03  0.28827425609E+03  0.00000000000E+00 0.  1.
        -13    1    5    5    0    0  0.49550863538E+03 -0.34024902003E+02 -0.50470220725E+03  0.70810367864E+03  0.00000000000E+00 0. -1.
          3    1    6    6  503    0 -0.12079230293E+03  0.13496790884E+03  0.83099873351E+02  0.19928047023E+03  0.00000000000E+00 0. -1.
         -3    1    6    6    0  503 -0.22610086963E+02 -0.12103156344E+02 -0.69828849098E+00  0.25655214534E+02  0.00000000000E+00 0.  1.
<mgrwt>
<rscale>  0 0.15609302E+04</rscale>
<asrwt>0</asrwt>
<pdfrwt beam="1">  1        2 0.19721202E+00 0.15609302E+04</pdfrwt>
<pdfrwt beam="2">  1       -1 0.73104968E-01 0.15609302E+04</pdfrwt>
<totfact> 0.35033109E+01</totfact>
</mgrwt>
</event>
<event>
12    7  0.1707730E-007  0.1411724E+04  0.7818608E-02  0.8945376E-01
          2   -1    0    0  501    0  0.00000000000E+00  0.00000000000E+00  0.29573431399E+04  0.29573431399E+04  0.00000000000E+00 0. -1.
         -1   -1    0    0    0  501 -0.00000000000E+00 -0.00000000000E+00 -0.16847593973E+03  0.16847593973E+03  0.00000000000E+00 0.  1.
         24    2    1    2    0    0 -0.79451304643E+02  0.82458308930E+02  0.17095453623E+04  0.17153066146E+04  0.81360640323E+02 0.  0.
        254    2    1    2    0    0  0.79451304643E+02 -0.82458308930E+02  0.10793218379E+04  0.14105124650E+04  0.90083178330E+03 0.  0.
         23    2    4    4    0    0 -0.23477439612E+02  0.39597270667E+03  0.42951954445E+03  0.59201421856E+03  0.92995813397E+02 0.  0.
         23    2    4    4    0    0  0.10292874426E+03 -0.47843101560E+03  0.64980229343E+03  0.81849824649E+03  0.90585848113E+02 0.  0.
          4    1    3    3  502    0 -0.78370729525E+02  0.97518723906E+02  0.15555023104E+04  0.15605253315E+04  0.00000000000E+00 0. -1.
         -3    1    3    3    0  502 -0.10805751189E+01 -0.15060414975E+02  0.15404305195E+03  0.15478128309E+03  0.00000000000E+00 0.  1.
         13    1    5    5    0    0  0.14199693051E+01  0.37447084070E+03  0.39218845710E+03  0.54225659307E+03  0.00000000000E+00 0. -1.
        -13    1    5    5    0    0 -0.24897408917E+02  0.21501865967E+02  0.37331087352E+02  0.49757625484E+02  0.00000000000E+00 0.  1.
          4    1    6    6  503    0  0.34932057996E+02 -0.30433896573E+03  0.45520622521E+03  0.54868493893E+03  0.00000000000E+00 0. -1.
         -4    1    6    6    0  503  0.67996686259E+02 -0.17409204987E+03  0.19459606822E+03  0.26981330756E+03  0.00000000000E+00 0.  1.
<mgrwt>
<rscale>  0 0.14117240E+04</rscale>
<asrwt>0</asrwt>
<pdfrwt beam="1">  1        2 0.45497583E+00 0.14117240E+04</pdfrwt>
<pdfrwt beam="2">  1       -1 0.25919378E-01 0.14117240E+04</pdfrwt>
<totfact> 0.27215311E+01</totfact>
</mgrwt>
</event>
<event>
12    7  0.1707730E-007  0.2680352E+04  0.7818608E-02  0.8341408E-01
          2   -1    0    0  501    0  0.00000000000E+00  0.00000000000E+00  0.10615486541E+04  0.10615486541E+04  0.00000000000E+00 0. -1.
         -1   -1    0    0    0  501 -0.00000000000E+00 -0.00000000000E+00 -0.16919359212E+04  0.16919359212E+04  0.00000000000E+00 0.  1.
         24    2    1    2    0    0  0.10478331668E+04 -0.15963571702E+03  0.22248424582E+03  0.10859523740E+04  0.79720833714E+02 0.  0.
        254    2    1    2    0    0 -0.10478331668E+04  0.15963571702E+03 -0.85287151289E+03  0.16675322013E+04  0.96427999945E+03 0.  0.
         23    2    4    4    0    0 -0.42724080805E+01  0.48016731265E+02  0.17043453187E+03  0.19882242909E+03  0.90324795622E+02 0.  0.
         23    2    4    4    0    0 -0.10435607587E+04  0.11161898575E+03 -0.10233060448E+04  0.14687097722E+04  0.92061276835E+02 0.  0.
          2    1    3    3  502    0  0.81966669549E+03 -0.11001046504E+03  0.14296221562E+03  0.83928182943E+03  0.00000000000E+00 0. -1.
         -3    1    3    3    0  502  0.22816647131E+03 -0.49625251976E+02  0.79522030200E+02  0.24667054455E+03  0.00000000000E+00 0.  1.
         13    1    5    5    0    0 -0.30665017767E+02  0.56293748356E+02  0.71203633471E+02  0.95808594803E+02  0.00000000000E+00 0. -1.
        -13    1    5    5    0    0  0.26392609686E+02 -0.82770170911E+01  0.99230898395E+02  0.10301383429E+03  0.00000000000E+00 0.  1.
          4    1    6    6  503    0 -0.13049767846E+03 -0.54087239629E+01 -0.16168928592E+03  0.20785168644E+03  0.00000000000E+00 0. -1.
         -4    1    6    6    0  503 -0.91306308027E+03  0.11702770972E+03 -0.86161675884E+03  0.12608580858E+04  0.00000000000E+00 0.  1.
<mgrwt>
<rscale>  0 0.26803524E+04</rscale>
<asrwt>0</asrwt>
<pdfrwt beam="1">  1        2 0.16331518E+00 0.26803524E+04</pdfrwt>
<pdfrwt beam="2">  1       -1 0.26029783E+00 0.26803524E+04</pdfrwt>
<totfact> 0.13771687E+00</totfact>
</mgrwt>
</event>
<event>
12    7  0.1707730E-007  0.3069777E+04  0.7818608E-02  0.8224082E-01
          2   -1    0    0  501    0  0.00000000000E+00  0.00000000000E+00  0.28443856616E+04  0.28443856616E+04  0.00000000000E+00 0. -1.
         -1   -1    0    0    0  501 -0.00000000000E+00 -0.00000000000E+00 -0.82825727130E+03  0.82825727130E+03  0.00000000000E+00 0.  1.
         24    2    1    2    0    0  0.39694689681E+03  0.10045966639E+04  0.19948139535E+04  0.22702490859E+04  0.89257531065E+02 0.  0.
        254    2    1    2    0    0 -0.39694689681E+03 -0.10045966639E+04  0.21314436786E+02  0.14023938470E+04  0.89413248513E+03 0.  0.
         23    2    4    4    0    0  0.13963011619E+03 -0.80150424398E+03  0.54992857800E+02  0.82035216225E+03  0.89709716505E+02 0.  0.
         23    2    4    4    0    0 -0.53657701301E+03 -0.20309241989E+03 -0.33678421014E+02  0.58204168476E+03  0.92069891116E+02 0.  0.
          4    1    3    3  502    0  0.24003746945E+03  0.69790689553E+03  0.14114302086E+04  0.15927420555E+04  0.00000000000E+00 0. -1.
         -3    1    3    3    0  502  0.15690942737E+03  0.30668976834E+03  0.58338374490E+03  0.67750703038E+03  0.00000000000E+00 0.  1.
         13    1    5    5    0    0  0.71812052481E+02 -0.45999501183E+03 -0.12308369922E+02  0.46572940401E+03  0.00000000000E+00 0.  1.
        -13    1    5    5    0    0  0.67818063714E+02 -0.34150923215E+03  0.67301227722E+02  0.35462275824E+03  0.00000000000E+00 0. -1.
          3    1    6    6  503    0 -0.21495832622E+03 -0.71353793035E+02 -0.57487240769E+02  0.23367333747E+03  0.00000000000E+00 0. -1.
         -3    1    6    6    0  503 -0.32161868678E+03 -0.13173862686E+03  0.23808819755E+02  0.34836834729E+03  0.00000000000E+00 0.  1.
<mgrwt>
<rscale>  0 0.30697773E+04</rscale>
<asrwt>0</asrwt>
<pdfrwt beam="1">  1        2 0.43759779E+00 0.30697773E+04</pdfrwt>
<pdfrwt beam="2">  1       -1 0.12742420E+00 0.30697773E+04</pdfrwt>
<totfact> 0.11203107E+00</totfact>
</mgrwt>
</event>
<event>
12    7  0.1707730E-007  0.3757038E+04  0.7818608E-02  0.8055438E-01
          2   -1    0    0  501    0  0.00000000000E+00  0.00000000000E+00  0.20643679968E+04  0.20643679968E+04  0.00000000000E+00 0. -1.
         -1   -1    0    0    0  501 -0.00000000000E+00 -0.00000000000E+00 -0.17094014787E+04  0.17094014787E+04  0.00000000000E+00 0.  1.
         24    2    1    2    0    0  0.34205671229E+03  0.16974316809E+04  0.53203678213E+03  0.18132121388E+04  0.79987606588E+02 0.  0.
        254    2    1    2    0    0 -0.34205671229E+03 -0.16974316809E+04 -0.17707026410E+03  0.19605573367E+04  0.90230487434E+03 0.  0.
         23    2    4    4    0    0 -0.39810459401E+03 -0.26136901059E+03  0.96394275461E+02  0.49478133778E+03  0.93357851332E+02 0.  0.
         23    2    4    4    0    0  0.56047881717E+02 -0.14360626703E+04 -0.27346453956E+03  0.14657759989E+04  0.91099212272E+02 0.  0.
          2    1    3    3  502    0  0.89081930871E+02  0.29558366325E+03  0.10517019442E+03  0.32613810293E+03  0.00000000000E+00 0. -1.
         -1    1    3    3    0  502  0.25297478142E+03  0.14018480176E+04  0.42686658771E+03  0.14870740359E+04  0.00000000000E+00 0.  1.
         13    1    5    5    0    0 -0.16301822804E+03 -0.78744477762E+02 -0.26215415166E+01  0.18105940443E+03  0.00000000000E+00 0. -1.
        -13    1    5    5    0    0 -0.23508636597E+03 -0.18262453283E+03  0.99015816978E+02  0.31372193335E+03  0.00000000000E+00 0.  1.
          1    1    6    6  503    0 -0.23401136965E+02 -0.19673193287E+03 -0.33556190486E+02  0.20094050000E+03  0.00000000000E+00 0. -1.
         -1    1    6    6    0  503  0.79449018682E+02 -0.12393307374E+04 -0.23990834907E+03  0.12648354989E+04  0.00000000000E+00 0.  1.
<mgrwt>
<rscale>  0 0.37570380E+04</rscale>
<asrwt>0</asrwt>
<pdfrwt beam="1">  1        2 0.31759508E+00 0.37570380E+04</pdfrwt>
<pdfrwt beam="2">  1       -1 0.26298484E+00 0.37570380E+04</pdfrwt>
<totfact> 0.32305938E-01</totfact>
</mgrwt>
</event>
<event>
12    7  0.1707730E-007  0.1901061E+04  0.7818608E-02  0.8654328E-01
         -1   -1    0    0    0  501 -0.00000000000E+00  0.00000000000E+00  0.17107580495E+04  0.17107580495E+04  0.00000000000E+00 0.  1.
          2   -1    0    0  501    0  0.00000000000E+00 -0.00000000000E+00 -0.52813341964E+03  0.52813341964E+03  0.00000000000E+00 0. -1.
         24    2    1    2    0    0  0.42268056306E+03  0.22959028924E+03  0.11086167349E+04  0.12122737338E+04  0.95947805683E+02 0.  0.
        254    2    1    2    0    0 -0.42268056306E+03 -0.22959028924E+03  0.74007894955E+02  0.10266177354E+04  0.90393376236E+03 0.  0.
         23    2    4    4    0    0 -0.15777369334E+03 -0.15465301318E+03 -0.40304591250E+03  0.46852456303E+03  0.90879952597E+02 0.  0.
         23    2    4    4    0    0 -0.26490686972E+03 -0.74937276064E+02  0.47705380745E+03  0.55809317233E+03  0.89980046828E+02 0.  0.
          2    1    3    3  502    0  0.10627611067E+03  0.10534027732E+03  0.37391890937E+03  0.40274872627E+03  0.00000000000E+00 0. -1.
         -1    1    3    3    0  502  0.31640445239E+03  0.12425001193E+03  0.73469782552E+03  0.80952500751E+03  0.00000000000E+00 0.  1.
         13    1    5    5    0    0 -0.15526060078E+03 -0.16522659489E+03 -0.37219259632E+03  0.43581304544E+03  0.00000000000E+00 0. -1.
        -13    1    5    5    0    0 -0.25130925616E+01  0.10573581709E+02 -0.30853316172E+02  0.32711517592E+02  0.00000000000E+00 0.  1.
          1    1    6    6  503    0 -0.26948827004E+03 -0.81369504564E+02  0.46733743835E+03  0.54557236481E+03  0.00000000000E+00 0. -1.
         -1    1    6    6    0  503  0.45814003196E+01  0.64322285004E+01  0.97163690981E+01  0.12520807515E+02  0.00000000000E+00 0.  1.
<mgrwt>
<rscale>  0 0.19010613E+04</rscale>
<asrwt>0</asrwt>
<pdfrwt beam="1">  1        2 0.81251296E-01 0.19010613E+04</pdfrwt>
<pdfrwt beam="2">  1       -1 0.26319354E+00 0.19010613E+04</pdfrwt>
<totfact> 0.35353667E+00</totfact>
</mgrwt>
</event>
<event>
12    7  0.1707730E-007  0.3084855E+04  0.7818608E-02  0.8219907E-01
         -1   -1    0    0    0  501 -0.00000000000E+00  0.00000000000E+00  0.12035729427E+04  0.12035729427E+04  0.00000000000E+00 0.  1.
          2   -1    0    0  501    0  0.00000000000E+00 -0.00000000000E+00 -0.19766837389E+04  0.19766837389E+04  0.00000000000E+00 0. -1.
         24    2    1    2    0    0  0.10414819309E+04 -0.30678126087E+03  0.57775094532E+03  0.12322822374E+04  0.76967547408E+02 0.  0.
        254    2    1    2    0    0 -0.10414819309E+04  0.30678126087E+03 -0.13508617415E+04  0.19479744441E+04  0.88936923483E+03 0.  0.
         23    2    4    4    0    0 -0.11508253634E+04  0.32724401330E+03 -0.13476271346E+04  0.18042300704E+04  0.87519094630E+02 0.  0.
         23    2    4    4    0    0  0.10934343246E+03 -0.20462752424E+02 -0.32346069268E+01  0.14374437371E+03  0.90979513244E+02 0.  0.
          4    1    3    3  502    0  0.47898913832E+02 -0.28148511977E+02  0.18430074313E+02  0.58534710318E+02  0.00000000000E+00 0. -1.
         -3    1    3    3    0  502  0.99358301708E+03 -0.27863274890E+03  0.55932087100E+03  0.11737475271E+04  0.00000000000E+00 0.  1.
         13    1    5    5    0    0 -0.25386610641E+03  0.10767345795E+03 -0.33084223588E+03  0.43069497161E+03  0.00000000000E+00 0. -1.
        -13    1    5    5    0    0 -0.89695925697E+03  0.21957055535E+03 -0.10167848987E+04  0.13735350988E+04  0.00000000000E+00 0.  1.
          1    1    6    6  503    0  0.32004805779E+02 -0.18390512208E+02  0.40560583769E+02  0.54842314758E+02  0.00000000000E+00 0. -1.
         -1    1    6    6    0  503  0.77338626685E+02 -0.20722402152E+01 -0.43795190696E+02  0.88902058948E+02  0.00000000000E+00 0.  1.
<mgrwt>
<rscale>  0 0.30848553E+04</rscale>
<asrwt>0</asrwt>
<pdfrwt beam="1">  1        2 0.30410519E+00 0.30848553E+04</pdfrwt>
<pdfrwt beam="2">  1       -1 0.18516507E+00 0.30848553E+04</pdfrwt>
<totfact> 0.12724691E+00</totfact>
</mgrwt>
</event>
<event>
12    7  0.1707730E-007  0.1153498E+04  0.7818608E-02  0.9154563E-01
         -1   -1    0    0    0  501 -0.00000000000E+00  0.00000000000E+00  0.38457628974E+03  0.38457628974E+03  0.00000000000E+00 0.  1.
          2   -1    0    0  501    0  0.00000000000E+00 -0.00000000000E+00 -0.86495029679E+03  0.86495029679E+03  0.00000000000E+00 0. -1.
         24    2    1    2    0    0 -0.22992859439E+01 -0.31711243544E+02  0.11646647945E+03  0.14287146555E+03  0.76399771928E+02 0.  0.
        254    2    1    2    0    0  0.22992859439E+01  0.31711243544E+02 -0.59684048650E+03  0.11066551210E+04  0.93137323388E+03 0.  0.
         23    2    4    4    0    0  0.18407623879E+03 -0.35057464849E+03 -0.49780807721E+02  0.40914501237E+03  0.90193494683E+02 0.  0.
         23    2    4    4    0    0 -0.18177695284E+03  0.38228589203E+03 -0.54705967878E+03  0.69751010861E+03  0.89781376894E+02 0.  0.
          4    1    3    3  502    0  0.19695226594E+01 -0.38989727655E+02  0.16227175504E+02  0.42277643111E+02  0.00000000000E+00 0. -1.
         -3    1    3    3    0  502 -0.42688086033E+01  0.72784841114E+01  0.10023930395E+03  0.10059382244E+03  0.00000000000E+00 0.  1.
         13    1    5    5    0    0  0.38512101088E+02 -0.79008669007E+02 -0.49807707709E+02  0.10102652848E+03  0.00000000000E+00 0. -1.
        -13    1    5    5    0    0  0.14556413770E+03 -0.27156597948E+03  0.26899988385E-01  0.30811848390E+03  0.00000000000E+00 0.  1.
          3    1    6    6  503    0 -0.13646776437E+03  0.28115607815E+03 -0.33438255686E+03  0.45769409579E+03  0.00000000000E+00 0. -1.
         -3    1    6    6    0  503 -0.45309188471E+02  0.10112981389E+03 -0.21267712192E+03  0.23981601282E+03  0.00000000000E+00 0.  1.
<mgrwt>
<rscale>  0 0.11534979E+04</rscale>
<asrwt>0</asrwt>
<pdfrwt beam="1">  1        2 0.13306927E+00 0.11534979E+04</pdfrwt>
<pdfrwt beam="2">  1       -1 0.59165584E-01 0.11534979E+04</pdfrwt>
<totfact> 0.10134795E+02</totfact>
</mgrwt>
</event>
<event>
12    7  0.1707730E-007  0.1577393E+04  0.7818608E-02  0.8834558E-01
          2   -1    0    0  501    0  0.00000000000E+00  0.00000000000E+00  0.18735723247E+04  0.18735723247E+04  0.00000000000E+00 0. -1.
         -1   -1    0    0    0  501 -0.00000000000E+00 -0.00000000000E+00 -0.33200845062E+03  0.33200845062E+03  0.00000000000E+00 0.  1.
         24    2    1    2    0    0  0.38518100334E+03  0.98151247306E+02  0.34430380789E+02  0.40591441067E+03  0.74719374874E+02 0.  0.
        254    2    1    2    0    0 -0.38518100334E+03 -0.98151247306E+02  0.15071334933E+04  0.17996663647E+04  0.89963858566E+03 0.  0.
         23    2    4    4    0    0 -0.61761120929E+03  0.13837962793E+03  0.10270234994E+04  0.12097837106E+04  0.90591560437E+02 0.  0.
         23    2    4    4    0    0  0.23243020594E+03 -0.23653087524E+03  0.48010999389E+03  0.58988265407E+03  0.86517534449E+02 0.  0.
          2    1    3    3  502    0  0.96734443406E+02  0.47992074371E+02  0.33756439035E+02  0.11313836184E+03  0.00000000000E+00 0. -1.
         -1    1    3    3    0  502  0.28844655994E+03  0.50159172935E+02  0.67394175330E+00  0.29277604883E+03  0.00000000000E+00 0.  1.
         13    1    5    5    0    0 -0.57106830192E+03  0.14724612968E+03  0.97441868208E+03  0.11389873556E+04  0.00000000000E+00 0.  1.
        -13    1    5    5    0    0 -0.46542907361E+02 -0.88665017410E+01  0.52604817352E+02  0.70796355043E+02  0.00000000000E+00 0. -1.
          1    1    6    6  503    0  0.42030545094E+01 -0.43669943792E+02  0.58349267579E+02  0.73002511498E+02  0.00000000000E+00 0. -1.
         -1    1    6    6    0  503  0.22822715143E+03 -0.19286093145E+03  0.42176072631E+03  0.51688014258E+03  0.00000000000E+00 0.  1.
<mgrwt>
<rscale>  0 0.15773926E+04</rscale>
<asrwt>0</asrwt>
<pdfrwt beam="1">  1        2 0.28824189E+00 0.15773926E+04</pdfrwt>
<pdfrwt beam="2">  1       -1 0.51078224E-01 0.15773926E+04</pdfrwt>
<totfact> 0.33120517E+01</totfact>
</mgrwt>
</event>
<event>
12    7  0.1707730E-007  0.1464609E+04  0.7818608E-02  0.8908335E-01
         -1   -1    0    0    0  501 -0.00000000000E+00  0.00000000000E+00  0.60389425036E+03  0.60389425036E+03  0.00000000000E+00 0.  1.
          2   -1    0    0  501    0  0.00000000000E+00 -0.00000000000E+00 -0.88801968515E+03  0.88801968515E+03  0.00000000000E+00 0. -1.
         24    2    1    2    0    0  0.76812017220E+01  0.27057795619E+03 -0.45237140542E+03  0.53301686191E+03  0.78712485700E+02 0.  0.
        254    2    1    2    0    0 -0.76812017220E+01 -0.27057795619E+03  0.16824597063E+03  0.95889707359E+03  0.90438125803E+03 0.  0.
         23    2    4    4    0    0 -0.38424573447E+03  0.91220603417E+02  0.11157896136E+02  0.40605364517E+03  0.93750099502E+02 0.  0.
         23    2    4    4    0    0  0.37656453275E+03 -0.36179855961E+03  0.15708807450E+03  0.55284342843E+03  0.90885357153E+02 0.  0.
          2    1    3    3  502    0 -0.13928825110E+02  0.13053936638E+03 -0.28456864102E+03  0.31339088978E+03  0.00000000000E+00 0. -1.
         -1    1    3    3    0  502  0.21610026832E+02  0.14003858981E+03 -0.16780276440E+03  0.21962597213E+03  0.00000000000E+00 0.  1.
         13    1    5    5    0    0 -0.17871558787E+03 -0.35183782567E+01 -0.80067529596E+01  0.17892945098E+03  0.00000000000E+00 0.  1.
        -13    1    5    5    0    0 -0.20553014660E+03  0.94738981674E+02  0.19164649096E+02  0.22712419419E+03  0.00000000000E+00 0. -1.
          1    1    6    6  503    0  0.38809007260E+02 -0.83933659156E+02  0.21415324063E+02  0.94918988029E+02  0.00000000000E+00 0. -1.
         -1    1    6    6    0  503  0.33775552549E+03 -0.27786490045E+03  0.13567275044E+03  0.45792444040E+03  0.00000000000E+00 0.  1.
<mgrwt>
<rscale>  0 0.14646091E+04</rscale>
<asrwt>0</asrwt>
<pdfrwt beam="1">  1        2 0.13661841E+00 0.14646091E+04</pdfrwt>
<pdfrwt beam="2">  1       -1 0.92906808E-01 0.14646091E+04</pdfrwt>
<totfact> 0.37194591E+01</totfact>
</mgrwt>
</event>
<event>
12    7  0.1707730E-007  0.2073204E+04  0.7818608E-02  0.8573140E-01
          2   -1    0    0  501    0  0.00000000000E+00  0.00000000000E+00  0.14969566451E+04  0.14969566451E+04  0.00000000000E+00 0. -1.
         -1   -1    0    0    0  501 -0.00000000000E+00 -0.00000000000E+00 -0.71781917743E+03  0.71781917743E+03  0.00000000000E+00 0.  1.
         24    2    1    2    0    0  0.65527143052E+03 -0.22449576272E+03 -0.17938579938E+03  0.71987286772E+03  0.79111854523E+02 0.  0.
        254    2    1    2    0    0 -0.65527143052E+03  0.22449576272E+03  0.95852326701E+03  0.14949029548E+04  0.91443370216E+03 0.  0.
         23    2    4    4    0    0 -0.50240284728E+03  0.54734685171E+03  0.47364432738E+03  0.88575739857E+03  0.90719475527E+02 0.  0.
         23    2    4    4    0    0 -0.15286858324E+03 -0.32285108898E+03  0.48487893963E+03  0.60914555620E+03  0.91373372152E+02 0.  0.
          4    1    3    3  502    0  0.21175244573E+03 -0.99027486193E+02 -0.31919033631E+02  0.23593296930E+03  0.00000000000E+00 0. -1.
         -3    1    3    3    0  502  0.44351898479E+03 -0.12546827653E+03 -0.14746676575E+03  0.48393989842E+03  0.00000000000E+00 0.  1.
         13    1    5    5    0    0 -0.28252069329E+02  0.60634417538E+01  0.18310289417E+02  0.34208353451E+02  0.00000000000E+00 0.  1.
        -13    1    5    5    0    0 -0.47415077795E+03  0.54128340995E+03  0.45533403796E+03  0.85154904512E+03  0.00000000000E+00 0. -1.
          3    1    6    6  503    0 -0.26764644849E+02 -0.16115116426E+03  0.22719943610E+03  0.27983142733E+03  0.00000000000E+00 0. -1.
         -3    1    6    6    0  503 -0.12610393839E+03 -0.16169992472E+03  0.25767950353E+03  0.32931412887E+03  0.00000000000E+00 0.  1.
<mgrwt>
<rscale>  0 0.20732045E+04</rscale>
<asrwt>0</asrwt>
<pdfrwt beam="1">  1        2 0.23030102E+00 0.20732045E+04</pdfrwt>
<pdfrwt beam="2">  1       -1 0.11043372E+00 0.20732045E+04</pdfrwt>
<totfact> 0.10139494E+01</totfact>
</mgrwt>
</event>
<event>
12    7  0.1707730E-007  0.2040069E+04  0.7818608E-02  0.8588113E-01
          2   -1    0    0  501    0  0.00000000000E+00  0.00000000000E+00  0.35814491329E+04  0.35814491329E+04  0.00000000000E+00 0. -1.
         -1   -1    0    0    0  501 -0.00000000000E+00 -0.00000000000E+00 -0.29051649119E+03  0.29051649119E+03  0.00000000000E+00 0.  1.
         24    2    1    2    0    0 -0.59160349041E+03 -0.31722980442E+03  0.44194281708E+03  0.80778239075E+03  0.81052443286E+02 0.  0.
        254    2    1    2    0    0  0.59160349041E+03  0.31722980442E+03  0.28489898247E+04  0.30641832334E+04  0.90655745983E+03 0.  0.
         23    2    4    4    0    0  0.64127456923E+03  0.51297201748E+03  0.26125762505E+04  0.27400905204E+04  0.90377162394E+02 0.  0.
         23    2    4    4    0    0 -0.49671078822E+02 -0.19574221306E+03  0.23641357421E+03  0.32409271301E+03  0.91446588294E+02 0.  0.
          4    1    3    3  502    0 -0.39699006872E+02 -0.38371086332E+01  0.40281577597E+02  0.56686330301E+02  0.00000000000E+00 0. -1.
         -1    1    3    3    0  502 -0.55190448353E+03 -0.31339269579E+03  0.40166123948E+03  0.75109606045E+03  0.00000000000E+00 0.  1.
         13    1    5    5    0    0  0.13676757947E+02  0.26343714744E+02  0.62021921358E+02  0.68758735760E+02  0.00000000000E+00 0.  1.
        -13    1    5    5    0    0  0.62759781128E+03  0.48662830274E+03  0.25505543291E+04  0.26713317846E+04  0.00000000000E+00 0. -1.
          2    1    6    6  503    0 -0.70351631849E+02 -0.18011945126E+03  0.22210288651E+03  0.29448609648E+03  0.00000000000E+00 0. -1.
         -2    1    6    6    0  503  0.20680553027E+02 -0.15622761802E+02  0.14310687701E+02  0.29606616529E+02  0.00000000000E+00 0.  1.
<mgrwt>
<rscale>  0 0.20400687E+04</rscale>
<asrwt>0</asrwt>
<pdfrwt beam="1">  1        2 0.55099214E+00 0.20400687E+04</pdfrwt>
<pdfrwt beam="2">  1       -1 0.44694847E-01 0.20400687E+04</pdfrwt>
<totfact> 0.37433101E+00</totfact>
</mgrwt>
</event>
<event>
12    7  0.1707730E-007  0.1572437E+04  0.7818608E-02  0.8837662E-01
          2   -1    0    0  501    0  0.00000000000E+00  0.00000000000E+00  0.11886165502E+04  0.11886165502E+04  0.00000000000E+00 0. -1.
         -1   -1    0    0    0  501 -0.00000000000E+00 -0.00000000000E+00 -0.52004941392E+03  0.52004941392E+03  0.00000000000E+00 0.  1.
         24    2    1    2    0    0  0.13002566341E+03  0.28365610454E+03  0.68582891818E+03  0.75780611179E+03  0.80878546374E+02 0.  0.
        254    2    1    2    0    0 -0.13002566341E+03 -0.28365610454E+03 -0.17261781852E+02  0.95085985237E+03  0.89803620804E+03 0.  0.
         23    2    4    4    0    0 -0.12296914807E+03  0.25136862685E+03 -0.22475002747E+03  0.37004247627E+03  0.90062541917E+02 0.  0.
         23    2    4    4    0    0 -0.70565153363E+01 -0.53502473139E+03  0.20748824561E+03  0.58081737610E+03  0.89421444338E+02 0.  0.
          2    1    3    3  502    0  0.60224758190E+02  0.20910965140E+03  0.50974146969E+03  0.55424744810E+03  0.00000000000E+00 0. -1.
         -1    1    3    3    0  502  0.69800905221E+02  0.74546453143E+02  0.17608744849E+03  0.20355866369E+03  0.00000000000E+00 0.  1.
         13    1    5    5    0    0 -0.58822282031E+02  0.70848098341E+02 -0.29976277252E+02  0.96840544710E+02  0.00000000000E+00 0.  1.
        -13    1    5    5    0    0 -0.64146866044E+02  0.18052052851E+03 -0.19477375021E+03  0.27320193156E+03  0.00000000000E+00 0. -1.
          3    1    6    6  503    0  0.98517014068E+01 -0.46158310766E+03  0.20568532850E+03  0.50543295861E+03  0.00000000000E+00 0. -1.
         -3    1    6    6    0  503 -0.16908216743E+02 -0.73441623733E+02  0.18029171175E+01  0.75384417488E+02  0.00000000000E+00 0.  1.
<mgrwt>
<rscale>  0 0.15724368E+04</rscale>
<asrwt>0</asrwt>
<pdfrwt beam="1">  1        2 0.18286408E+00 0.15724368E+04</pdfrwt>
<pdfrwt beam="2">  1       -1 0.80007602E-01 0.15724368E+04</pdfrwt>
<totfact> 0.32885371E+01</totfact>
</mgrwt>
</event>
<event>
12    7  0.1707730E-007  0.1346669E+04  0.7818608E-02  0.8993353E-01
         -1   -1    0    0    0  501 -0.00000000000E+00  0.00000000000E+00  0.24928509413E+03  0.24928509413E+03  0.00000000000E+00 0.  1.
          2   -1    0    0  501    0  0.00000000000E+00 -0.00000000000E+00 -0.18187191945E+04  0.18187191945E+04  0.00000000000E+00 0. -1.
         24    2    1    2    0    0 -0.30926473653E+03  0.91212687530E+02 -0.75373259265E+03  0.82365846813E+03  0.79599116010E+02 0.  0.
        254    2    1    2    0    0  0.30926473653E+03 -0.91212687530E+02 -0.81570150772E+03  0.12443458205E+04  0.88264553455E+03 0.  0.
         23    2    4    4    0    0  0.52246334338E+03  0.96695104456E+02 -0.22857308167E+03  0.58574577056E+03  0.92382713046E+02 0.  0.
         23    2    4    4    0    0 -0.21319860684E+03 -0.18790779199E+03 -0.58712842605E+03  0.65860004993E+03  0.90946428443E+02 0.  0.
          4    1    3    3  502    0 -0.29044524355E+03  0.93038105604E+02 -0.64718227258E+03  0.71544351457E+03  0.00000000000E+00 0. -1.
         -3    1    3    3    0  502 -0.18819492982E+02 -0.18254180745E+01 -0.10655032007E+03  0.10821495357E+03  0.00000000000E+00 0.  1.
         13    1    5    5    0    0  0.42307290433E+03  0.11446563159E+03 -0.18907105672E+03  0.47732685623E+03  0.00000000000E+00 0. -1.
        -13    1    5    5    0    0  0.99390439049E+02 -0.17770527139E+02 -0.39502024953E+02  0.10841891433E+03  0.00000000000E+00 0.  1.
          2    1    6    6  503    0 -0.19564217626E+03 -0.19104687093E+03 -0.57590526948E+03  0.63752776210E+03  0.00000000000E+00 0. -1.
         -2    1    6    6    0  503 -0.17556430579E+02  0.31390789467E+01 -0.11223156569E+02  0.21072287837E+02  0.00000000000E+00 0.  1.
<mgrwt>
<rscale>  0 0.13466694E+04</rscale>
<asrwt>0</asrwt>
<pdfrwt beam="1">  1        2 0.27980295E+00 0.13466694E+04</pdfrwt>
<pdfrwt beam="2">  1       -1 0.38351553E-01 0.13466694E+04</pdfrwt>
<totfact> 0.61686351E+01</totfact>
</mgrwt>
</event>
<event>
12    7  0.1707730E-007  0.1991207E+04  0.7818608E-02  0.8610743E-01
          2   -1    0    0  501    0  0.00000000000E+00  0.00000000000E+00  0.81865738315E+03  0.81865738315E+03  0.00000000000E+00 0. -1.
         -1   -1    0    0    0  501 -0.00000000000E+00 -0.00000000000E+00 -0.12107946589E+04  0.12107946589E+04  0.00000000000E+00 0.  1.
         24    2    1    2    0    0 -0.74902316138E+03  0.19615013541E+03  0.16093549901E+01  0.77836339474E+03  0.79601585033E+02 0.  0.
        254    2    1    2    0    0  0.74902316138E+03 -0.19615013541E+03 -0.39374663070E+03  0.12510886473E+04  0.90037537851E+03 0.  0.
         23    2    4    4    0    0  0.39691931538E+03 -0.12086223695E+03  0.26094265117E+03  0.49849085365E+03  0.90826431883E+02 0.  0.
         23    2    4    4    0    0  0.35210384600E+03 -0.75287898457E+02 -0.65468928188E+03  0.75259779361E+03  0.90221932639E+02 0.  0.
          2    1    3    3  502    0 -0.64525453129E+03  0.15363642831E+03  0.25189981537E+02  0.66377111825E+03  0.00000000000E+00 0. -1.
         -1    1    3    3    0  502 -0.10376863009E+03  0.42513707103E+02 -0.23580626547E+02  0.11459227649E+03  0.00000000000E+00 0.  1.
         13    1    5    5    0    0  0.30236295891E+01  0.28767427214E+01  0.20050422466E+02  0.20480171524E+02  0.00000000000E+00 0. -1.
        -13    1    5    5    0    0  0.39389568580E+03 -0.12373897967E+03  0.24089222871E+03  0.47801068213E+03  0.00000000000E+00 0.  1.
          3    1    6    6  503    0  0.15824849020E+02 -0.22362914108E+02 -0.26580715491E+02  0.38171458053E+02  0.00000000000E+00 0. -1.
         -3    1    6    6    0  503  0.33627899698E+03 -0.52924984349E+02 -0.62810856639E+03  0.71442633556E+03  0.00000000000E+00 0.  1.
<mgrwt>
<rscale>  0 0.19912067E+04</rscale>
<asrwt>0</asrwt>
<pdfrwt beam="1">  1        2 0.12594729E+00 0.19912067E+04</pdfrwt>
<pdfrwt beam="2">  1       -1 0.18627610E+00 0.19912067E+04</pdfrwt>
<totfact> 0.66515652E+00</totfact>
</mgrwt>
</event>
<event>
12    7  0.1707730E-007  0.1975381E+04  0.7818608E-02  0.8618218E-01
          2   -1    0    0  501    0  0.00000000000E+00  0.00000000000E+00  0.45598288052E+03  0.45598288052E+03  0.00000000000E+00 0. -1.
         -1   -1    0    0    0  501 -0.00000000000E+00 -0.00000000000E+00 -0.21394063614E+04  0.21394063614E+04  0.00000000000E+00 0.  1.
         24    2    1    2    0    0 -0.14600242424E+03  0.12522701032E+03 -0.16560976544E+04  0.16694183511E+04  0.85438153292E+02 0.  0.
        254    2    1    2    0    0  0.14600242424E+03 -0.12522701032E+03 -0.27325826462E+02  0.92597089083E+03  0.90536008188E+03 0.  0.
         23    2    4    4    0    0  0.52139592388E+02 -0.45646887804E+03 -0.22182080024E+03  0.51922441624E+03  0.96473588556E+02 0.  0.
         23    2    4    4    0    0  0.93862831848E+02  0.33124186772E+03  0.19449497377E+03  0.40674647459E+03  0.95304740880E+02 0.  0.
          2    1    3    3  502    0 -0.82607972285E+02  0.10579204797E+03 -0.13225699384E+04  0.13293634855E+04  0.00000000000E+00 0. -1.
         -1    1    3    3    0  502 -0.63394451951E+02  0.19434962345E+02 -0.33352771597E+03  0.34005486560E+03  0.00000000000E+00 0.  1.
         13    1    5    5    0    0 -0.95414614863E+01 -0.36487816064E+01 -0.13635197695E+02  0.17037362199E+02  0.00000000000E+00 0. -1.
        -13    1    5    5    0    0  0.61681053874E+02 -0.45282009643E+03 -0.20818560254E+03  0.50218705404E+03  0.00000000000E+00 0.  1.
          3    1    6    6  503    0  0.30443631707E+02  0.17643434823E+02  0.68946296679E+01  0.35855842232E+02  0.00000000000E+00 0. -1.
         -3    1    6    6    0  503  0.63419200140E+02  0.31359843290E+03  0.18760034411E+03  0.37089063236E+03  0.00000000000E+00 0.  1.
<mgrwt>
<rscale>  0 0.19753812E+04</rscale>
<asrwt>0</asrwt>
<pdfrwt beam="1">  1        2 0.70151211E-01 0.19753812E+04</pdfrwt>
<pdfrwt beam="2">  1       -1 0.32913945E+00 0.19753812E+04</pdfrwt>
<totfact> 0.15560224E+00</totfact>
</mgrwt>
</event>
<event>
12    7  0.1707730E-007  0.2328027E+04  0.7818608E-02  0.8466952E-01
         -1   -1    0    0    0  501 -0.00000000000E+00  0.00000000000E+00  0.13907186621E+04  0.13907186621E+04  0.00000000000E+00 0.  1.
          2   -1    0    0  501    0  0.00000000000E+00 -0.00000000000E+00 -0.97426460354E+03  0.97426460354E+03  0.00000000000E+00 0. -1.
         24    2    1    2    0    0  0.17322894378E+03  0.12882309024E+03  0.11580310163E+04  0.11807322216E+04  0.80554881120E+02 0.  0.
        254    2    1    2    0    0 -0.17322894378E+03 -0.12882309024E+03 -0.74157695771E+03  0.11842510441E+04  0.89772517823E+03 0.  0.
         23    2    4    4    0    0 -0.10046937062E+03 -0.33812140077E+03 -0.84433687945E+03  0.91992666740E+03  0.94552267589E+02 0.  0.
         23    2    4    4    0    0 -0.72759573166E+02  0.20929831052E+03  0.10275992174E+03  0.26432437667E+03  0.10103482723E+03 0.  0.
          4    1    3    3  502    0  0.28463063085E+02  0.67067797622E+02  0.38805926600E+03  0.39483949824E+03  0.00000000000E+00 0. -1.
         -3    1    3    3    0  502  0.14476588070E+03  0.61755292621E+02  0.76997175029E+03  0.78589272336E+03  0.00000000000E+00 0.  1.
         13    1    5    5    0    0 -0.82822958021E+01  0.27058317965E+01 -0.69409467948E+01  0.11139779705E+02  0.00000000000E+00 0.  1.
        -13    1    5    5    0    0 -0.92187074814E+02 -0.34082723256E+03 -0.83739593265E+03  0.90878688769E+03  0.00000000000E+00 0. -1.
          3    1    6    6  503    0 -0.36394349001E+02  0.19967875347E+03  0.70793251964E+02  0.21496008408E+03  0.00000000000E+00 0. -1.
         -3    1    6    6    0  503 -0.36365224166E+02  0.96195570569E+01  0.31966669771E+02  0.49364292589E+02  0.00000000000E+00 0.  1.
<mgrwt>
<rscale>  0 0.23280275E+04</rscale>
<asrwt>0</asrwt>
<pdfrwt beam="1">  1        2 0.14988686E+00 0.23280275E+04</pdfrwt>
<pdfrwt beam="2">  1       -1 0.21395672E+00 0.23280275E+04</pdfrwt>
<totfact> 0.32628378E+00</totfact>
</mgrwt>
</event>
<event>
12    7  0.1707730E-007  0.2655910E+04  0.7818608E-02  0.8349454E-01
         -1   -1    0    0    0  501 -0.00000000000E+00  0.00000000000E+00  0.61941786078E+03  0.61941786078E+03  0.00000000000E+00 0.  1.
          2   -1    0    0  501    0  0.00000000000E+00 -0.00000000000E+00 -0.28469706051E+04  0.28469706051E+04  0.00000000000E+00 0. -1.
         24    2    1    2    0    0  0.83381417501E+03  0.69733443425E+03 -0.15650059244E+04  0.19071196368E+04  0.79626465072E+02 0.  0.
        254    2    1    2    0    0 -0.83381417501E+03 -0.69733443425E+03 -0.66254681986E+03  0.15592688291E+04  0.90046077155E+03 0.  0.
         23    2    4    4    0    0 -0.38197740576E+01 -0.25757347053E+03 -0.54314514787E+03  0.60797954299E+03  0.90960374053E+02 0.  0.
         23    2    4    4    0    0 -0.82999440095E+03 -0.43976096373E+03 -0.11940167200E+03  0.95128928607E+03  0.91728597920E+02 0.  0.
          2    1    3    3  502    0  0.75322462281E+03  0.60752261910E+03 -0.14215558790E+04  0.17196662997E+04  0.00000000000E+00 0. -1.
         -1    1    3    3    0  502  0.80589552199E+02  0.89811815151E+02 -0.14345004537E+03  0.18745333707E+03  0.00000000000E+00 0.  1.
         13    1    5    5    0    0 -0.33975291281E+01 -0.14750482401E+03 -0.20647877319E+03  0.25377687068E+03  0.00000000000E+00 0. -1.
        -13    1    5    5    0    0 -0.42224492948E+00 -0.11006864651E+03 -0.33666637467E+03  0.35420267231E+03  0.00000000000E+00 0.  1.
          4    1    6    6  503    0 -0.45683866413E+03 -0.19629016581E+03 -0.84636563379E+02  0.50437559625E+03  0.00000000000E+00 0. -1.
         -4    1    6    6    0  503 -0.37315573682E+03 -0.24347079792E+03 -0.34765108619E+02  0.44691368981E+03  0.00000000000E+00 0.  1.
<mgrwt>
<rscale>  0 0.26559100E+04</rscale>
<asrwt>0</asrwt>
<pdfrwt beam="1">  1        2 0.43799547E+00 0.26559100E+04</pdfrwt>
<pdfrwt beam="2">  1       -1 0.95295056E-01 0.26559100E+04</pdfrwt>
<totfact> 0.23041042E+00</totfact>
</mgrwt>
</event>
<event>
12    7  0.1707730E-007  0.2652486E+04  0.7818608E-02  0.8350588E-01
          2   -1    0    0  501    0  0.00000000000E+00  0.00000000000E+00  0.25319670228E+04  0.25319670228E+04  0.00000000000E+00 0. -1.
         -1   -1    0    0    0  501 -0.00000000000E+00 -0.00000000000E+00 -0.69468553583E+03  0.69468553583E+03  0.00000000000E+00 0.  1.
         24    2    1    2    0    0 -0.74191039187E+02  0.65772767727E+03  0.19650527248E+04  0.20750735862E+04  0.79926022211E+02 0.  0.
        254    2    1    2    0    0  0.74191039187E+02 -0.65772767727E+03 -0.12777123784E+03  0.11515789725E+04  0.93364802406E+03 0.  0.
         23    2    4    4    0    0 -0.26513983511E+03 -0.42609642179E+03 -0.40256477057E+03  0.64979283077E+03  0.91186816947E+02 0.  0.
         23    2    4    4    0    0  0.33933087430E+03 -0.23163125547E+03  0.27479353273E+03  0.50178614168E+03  0.86483325496E+02 0.  0.
          2    1    3    3  502    0 -0.89871517495E+02  0.50275164181E+03  0.14829663319E+04  0.15684467618E+04  0.00000000000E+00 0. -1.
         -1    1    3    3    0  502  0.15680478307E+02  0.15497603545E+03  0.48208639293E+03  0.50662682441E+03  0.00000000000E+00 0.  1.
         13    1    5    5    0    0 -0.87441033144E+02 -0.11568939273E+03 -0.68520763471E+02  0.16039035163E+03  0.00000000000E+00 0. -1.
        -13    1    5    5    0    0 -0.17769880197E+03 -0.31040702906E+03 -0.33404400710E+03  0.48940247914E+03  0.00000000000E+00 0.  1.
          4    1    6    6  503    0  0.27898345668E+02 -0.19582719202E+02 -0.21961211259E+01  0.34155871096E+02  0.00000000000E+00 0. -1.
         -4    1    6    6    0  503  0.31143252863E+03 -0.21204853627E+03  0.27698965386E+03  0.46763027059E+03  0.00000000000E+00 0.  1.
<mgrwt>
<rscale>  0 0.26524863E+04</rscale>
<asrwt>0</asrwt>
<pdfrwt beam="1">  1        2 0.38953338E+00 0.26524863E+04</pdfrwt>
<pdfrwt beam="2">  1       -1 0.10687470E+00 0.26524863E+04</pdfrwt>
<totfact> 0.27276467E+00</totfact>
</mgrwt>
</event>
<event>
12    7  0.1707730E-007  0.1708104E+04  0.7818608E-02  0.8756756E-01
          2   -1    0    0  501    0  0.00000000000E+00  0.00000000000E+00  0.14353649207E+04  0.14353649207E+04  0.00000000000E+00 0. -1.
         -1   -1    0    0    0  501 -0.00000000000E+00 -0.00000000000E+00 -0.50816654145E+03  0.50816654145E+03  0.00000000000E+00 0.  1.
         24    2    1    2    0    0 -0.27972592092E+03  0.41004480888E+03  0.75069933180E+03  0.90345967647E+03  0.79413878549E+02 0.  0.
        254    2    1    2    0    0  0.27972592092E+03 -0.41004480888E+03  0.17649904745E+03  0.10400717857E+04  0.89677983334E+03 0.  0.
         23    2    4    4    0    0  0.17322530228E+03 -0.10041861777E+03 -0.34749342101E+03  0.41382935690E+03  0.10203996690E+03 0.  0.
         23    2    4    4    0    0  0.10650061864E+03 -0.30962619112E+03  0.52399246846E+03  0.62624242878E+03  0.10198388408E+03 0.  0.
          2    1    3    3  502    0 -0.24635587902E+03  0.31188761936E+03  0.56517165970E+03  0.69092988875E+03  0.00000000000E+00 0. -1.
         -1    1    3    3    0  502 -0.33370041896E+02  0.98157189523E+02  0.18552767210E+03  0.21252978772E+03  0.00000000000E+00 0.  1.
         13    1    5    5    0    0  0.18100490486E+02 -0.49067783272E+02 -0.40837450626E+02  0.66354897971E+02  0.00000000000E+00 0. -1.
        -13    1    5    5    0    0  0.15512481180E+03 -0.51350834495E+02 -0.30665597038E+03  0.34747445893E+03  0.00000000000E+00 0.  1.
          1    1    6    6  503    0 -0.18322060403E+02 -0.35884400415E+02  0.84787281267E+02  0.93873697888E+02  0.00000000000E+00 0. -1.
         -1    1    6    6    0  503  0.12482267904E+03 -0.27374179070E+03  0.43920518719E+03  0.53236873090E+03  0.00000000000E+00 0.  1.
<mgrwt>
<rscale>  0 0.17081035E+04</rscale>
<asrwt>0</asrwt>
<pdfrwt beam="1">  1        2 0.22082537E+00 0.17081035E+04</pdfrwt>
<pdfrwt beam="2">  1       -1 0.78179469E-01 0.17081035E+04</pdfrwt>
<totfact> 0.24522162E+01</totfact>
</mgrwt>
</event>
<event>
12    7  0.1707730E-007  0.1781495E+04  0.7818608E-02  0.8716202E-01
         -1   -1    0    0    0  501 -0.00000000000E+00  0.00000000000E+00  0.97926051601E+03  0.97926051601E+03  0.00000000000E+00 0.  1.
          2   -1    0    0  501    0  0.00000000000E+00 -0.00000000000E+00 -0.81023510821E+03  0.81023510821E+03  0.00000000000E+00 0. -1.
         24    2    1    2    0    0 -0.27874713019E+03 -0.22117743431E+03  0.62276819779E+03  0.72152815318E+03  0.78378744648E+02 0.  0.
        254    2    1    2    0    0  0.27874713019E+03  0.22117743431E+03 -0.45374278999E+03  0.10679674710E+04  0.89891744877E+03 0.  0.
         23    2    4    4    0    0  0.20515465265E+03 -0.24242641935E+02 -0.67838835233E+03  0.71472327126E+03  0.89120484232E+02 0.  0.
         23    2    4    4    0    0  0.73592477540E+02  0.24542007624E+03  0.22464556234E+03  0.35324419978E+03  0.93107300584E+02 0.  0.
          4    1    3    3  502    0 -0.17748632209E+02 -0.47904970046E+02  0.87069587872E+02  0.10095054845E+03  0.00000000000E+00 0. -1.
         -3    1    3    3    0  502 -0.26099849798E+03 -0.17327246426E+03  0.53569860992E+03  0.62057760473E+03  0.00000000000E+00 0.  1.
         13    1    5    5    0    0  0.14589140399E+03 -0.53220394748E+02 -0.41222768165E+03  0.44050922090E+03  0.00000000000E+00 0. -1.
        -13    1    5    5    0    0  0.59263248659E+02  0.28977752813E+02 -0.26616067068E+03  0.27421405037E+03  0.00000000000E+00 0.  1.
          3    1    6    6  503    0  0.40774100698E+01  0.12829695995E+03  0.66605569946E+02  0.14461340585E+03  0.00000000000E+00 0. -1.
         -3    1    6    6    0  503  0.69515067471E+02  0.11712311629E+03  0.15803999240E+03  0.20863079392E+03  0.00000000000E+00 0.  1.
<mgrwt>
<rscale>  0 0.17814952E+04</rscale>
<asrwt>0</asrwt>
<pdfrwt beam="1">  1        2 0.12465155E+00 0.17814952E+04</pdfrwt>
<pdfrwt beam="2">  1       -1 0.15065546E+00 0.17814952E+04</pdfrwt>
<totfact> 0.12603246E+01</totfact>
</mgrwt>
</event>
<event>
12    7  0.1707730E-007  0.1540899E+04  0.7818608E-02  0.8857702E-01
          2   -1    0    0  501    0  0.00000000000E+00  0.00000000000E+00  0.23469966801E+04  0.23469966801E+04  0.00000000000E+00 0. -1.
         -1   -1    0    0    0  501 -0.00000000000E+00 -0.00000000000E+00 -0.25291588554E+03  0.25291588554E+03  0.00000000000E+00 0.  1.
         24    2    1    2    0    0 -0.20199606624E+03 -0.31565997885E+02  0.14505686176E+04  0.14675711333E+04  0.88413199835E+02 0.  0.
        254    2    1    2    0    0  0.20199606624E+03  0.31565997885E+02  0.64351217687E+03  0.11323414323E+04  0.90900515645E+03 0.  0.
         23    2    4    4    0    0 -0.12645517045E+03 -0.11847737596E+03 -0.15521756590E+03  0.25084362104E+03  0.93820204140E+02 0.  0.
         23    2    4    4    0    0  0.32845123669E+03  0.15004337385E+03  0.79872974277E+03  0.88149781123E+03  0.93144835068E+02 0.  0.
          4    1    3    3  502    0 -0.14629967243E+01  0.11559233605E+02  0.19591662917E+03  0.19626278768E+03  0.00000000000E+00 0. -1.
         -3    1    3    3    0  502 -0.20053306951E+03 -0.43125231490E+02  0.12546519885E+04  0.12713083457E+04  0.00000000000E+00 0.  1.
         13    1    5    5    0    0 -0.55755253625E+02 -0.37236437493E+02 -0.12013357425E+03  0.13757643783E+03  0.00000000000E+00 0.  1.
        -13    1    5    5    0    0 -0.70699916825E+02 -0.81240938469E+02 -0.35083991647E+02  0.11326718321E+03  0.00000000000E+00 0. -1.
          3    1    6    6  503    0  0.32244923420E+03  0.14210777960E+03  0.71434007671E+03  0.79652361852E+03  0.00000000000E+00 0. -1.
         -3    1    6    6    0  503  0.60020024903E+01  0.79355942450E+01  0.84389666052E+02  0.84974192707E+02  0.00000000000E+00 0.  1.
<mgrwt>
<rscale>  0 0.15408994E+04</rscale>
<asrwt>0</asrwt>
<pdfrwt beam="1">  1        2 0.36107640E+00 0.15408994E+04</pdfrwt>
<pdfrwt beam="2">  1       -1 0.38910138E-01 0.15408994E+04</pdfrwt>
<totfact> 0.30008064E+01</totfact>
</mgrwt>
</event>
<event>
12    7  0.1707730E-007  0.1807036E+04  0.7818608E-02  0.8702567E-01
          2   -1    0    0  501    0  0.00000000000E+00  0.00000000000E+00  0.74573020051E+03  0.74573020051E+03  0.00000000000E+00 0. -1.
         -1   -1    0    0    0  501 -0.00000000000E+00 -0.00000000000E+00 -0.10946917954E+04  0.10946917954E+04  0.00000000000E+00 0.  1.
         24    2    1    2    0    0 -0.62219933496E+03  0.21720707002E+03 -0.29483644618E+03  0.72626903585E+03  0.78912982104E+02 0.  0.
        254    2    1    2    0    0  0.62219933496E+03 -0.21720707002E+03 -0.54125148704E+02  0.11141529600E+04  0.89671420361E+03 0.  0.
         23    2    4    4    0    0  0.14402772007E+03  0.30827008467E+03 -0.16435847006E+03  0.38917847786E+03  0.93122240613E+02 0.  0.
         23    2    4    4    0    0  0.47817161489E+03 -0.52547715469E+03  0.11023332136E+03  0.72497448218E+03  0.93071377352E+02 0.  0.
          2    1    3    3  502    0 -0.54722440203E+03  0.16235818343E+03 -0.25105271007E+03  0.62357212024E+03  0.00000000000E+00 0. -1.
         -1    1    3    3    0  502 -0.74974932931E+02  0.54848886595E+02 -0.43783736107E+02  0.10269691561E+03  0.00000000000E+00 0.  1.
         13    1    5    5    0    0  0.49539946607E+02  0.48244728847E+02 -0.36913611309E+01  0.69248727918E+02  0.00000000000E+00 0.  1.
        -13    1    5    5    0    0  0.94487773466E+02  0.26002535582E+03 -0.16066710893E+03  0.31992974994E+03  0.00000000000E+00 0. -1.
          4    1    6    6  503    0  0.18948642113E+03 -0.19652469399E+03  0.87678058073E+02  0.28673071166E+03  0.00000000000E+00 0. -1.
         -4    1    6    6    0  503  0.28868519376E+03 -0.32895246070E+03  0.22555263287E+02  0.43824377052E+03  0.00000000000E+00 0.  1.
<mgrwt>
<rscale>  0 0.18070360E+04</rscale>
<asrwt>0</asrwt>
<pdfrwt beam="1">  1        2 0.11472772E+00 0.18070360E+04</pdfrwt>
<pdfrwt beam="2">  1       -1 0.16841412E+00 0.18070360E+04</pdfrwt>
<totfact> 0.10286846E+01</totfact>
</mgrwt>
</event>
<event>
12    7  0.1707730E-007  0.1365752E+04  0.7818608E-02  0.8978989E-01
         -1   -1    0    0    0  501 -0.00000000000E+00  0.00000000000E+00  0.13204055241E+04  0.13204055241E+04  0.00000000000E+00 0.  1.
          2   -1    0    0  501    0  0.00000000000E+00 -0.00000000000E+00 -0.35316418157E+03  0.35316418157E+03  0.00000000000E+00 0. -1.
         24    2    1    2    0    0  0.70211006835E+02  0.15541019048E+03  0.68731205074E+03  0.71327829674E+03  0.85359010733E+02 0.  0.
        254    2    1    2    0    0 -0.70211006835E+02 -0.15541019048E+03  0.27992929183E+03  0.96029140898E+03  0.90261690044E+03 0.  0.
         23    2    4    4    0    0 -0.47699322407E+03 -0.71571581416E+02  0.11416527456E+03  0.50413374224E+03  0.92043973576E+02 0.  0.
         23    2    4    4    0    0  0.40678221724E+03 -0.83838609062E+02  0.16576401727E+03  0.45615766674E+03  0.90007904517E+02 0.  0.
          4    1    3    3  502    0  0.25585220897E+02  0.51325837061E+02  0.10115029364E+03  0.11627694088E+03  0.00000000000E+00 0. -1.
         -3    1    3    3    0  502  0.44625785938E+02  0.10408435342E+03  0.58616175710E+03  0.59700135585E+03  0.00000000000E+00 0.  1.
         13    1    5    5    0    0 -0.21106360868E+03 -0.73485821875E+02  0.31847071020E+02  0.22574819791E+03  0.00000000000E+00 0. -1.
        -13    1    5    5    0    0 -0.26592961539E+03  0.19142404598E+01  0.82318203539E+02  0.27838554433E+03  0.00000000000E+00 0.  1.
          4    1    6    6  503    0  0.19432493651E+03 -0.98281264814E+00  0.10147556765E+03  0.21922690916E+03  0.00000000000E+00 0. -1.
         -4    1    6    6    0  503  0.21245728072E+03 -0.82855796414E+02  0.64288449622E+02  0.23693075758E+03  0.00000000000E+00 0.  1.
<mgrwt>
<rscale>  0 0.13657524E+04</rscale>
<asrwt>0</asrwt>
<pdfrwt beam="1">  1        2 0.54332952E-01 0.13657524E+04</pdfrwt>
<pdfrwt beam="2">  1       -1 0.20313931E+00 0.13657524E+04</pdfrwt>
<totfact> 0.14632036E+01</totfact>
</mgrwt>
</event>
<event>
12    7  0.1707730E-007  0.1098114E+04  0.7818608E-02  0.9207032E-01
          2   -1    0    0  501    0  0.00000000000E+00  0.00000000000E+00  0.73027710808E+03  0.73027710808E+03  0.00000000000E+00 0. -1.
         -1   -1    0    0    0  501 -0.00000000000E+00 -0.00000000000E+00 -0.41280682236E+03  0.41280682236E+03  0.00000000000E+00 0.  1.
         24    2    1    2    0    0  0.10020780642E+03  0.12820127695E+03  0.95478476645E+02  0.20577238790E+03  0.82152079961E+02 0.  0.
        254    2    1    2    0    0 -0.10020780642E+03 -0.12820127695E+03  0.22199180908E+03  0.93731154253E+03  0.89598850025E+03 0.  0.
         23    2    4    4    0    0 -0.17529746985E+03 -0.25912355120E+03 -0.26407947038E+03  0.41956131149E+03  0.91757886308E+02 0.  0.
         23    2    4    4    0    0  0.75089663433E+02  0.13092227425E+03  0.48607127946E+03  0.51775023104E+03  0.94978490095E+02 0.  0.
          4    1    3    3  502    0  0.86569487878E+02  0.83502694405E+02  0.10310372947E+03  0.15842144816E+03  0.00000000000E+00 0. -1.
         -3    1    3    3    0  502  0.13638318541E+02  0.44698582547E+02 -0.76252528294E+01  0.47350939748E+02  0.00000000000E+00 0.  1.
         13    1    5    5    0    0 -0.52752473867E+01 -0.64631855981E+02 -0.32087935226E+02  0.72351507445E+02  0.00000000000E+00 0. -1.
        -13    1    5    5    0    0 -0.17002222247E+03 -0.19449169522E+03 -0.23199153516E+03  0.34720980404E+03  0.00000000000E+00 0.  1.
          1    1    6    6  503    0  0.70763281978E+02  0.60223404817E+02  0.16897101309E+03  0.19283543198E+03  0.00000000000E+00 0. -1.
         -1    1    6    6    0  503  0.43263814558E+01  0.70698869428E+02  0.31710026637E+03  0.32491479906E+03  0.00000000000E+00 0.  1.
<mgrwt>
<rscale>  0 0.10981136E+04</rscale>
<asrwt>0</asrwt>
<pdfrwt beam="1">  1        2 0.11235032E+00 0.10981136E+04</pdfrwt>
<pdfrwt beam="2">  1       -1 0.63508742E-01 0.10981136E+04</pdfrwt>
<totfact> 0.11069228E+02</totfact>
</mgrwt>
</event>
<event>
12    7  0.1707730E-007  0.2309123E+04  0.7818608E-02  0.8474333E-01
         -1   -1    0    0    0  501 -0.00000000000E+00  0.00000000000E+00  0.60727311715E+03  0.60727311715E+03  0.00000000000E+00 0.  1.
          2   -1    0    0  501    0  0.00000000000E+00 -0.00000000000E+00 -0.21950780396E+04  0.21950780396E+04  0.00000000000E+00 0. -1.
         24    2    1    2    0    0 -0.73248041805E+03  0.60497131536E+03 -0.39328933888E+03  0.10316152828E+04  0.83879273080E+02 0.  0.
        254    2    1    2    0    0  0.73248041805E+03 -0.60497131536E+03 -0.11945155836E+04  0.17707358740E+04  0.89784196861E+03 0.  0.
         23    2    4    4    0    0  0.77282412673E+02 -0.36588547554E+03 -0.95140935462E+03  0.10265749828E+04  0.93977032489E+02 0.  0.
         23    2    4    4    0    0  0.65519800538E+03 -0.23908583982E+03 -0.24310622898E+03  0.74416089120E+03  0.90710133770E+02 0.  0.
          4    1    3    3  502    0 -0.42428230627E+03  0.37339742454E+03 -0.19335605740E+03  0.59735054784E+03  0.00000000000E+00 0. -1.
         -3    1    3    3    0  502 -0.30819811179E+03  0.23157389082E+03 -0.19993328147E+03  0.43426473499E+03  0.00000000000E+00 0.  1.
         13    1    5    5    0    0  0.21551369967E+02 -0.10341440566E+03 -0.16762930087E+03  0.19813778881E+03  0.00000000000E+00 0. -1.
        -13    1    5    5    0    0  0.55731042706E+02 -0.26247106988E+03 -0.78378005375E+03  0.82843719394E+03  0.00000000000E+00 0.  1.
          4    1    6    6  503    0  0.24596928788E+03 -0.45792725913E+02 -0.72466787237E+02  0.26047898107E+03  0.00000000000E+00 0. -1.
         -4    1    6    6    0  503  0.40922871750E+03 -0.19329311391E+03 -0.17063944174E+03  0.48368191013E+03  0.00000000000E+00 0.  1.
<mgrwt>
<rscale>  0 0.23091227E+04</rscale>
<asrwt>0</asrwt>
<pdfrwt beam="1">  1        2 0.33770432E+00 0.23091227E+04</pdfrwt>
<pdfrwt beam="2">  1       -1 0.93426632E-01 0.23091227E+04</pdfrwt>
<totfact> 0.59546261E+00</totfact>
</mgrwt>
</event>
<event>
12    7  0.1707730E-007  0.1669606E+04  0.7818608E-02  0.8778891E-01
         -1   -1    0    0    0  501 -0.00000000000E+00  0.00000000000E+00  0.23489179180E+03  0.23489179180E+03  0.00000000000E+00 0.  1.
          2   -1    0    0  501    0  0.00000000000E+00 -0.00000000000E+00 -0.29668826591E+04  0.29668826591E+04  0.00000000000E+00 0. -1.
         24    2    1    2    0    0  0.20147012666E+03 -0.30411355590E+03 -0.82113678193E+02  0.38251326074E+03  0.80613098671E+02 0.  0.
        254    2    1    2    0    0 -0.20147012666E+03  0.30411355590E+03 -0.26498771891E+04  0.28192611901E+04  0.89067910841E+03 0.  0.
         23    2    4    4    0    0 -0.13165558130E+03  0.23932629764E+03 -0.16759020896E+03  0.33344616433E+03  0.92139012055E+02 0.  0.
         23    2    4    4    0    0 -0.69814545362E+02  0.64787258268E+02 -0.24822869801E+04  0.24858150258E+04  0.91957768748E+02 0.  0.
          2    1    3    3  502    0  0.53140615397E+02 -0.12625052017E+03 -0.61029580254E+02  0.14995908946E+03  0.00000000000E+00 0. -1.
         -1    1    3    3    0  502  0.14832951126E+03 -0.17786303574E+03 -0.21084097938E+02  0.23255417128E+03  0.00000000000E+00 0.  1.
         13    1    5    5    0    0 -0.41927672424E+02  0.16935854643E+03 -0.10315675308E+03  0.20268587190E+03  0.00000000000E+00 0.  1.
        -13    1    5    5    0    0 -0.89727908874E+02  0.69967751210E+02 -0.64433455877E+02  0.13076029243E+03  0.00000000000E+00 0. -1.
          3    1    6    6  503    0  0.13252384626E+02  0.12391847019E+02 -0.10922534341E+03  0.11072199065E+03  0.00000000000E+00 0. -1.
         -3    1    6    6    0  503 -0.83066929988E+02  0.52395411249E+02 -0.23730616367E+04  0.23750930351E+04  0.00000000000E+00 0.  1.
<mgrwt>
<rscale>  0 0.16696064E+04</rscale>
<asrwt>0</asrwt>
<pdfrwt beam="1">  1        2 0.45644348E+00 0.16696064E+04</pdfrwt>
<pdfrwt beam="2">  1       -1 0.36137199E-01 0.16696064E+04</pdfrwt>
<totfact> 0.14600756E+01</totfact>
</mgrwt>
</event>
<event>
12    7  0.1707730E-007  0.1709607E+04  0.7818608E-02  0.8755904E-01
         -1   -1    0    0    0  501 -0.00000000000E+00  0.00000000000E+00  0.77771608956E+03  0.77771608956E+03  0.00000000000E+00 0.  1.
          2   -1    0    0  501    0  0.00000000000E+00 -0.00000000000E+00 -0.93953223269E+03  0.93953223269E+03  0.00000000000E+00 0. -1.
         24    2    1    2    0    0 -0.28144949616E+01 -0.51013932691E+03  0.29568490292E+03  0.59476795421E+03  0.77905733389E+02 0.  0.
        254    2    1    2    0    0  0.28144949616E+01  0.51013932691E+03 -0.45750104604E+03  0.11224803680E+04  0.88904719518E+03 0.  0.
         23    2    4    4    0    0 -0.42317218586E+03  0.25856410859E+03 -0.12877419193E+03  0.52061818872E+03  0.92360212108E+02 0.  0.
         23    2    4    4    0    0  0.42598668082E+03  0.25157521832E+03 -0.32872685411E+03  0.60186217932E+03  0.97066964427E+02 0.  0.
          2    1    3    3  502    0 -0.17936643044E+02 -0.15908327258E+03  0.13027829812E+03  0.20640166119E+03  0.00000000000E+00 0. -1.
         -1    1    3    3    0  502  0.15122148083E+02 -0.35105605433E+03  0.16540660479E+03  0.38836629302E+03  0.00000000000E+00 0.  1.
         13    1    5    5    0    0 -0.80915753496E+02  0.11271037972E+02 -0.12449030805E+02  0.82640025585E+02  0.00000000000E+00 0. -1.
        -13    1    5    5    0    0 -0.34225643236E+03  0.24729307062E+03 -0.11632516113E+03  0.43797816313E+03  0.00000000000E+00 0.  1.
          1    1    6    6  503    0  0.13415944399E+02  0.32643999194E+01 -0.35464528819E+02  0.38057544263E+02  0.00000000000E+00 0. -1.
         -1    1    6    6    0  503  0.41257073642E+03  0.24831081840E+03 -0.29326232529E+03  0.56380463506E+03  0.00000000000E+00 0.  1.
<mgrwt>
<rscale>  0 0.17096074E+04</rscale>
<asrwt>0</asrwt>
<pdfrwt beam="1">  1        2 0.14454342E+00 0.17096074E+04</pdfrwt>
<pdfrwt beam="2">  1       -1 0.11964863E+00 0.17096074E+04</pdfrwt>
<totfact> 0.18666805E+01</totfact>
</mgrwt>
</event>
<event>
12    7  0.1707730E-007  0.1632139E+04  0.7818608E-02  0.8801043E-01
         -1   -1    0    0    0  501 -0.00000000000E+00  0.00000000000E+00  0.24349169605E+03  0.24349169605E+03  0.00000000000E+00 0.  1.
          2   -1    0    0  501    0  0.00000000000E+00 -0.00000000000E+00 -0.27350810056E+04  0.27350810056E+04  0.00000000000E+00 0. -1.
         24    2    1    2    0    0 -0.55631803313E+03  0.64771436113E+02 -0.10214435652E+04  0.11675726572E+04  0.78701080542E+02 0.  0.
        254    2    1    2    0    0  0.55631803313E+03 -0.64771436113E+02 -0.14701457444E+04  0.18110000445E+04  0.89705493610E+03 0.  0.
         23    2    4    4    0    0  0.47472531678E+03  0.15302442118E+03 -0.24939748369E+03  0.56491639345E+03  0.90281929773E+02 0.  0.
         23    2    4    4    0    0  0.81592716355E+02 -0.21779585729E+03 -0.12207482607E+04  0.12460836510E+04  0.91682836612E+02 0.  0.
          2    1    3    3  502    0 -0.48604507305E+03  0.61097812720E+02 -0.83228326986E+03  0.96574748100E+03  0.00000000000E+00 0. -1.
         -1    1    3    3    0  502 -0.70272960082E+02  0.36736233929E+01 -0.18916029530E+03  0.20182517619E+03  0.00000000000E+00 0.  1.
         13    1    5    5    0    0  0.14320915302E+03  0.30808833180E+02 -0.11744874861E+03  0.18775583682E+03  0.00000000000E+00 0.  1.
        -13    1    5    5    0    0  0.33151616375E+03  0.12221558800E+03 -0.13194873508E+03  0.37716055662E+03  0.00000000000E+00 0. -1.
          2    1    6    6  503    0  0.25133329270E+02 -0.12793016067E+03 -0.86733033345E+03  0.87707452224E+03  0.00000000000E+00 0. -1.
         -2    1    6    6    0  503  0.56459387085E+02 -0.89865696625E+02 -0.35341792724E+03  0.36900912877E+03  0.00000000000E+00 0.  1.
<mgrwt>
<rscale>  0 0.16321391E+04</rscale>
<asrwt>0</asrwt>
<pdfrwt beam="1">  1        2 0.42078170E+00 0.16321391E+04</pdfrwt>
<pdfrwt beam="2">  1       -1 0.37460261E-01 0.16321391E+04</pdfrwt>
<totfact> 0.18985434E+01</totfact>
</mgrwt>
</event>
<event>
12    7  0.1707730E-007  0.4220839E+04  0.7818608E-02  0.7961420E-01
         -1   -1    0    0    0  501 -0.00000000000E+00  0.00000000000E+00  0.98578358425E+03  0.98578358425E+03  0.00000000000E+00 0.  1.
          2   -1    0    0  501    0  0.00000000000E+00 -0.00000000000E+00 -0.45181008400E+04  0.45181008400E+04  0.00000000000E+00 0. -1.
         24    2    1    2    0    0 -0.19282483750E+04  0.38241552169E+03 -0.22653397550E+04  0.30004159514E+04  0.79675898658E+02 0.  0.
        254    2    1    2    0    0  0.19282483750E+04 -0.38241552169E+03 -0.12669775008E+04  0.25034684729E+04  0.89316234838E+03 0.  0.
         23    2    4    4    0    0  0.11197777063E+03 -0.29320133888E+03 -0.29012956701E+03  0.43718994638E+03  0.91944751476E+02 0.  0.
         23    2    4    4    0    0  0.18162706043E+04 -0.89214182811E+02 -0.97684793374E+03  0.20662785265E+04  0.92070542899E+02 0.  0.
          4    1    3    3  502    0 -0.15140489572E+04  0.27336246240E+03 -0.17417443629E+04  0.23239502375E+04  0.00000000000E+00 0. -1.
         -3    1    3    3    0  502 -0.41419941781E+03  0.10905305930E+03 -0.52359539206E+03  0.67646571387E+03  0.00000000000E+00 0.  1.
         13    1    5    5    0    0 -0.13641210400E+02 -0.93418415356E+01 -0.17131463145E+02  0.23808394611E+02  0.00000000000E+00 0.  1.
        -13    1    5    5    0    0  0.12561898103E+03 -0.28385949735E+03 -0.27299810387E+03  0.41338155177E+03  0.00000000000E+00 0. -1.
          4    1    6    6  503    0  0.17095134150E+04 -0.62468499040E+02 -0.91318096806E+03  0.19391332883E+04  0.00000000000E+00 0. -1.
         -4    1    6    6    0  503  0.10675718930E+03 -0.26745683770E+02 -0.63666965683E+02  0.12714523816E+03  0.00000000000E+00 0.  1.
<mgrwt>
<rscale>  0 0.42208386E+04</rscale>
<asrwt>0</asrwt>
<pdfrwt beam="1">  1        2 0.69509242E+00 0.42208386E+04</pdfrwt>
<pdfrwt beam="2">  1       -1 0.15165902E+00 0.42208386E+04</pdfrwt>
<totfact> 0.34873949E-02</totfact>
</mgrwt>
</event>
<event>
12    7  0.1707730E-007  0.1702519E+04  0.7818608E-02  0.8759929E-01
         -1   -1    0    0    0  501 -0.00000000000E+00  0.00000000000E+00  0.43160264218E+03  0.43160264218E+03  0.00000000000E+00 0.  1.
          2   -1    0    0  501    0  0.00000000000E+00 -0.00000000000E+00 -0.16789589833E+04  0.16789589833E+04  0.00000000000E+00 0. -1.
         24    2    1    2    0    0 -0.24311858409E+03  0.60745885870E+02  0.22737056985E+03  0.34814736437E+03  0.81929864546E+02 0.  0.
        254    2    1    2    0    0  0.24311858409E+03 -0.60745885870E+02 -0.14747269109E+04  0.17624142611E+04  0.93192695915E+03 0.  0.
         23    2    4    4    0    0 -0.19717529999E+03  0.24272270834E+03 -0.96219209951E+03  0.10158976044E+04  0.91879781678E+02 0.  0.
         23    2    4    4    0    0  0.44029388408E+03 -0.30346859421E+03 -0.51253481143E+03  0.74651665663E+03  0.92969315764E+02 0.  0.
          2    1    3    3  502    0  0.23774930640E+01  0.13243269298E+02  0.14234257886E+02  0.19587004685E+02  0.00000000000E+00 0. -1.
         -1    1    3    3    0  502 -0.24549607716E+03  0.47502616572E+02  0.21313631196E+03  0.32856035969E+03  0.00000000000E+00 0.  1.
         13    1    5    5    0    0  0.46762052896E+01  0.36150437930E+02 -0.88814916562E+02  0.96004221065E+02  0.00000000000E+00 0.  1.
        -13    1    5    5    0    0 -0.20185150528E+03  0.20657227041E+03 -0.87337718295E+03  0.91989338338E+03  0.00000000000E+00 0. -1.
          4    1    6    6  503    0  0.36283480706E+03 -0.20356703565E+03 -0.40367304879E+03  0.57969005989E+03  0.00000000000E+00 0. -1.
         -4    1    6    6    0  503  0.77459077020E+02 -0.99901558559E+02 -0.10886176265E+03  0.16682659675E+03  0.00000000000E+00 0.  1.
<mgrwt>
<rscale>  0 0.17025195E+04</rscale>
<asrwt>0</asrwt>
<pdfrwt beam="1">  1        2 0.25830138E+00 0.17025195E+04</pdfrwt>
<pdfrwt beam="2">  1       -1 0.66400407E-01 0.17025195E+04</pdfrwt>
<totfact> 0.25094829E+01</totfact>
</mgrwt>
</event>
<event>
12    7  0.1707730E-007  0.1780710E+04  0.7818608E-02  0.8716625E-01
         -1   -1    0    0    0  501 -0.00000000000E+00  0.00000000000E+00  0.28977381466E+03  0.28977381466E+03  0.00000000000E+00 0.  1.
          2   -1    0    0  501    0  0.00000000000E+00 -0.00000000000E+00 -0.27356927183E+04  0.27356927183E+04  0.00000000000E+00 0. -1.
         24    2    1    2    0    0 -0.38688874089E+03 -0.25035730107E+03 -0.16989065552E+04  0.17621325196E+04  0.80410555923E+02 0.  0.
        254    2    1    2    0    0  0.38688874089E+03  0.25035730107E+03 -0.74701234844E+03  0.12633340133E+04  0.90863837935E+03 0.  0.
         23    2    4    4    0    0 -0.78705573219E+02  0.35265721094E+03 -0.67753940563E+03  0.77327754604E+03  0.91306305059E+02 0.  0.
         23    2    4    4    0    0  0.46559431411E+03 -0.10229990988E+03 -0.69472942815E+02  0.49005646727E+03  0.89919488635E+02 0.  0.
          2    1    3    3  502    0 -0.31139927383E+03 -0.16058035673E+03 -0.12904507557E+04  0.13371681688E+04  0.00000000000E+00 0. -1.
         -1    1    3    3    0  502 -0.75489467060E+02 -0.89776944335E+02 -0.40845579950E+03  0.42496435088E+03  0.00000000000E+00 0.  1.
         13    1    5    5    0    0 -0.81162364386E+02  0.15537145754E+03 -0.30996863901E+03  0.35610135689E+03  0.00000000000E+00 0. -1.
        -13    1    5    5    0    0  0.24567911672E+01  0.19728575341E+03 -0.36757076661E+03  0.41717618914E+03  0.00000000000E+00 0.  1.
          3    1    6    6  503    0 -0.27107172251E+01 -0.48291383863E+01 -0.48661480637E+01  0.73721070534E+01  0.00000000000E+00 0. -1.
         -3    1    6    6    0  503  0.46830503133E+03 -0.97470771490E+02 -0.64606794751E+02  0.48268436021E+03  0.00000000000E+00 0.  1.
<mgrwt>
<rscale>  0 0.17807101E+04</rscale>
<asrwt>0</asrwt>
<pdfrwt beam="1">  1        2 0.42087580E+00 0.17807101E+04</pdfrwt>
<pdfrwt beam="2">  1       -1 0.44580587E-01 0.17807101E+04</pdfrwt>
<totfact> 0.13596749E+01</totfact>
</mgrwt>
</event>
<event>
12    7  0.1707730E-007  0.1506605E+04  0.7818608E-02  0.8880073E-01
          2   -1    0    0  501    0  0.00000000000E+00  0.00000000000E+00  0.36390516726E+04  0.36390516726E+04  0.00000000000E+00 0. -1.
         -1   -1    0    0    0  501 -0.00000000000E+00 -0.00000000000E+00 -0.15593748924E+03  0.15593748924E+03  0.00000000000E+00 0.  1.
         24    2    1    2    0    0  0.62284767367E+02  0.16470302967E+03  0.21516703001E+04  0.21601616185E+04  0.74877615628E+02 0.  0.
        254    2    1    2    0    0 -0.62284767367E+02 -0.16470302967E+03  0.13314438833E+04  0.16348275434E+04  0.93215438748E+03 0.  0.
         23    2    4    4    0    0 -0.12804315385E+03 -0.45270815510E+03  0.31728452906E+03  0.57483086136E+03  0.91767771262E+02 0.  0.
         23    2    4    4    0    0  0.65758386482E+02  0.28800512544E+03  0.10141593542E+04  0.10599966821E+04  0.88332624204E+02 0.  0.
          4    1    3    3  502    0  0.60919692646E+02  0.15417605173E+03  0.21250007457E+04  0.21314571619E+04  0.00000000000E+00 0. -1.
         -3    1    3    3    0  502  0.13650747212E+01  0.10526977942E+02  0.26669554421E+02  0.28704456563E+02  0.00000000000E+00 0.  1.
         13    1    5    5    0    0 -0.11712964977E+02 -0.11970709473E+03  0.42040701995E+02  0.12741429551E+03  0.00000000000E+00 0. -1.
        -13    1    5    5    0    0 -0.11633018887E+03 -0.33300106037E+03  0.27524382706E+03  0.44741656584E+03  0.00000000000E+00 0.  1.
          1    1    6    6  503    0  0.18626857542E+02  0.39976984717E+01  0.91646771373E+02  0.93605940613E+02  0.00000000000E+00 0. -1.
         -1    1    6    6    0  503  0.47131528940E+02  0.28400742696E+03  0.92251258288E+03  0.96639074145E+03  0.00000000000E+00 0.  1.
<mgrwt>
<rscale>  0 0.15066049E+04</rscale>
<asrwt>0</asrwt>
<pdfrwt beam="1">  1        2 0.55985404E+00 0.15066049E+04</pdfrwt>
<pdfrwt beam="2">  1       -1 0.23990386E-01 0.15066049E+04</pdfrwt>
<totfact> 0.10871262E+01</totfact>
</mgrwt>
</event>
<event>
12    7  0.1707730E-007  0.1346757E+04  0.7818608E-02  0.8993287E-01
         -1   -1    0    0    0  501 -0.00000000000E+00  0.00000000000E+00  0.48614700215E+03  0.48614700215E+03  0.00000000000E+00 0.  1.
          2   -1    0    0  501    0  0.00000000000E+00 -0.00000000000E+00 -0.93271915714E+03  0.93271915714E+03  0.00000000000E+00 0. -1.
         24    2    1    2    0    0 -0.81706450792E+02 -0.29427613899E+03  0.39621653592E+02  0.31794317761E+03  0.79016445575E+02 0.  0.
        254    2    1    2    0    0  0.81706450792E+02  0.29427613899E+03 -0.48619380859E+03  0.11009229817E+04  0.93934690184E+03 0.  0.
         23    2    4    4    0    0 -0.30920681118E+03 -0.75922515914E+02  0.51667394256E+02  0.33446667935E+03  0.88461061853E+02 0.  0.
         23    2    4    4    0    0  0.39091326197E+03  0.37019865491E+03 -0.53786120285E+03  0.76645630233E+03  0.91106352041E+02 0.  0.
          2    1    3    3  502    0 -0.37443351025E+02 -0.12401987223E+03 -0.22286133096E+02  0.13145191125E+03  0.00000000000E+00 0. -1.
         -1    1    3    3    0  502 -0.44263099767E+02 -0.17025626677E+03  0.61907786688E+02  0.18649126636E+03  0.00000000000E+00 0.  1.
         13    1    5    5    0    0 -0.31494175448E+03 -0.71791687292E+02  0.48209595436E+02  0.32659840810E+03  0.00000000000E+00 0. -1.
        -13    1    5    5    0    0  0.57349433036E+01 -0.41308286225E+01  0.34577988200E+01  0.78682712512E+01  0.00000000000E+00 0.  1.
          1    1    6    6  503    0  0.31744832918E+03  0.30726442272E+03 -0.48562312780E+03  0.65651708997E+03  0.00000000000E+00 0. -1.
         -1    1    6    6    0  503  0.73464932787E+02  0.62934232188E+02 -0.52238075045E+02  0.10993921236E+03  0.00000000000E+00 0.  1.
<mgrwt>
<rscale>  0 0.13467570E+04</rscale>
<asrwt>0</asrwt>
<pdfrwt beam="1">  1        2 0.14349525E+00 0.13467570E+04</pdfrwt>
<pdfrwt beam="2">  1       -1 0.74791847E-01 0.13467570E+04</pdfrwt>
<totfact> 0.55902423E+01</totfact>
</mgrwt>
</event>
<event>
12    7  0.1707730E-007  0.2199265E+04  0.7818608E-02  0.8518734E-01
         -1   -1    0    0    0  501 -0.00000000000E+00  0.00000000000E+00  0.19251289805E+04  0.19251289805E+04  0.00000000000E+00 0.  1.
          2   -1    0    0  501    0  0.00000000000E+00 -0.00000000000E+00 -0.62810961115E+03  0.62810961115E+03  0.00000000000E+00 0. -1.
         24    2    1    2    0    0  0.35302966747E+03  0.23000608595E+03  0.14827420223E+04  0.15435868147E+04  0.81262562294E+02 0.  0.
        254    2    1    2    0    0 -0.35302966747E+03 -0.23000608595E+03 -0.18572265291E+03  0.10096517770E+04  0.89853829153E+03 0.  0.
         23    2    4    4    0    0 -0.49790812937E+03  0.18836741360E+03 -0.93625684280E+02  0.54820661052E+03  0.91487328460E+02 0.  0.
         23    2    4    4    0    0  0.14487846190E+03 -0.41837349955E+03 -0.92096968634E+02  0.46144516650E+03  0.91780369391E+02 0.  0.
          2    1    3    3  502    0  0.20821797079E+03  0.14087538604E+03  0.73677132354E+03  0.77848094449E+03  0.00000000000E+00 0. -1.
         -1    1    3    3    0  502  0.14481169668E+03  0.89130699911E+02  0.74597069875E+03  0.76510587016E+03  0.00000000000E+00 0.  1.
         13    1    5    5    0    0 -0.29754400403E+03  0.15632244458E+03 -0.75530162226E+02  0.34449085100E+03  0.00000000000E+00 0.  1.
        -13    1    5    5    0    0 -0.20036412534E+03  0.32044969017E+02 -0.18095522054E+02  0.20371575953E+03  0.00000000000E+00 0. -1.
          4    1    6    6  503    0  0.97543308648E+02 -0.14525398585E+03 -0.36493542937E+02  0.17873219112E+03  0.00000000000E+00 0. -1.
         -4    1    6    6    0  503  0.47335153255E+02 -0.27311951370E+03 -0.55603425697E+02  0.28271297538E+03  0.00000000000E+00 0.  1.
<mgrwt>
<rscale>  0 0.21992653E+04</rscale>
<asrwt>0</asrwt>
<pdfrwt beam="1">  1        2 0.96632248E-01 0.21992653E+04</pdfrwt>
<pdfrwt beam="2">  1       -1 0.29617369E+00 0.21992653E+04</pdfrwt>
<totfact> 0.17117809E+00</totfact>
</mgrwt>
</event>
<event>
12    7  0.1707730E-007  0.1773166E+04  0.7818608E-02  0.8720701E-01
         -1   -1    0    0    0  501 -0.00000000000E+00  0.00000000000E+00  0.21746087737E+03  0.21746087737E+03  0.00000000000E+00 0.  1.
          2   -1    0    0  501    0  0.00000000000E+00 -0.00000000000E+00 -0.36145805038E+04  0.36145805038E+04  0.00000000000E+00 0. -1.
         24    2    1    2    0    0 -0.26841677180E+01  0.25176138183E+03  0.32080501954E+02  0.27598488297E+03  0.10838587956E+03 0.  0.
        254    2    1    2    0    0  0.26841677180E+01 -0.25176138183E+03 -0.34292001284E+04  0.35560564982E+04  0.90704647056E+03 0.  0.
         23    2    4    4    0    0 -0.18828096147E+03 -0.17777875569E+03 -0.32697522081E+04  0.32812650033E+04  0.91463178172E+02 0.  0.
         23    2    4    4    0    0  0.19096512918E+03 -0.73982626140E+02 -0.15944792027E+03  0.27479149491E+03  0.90253071192E+02 0.  0.
          4    1    3    3  502    0  0.20083290365E+01 -0.10298648301E+02  0.71557252442E+01  0.12700391573E+02  0.00000000000E+00 0. -1.
         -3    1    3    3    0  502 -0.46924967545E+01  0.26206003013E+03  0.24924776710E+02  0.26328449140E+03  0.00000000000E+00 0.  1.
         13    1    5    5    0    0 -0.16180376756E+03 -0.10343384406E+03 -0.20557031853E+04  0.20646536285E+04  0.00000000000E+00 0.  1.
        -13    1    5    5    0    0 -0.26477193905E+02 -0.74344911623E+02 -0.12140490228E+04  0.12166113749E+04  0.00000000000E+00 0. -1.
          3    1    6    6  503    0  0.74365979309E+02  0.16485213564E+02 -0.51550683189E+02  0.91975725505E+02  0.00000000000E+00 0. -1.
         -3    1    6    6    0  503  0.11659914987E+03 -0.90467839704E+02 -0.10789723708E+03  0.18281576940E+03  0.00000000000E+00 0.  1.
<mgrwt>
<rscale>  0 0.17731665E+04</rscale>
<asrwt>0</asrwt>
<pdfrwt beam="1">  1        2 0.55608924E+00 0.17731665E+04</pdfrwt>
<pdfrwt beam="2">  1       -1 0.33455524E-01 0.17731665E+04</pdfrwt>
<totfact> 0.61676027E+00</totfact>
</mgrwt>
</event>
<event>
12    7  0.1707730E-007  0.2631208E+04  0.7818608E-02  0.8357677E-01
         -1   -1    0    0    0  501 -0.00000000000E+00  0.00000000000E+00  0.10621627603E+04  0.10621627603E+04  0.00000000000E+00 0.  1.
          2   -1    0    0  501    0  0.00000000000E+00 -0.00000000000E+00 -0.16295190859E+04  0.16295190859E+04  0.00000000000E+00 0. -1.
         24    2    1    2    0    0  0.11054359384E+04 -0.18814733624E+03  0.77474994725E+02  0.11268835825E+04  0.80474839551E+02 0.  0.
        254    2    1    2    0    0 -0.11054359384E+04  0.18814733624E+03 -0.64483132033E+03  0.15647982636E+04  0.88056694250E+03 0.  0.
         23    2    4    4    0    0 -0.98529094936E+03  0.46654032401E+03 -0.59271237404E+03  0.12440874561E+04  0.89372877826E+02 0.  0.
         23    2    4    4    0    0 -0.12014498899E+03 -0.27839298777E+03 -0.52118946286E+02  0.32071080751E+03  0.90562483798E+02 0.  0.
          4    1    3    3  502    0  0.18941092984E+02  0.52306951732E+01  0.77178374433E+01  0.21111375848E+02  0.00000000000E+00 0. -1.
         -3    1    3    3    0  502  0.10864948454E+04 -0.19337803141E+03  0.69757157282E+02  0.11057722067E+04  0.00000000000E+00 0.  1.
         13    1    5    5    0    0 -0.54533611102E+03  0.30602346343E+03 -0.32817351016E+03  0.70621504298E+03  0.00000000000E+00 0. -1.
        -13    1    5    5    0    0 -0.43995483834E+03  0.16051686058E+03 -0.26453886388E+03  0.53787241314E+03  0.00000000000E+00 0.  1.
          2    1    6    6  503    0 -0.27883351900E+02 -0.12962709282E+03  0.14559027088E+02  0.13338901670E+03  0.00000000000E+00 0.  1.
         -2    1    6    6    0  503 -0.92261637090E+02 -0.14876589495E+03 -0.66677973374E+02  0.18732179081E+03  0.00000000000E+00 0. -1.
<mgrwt>
<rscale>  0 0.26312085E+04</rscale>
<asrwt>0</asrwt>
<pdfrwt beam="1">  1        2 0.25069524E+00 0.26312085E+04</pdfrwt>
<pdfrwt beam="2">  1       -1 0.16340966E+00 0.26312085E+04</pdfrwt>
<totfact> 0.29706162E+00</totfact>
</mgrwt>
</event>
<event>
12    7  0.1707730E-007  0.1235526E+04  0.7818608E-02  0.9082317E-01
         -1   -1    0    0    0  501 -0.00000000000E+00  0.00000000000E+00  0.15840569268E+03  0.15840569268E+03  0.00000000000E+00 0.  1.
          2   -1    0    0  501    0  0.00000000000E+00 -0.00000000000E+00 -0.24091995505E+04  0.24091995505E+04  0.00000000000E+00 0. -1.
         24    2    1    2    0    0  0.16713260651E+03  0.23039081548E+03 -0.53055661401E+03  0.60724002374E+03  0.78973981461E+02 0.  0.
        254    2    1    2    0    0 -0.16713260651E+03 -0.23039081548E+03 -0.17202372438E+04  0.19603652194E+04  0.89599240097E+03 0.  0.
         23    2    4    4    0    0 -0.30440252532E+03  0.38680607632E+02 -0.14135322060E+03  0.35024781084E+03  0.92388901913E+02 0.  0.
         23    2    4    4    0    0  0.13726991881E+03 -0.26907142312E+03 -0.15788840232E+04  0.16101174086E+04  0.91437680368E+02 0.  0.
          2    1    3    3  502    0  0.16439437951E+03  0.20354799342E+03 -0.43199160539E+03  0.50504855684E+03  0.00000000000E+00 0. -1.
         -1    1    3    3    0  502  0.27382269975E+01  0.26842822068E+02 -0.98565008616E+02  0.10219146690E+03  0.00000000000E+00 0.  1.
         13    1    5    5    0    0 -0.27776613833E+03  0.60093033929E+02 -0.13794651446E+03  0.31590258179E+03  0.00000000000E+00 0. -1.
        -13    1    5    5    0    0 -0.26636386994E+02 -0.21412426297E+02 -0.34067061365E+01  0.34345229053E+02  0.00000000000E+00 0.  1.
          1    1    6    6  503    0  0.94926147260E+02 -0.10005061993E+03 -0.58183187774E+03  0.59795437447E+03  0.00000000000E+00 0. -1.
         -1    1    6    6    0  503  0.42343771553E+02 -0.16902080318E+03 -0.99705214546E+03  0.10121630341E+04  0.00000000000E+00 0.  1.
<mgrwt>
<rscale>  0 0.12355257E+04</rscale>
<asrwt>0</asrwt>
<pdfrwt beam="1">  1        2 0.37064611E+00 0.12355257E+04</pdfrwt>
<pdfrwt beam="2">  1       -1 0.24370105E-01 0.12355257E+04</pdfrwt>
<totfact> 0.64749235E+01</totfact>
</mgrwt>
</event>
<event>
12    7  0.1707730E-007  0.1227760E+04  0.7818608E-02  0.9088899E-01
          2   -1    0    0  501    0  0.00000000000E+00  0.00000000000E+00  0.10647128513E+04  0.10647128513E+04  0.00000000000E+00 0. -1.
         -1   -1    0    0    0  501 -0.00000000000E+00 -0.00000000000E+00 -0.35394391276E+03  0.35394391276E+03  0.00000000000E+00 0.  1.
         24    2    1    2    0    0 -0.27098344579E+03 -0.34692397029E+02  0.13956077113E+03  0.31615823405E+03  0.76441021825E+02 0.  0.
        254    2    1    2    0    0  0.27098344579E+03  0.34692397029E+02  0.57120816742E+03  0.11024985300E+04  0.90254564864E+03 0.  0.
         23    2    4    4    0    0  0.47224704904E+02  0.25036937559E+03 -0.15374404409E+03  0.30971975808E+03  0.85872582754E+02 0.  0.
         23    2    4    4    0    0  0.22375874088E+03 -0.21567697856E+03  0.72495221151E+03  0.79277877194E+03  0.79736685809E+02 0.  0.
          2    1    3    3  502    0 -0.22033282514E+02 -0.26617497052E+02  0.19023412548E+02  0.39444225339E+02  0.00000000000E+00 0. -1.
         -1    1    3    3    0  502 -0.24895016327E+03 -0.80748999775E+01  0.12053735858E+03  0.27671400871E+03  0.00000000000E+00 0.  1.
         13    1    5    5    0    0  0.70356592013E+02  0.20056055730E+03 -0.10889442046E+03  0.23881495345E+03  0.00000000000E+00 0. -1.
        -13    1    5    5    0    0 -0.23131887109E+02  0.49808818289E+02 -0.44849623626E+02  0.70904804632E+02  0.00000000000E+00 0.  1.
          1    1    6    6  503    0  0.11072818661E+03 -0.16069452227E+03  0.43936408166E+03  0.48075384247E+03  0.00000000000E+00 0. -1.
         -1    1    6    6    0  503  0.11303055428E+03 -0.54982456290E+02  0.28558812985E+03  0.31202492947E+03  0.00000000000E+00 0.  1.
<mgrwt>
<rscale>  0 0.12277600E+04</rscale>
<asrwt>0</asrwt>
<pdfrwt beam="1">  1        2 0.16380198E+00 0.12277600E+04</pdfrwt>
<pdfrwt beam="2">  1       -1 0.54452910E-01 0.12277600E+04</pdfrwt>
<totfact> 0.87677023E+01</totfact>
</mgrwt>
</event>
<event>
12    7  0.1707730E-007  0.1219413E+04  0.7818608E-02  0.9096032E-01
         -1   -1    0    0    0  501 -0.00000000000E+00  0.00000000000E+00  0.16568585505E+03  0.16568585505E+03  0.00000000000E+00 0.  1.
          2   -1    0    0  501    0  0.00000000000E+00 -0.00000000000E+00 -0.22436548982E+04  0.22436548982E+04  0.00000000000E+00 0. -1.
         24    2    1    2    0    0 -0.18492826717E+01 -0.16952297127E+03 -0.88294612451E+02  0.20657011027E+03  0.78318671045E+02 0.  0.
        254    2    1    2    0    0  0.18492826717E+01  0.16952297127E+03 -0.19896744307E+04  0.22027706430E+04  0.92986703766E+03 0.  0.
         23    2    4    4    0    0 -0.17988289608E+03 -0.28542471808E+03 -0.13349864838E+04  0.13799282088E+04  0.90486593412E+02 0.  0.
         23    2    4    4    0    0  0.18173217876E+03  0.45494768935E+03 -0.65468794693E+03  0.82284243418E+03  0.91920502553E+02 0.  0.
          2    1    3    3  502    0  0.19548976323E+02 -0.82144877831E+02 -0.79848945702E+02  0.11621444643E+03  0.00000000000E+00 0. -1.
         -1    1    3    3    0  502 -0.21398258995E+02 -0.87378093441E+02 -0.84456667484E+01  0.90355663842E+02  0.00000000000E+00 0.  1.
         13    1    5    5    0    0  0.73075771073E+01  0.73624762020E+00 -0.29685854945E+02  0.30580920973E+02  0.00000000000E+00 0.  1.
        -13    1    5    5    0    0 -0.18719047319E+03 -0.28616096570E+03 -0.13053006289E+04  0.13493472879E+04  0.00000000000E+00 0. -1.
          2    1    6    6  503    0  0.13247048759E+03  0.40396648903E+03 -0.58737036954E+03  0.72508020615E+03  0.00000000000E+00 0. -1.
         -2    1    6    6    0  503  0.49261691170E+02  0.50981200319E+02 -0.67317577390E+02  0.97762228026E+02  0.00000000000E+00 0.  1.
<mgrwt>
<rscale>  0 0.12194128E+04</rscale>
<asrwt>0</asrwt>
<pdfrwt beam="1">  1        2 0.34517765E+00 0.12194128E+04</pdfrwt>
<pdfrwt beam="2">  1       -1 0.25490134E-01 0.12194128E+04</pdfrwt>
<totfact> 0.74436568E+01</totfact>
</mgrwt>
</event>
<event>
12    7  0.1707730E-007  0.1771156E+04  0.7818608E-02  0.8721791E-01
         -1   -1    0    0    0  501 -0.00000000000E+00  0.00000000000E+00  0.55222806756E+03  0.55222806756E+03  0.00000000000E+00 0.  1.
          2   -1    0    0  501    0  0.00000000000E+00 -0.00000000000E+00 -0.14201524321E+04  0.14201524321E+04  0.00000000000E+00 0. -1.
         24    2    1    2    0    0 -0.57907454663E+03  0.15619356774E+03 -0.37518345028E+02  0.60557708193E+03  0.74781112497E+02 0.  0.
        254    2    1    2    0    0  0.57907454663E+03 -0.15619356774E+03 -0.83040601956E+03  0.13668034178E+04  0.90490533446E+03 0.  0.
         23    2    4    4    0    0  0.23579874657E+03 -0.51286558691E+03 -0.34755966111E+03  0.66925575862E+03  0.92051036335E+02 0.  0.
         23    2    4    4    0    0  0.34327580006E+03  0.35667201917E+03 -0.48284635846E+03  0.69754765915E+03  0.91536477706E+02 0.  0.
          4    1    3    3  502    0 -0.18774982500E+03  0.38025402385E+02 -0.44817871984E+02  0.19673476983E+03  0.00000000000E+00 0. -1.
         -3    1    3    3    0  502 -0.39132472164E+03  0.11816816536E+03  0.72995269567E+01  0.40884231210E+03  0.00000000000E+00 0.  1.
         13    1    5    5    0    0  0.66047854185E+02 -0.65416533288E+02 -0.47405841187E+02  0.10435015883E+03  0.00000000000E+00 0. -1.
        -13    1    5    5    0    0  0.16975089239E+03 -0.44744905362E+03 -0.30015381992E+03  0.56490559978E+03  0.00000000000E+00 0.  1.
          4    1    6    6  503    0  0.24881040440E+03  0.25064595199E+03 -0.28396778491E+03  0.45317514655E+03  0.00000000000E+00 0. -1.
         -4    1    6    6    0  503  0.94465395656E+02  0.10602606718E+03 -0.19887857355E+03  0.24437251260E+03  0.00000000000E+00 0.  1.
<mgrwt>
<rscale>  0 0.17711556E+04</rscale>
<asrwt>0</asrwt>
<pdfrwt beam="1">  1        2 0.21848499E+00 0.17711556E+04</pdfrwt>
<pdfrwt beam="2">  1       -1 0.84958165E-01 0.17711556E+04</pdfrwt>
<totfact> 0.20827658E+01</totfact>
</mgrwt>
</event>
<event>
12    7  0.1707730E-007  0.1481595E+04  0.7818608E-02  0.8896785E-01
         -1   -1    0    0    0  501 -0.00000000000E+00  0.00000000000E+00  0.18822026517E+03  0.18822026517E+03  0.00000000000E+00 0.  1.
          2   -1    0    0  501    0  0.00000000000E+00 -0.00000000000E+00 -0.29156334705E+04  0.29156334705E+04  0.00000000000E+00 0. -1.
         24    2    1    2    0    0 -0.37322421986E+03  0.36977611782E+03 -0.13031209975E+04  0.14072327198E+04  0.78414910554E+02 0.  0.
        254    2    1    2    0    0  0.37322421986E+03 -0.36977611782E+03 -0.14242922079E+04  0.16966210158E+04  0.75755124074E+03 0.  0.
         23    2    4    4    0    0  0.32084322710E+03  0.11793788219E+03 -0.29184718651E+03  0.45876952770E+03  0.91896565964E+02 0.  0.
         23    2    4    4    0    0  0.52380992762E+02 -0.48771400000E+03 -0.11324450213E+04  0.12378514881E+04  0.96103413414E+02 0.  0.
          2    1    3    3  502    0 -0.29187158970E+03  0.24933248270E+03 -0.99742954546E+03  0.10687475894E+04  0.00000000000E+00 0. -1.
         -1    1    3    3    0  502 -0.81352630161E+02  0.12044363512E+03 -0.30569145200E+03  0.33848513040E+03  0.00000000000E+00 0.  1.
         13    1    5    5    0    0  0.18148816098E+03  0.92448960062E+02 -0.22041459794E+03  0.30011224196E+03  0.00000000000E+00 0.  1.
        -13    1    5    5    0    0  0.13935506613E+03  0.25488922123E+02 -0.71432588572E+02  0.15865728573E+03  0.00000000000E+00 0. -1.
          1    1    6    6  503    0  0.59516464583E+02 -0.14672281293E+03 -0.38369274834E+03  0.41507820771E+03  0.00000000000E+00 0. -1.
         -1    1    6    6    0  503 -0.71354718207E+01 -0.34099118707E+03 -0.74875227301E+03  0.82277328041E+03  0.00000000000E+00 0.  1.
<mgrwt>
<rscale>  0 0.14815955E+04</rscale>
<asrwt>0</asrwt>
<pdfrwt beam="1">  1        2 0.44855898E+00 0.14815955E+04</pdfrwt>
<pdfrwt beam="2">  1       -1 0.28956965E-01 0.14815955E+04</pdfrwt>
<totfact> 0.23663498E+01</totfact>
</mgrwt>
</event>
<event>
12    7  0.1707730E-007  0.1360467E+04  0.7818608E-02  0.8982942E-01
          2   -1    0    0  501    0  0.00000000000E+00  0.00000000000E+00  0.59295982304E+03  0.59295982304E+03  0.00000000000E+00 0. -1.
         -1   -1    0    0    0  501 -0.00000000000E+00 -0.00000000000E+00 -0.78035261448E+03  0.78035261448E+03  0.00000000000E+00 0.  1.
         24    2    1    2    0    0  0.88910465844E+02 -0.24263211800E+03 -0.11731178519E+03  0.29460468290E+03  0.79085072058E+02 0.  0.
        254    2    1    2    0    0 -0.88910465844E+02  0.24263211800E+03 -0.70081006249E+02  0.10787077546E+04  0.10449515093E+04 0.  0.
         23    2    4    4    0    0 -0.50924654542E+03 -0.94305872919E+02 -0.81066191841E+02  0.53234687421E+03  0.92713673943E+02 0.  0.
         23    2    4    4    0    0  0.42033607958E+03  0.33693799092E+03  0.10985185592E+02  0.54636088041E+03  0.90442842844E+02 0.  0.
          2    1    3    3  502    0  0.45235912109E+02 -0.39825849671E+02 -0.10189982220E+02  0.61124641381E+02  0.00000000000E+00 0. -1.
         -1    1    3    3    0  502  0.43674553735E+02 -0.20280626833E+03 -0.10712180297E+03  0.23348004152E+03  0.00000000000E+00 0.  1.
         13    1    5    5    0    0 -0.15489378260E+03 -0.71365563352E+02 -0.37194271456E+02  0.17455240287E+03  0.00000000000E+00 0. -1.
        -13    1    5    5    0    0 -0.35435276282E+03 -0.22940309567E+02 -0.43871920385E+02  0.35779447134E+03  0.00000000000E+00 0.  1.
          1    1    6    6  503    0  0.25333350585E+03  0.25590065293E+03 -0.42330063441E+01  0.36011238204E+03  0.00000000000E+00 0. -1.
         -1    1    6    6    0  503  0.16700257372E+03  0.81037337994E+02  0.15218191936E+02  0.18624849837E+03  0.00000000000E+00 0.  1.
<mgrwt>
<rscale>  0 0.13604672E+04</rscale>
<asrwt>0</asrwt>
<pdfrwt beam="1">  1        2 0.91224589E-01 0.13604672E+04</pdfrwt>
<pdfrwt beam="2">  1       -1 0.12005425E+00 0.13604672E+04</pdfrwt>
<totfact> 0.34716853E+01</totfact>
</mgrwt>
</event>
<event>
12    7  0.1707730E-007  0.2659546E+04  0.7818608E-02  0.8348251E-01
         -1   -1    0    0    0  501 -0.00000000000E+00  0.00000000000E+00  0.88657140493E+03  0.88657140493E+03  0.00000000000E+00 0.  1.
          2   -1    0    0  501    0  0.00000000000E+00 -0.00000000000E+00 -0.19945336880E+04  0.19945336880E+04  0.00000000000E+00 0. -1.
         24    2    1    2    0    0  0.65167386898E+02  0.20443957869E+03  0.76559642291E+03  0.79916212498E+03  0.80497761320E+02 0.  0.
        254    2    1    2    0    0 -0.65167386898E+02 -0.20443957869E+03 -0.18735587060E+04  0.20819429680E+04  0.88216889956E+03 0.  0.
         23    2    4    4    0    0  0.32428776783E+03  0.10626533050E+03 -0.45680964061E+03  0.57723551489E+03  0.89838271737E+02 0.  0.
         23    2    4    4    0    0 -0.38945515473E+03 -0.31070490920E+03 -0.14167490654E+04  0.15047074531E+04  0.93561460386E+02 0.  0.
          2    1    3    3  502    0  0.18202906378E+02  0.72424097459E+01  0.14450379109E+03  0.14582573141E+03  0.00000000000E+00 0. -1.
         -1    1    3    3    0  502  0.46964480520E+02  0.19719716895E+03  0.62109263182E+03  0.65333639358E+03  0.00000000000E+00 0.  1.
         13    1    5    5    0    0  0.34168215261E+02  0.29245577622E+02 -0.25335519787E+02  0.51620338118E+02  0.00000000000E+00 0. -1.
        -13    1    5    5    0    0  0.29011955257E+03  0.77019752883E+02 -0.43147412082E+03  0.52561517677E+03  0.00000000000E+00 0.  1.
          1    1    6    6  503    0 -0.48216352273E+02 -0.64227859439E+01 -0.16767803116E+03  0.17459092456E+03  0.00000000000E+00 0. -1.
         -1    1    6    6    0  503 -0.34123880246E+03 -0.30428212325E+03 -0.12490710342E+04  0.13301165285E+04  0.00000000000E+00 0.  1.
<mgrwt>
<rscale>  0 0.26595462E+04</rscale>
<asrwt>0</asrwt>
<pdfrwt beam="1">  1        2 0.30685134E+00 0.26595462E+04</pdfrwt>
<pdfrwt beam="2">  1       -1 0.13639560E+00 0.26595462E+04</pdfrwt>
<totfact> 0.30226742E+00</totfact>
</mgrwt>
</event>
<event>
12    7  0.1707730E-007  0.1421963E+04  0.7818608E-02  0.8938073E-01
          2   -1    0    0  501    0  0.00000000000E+00  0.00000000000E+00  0.34373816552E+03  0.34373816552E+03  0.00000000000E+00 0. -1.
         -1   -1    0    0    0  501 -0.00000000000E+00 -0.00000000000E+00 -0.14705798006E+04  0.14705798006E+04  0.00000000000E+00 0.  1.
         24    2    1    2    0    0 -0.45906741942E+02 -0.27955854933E+02 -0.86734002052E+03  0.87246008781E+03  0.77581794542E+02 0.  0.
        254    2    1    2    0    0  0.45906741942E+02  0.27955854933E+02 -0.25950161454E+03  0.94185787830E+03  0.90380651479E+03 0.  0.
         23    2    4    4    0    0  0.77999975295E+02  0.22136172664E+03  0.26959368775E+03  0.37018475725E+03  0.96285969178E+02 0.  0.
         23    2    4    4    0    0 -0.32093233352E+02 -0.19340587171E+03 -0.52909530228E+03  0.57167312105E+03  0.91828707901E+02 0.  0.
          2    1    3    3  502    0 -0.53354047286E+01 -0.38768177162E+02 -0.64527083623E+03  0.64645641012E+03  0.00000000000E+00 0. -1.
         -1    1    3    3    0  502 -0.40571337214E+02  0.10812322229E+02 -0.22206918429E+03  0.22600367768E+03  0.00000000000E+00 0.  1.
         13    1    5    5    0    0  0.21731697701E+01  0.14102035584E+03  0.17490159659E+03  0.22468206852E+03  0.00000000000E+00 0. -1.
        -13    1    5    5    0    0  0.75826805525E+02  0.80341370801E+02  0.94692091159E+02  0.14550268873E+03  0.00000000000E+00 0.  1.
          1    1    6    6  503    0  0.26840432130E+02 -0.72283672068E+02 -0.13867504739E+03  0.15866980436E+03  0.00000000000E+00 0. -1.
         -1    1    6    6    0  503 -0.58933665482E+02 -0.12112219964E+03 -0.39042025489E+03  0.41300331669E+03  0.00000000000E+00 0.  1.
<mgrwt>
<rscale>  0 0.14219626E+04</rscale>
<asrwt>0</asrwt>
<pdfrwt beam="1">  1        2 0.52882794E-01 0.14219626E+04</pdfrwt>
<pdfrwt beam="2">  1       -1 0.22624305E+00 0.14219626E+04</pdfrwt>
<totfact> 0.10490443E+01</totfact>
</mgrwt>
</event>
<event>
12    7  0.1707730E-007  0.1944922E+04  0.7818608E-02  0.8632813E-01
          2   -1    0    0  501    0  0.00000000000E+00  0.00000000000E+00  0.18077556170E+04  0.18077556170E+04  0.00000000000E+00 0. -1.
         -1   -1    0    0    0  501 -0.00000000000E+00 -0.00000000000E+00 -0.52312410254E+03  0.52312410254E+03  0.00000000000E+00 0.  1.
         24    2    1    2    0    0 -0.20769446992E+03 -0.31667325245E+03  0.13037356912E+04  0.13597170065E+04  0.75396576334E+02 0.  0.
        254    2    1    2    0    0  0.20769446992E+03  0.31667325245E+03 -0.19104176712E+02  0.97116271302E+03  0.89407667677E+03 0.  0.
         23    2    4    4    0    0 -0.20591035725E+02  0.28870397921E+03 -0.40904209908E+03  0.50928857876E+03  0.91024388333E+02 0.  0.
         23    2    4    4    0    0  0.22828550564E+03  0.27969273240E+02  0.38993792237E+03  0.46187413427E+03  0.91540047363E+02 0.  0.
          4    1    3    3  502    0 -0.16483906652E+03 -0.29471851282E+03  0.11580775852E+04  0.12063061854E+04  0.00000000000E+00 0. -1.
         -1    1    3    3    0  502 -0.42855403403E+02 -0.21954739622E+02  0.14565810603E+03  0.15341082115E+03  0.00000000000E+00 0.  1.
         13    1    5    5    0    0 -0.21524076211E+02  0.21392709898E+03 -0.36170376006E+03  0.42078224722E+03  0.00000000000E+00 0.  1.
        -13    1    5    5    0    0  0.93304048590E+00  0.74776880227E+02 -0.47338339021E+02  0.88506331538E+02  0.00000000000E+00 0. -1.
          3    1    6    6  503    0  0.65527402287E+02 -0.30783339599E+02  0.88922466561E+02  0.11466760443E+03  0.00000000000E+00 0. -1.
         -3    1    6    6    0  503  0.16275810336E+03  0.58752612839E+02  0.30101545581E+03  0.34720652983E+03  0.00000000000E+00 0.  1.
<mgrwt>
<rscale>  0 0.19449221E+04</rscale>
<asrwt>0</asrwt>
<pdfrwt beam="1">  1        2 0.27811625E+00 0.19449221E+04</pdfrwt>
<pdfrwt beam="2">  1       -1 0.80480632E-01 0.19449221E+04</pdfrwt>
<totfact> 0.13982867E+01</totfact>
</mgrwt>
</event>
<event>
12    7  0.1707730E-007  0.1328127E+04  0.7818608E-02  0.9007553E-01
          2   -1    0    0  501    0  0.00000000000E+00  0.00000000000E+00  0.29252509195E+04  0.29252509195E+04  0.00000000000E+00 0. -1.
         -1   -1    0    0    0  501 -0.00000000000E+00 -0.00000000000E+00 -0.15074953445E+03  0.15074953445E+03  0.00000000000E+00 0.  1.
         24    2    1    2    0    0  0.13061460775E+02  0.12938389135E+02  0.16319760198E+04  0.16339904888E+04  0.79001169437E+02 0.  0.
        254    2    1    2    0    0 -0.13061460775E+02 -0.12938389135E+02  0.11425253653E+04  0.14420099652E+04  0.87959679718E+03 0.  0.
         23    2    4    4    0    0  0.27271012914E+03  0.18017870850E+03  0.10037113237E+04  0.10594973700E+04  0.90901452580E+02 0.  0.
         23    2    4    4    0    0 -0.28577158991E+03 -0.19311709764E+03  0.13881404161E+03  0.38251259522E+03  0.89927372630E+02 0.  0.
          2    1    3    3  502    0  0.39078081262E+02  0.18836005321E+02  0.13640581247E+04  0.13647477639E+04  0.00000000000E+00 0. -1.
         -1    1    3    3    0  502 -0.26016620487E+02 -0.58976161861E+01  0.26791789506E+03  0.26924272490E+03  0.00000000000E+00 0.  1.
         13    1    5    5    0    0  0.96553066887E+02  0.24316845217E+02  0.38252417007E+03  0.39527021691E+03  0.00000000000E+00 0. -1.
        -13    1    5    5    0    0  0.17615706225E+03  0.15586186329E+03  0.62118715365E+03  0.66422715307E+03  0.00000000000E+00 0.  1.
          1    1    6    6  503    0 -0.21506178047E+03 -0.17842381426E+03  0.83828819913E+02  0.29174286274E+03  0.00000000000E+00 0. -1.
         -1    1    6    6    0  503 -0.70709809446E+02 -0.14693283381E+02  0.54985221698E+02  0.90769732475E+02  0.00000000000E+00 0.  1.
<mgrwt>
<rscale>  0 0.13281268E+04</rscale>
<asrwt>0</asrwt>
<pdfrwt beam="1">  1        2 0.45003856E+00 0.13281268E+04</pdfrwt>
<pdfrwt beam="2">  1       -1 0.23192238E-01 0.13281268E+04</pdfrwt>
<totfact> 0.34724726E+01</totfact>
</mgrwt>
</event>
<event>
12    7  0.1707730E-007  0.1877786E+04  0.7818608E-02  0.8665994E-01
          4   -1    0    0  501    0  0.00000000000E+00  0.00000000000E+00  0.12107621673E+04  0.12107621673E+04  0.00000000000E+00 0. -1.
         -3   -1    0    0    0  501 -0.00000000000E+00 -0.00000000000E+00 -0.72807010553E+03  0.72807010553E+03  0.00000000000E+00 0.  1.
         24    2    1    2    0    0 -0.68390094261E+02  0.24092348287E+03 -0.51273916898E+03  0.57680622641E+03  0.84158409122E+02 0.  0.
        254    2    1    2    0    0  0.68390094261E+02 -0.24092348287E+03  0.99543123079E+03  0.13620260465E+04  0.89527106869E+03 0.  0.
         23    2    4    4    0    0 -0.31253356247E+03  0.89615340194E+02  0.13997903122E+03  0.36482218696E+03  0.88277755101E+02 0.  0.
         23    2    4    4    0    0  0.38092365673E+03 -0.33053882307E+03  0.85545219957E+03  0.99720385951E+03  0.90875331382E+02 0.  0.
          4    1    3    3  502    0 -0.15234811786E+02  0.10473862197E+03 -0.30453666175E+03  0.32240480265E+03  0.00000000000E+00 0. -1.
         -3    1    3    3    0  502 -0.53155282475E+02  0.13618486090E+03 -0.20820250723E+03  0.25440142376E+03  0.00000000000E+00 0.  1.
         13    1    5    5    0    0 -0.23046947793E+03  0.47112461298E+02  0.13728480288E+03  0.27236534539E+03  0.00000000000E+00 0.  1.
        -13    1    5    5    0    0 -0.82064084541E+02  0.42502878896E+02  0.26942283352E+01  0.92456841566E+02  0.00000000000E+00 0. -1.
          2    1    6    6  503    0  0.51540990129E+02 -0.37732448784E+02  0.17702699646E+03  0.18819874821E+03  0.00000000000E+00 0. -1.
         -2    1    6    6    0  503  0.32938266661E+03 -0.29280637428E+03  0.67842520311E+03  0.80900511129E+03  0.00000000000E+00 0.  1.
<mgrwt>
<rscale>  0 0.18777857E+04</rscale>
<asrwt>0</asrwt>
<pdfrwt beam="1">  1        4 0.18627110E+00 0.18777857E+04</pdfrwt>
<pdfrwt beam="2">  1       -3 0.11201079E+00 0.18777857E+04</pdfrwt>
<totfact> 0.23286980E-01</totfact>
</mgrwt>
</event>
<event>
12    7  0.1707730E-007  0.1157402E+04  0.7818608E-02  0.9150982E-01
         -1   -1    0    0    0  501 -0.00000000000E+00  0.00000000000E+00  0.14701026090E+03  0.14701026090E+03  0.00000000000E+00 0.  1.
          2   -1    0    0  501    0  0.00000000000E+00 -0.00000000000E+00 -0.22780385058E+04  0.22780385058E+04  0.00000000000E+00 0. -1.
         24    2    1    2    0    0  0.36499332536E+02 -0.66500425878E+02 -0.55061300786E+03  0.56153634872E+03  0.79961732072E+02 0.  0.
        254    2    1    2    0    0 -0.36499332536E+02  0.66500425878E+02 -0.15804152370E+04  0.18635124180E+04  0.98448550147E+03 0.  0.
         23    2    4    4    0    0 -0.33809732995E+03  0.50694416447E+02 -0.14912516707E+04  0.15327364819E+04  0.92573480699E+02 0.  0.
         23    2    4    4    0    0  0.30159799742E+03  0.15806009431E+02 -0.89163566380E+02  0.33077593608E+03  0.10124917946E+03 0.  0.
          4    1    3    3  502    0  0.19211965706E+02 -0.45600821093E+02 -0.51179461529E+03  0.51418115752E+03  0.00000000000E+00 0. -1.
         -3    1    3    3    0  502  0.17287366829E+02 -0.20899604785E+02 -0.38818392571E+02  0.47355191203E+02  0.00000000000E+00 0.  1.
         13    1    5    5    0    0 -0.27914096645E+03  0.55809200568E+02 -0.10646529479E+04  0.11020527417E+04  0.00000000000E+00 0. -1.
        -13    1    5    5    0    0 -0.58956363508E+02 -0.51147841210E+01 -0.42659872276E+03  0.43068374020E+03  0.00000000000E+00 0.  1.
          1    1    6    6  503    0  0.19225019611E+03 -0.29041999390E+02 -0.85851881866E+02  0.21254204585E+03  0.00000000000E+00 0. -1.
         -1    1    6    6    0  503  0.10934780131E+03  0.44848008821E+02 -0.33116845140E+01  0.11823389024E+03  0.00000000000E+00 0.  1.
<mgrwt>
<rscale>  0 0.11574023E+04</rscale>
<asrwt>0</asrwt>
<pdfrwt beam="1">  1        2 0.35046747E+00 0.11574023E+04</pdfrwt>
<pdfrwt beam="2">  1       -1 0.22616963E-01 0.11574023E+04</pdfrwt>
<totfact> 0.87782813E+01</totfact>
</mgrwt>
</event>
<event>
12    7  0.1707730E-007  0.1624881E+04  0.7818608E-02  0.8805407E-01
          2   -1    0    0  501    0  0.00000000000E+00  0.00000000000E+00  0.56462514616E+03  0.56462514616E+03  0.00000000000E+00 0. -1.
         -1   -1    0    0    0  501 -0.00000000000E+00 -0.00000000000E+00 -0.11690223188E+04  0.11690223188E+04  0.00000000000E+00 0.  1.
         24    2    1    2    0    0  0.48381770461E+03 -0.18241747768E+03 -0.43874701117E+03  0.68297041735E+03  0.81203101609E+02 0.  0.
        254    2    1    2    0    0 -0.48381770461E+03  0.18241747768E+03 -0.16565016142E+03  0.10506770476E+04  0.89951463293E+03 0.  0.
         23    2    4    4    0    0 -0.16884286792E+03 -0.35158889795E+03 -0.13292280874E+03  0.42311420292E+03  0.96096245619E+02 0.  0.
         23    2    4    4    0    0 -0.31497483669E+03  0.53400637563E+03 -0.32727352679E+02  0.62756284464E+03  0.91608336993E+02 0.  0.
          4    1    3    3  502    0  0.34673373844E+03 -0.14826183253E+03 -0.35940945224E+03  0.52094242553E+03  0.00000000000E+00 0. -1.
         -3    1    3    3    0  502  0.13708396617E+03 -0.34155645154E+02 -0.79337558920E+02  0.16202799182E+03  0.00000000000E+00 0.  1.
         13    1    5    5    0    0 -0.91249023457E+02 -0.87815456753E+02 -0.46367955181E+02  0.13486261897E+03  0.00000000000E+00 0.  1.
        -13    1    5    5    0    0 -0.77593844466E+02 -0.26377344119E+03 -0.86554853564E+02  0.28825158396E+03  0.00000000000E+00 0. -1.
          4    1    6    6  503    0 -0.29577776015E+03  0.51600868647E+03 -0.13410545401E+02  0.59491956653E+03  0.00000000000E+00 0. -1.
         -4    1    6    6    0  503 -0.19197076541E+02  0.17997689159E+02 -0.19316807278E+02  0.32643278117E+02  0.00000000000E+00 0.  1.
<mgrwt>
<rscale>  0 0.16248808E+04</rscale>
<asrwt>0</asrwt>
<pdfrwt beam="1">  1        2 0.86865408E-01 0.16248808E+04</pdfrwt>
<pdfrwt beam="2">  1       -1 0.17984958E+00 0.16248808E+04</pdfrwt>
<totfact> 0.12173437E+01</totfact>
</mgrwt>
</event>
<event>
12    7  0.1707730E-007  0.2099039E+04  0.7818608E-02  0.8561667E-01
          2   -1    0    0  501    0  0.00000000000E+00  0.00000000000E+00  0.14103222160E+04  0.14103222160E+04  0.00000000000E+00 0. -1.
         -1   -1    0    0    0  501 -0.00000000000E+00 -0.00000000000E+00 -0.78102062552E+03  0.78102062552E+03  0.00000000000E+00 0.  1.
         24    2    1    2    0    0  0.38153126047E+03 -0.17687429678E+02 -0.50751116284E+03  0.64095719569E+03  0.85904589023E+02 0.  0.
        254    2    1    2    0    0 -0.38153126047E+03  0.17687429678E+02  0.11368127533E+04  0.15503856458E+04  0.98258509393E+03 0.  0.
         23    2    4    4    0    0 -0.13949742864E+03  0.44434923789E+02 -0.15548855399E+03  0.23226030444E+03  0.91291640073E+02 0.  0.
         23    2    4    4    0    0 -0.24203383183E+03 -0.26747494111E+02  0.12923013073E+04  0.13181253414E+04  0.90088526386E+02 0.  0.
          2    1    3    3  502    0  0.85137389386E+02  0.29410311491E+02 -0.96074115551E+02  0.13169501575E+03  0.00000000000E+00 0. -1.
         -1    1    3    3    0  502  0.29639387108E+03 -0.47097741169E+02 -0.41143704729E+03  0.50926217994E+03  0.00000000000E+00 0.  1.
         13    1    5    5    0    0 -0.29028799381E+02  0.15738729835E+02  0.69389562029E+01  0.33742079419E+02  0.00000000000E+00 0. -1.
        -13    1    5    5    0    0 -0.11046862925E+03  0.28696193954E+02 -0.16242751019E+03  0.19851822502E+03  0.00000000000E+00 0.  1.
          1    1    6    6  503    0 -0.55146498705E+02 -0.16062415806E+02  0.15063315024E+03  0.16121254130E+03  0.00000000000E+00 0. -1.
         -1    1    6    6    0  503 -0.18688733312E+03 -0.10685078305E+02  0.11416681570E+04  0.11569128001E+04  0.00000000000E+00 0.  1.
<mgrwt>
<rscale>  0 0.20990386E+04</rscale>
<asrwt>0</asrwt>
<pdfrwt beam="1">  1        2 0.21697265E+00 0.20990386E+04</pdfrwt>
<pdfrwt beam="2">  1       -1 0.12015702E+00 0.20990386E+04</pdfrwt>
<totfact> 0.92519050E+00</totfact>
</mgrwt>
</event>
<event>
12    7  0.1707730E-007  0.2928204E+04  0.7818608E-02  0.8264535E-01
          2   -1    0    0  501    0  0.00000000000E+00  0.00000000000E+00  0.26970558370E+04  0.26970558370E+04  0.00000000000E+00 0. -1.
         -1   -1    0    0    0  501 -0.00000000000E+00 -0.00000000000E+00 -0.79479059304E+03  0.79479059304E+03  0.00000000000E+00 0.  1.
         24    2    1    2    0    0  0.27364649992E+03 -0.20127782507E+00 -0.68480789023E+03  0.74189504378E+03  0.81018282083E+02 0.  0.
        254    2    1    2    0    0 -0.27364649992E+03  0.20127782507E+00  0.25870731341E+04  0.27499513862E+04  0.89129275645E+03 0.  0.
         23    2    4    4    0    0  0.61788021808E+02  0.70070404412E+02 -0.68908763603E+01  0.13187117992E+03  0.92816500165E+02 0.  0.
         23    2    4    4    0    0 -0.33543452173E+03 -0.69869126587E+02  0.25939640105E+04  0.26180802063E+04  0.91086033981E+02 0.  0.
          2    1    3    3  502    0  0.60789641341E+01 -0.15821714868E+02 -0.32093351500E+02  0.36294127305E+02  0.00000000000E+00 0. -1.
         -1    1    3    3    0  502  0.26756753578E+03  0.15620437043E+02 -0.65271453873E+03  0.70560091648E+03  0.00000000000E+00 0.  1.
         13    1    5    5    0    0  0.69284446783E+01  0.68320328335E+01 -0.40504837020E+02  0.41657194340E+02  0.00000000000E+00 0. -1.
        -13    1    5    5    0    0  0.54859577130E+02  0.63238371578E+02  0.33613960660E+02  0.90213985578E+02  0.00000000000E+00 0.  1.
          3    1    6    6  503    0 -0.12463749306E+03 -0.50079258223E+02  0.12984681491E+04  0.13053972464E+04  0.00000000000E+00 0. -1.
         -3    1    6    6    0  503 -0.21079702866E+03 -0.19789868364E+02  0.12954958614E+04  0.13126829599E+04  0.00000000000E+00 0.  1.
<mgrwt>
<rscale>  0 0.29282040E+04</rscale>
<asrwt>0</asrwt>
<pdfrwt beam="1">  1        2 0.41493166E+00 0.29282040E+04</pdfrwt>
<pdfrwt beam="2">  1       -1 0.12227548E+00 0.29282040E+04</pdfrwt>
<totfact> 0.15417284E+00</totfact>
</mgrwt>
</event>
<event>
12    7  0.1707730E-007  0.1570875E+04  0.7818608E-02  0.8838643E-01
          2   -1    0    0  501    0  0.00000000000E+00  0.00000000000E+00  0.10404482367E+04  0.10404482367E+04  0.00000000000E+00 0. -1.
         -1   -1    0    0    0  501 -0.00000000000E+00 -0.00000000000E+00 -0.59292920842E+03  0.59292920842E+03  0.00000000000E+00 0.  1.
         24    2    1    2    0    0  0.19882622389E+03  0.10211334668E+03 -0.33678892936E+03  0.41140828500E+03  0.76622393258E+02 0.  0.
        254    2    1    2    0    0 -0.19882622389E+03 -0.10211334668E+03  0.78430795769E+03  0.12219691602E+04  0.91000585329E+03 0.  0.
         23    2    4    4    0    0  0.60865023423E+02  0.25420826273E+03  0.71419518553E+03  0.76595347181E+03  0.91014097969E+02 0.  0.
         23    2    4    4    0    0 -0.25969124731E+03 -0.35632160942E+03  0.70112772161E+02  0.45601568835E+03  0.92897114782E+02 0.  0.
          4    1    3    3  502    0  0.27432967618E+02  0.26385180523E+02 -0.11460635905E+03  0.12076159571E+03  0.00000000000E+00 0. -1.
         -3    1    3    3    0  502  0.17139325627E+03  0.75728166162E+02 -0.22218257031E+03  0.29064668929E+03  0.00000000000E+00 0.  1.
         13    1    5    5    0    0 -0.14622081889E+02  0.54475948531E+02  0.22917412083E+03  0.23601316045E+03  0.00000000000E+00 0. -1.
        -13    1    5    5    0    0  0.75487105312E+02  0.19973231420E+03  0.48502106470E+03  0.52994031136E+03  0.00000000000E+00 0.  1.
          1    1    6    6  503    0 -0.64668481604E+02 -0.16136384587E+03  0.12387468131E+02  0.17428067200E+03  0.00000000000E+00 0. -1.
         -1    1    6    6    0  503 -0.19502276571E+03 -0.19495776355E+03  0.57725304030E+02  0.28173501635E+03  0.00000000000E+00 0.  1.
<mgrwt>
<rscale>  0 0.15708751E+04</rscale>
<asrwt>0</asrwt>
<pdfrwt beam="1">  1        2 0.16006896E+00 0.15708751E+04</pdfrwt>
<pdfrwt beam="2">  1       -1 0.91219878E-01 0.15708751E+04</pdfrwt>
<totfact> 0.30516873E+01</totfact>
</mgrwt>
</event>
<event>
12    7  0.1707730E-007  0.1837596E+04  0.7818608E-02  0.8686558E-01
         -1   -1    0    0    0  501 -0.00000000000E+00  0.00000000000E+00  0.55173454876E+03  0.55173454876E+03  0.00000000000E+00 0.  1.
          2   -1    0    0  501    0  0.00000000000E+00 -0.00000000000E+00 -0.15300658190E+04  0.15300658190E+04  0.00000000000E+00 0. -1.
         24    2    1    2    0    0  0.89111240234E+01 -0.51440818483E+03 -0.90938553416E+03  0.10482430414E+04  0.84476240762E+02 0.  0.
        254    2    1    2    0    0 -0.89111240234E+01  0.51440818483E+03 -0.68945736121E+02  0.10335573265E+04  0.89375166785E+03 0.  0.
         23    2    4    4    0    0 -0.17320589326E+02  0.38662083555E+03 -0.46212818986E+03  0.61005245671E+03  0.93946063142E+02 0.  0.
         23    2    4    4    0    0  0.84094653022E+01  0.12778734928E+03  0.39318245374E+03  0.42350486975E+03  0.91452758444E+02 0.  0.
          2    1    3    3  502    0  0.38469566814E+02 -0.36057943327E+03 -0.59037365762E+03  0.69284810087E+03  0.00000000000E+00 0. -1.
         -1    1    3    3    0  502 -0.29558442790E+02 -0.15382875156E+03 -0.31901187655E+03  0.35539494049E+03  0.00000000000E+00 0.  1.
         13    1    5    5    0    0 -0.13772989124E+02  0.20706933397E+03 -0.31826909063E+03  0.37995081044E+03  0.00000000000E+00 0.  1.
        -13    1    5    5    0    0 -0.35476002015E+01  0.17955150158E+03 -0.14385909923E+03  0.23010164627E+03  0.00000000000E+00 0. -1.
          3    1    6    6  503    0  0.16720702826E+02 -0.98483814739E+01  0.52910662543E+02  0.56356993633E+02  0.00000000000E+00 0. -1.
         -3    1    6    6    0  503 -0.83112375240E+01  0.13763573076E+03  0.34027179120E+03  0.36714787611E+03  0.00000000000E+00 0.  1.
<mgrwt>
<rscale>  0 0.18375964E+04</rscale>
<asrwt>0</asrwt>
<pdfrwt beam="1">  1        2 0.23539474E+00 0.18375964E+04</pdfrwt>
<pdfrwt beam="2">  1       -1 0.84882240E-01 0.18375964E+04</pdfrwt>
<totfact> 0.17977529E+01</totfact>
</mgrwt>
</event>
<event>
12    7  0.1707730E-007  0.2449298E+04  0.7818608E-02  0.8421274E-01
         -1   -1    0    0    0  501 -0.00000000000E+00  0.00000000000E+00  0.12426752911E+04  0.12426752911E+04  0.00000000000E+00 0.  1.
          2   -1    0    0  501    0  0.00000000000E+00 -0.00000000000E+00 -0.12068843986E+04  0.12068843986E+04  0.00000000000E+00 0. -1.
         24    2    1    2    0    0  0.71664639079E+03 -0.50661426069E+03  0.62395700440E+03  0.10797607227E+04  0.79503561539E+02 0.  0.
        254    2    1    2    0    0 -0.71664639079E+03  0.50661426069E+03 -0.58816611191E+03  0.13697989670E+04  0.87187715668E+03 0.  0.
         23    2    4    4    0    0 -0.28762185332E+03 -0.94447858733E+02 -0.54020121100E+03  0.62448638282E+03  0.80741349011E+02 0.  0.
         23    2    4    4    0    0 -0.42902453747E+03  0.60106211942E+03 -0.47964900906E+02  0.74531258422E+03  0.88614283946E+02 0.  0.
          2    1    3    3  502    0  0.24807636603E+03 -0.15423638275E+03  0.24891756475E+03  0.38378470421E+03  0.00000000000E+00 0. -1.
         -1    1    3    3    0  502  0.46857002476E+03 -0.35237787794E+03  0.37503943965E+03  0.69597601845E+03  0.00000000000E+00 0.  1.
         13    1    5    5    0    0 -0.24944771777E+03 -0.84385919122E+02 -0.40052638481E+03  0.47933968350E+03  0.00000000000E+00 0.  1.
        -13    1    5    5    0    0 -0.38174135546E+02 -0.10061939610E+02 -0.13967482619E+03  0.14514669932E+03  0.00000000000E+00 0. -1.
          2    1    6    6  503    0 -0.61351207043E+02  0.41340163178E+02 -0.85656323790E+01  0.74473819261E+02  0.00000000000E+00 0. -1.
         -2    1    6    6    0  503 -0.36767333042E+03  0.55972195625E+03 -0.39399268527E+02  0.67083876496E+03  0.00000000000E+00 0.  1.
<mgrwt>
<rscale>  0 0.24492982E+04</rscale>
<asrwt>0</asrwt>
<pdfrwt beam="1">  1        2 0.18567452E+00 0.24492982E+04</pdfrwt>
<pdfrwt beam="2">  1       -1 0.19118081E+00 0.24492982E+04</pdfrwt>
<totfact> 0.33201100E+00</totfact>
</mgrwt>
</event>
<event>
12    7  0.1707730E-007  0.1377063E+04  0.7818608E-02  0.8970591E-01
          2   -1    0    0  501    0  0.00000000000E+00  0.00000000000E+00  0.19535814737E+04  0.19535814737E+04  0.00000000000E+00 0. -1.
         -1   -1    0    0    0  501 -0.00000000000E+00 -0.00000000000E+00 -0.24267000314E+03  0.24267000314E+03  0.00000000000E+00 0.  1.
         24    2    1    2    0    0  0.19650184616E+03 -0.25076782676E+03  0.83128698135E+03  0.89375896855E+03  0.79180616470E+02 0.  0.
        254    2    1    2    0    0 -0.19650184616E+03  0.25076782676E+03  0.87962448922E+03  0.13024925083E+04  0.90622845555E+03 0.  0.
         23    2    4    4    0    0 -0.51592696050E+03  0.92011738501E+02  0.28568991348E+03  0.60367555231E+03  0.90325285472E+02 0.  0.
         23    2    4    4    0    0  0.31942511434E+03  0.15875608826E+03  0.59393457574E+03  0.69881695599E+03  0.91383578867E+02 0.  0.
          2    1    3    3  502    0  0.16563213215E+03 -0.20941009957E+03  0.59904129907E+03  0.65584835975E+03  0.00000000000E+00 0. -1.
         -1    1    3    3    0  502  0.30869714018E+02 -0.41357727195E+02  0.23224568228E+03  0.23791060880E+03  0.00000000000E+00 0.  1.
         13    1    5    5    0    0 -0.31873720320E+03  0.13641766536E+02  0.18523449289E+03  0.36890557038E+03  0.00000000000E+00 0.  1.
        -13    1    5    5    0    0 -0.19718975730E+03  0.78369971965E+02  0.10045542059E+03  0.23476998193E+03  0.00000000000E+00 0. -1.
          2    1    6    6  503    0  0.18449542140E+03  0.72336334964E+02  0.24702007477E+03  0.31668600098E+03  0.00000000000E+00 0. -1.
         -2    1    6    6    0  503  0.13492969294E+03  0.86419753300E+02  0.34691450097E+03  0.38213095501E+03  0.00000000000E+00 0.  1.
<mgrwt>
<rscale>  0 0.13770630E+04</rscale>
<asrwt>0</asrwt>
<pdfrwt beam="1">  1        2 0.30055099E+00 0.13770630E+04</pdfrwt>
<pdfrwt beam="2">  1       -1 0.37333848E-01 0.13770630E+04</pdfrwt>
<totfact> 0.54414308E+01</totfact>
</mgrwt>
</event>
<event>
12    7  0.1707730E-007  0.1453091E+04  0.7818608E-02  0.8916260E-01
         -1   -1    0    0    0  501 -0.00000000000E+00  0.00000000000E+00  0.26199469334E+03  0.26199469334E+03  0.00000000000E+00 0.  1.
          2   -1    0    0  501    0  0.00000000000E+00 -0.00000000000E+00 -0.20148057046E+04  0.20148057046E+04  0.00000000000E+00 0. -1.
         24    2    1    2    0    0  0.28469735273E+03  0.32114059834E+03 -0.35902570047E+03  0.56501053385E+03  0.78444778128E+02 0.  0.
        254    2    1    2    0    0 -0.28469735273E+03 -0.32114059834E+03 -0.13937853108E+04  0.17117898641E+04  0.89632760732E+03 0.  0.
         23    2    4    4    0    0  0.13764481748E+02  0.16938291630E+03 -0.97573951300E+03  0.99481961265E+03  0.93372539855E+02 0.  0.
         23    2    4    4    0    0 -0.29846183448E+03 -0.49052351464E+03 -0.41804579776E+03  0.71697025140E+03  0.97935015787E+02 0.  0.
          4    1    3    3  502    0  0.20967634180E+03  0.21813925032E+03 -0.20679764805E+03  0.36648897402E+03  0.00000000000E+00 0. -1.
         -3    1    3    3    0  502  0.75021010923E+02  0.10300134802E+03 -0.15222805242E+03  0.19852155983E+03  0.00000000000E+00 0.  1.
         13    1    5    5    0    0 -0.31764633615E+02  0.12748752128E+03 -0.70006476462E+03  0.71228697496E+03  0.00000000000E+00 0. -1.
        -13    1    5    5    0    0  0.45529115362E+02  0.41895395021E+02 -0.27567474838E+03  0.28253263769E+03  0.00000000000E+00 0.  1.
          4    1    6    6  503    0 -0.18536922802E+03 -0.30640945885E+03 -0.20082676875E+03  0.41058482463E+03  0.00000000000E+00 0. -1.
         -4    1    6    6    0  503 -0.11309260645E+03 -0.18411405579E+03 -0.21721902901E+03  0.30638542677E+03  0.00000000000E+00 0.  1.
<mgrwt>
<rscale>  0 0.14530911E+04</rscale>
<asrwt>0</asrwt>
<pdfrwt beam="1">  1        2 0.30997011E+00 0.14530911E+04</pdfrwt>
<pdfrwt beam="2">  1       -1 0.40306875E-01 0.14530911E+04</pdfrwt>
<totfact> 0.43508124E+01</totfact>
</mgrwt>
</event>
<event>
12    7  0.1707730E-007  0.2657777E+04  0.7818608E-02  0.8348836E-01
         -1   -1    0    0    0  501 -0.00000000000E+00  0.00000000000E+00  0.62662552355E+03  0.62662552355E+03  0.00000000000E+00 0.  1.
          2   -1    0    0  501    0  0.00000000000E+00 -0.00000000000E+00 -0.28181825231E+04  0.28181825231E+04  0.00000000000E+00 0. -1.
         24    2    1    2    0    0  0.53287231700E+03  0.58490079811E+03 -0.20398853237E+04  0.21898911592E+04  0.91811249630E+02 0.  0.
        254    2    1    2    0    0 -0.53287231700E+03 -0.58490079811E+03 -0.15167167583E+03  0.12549168874E+04  0.96215915896E+03 0.  0.
         23    2    4    4    0    0 -0.46727654344E+03 -0.41486598669E+03 -0.53084373588E+03  0.82467092977E+03  0.88464204815E+02 0.  0.
         23    2    4    4    0    0 -0.65595773563E+02 -0.17003481142E+03  0.37917206005E+03  0.43024595762E+03  0.90141501639E+02 0.  0.
          4    1    3    3  502    0  0.50208477540E+03  0.54281787472E+03 -0.18326083466E+04  0.19761562992E+04  0.00000000000E+00 0. -1.
         -3    1    3    3    0  502  0.30787541606E+02  0.42082923387E+02 -0.20727697711E+03  0.21373486005E+03  0.00000000000E+00 0.  1.
         13    1    5    5    0    0 -0.24124898366E+03 -0.22607174971E+03 -0.33699197288E+03  0.47209437395E+03  0.00000000000E+00 0.  1.
        -13    1    5    5    0    0 -0.22602755978E+03 -0.18879423697E+03 -0.19385176300E+03  0.35257655582E+03  0.00000000000E+00 0. -1.
          4    1    6    6  503    0  0.22287306168E+02 -0.26765665137E+02  0.75998094056E+02  0.83599253266E+02  0.00000000000E+00 0. -1.
         -4    1    6    6    0  503 -0.87883079731E+02 -0.14326914629E+03  0.30317396600E+03  0.34664670436E+03  0.00000000000E+00 0.  1.
<mgrwt>
<rscale>  0 0.26577773E+04</rscale>
<asrwt>0</asrwt>
<pdfrwt beam="1">  1        2 0.43356654E+00 0.26577773E+04</pdfrwt>
<pdfrwt beam="2">  1       -1 0.96403926E-01 0.26577773E+04</pdfrwt>
<totfact> 0.23368310E+00</totfact>
</mgrwt>
</event>
<event>
12    7  0.1707730E-007  0.1990569E+04  0.7818608E-02  0.8611043E-01
          2   -1    0    0  501    0  0.00000000000E+00  0.00000000000E+00  0.87096968006E+03  0.87096968006E+03  0.00000000000E+00 0. -1.
         -3   -1    0    0    0  501 -0.00000000000E+00 -0.00000000000E+00 -0.11373425232E+04  0.11373425232E+04  0.00000000000E+00 0.  1.
         24    2    1    2    0    0  0.43698399807E+03 -0.62075407342E+02  0.55215777089E+03  0.71142654896E+03  0.80256836752E+02 0.  0.
        254    2    1    2    0    0 -0.43698399807E+03  0.62075407342E+02 -0.81853061406E+03  0.12968856543E+04  0.90394228990E+03 0.  0.
         23    2    4    4    0    0  0.19856019216E+02  0.37073254644E+03 -0.11834787256E+03  0.40116955407E+03  0.95361992898E+02 0.  0.
         23    2    4    4    0    0 -0.45684001729E+03 -0.30865713909E+03 -0.70018274151E+03  0.89571610025E+03  0.89885648698E+02 0.  0.
          4    1    3    3  502    0  0.41968008597E+03 -0.66832079652E+02  0.49962934029E+03  0.65591720446E+03  0.00000000000E+00 0. -1.
         -3    1    3    3    0  502  0.17303912101E+02  0.47566723107E+01  0.52528430596E+02  0.55509344496E+02  0.00000000000E+00 0.  1.
         13    1    5    5    0    0  0.44404070105E+02  0.13878960320E+03 -0.75178589698E+02  0.16396980132E+03  0.00000000000E+00 0. -1.
        -13    1    5    5    0    0 -0.24548050889E+02  0.23194294324E+03 -0.43169282860E+02  0.23719975275E+03  0.00000000000E+00 0.  1.
          1    1    6    6  503    0 -0.44259943501E+03 -0.28691664514E+03 -0.63469271499E+03  0.82525769526E+03  0.00000000000E+00 0. -1.
         -1    1    6    6    0  503 -0.14240582283E+02 -0.21740493954E+02 -0.65490026517E+02  0.70458404994E+02  0.00000000000E+00 0.  1.
<mgrwt>
<rscale>  0 0.19905686E+04</rscale>
<asrwt>0</asrwt>
<pdfrwt beam="1">  1        2 0.13399534E+00 0.19905686E+04</pdfrwt>
<pdfrwt beam="2">  1       -3 0.17497577E+00 0.19905686E+04</pdfrwt>
<totfact> 0.38410274E+00</totfact>
</mgrwt>
</event>
<event>
12    7  0.1707730E-007  0.1034004E+04  0.7818608E-02  0.9272017E-01
          2   -1    0    0  501    0  0.00000000000E+00  0.00000000000E+00  0.41312541578E+03  0.41312541578E+03  0.00000000000E+00 0. -1.
         -1   -1    0    0    0  501 -0.00000000000E+00 -0.00000000000E+00 -0.64699723270E+03  0.64699723270E+03  0.00000000000E+00 0.  1.
         24    2    1    2    0    0 -0.10725339225E+02  0.43280699784E+02  0.62912923837E+02  0.11165772984E+03  0.80753704379E+02 0.  0.
        254    2    1    2    0    0  0.10725339225E+02 -0.43280699784E+02 -0.29678474076E+03  0.94846491865E+03  0.89973121969E+03 0.  0.
         23    2    4    4    0    0  0.69109933592E+02 -0.10816178820E+03 -0.59996074273E+03  0.62025094702E+03  0.91012027256E+02 0.  0.
         23    2    4    4    0    0 -0.58384594366E+02  0.64881088412E+02  0.30317600197E+03  0.32821397163E+03  0.90500864691E+02 0.  0.
          2    1    3    3  502    0 -0.15084191970E+02  0.63176377515E+02  0.64099911644E+02  0.91255609121E+02  0.00000000000E+00 0. -1.
         -1    1    3    3    0  502  0.43588527450E+01 -0.19895677730E+02 -0.11869878067E+01  0.20402120715E+02  0.00000000000E+00 0.  1.
         13    1    5    5    0    0  0.20453011050E+02  0.14651497486E+02 -0.88614246161E+02  0.92116647042E+02  0.00000000000E+00 0. -1.
        -13    1    5    5    0    0  0.48656922541E+02 -0.12281328568E+03 -0.51134649657E+03  0.52813429997E+03  0.00000000000E+00 0.  1.
          4    1    6    6  503    0  0.18043039584E+02 -0.68927922120E+01  0.30796565076E+02  0.36352307800E+02  0.00000000000E+00 0. -1.
         -4    1    6    6    0  503 -0.76427633950E+02  0.71773880624E+02  0.27237943690E+03  0.29186166383E+03  0.00000000000E+00 0.  1.
<mgrwt>
<rscale>  0 0.10340039E+04</rscale>
<asrwt>0</asrwt>
<pdfrwt beam="1">  1        2 0.63557756E-01 0.10340039E+04</pdfrwt>
<pdfrwt beam="2">  1       -1 0.99538036E-01 0.10340039E+04</pdfrwt>
<totfact> 0.84281246E+01</totfact>
</mgrwt>
</event>
<event>
12    7  0.1707730E-007  0.2796839E+04  0.7818608E-02  0.8304250E-01
         -1   -1    0    0    0  501 -0.00000000000E+00  0.00000000000E+00  0.11057283068E+04  0.11057283068E+04  0.00000000000E+00 0.  1.
          2   -1    0    0  501    0  0.00000000000E+00 -0.00000000000E+00 -0.17685873960E+04  0.17685873960E+04  0.00000000000E+00 0. -1.
         24    2    1    2    0    0  0.14986984144E+03  0.52917252099E+03  0.85592675520E+03  0.10205340088E+04  0.79965783680E+02 0.  0.
        254    2    1    2    0    0 -0.14986984144E+03 -0.52917252099E+03 -0.15187858444E+04  0.18537816940E+04  0.90956671092E+03 0.  0.
         23    2    4    4    0    0 -0.34489177082E+03 -0.68519650112E+03 -0.94019967024E+03  0.12168277027E+04  0.90827635309E+02 0.  0.
         23    2    4    4    0    0  0.19502192937E+03  0.15602398014E+03 -0.57858617416E+03  0.63695399136E+03  0.92581806334E+02 0.  0.
          4    1    3    3  502    0  0.17918181965E+02  0.16635183659E+02  0.22292905033E+02  0.33087221024E+02  0.00000000000E+00 0. -1.
         -3    1    3    3    0  502  0.13195165948E+03  0.51253733733E+03  0.83363385016E+03  0.98744678780E+03  0.00000000000E+00 0.  1.
         13    1    5    5    0    0 -0.28725481046E+02 -0.75019132094E+02 -0.60756134429E+02  0.10071907124E+03  0.00000000000E+00 0. -1.
        -13    1    5    5    0    0 -0.31616628977E+03 -0.61017736903E+03 -0.87944353581E+03  0.11161086314E+04  0.00000000000E+00 0.  1.
          2    1    6    6  503    0  0.15464898833E+02 -0.12539654522E+02 -0.37589210838E+02  0.42536511409E+02  0.00000000000E+00 0. -1.
         -2    1    6    6    0  503  0.17955703054E+03  0.16856363466E+03 -0.54099696332E+03  0.59441747995E+03  0.00000000000E+00 0.  1.
<mgrwt>
<rscale>  0 0.27968390E+04</rscale>
<asrwt>0</asrwt>
<pdfrwt beam="1">  1        2 0.27209037E+00 0.27968390E+04</pdfrwt>
<pdfrwt beam="2">  1       -1 0.17011205E+00 0.27968390E+04</pdfrwt>
<totfact> 0.21854623E+00</totfact>
</mgrwt>
</event>
<event>
12    7  0.1707730E-007  0.1740132E+04  0.7818608E-02  0.8738801E-01
          2   -1    0    0  501    0  0.00000000000E+00  0.00000000000E+00  0.26087526339E+04  0.26087526339E+04  0.00000000000E+00 0. -1.
         -1   -1    0    0    0  501 -0.00000000000E+00 -0.00000000000E+00 -0.29018276508E+03  0.29018276508E+03  0.00000000000E+00 0.  1.
         24    2    1    2    0    0  0.26853874313E+03 -0.35167434993E+03  0.99770013640E+02  0.46037037921E+03  0.78733255182E+02 0.  0.
        254    2    1    2    0    0 -0.26853874313E+03  0.35167434993E+03  0.22187998552E+04  0.24385650198E+04  0.90980143625E+03 0.  0.
         23    2    4    4    0    0  0.62533045614E+02 -0.18584091640E+03  0.12637577286E+03  0.25109366302E+03  0.92897597594E+02 0.  0.
         23    2    4    4    0    0 -0.33107178874E+03  0.53751526633E+03  0.20924240823E+04  0.21874713568E+04  0.90891174168E+02 0.  0.
          2    1    3    3  502    0  0.68714527482E+02 -0.43235650632E+02  0.80219220714E+01  0.81580383710E+02  0.00000000000E+00 0. -1.
         -1    1    3    3    0  502  0.19982421565E+03 -0.30843869930E+03  0.91748091569E+02  0.37878999550E+03  0.00000000000E+00 0.  1.
         13    1    5    5    0    0  0.24241132386E+02 -0.11640048068E+03  0.12395228861E+03  0.17175818541E+03  0.00000000000E+00 0.  1.
        -13    1    5    5    0    0  0.38291913228E+02 -0.69440435719E+02  0.24234842473E+01  0.79335477609E+02  0.00000000000E+00 0. -1.
          3    1    6    6  503    0 -0.23506557027E+03  0.40466855679E+03  0.16709473618E+04  0.17352456740E+04  0.00000000000E+00 0. -1.
         -3    1    6    6    0  503 -0.96006218478E+02  0.13284670955E+03  0.42147672052E+03  0.45222568278E+03  0.00000000000E+00 0.  1.
<mgrwt>
<rscale>  0 0.17401322E+04</rscale>
<asrwt>0</asrwt>
<pdfrwt beam="1">  1        2 0.40134654E+00 0.17401322E+04</pdfrwt>
<pdfrwt beam="2">  1       -1 0.44643504E-01 0.17401322E+04</pdfrwt>
<totfact> 0.16177450E+01</totfact>
</mgrwt>
</event>
<event>
12    7  0.1707730E-007  0.1208487E+04  0.7818608E-02  0.9105460E-01
          2   -1    0    0  501    0  0.00000000000E+00  0.00000000000E+00  0.14450316087E+04  0.14450316087E+04  0.00000000000E+00 0. -1.
         -1   -1    0    0    0  501 -0.00000000000E+00 -0.00000000000E+00 -0.25266605263E+03  0.25266605263E+03  0.00000000000E+00 0.  1.
         24    2    1    2    0    0  0.20321373592E+03 -0.14649612440E+03  0.15855450877E+03  0.30702826313E+03  0.79811560451E+02 0.  0.
        254    2    1    2    0    0 -0.20321373592E+03  0.14649612440E+03  0.10338110473E+04  0.13906693982E+04  0.89578968327E+03 0.  0.
         23    2    4    4    0    0  0.52934305644E+02  0.36547098012E+03  0.97749631923E+02  0.39147062199E+03  0.85575576646E+02 0.  0.
         23    2    4    4    0    0 -0.25614804156E+03 -0.21897485572E+03  0.93606141538E+03  0.99919877621E+03  0.92873109103E+02 0.  0.
          2    1    3    3  502    0  0.31822880628E+02 -0.61942846178E+02  0.25504221982E+02  0.74162505776E+02  0.00000000000E+00 0. -1.
         -1    1    3    3    0  502  0.17139085529E+03 -0.84553278218E+02  0.13305028678E+03  0.23286575735E+03  0.00000000000E+00 0.  1.
         13    1    5    5    0    0  0.33466332060E+02  0.43019606903E+02  0.26782130290E+02  0.60728613211E+02  0.00000000000E+00 0. -1.
        -13    1    5    5    0    0  0.19467973583E+02  0.32245137321E+03  0.70967501633E+02  0.33074200878E+03  0.00000000000E+00 0.  1.
          1    1    6    6  503    0 -0.38974585990E+02 -0.78033255092E+02  0.30122740954E+03  0.31360191248E+03  0.00000000000E+00 0. -1.
         -1    1    6    6    0  503 -0.21717345557E+03 -0.14094160063E+03  0.63483400584E+03  0.68559686374E+03  0.00000000000E+00 0.  1.
<mgrwt>
<rscale>  0 0.12084874E+04</rscale>
<asrwt>0</asrwt>
<pdfrwt beam="1">  1        2 0.22231255E+00 0.12084874E+04</pdfrwt>
<pdfrwt beam="2">  1       -1 0.38871701E-01 0.12084874E+04</pdfrwt>
<totfact> 0.98318564E+01</totfact>
</mgrwt>
</event>
<event>
12    7  0.1707730E-007  0.1886107E+04  0.7818608E-02  0.8661803E-01
          2   -1    0    0  501    0  0.00000000000E+00  0.00000000000E+00  0.17448535070E+04  0.17448535070E+04  0.00000000000E+00 0. -1.
         -1   -1    0    0    0  501 -0.00000000000E+00 -0.00000000000E+00 -0.50969868702E+03  0.50969868702E+03  0.00000000000E+00 0.  1.
         24    2    1    2    0    0 -0.58752253804E+02  0.30272103158E+03 -0.33484259247E+03  0.46330360852E+03  0.86248603763E+02 0.  0.
        254    2    1    2    0    0  0.58752253804E+02 -0.30272103158E+03  0.15699974125E+04  0.17912485855E+04  0.80534947051E+03 0.  0.
         23    2    4    4    0    0 -0.22275256178E+03 -0.17231463235E+03  0.14525767808E+03  0.33007680486E+03  0.92411404969E+02 0.  0.
         23    2    4    4    0    0  0.28150481558E+03 -0.13040639923E+03  0.14247397344E+04  0.14611717807E+04  0.94280812745E+02 0.  0.
          2    1    3    3  502    0  0.73810493680E+01  0.76452287864E+02 -0.42585550153E+02  0.87823466632E+02  0.00000000000E+00 0. -1.
         -1    1    3    3    0  502 -0.66133303172E+02  0.22626874372E+03 -0.29225704232E+03  0.37548014189E+03  0.00000000000E+00 0.  1.
         13    1    5    5    0    0 -0.19169376431E+03 -0.12266692458E+03  0.14796140893E+03  0.27145211768E+03  0.00000000000E+00 0.  1.
        -13    1    5    5    0    0 -0.31058797461E+02 -0.49647707772E+02 -0.27037308449E+01  0.58624687183E+02  0.00000000000E+00 0. -1.
          2    1    6    6  503    0  0.19651478301E+03 -0.62911504744E+02  0.10873858844E+04  0.11067899435E+04  0.00000000000E+00 0. -1.
         -2    1    6    6    0  503  0.84990032572E+02 -0.67494894490E+02  0.33735385000E+03  0.35438183719E+03  0.00000000000E+00 0.  1.
<mgrwt>
<rscale>  0 0.18861066E+04</rscale>
<asrwt>0</asrwt>
<pdfrwt beam="1">  1        2 0.26843900E+00 0.18861066E+04</pdfrwt>
<pdfrwt beam="2">  1       -1 0.78415183E-01 0.18861066E+04</pdfrwt>
<totfact> 0.16094315E+01</totfact>
</mgrwt>
</event>
<event>
12    7  0.1707730E-007  0.1455796E+04  0.7818608E-02  0.8914392E-01
         -1   -1    0    0    0  501 -0.00000000000E+00  0.00000000000E+00  0.33351961364E+03  0.33351961364E+03  0.00000000000E+00 0.  1.
          2   -1    0    0  501    0  0.00000000000E+00 -0.00000000000E+00 -0.15886187239E+04  0.15886187239E+04  0.00000000000E+00 0. -1.
         24    2    1    2    0    0  0.28921970977E+03 -0.28726276959E+03 -0.63100176249E+03  0.75539320630E+03  0.79295223961E+02 0.  0.
        254    2    1    2    0    0 -0.28921970977E+03  0.28726276959E+03 -0.62409734781E+03  0.11667451313E+04  0.89756824949E+03 0.  0.
         23    2    4    4    0    0  0.26054292899E+01 -0.94584832624E+02 -0.66316081615E+03  0.67599851120E+03  0.90766955655E+02 0.  0.
         23    2    4    4    0    0 -0.29182513906E+03  0.38184760221E+03  0.39063468349E+02  0.49074662007E+03  0.91306009913E+02 0.  0.
          2    1    3    3  502    0  0.19312058901E+03 -0.16448255823E+03 -0.32820521949E+03  0.41481169217E+03  0.00000000000E+00 0. -1.
         -1    1    3    3    0  502  0.96099120767E+02 -0.12278021136E+03 -0.30279654300E+03  0.34058151413E+03  0.00000000000E+00 0.  1.
         13    1    5    5    0    0  0.32121478376E+02 -0.55605298206E+02 -0.53478873050E+03  0.53863041580E+03  0.00000000000E+00 0.  1.
        -13    1    5    5    0    0 -0.29516049086E+02 -0.38979534419E+02 -0.12837208566E+03  0.13736809540E+03  0.00000000000E+00 0. -1.
          4    1    6    6  503    0 -0.34629188671E+02  0.11266080063E+02  0.13829576427E+02  0.38953336855E+02  0.00000000000E+00 0. -1.
         -4    1    6    6    0  503 -0.25719595039E+03  0.37058152215E+03  0.25233891922E+02  0.45179328321E+03  0.00000000000E+00 0.  1.
<mgrwt>
<rscale>  0 0.14557960E+04</rscale>
<asrwt>0</asrwt>
<pdfrwt beam="1">  1        2 0.24440288E+00 0.14557960E+04</pdfrwt>
<pdfrwt beam="2">  1       -1 0.51310710E-01 0.14557960E+04</pdfrwt>
<totfact> 0.47744266E+01</totfact>
</mgrwt>
</event>
<event>
12    7  0.1707730E-007  0.1972476E+04  0.7818608E-02  0.8619598E-01
         -1   -1    0    0    0  501 -0.00000000000E+00  0.00000000000E+00  0.20150701453E+04  0.20150701453E+04  0.00000000000E+00 0.  1.
          2   -1    0    0  501    0  0.00000000000E+00 -0.00000000000E+00 -0.48269555812E+03  0.48269555812E+03  0.00000000000E+00 0. -1.
         24    2    1    2    0    0  0.25130825244E+03  0.68030880112E+03  0.95191123608E+03  0.11995425350E+04  0.82409886568E+02 0.  0.
        254    2    1    2    0    0 -0.25130825244E+03 -0.68030880112E+03  0.58046335113E+03  0.12982231684E+04  0.90690120207E+03 0.  0.
         23    2    4    4    0    0 -0.33338816418E+03 -0.86023098911E+03  0.38162185609E+03  0.10033250775E+04  0.99402955207E+02 0.  0.
         23    2    4    4    0    0  0.82079911742E+02  0.17992218799E+03  0.19884149504E+03  0.29489809087E+03  0.91202183122E+02 0.  0.
          2    1    3    3  502    0  0.12916660980E+03  0.38072000066E+03  0.59180042054E+03  0.71544354756E+03  0.00000000000E+00 0. -1.
         -1    1    3    3    0  502  0.12214164263E+03  0.29958880046E+03  0.36011081554E+03  0.48409898749E+03  0.00000000000E+00 0.  1.
         13    1    5    5    0    0 -0.32590891365E+03 -0.76318382590E+03  0.32919072407E+03  0.89276688162E+03  0.00000000000E+00 0. -1.
        -13    1    5    5    0    0 -0.74792505279E+01 -0.97047163209E+02  0.52431132023E+02  0.11055819590E+03  0.00000000000E+00 0.  1.
          1    1    6    6  503    0  0.88411535842E+02  0.13587131927E+03  0.11111942074E+03  0.19653279812E+03  0.00000000000E+00 0. -1.
         -1    1    6    6    0  503 -0.63316240996E+01  0.44050868713E+02  0.87722074297E+02  0.98365292746E+02  0.00000000000E+00 0.  1.
<mgrwt>
<rscale>  0 0.19724760E+04</rscale>
<asrwt>0</asrwt>
<pdfrwt beam="1">  1        2 0.74260856E-01 0.19724760E+04</pdfrwt>
<pdfrwt beam="2">  1       -1 0.31001079E+00 0.19724760E+04</pdfrwt>
<totfact> 0.19421878E+00</totfact>
</mgrwt>
</event>
<event>
12    7  0.1707730E-007  0.1129739E+04  0.7818608E-02  0.9176682E-01
         -1   -1    0    0    0  501 -0.00000000000E+00  0.00000000000E+00  0.25270537353E+03  0.25270537353E+03  0.00000000000E+00 0.  1.
          2   -1    0    0  501    0  0.00000000000E+00 -0.00000000000E+00 -0.12626460609E+04  0.12626460609E+04  0.00000000000E+00 0. -1.
         24    2    1    2    0    0  0.11589816196E+03  0.15008375193E+03 -0.14298738701E+03  0.24859774986E+03  0.73470619000E+02 0.  0.
        254    2    1    2    0    0 -0.11589816196E+03 -0.15008375193E+03 -0.86695330040E+03  0.12667536846E+04  0.90393548214E+03 0.  0.
         23    2    4    4    0    0  0.11298710749E+03  0.33010397776E+03 -0.48925750402E+03  0.60789263142E+03  0.91792284567E+02 0.  0.
         23    2    4    4    0    0 -0.22888526945E+03 -0.48018772968E+03 -0.37769579638E+03  0.65886105319E+03  0.92060037481E+02 0.  0.
          4    1    3    3  502    0  0.24023517109E+02  0.85300907238E+02 -0.44616179044E+02  0.99216821066E+02  0.00000000000E+00 0. -1.
         -3    1    3    3    0  502  0.91874644850E+02  0.64782844688E+02 -0.98371207966E+02  0.14938092880E+03  0.00000000000E+00 0.  1.
         13    1    5    5    0    0  0.89030137320E+02  0.32349946100E+03 -0.44777609951E+03  0.55953704248E+03  0.00000000000E+00 0. -1.
        -13    1    5    5    0    0  0.23956970170E+02  0.66045167558E+01 -0.41481404511E+02  0.48355588938E+02  0.00000000000E+00 0.  1.
          1    1    6    6  503    0 -0.21303442718E+03 -0.43106648616E+03 -0.36991558479E+03  0.60666261013E+03  0.00000000000E+00 0. -1.
         -1    1    6    6    0  503 -0.15850842268E+02 -0.49121243523E+02 -0.77802115849E+01  0.52198443063E+02  0.00000000000E+00 0.  1.
<mgrwt>
<rscale>  0 0.11297388E+04</rscale>
<asrwt>0</asrwt>
<pdfrwt beam="1">  1        2 0.19425324E+00 0.11297388E+04</pdfrwt>
<pdfrwt beam="2">  1       -1 0.38877750E-01 0.11297388E+04</pdfrwt>
<totfact> 0.12591991E+02</totfact>
</mgrwt>
</event>
<event>
12    7  0.1707730E-007  0.1211798E+04  0.7818608E-02  0.9102592E-01
          2   -1    0    0  501    0  0.00000000000E+00  0.00000000000E+00  0.31986726366E+03  0.31986726366E+03  0.00000000000E+00 0. -1.
         -1   -1    0    0    0  501 -0.00000000000E+00 -0.00000000000E+00 -0.11477065730E+04  0.11477065730E+04  0.00000000000E+00 0.  1.
         24    2    1    2    0    0 -0.12870486449E+03 -0.12917772732E+03 -0.41334298553E+03  0.45877923525E+03  0.79838184072E+02 0.  0.
        254    2    1    2    0    0  0.12870486449E+03  0.12917772732E+03 -0.41449632380E+03  0.10087946014E+04  0.90144745713E+03 0.  0.
         23    2    4    4    0    0  0.15771664488E+03  0.39060984565E+03  0.83198477258E+02  0.43878782873E+03  0.90344786401E+02 0.  0.
         23    2    4    4    0    0 -0.29011780392E+02 -0.26143211833E+03 -0.49769480105E+03  0.57000677266E+03  0.89549818440E+02 0.  0.
          2    1    3    3  502    0 -0.22803603624E+02  0.93131018648E+01 -0.46773354509E+02  0.52862887706E+02  0.00000000000E+00 0. -1.
         -3    1    3    3    0  502 -0.10590126086E+03 -0.13849082918E+03 -0.36656963102E+03  0.40591634754E+03  0.00000000000E+00 0.  1.
         13    1    5    5    0    0  0.67349676542E+02  0.24892945873E+03  0.82451705182E+02  0.27073998234E+03  0.00000000000E+00 0. -1.
        -13    1    5    5    0    0  0.90366968338E+02  0.14168038693E+03  0.74677207606E+00  0.16804784638E+03  0.00000000000E+00 0.  1.
          2    1    6    6  503    0  0.63906110307E+01 -0.18768868702E+03 -0.40472588920E+03  0.44617365288E+03  0.00000000000E+00 0.  1.
         -2    1    6    6    0  503 -0.35402391423E+02 -0.73743431316E+02 -0.92968911859E+02  0.12383311977E+03  0.00000000000E+00 0. -1.
<mgrwt>
<rscale>  0 0.12117983E+04</rscale>
<asrwt>0</asrwt>
<pdfrwt beam="1">  1        2 0.49210349E-01 0.12117983E+04</pdfrwt>
<pdfrwt beam="2">  1       -1 0.17657024E+00 0.12117983E+04</pdfrwt>
<totfact> 0.25432822E+01</totfact>
</mgrwt>
</event>
<event>
12    7  0.1707730E-007  0.2050504E+04  0.7818608E-02  0.8583366E-01
          2   -1    0    0  501    0  0.00000000000E+00  0.00000000000E+00  0.15007543433E+04  0.15007543433E+04  0.00000000000E+00 0. -1.
         -1   -1    0    0    0  501 -0.00000000000E+00 -0.00000000000E+00 -0.70040921517E+03  0.70040921517E+03  0.00000000000E+00 0.  1.
         24    2    1    2    0    0 -0.49282195582E+03  0.46354817648E+03 -0.19095448578E+03  0.70826040788E+03  0.86132442609E+02 0.  0.
        254    2    1    2    0    0  0.49282195582E+03 -0.46354817648E+03  0.99129961389E+03  0.14929031506E+04  0.88788203068E+03 0.  0.
         23    2    4    4    0    0 -0.14856298294E+03 -0.58309083248E+02  0.61434472110E+03  0.64145282400E+03  0.92581747582E+02 0.  0.
         23    2    4    4    0    0  0.64138493876E+03 -0.40523909324E+03  0.37695489279E+03  0.85145032657E+03  0.85318843498E+02 0.  0.
          4    1    3    3  502    0 -0.23878281913E+02  0.11205192592E+02 -0.23988461452E+02  0.35653540791E+02  0.00000000000E+00 0. -1.
         -3    1    3    3    0  502 -0.46894367391E+03  0.45234298389E+03 -0.16696602433E+03  0.67260686709E+03  0.00000000000E+00 0.  1.
         13    1    5    5    0    0 -0.49062931210E+02 -0.56298088796E+02  0.16338308442E+03  0.17964041387E+03  0.00000000000E+00 0. -1.
        -13    1    5    5    0    0 -0.99500051728E+02 -0.20109944520E+01  0.45096163667E+03  0.46181241012E+03  0.00000000000E+00 0.  1.
          2    1    6    6  503    0  0.42891704256E+02 -0.14304693747E+02  0.43133676980E+02  0.62488692153E+02  0.00000000000E+00 0. -1.
         -2    1    6    6    0  503  0.59849323450E+03 -0.39093439949E+03  0.33382121581E+03  0.78896163442E+03  0.00000000000E+00 0.  1.
<mgrwt>
<rscale>  0 0.20505045E+04</rscale>
<asrwt>0</asrwt>
<pdfrwt beam="1">  1        2 0.23088528E+00 0.20505045E+04</pdfrwt>
<pdfrwt beam="2">  1       -1 0.10775526E+00 0.20505045E+04</pdfrwt>
<totfact> 0.10711620E+01</totfact>
</mgrwt>
</event>
<event>
12    7  0.1707730E-007  0.1621354E+04  0.7818608E-02  0.8807536E-01
         -1   -1    0    0    0  501 -0.00000000000E+00  0.00000000000E+00  0.34433481578E+03  0.34433481578E+03  0.00000000000E+00 0.  1.
          2   -1    0    0  501    0  0.00000000000E+00 -0.00000000000E+00 -0.19086000944E+04  0.19086000944E+04  0.00000000000E+00 0. -1.
         24    2    1    2    0    0  0.23136329090E+03 -0.15269694423E+03 -0.12060034003E+04  0.12397276511E+04  0.75067424043E+02 0.  0.
        254    2    1    2    0    0 -0.23136329090E+03  0.15269694423E+03 -0.35826187828E+03  0.10132072591E+04  0.90630681738E+03 0.  0.
         23    2    4    4    0    0 -0.30751069810E+03 -0.22055353705E+03  0.10824869130E+03  0.40425866163E+03  0.92198666967E+02 0.  0.
         23    2    4    4    0    0  0.76147407199E+02  0.37325048128E+03 -0.46651056959E+03  0.60894859743E+03  0.89843939025E+02 0.  0.
          4    1    3    3  502    0  0.12783617239E+03 -0.95557469575E+02 -0.84218327856E+03  0.85717325649E+03  0.00000000000E+00 0. -1.
         -3    1    3    3    0  502  0.10352711851E+03 -0.57139474658E+02 -0.36382012177E+03  0.38255439461E+03  0.00000000000E+00 0.  1.
         13    1    5    5    0    0 -0.13444810417E+03 -0.63535576671E+02  0.50035202637E+01  0.14878876783E+03  0.00000000000E+00 0. -1.
        -13    1    5    5    0    0 -0.17306259393E+03 -0.15701796038E+03  0.10324517104E+03  0.25546989380E+03  0.00000000000E+00 0.  1.
          2    1    6    6  503    0  0.86998957116E+01  0.67296697013E+01 -0.44951330674E+02  0.46277411002E+02  0.00000000000E+00 0. -1.
         -2    1    6    6    0  503  0.67447511487E+02  0.36652081158E+03 -0.42155923891E+03  0.56267118643E+03  0.00000000000E+00 0.  1.
<mgrwt>
<rscale>  0 0.16213543E+04</rscale>
<asrwt>0</asrwt>
<pdfrwt beam="1">  1        2 0.29363078E+00 0.16213543E+04</pdfrwt>
<pdfrwt beam="2">  1       -1 0.52974588E-01 0.16213543E+04</pdfrwt>
<totfact> 0.29427721E+01</totfact>
</mgrwt>
</event>
<event>
12    7  0.1707730E-007  0.1498236E+04  0.7818608E-02  0.8885627E-01
         -1   -1    0    0    0  501 -0.00000000000E+00  0.00000000000E+00  0.48956844858E+03  0.48956844858E+03  0.00000000000E+00 0.  1.
          2   -1    0    0  501    0  0.00000000000E+00 -0.00000000000E+00 -0.11462700757E+04  0.11462700757E+04  0.00000000000E+00 0. -1.
         24    2    1    2    0    0  0.30230477608E+02 -0.19362008716E+03  0.26059606433E+03  0.33526147535E+03  0.78021331606E+02 0.  0.
        254    2    1    2    0    0 -0.30230477608E+02  0.19362008716E+03 -0.91729769142E+03  0.13005770489E+04  0.90092340713E+03 0.  0.
         23    2    4    4    0    0  0.15811329214E+03 -0.15973842421E+03  0.51791629435E+02  0.24782755439E+03  0.90663920692E+02 0.  0.
         23    2    4    4    0    0 -0.18834376975E+03  0.35335851137E+03 -0.96908932086E+03  0.10527494945E+04  0.93871045799E+02 0.  0.
          2    1    3    3  502    0  0.14217930669E+02 -0.68638340261E+01  0.20540198152E+01  0.15921079343E+02  0.00000000000E+00 0. -1.
         -1    1    3    3    0  502  0.16012546939E+02 -0.18675625313E+03  0.25854204451E+03  0.31934039601E+03  0.00000000000E+00 0.  1.
         13    1    5    5    0    0  0.15043627336E+03 -0.10305262455E+03  0.55207409380E+02  0.19052237091E+03  0.00000000000E+00 0. -1.
        -13    1    5    5    0    0  0.76770187838E+01 -0.56685799665E+02 -0.34157799457E+01  0.57305183480E+02  0.00000000000E+00 0.  1.
          3    1    6    6  503    0 -0.19176638354E+03  0.29177331372E+03 -0.80536176722E+03  0.87778903420E+03  0.00000000000E+00 0. -1.
         -3    1    6    6    0  503  0.34226137905E+01  0.61585197656E+02 -0.16372755363E+03  0.17496046031E+03  0.00000000000E+00 0.  1.
<mgrwt>
<rscale>  0 0.14982358E+04</rscale>
<asrwt>0</asrwt>
<pdfrwt beam="1">  1        2 0.17634924E+00 0.14982358E+04</pdfrwt>
<pdfrwt beam="2">  1       -1 0.75318224E-01 0.14982358E+04</pdfrwt>
<totfact> 0.39860716E+01</totfact>
</mgrwt>
</event>
<event>
12    7  0.1707730E-007  0.1979407E+04  0.7818608E-02  0.8616310E-01
          2   -1    0    0  501    0  0.00000000000E+00  0.00000000000E+00  0.32927128594E+04  0.32927128594E+04  0.00000000000E+00 0. -1.
         -1   -1    0    0    0  501 -0.00000000000E+00 -0.00000000000E+00 -0.29747890183E+03  0.29747890183E+03  0.00000000000E+00 0.  1.
         24    2    1    2    0    0  0.86148784047E+02  0.16675125227E+03  0.25609285749E+04  0.25690406686E+04  0.79919949377E+02 0.  0.
        254    2    1    2    0    0 -0.86148784047E+02 -0.16675125227E+03  0.43430538271E+03  0.10211510926E+04  0.90493137605E+03 0.  0.
         23    2    4    4    0    0 -0.22019090339E+03 -0.10358572462E+03  0.67476373245E+03  0.72383199906E+03  0.97018719562E+02 0.  0.
         23    2    4    4    0    0  0.13404211934E+03 -0.63165527652E+02 -0.24045834974E+03  0.29731909355E+03  0.92850696216E+02 0.  0.
          2    1    3    3  502    0  0.94695484295E+02  0.11070932458E+03  0.16891000596E+04  0.16953709921E+04  0.00000000000E+00 0. -1.
         -1    1    3    3    0  502 -0.85467002484E+01  0.56041927692E+02  0.87182851525E+03  0.87366967656E+03  0.00000000000E+00 0.  1.
         13    1    5    5    0    0 -0.12363689220E+03 -0.38933213712E+02  0.47852370089E+03  0.49576890640E+03  0.00000000000E+00 0. -1.
        -13    1    5    5    0    0 -0.96554011185E+02 -0.64652510911E+02  0.19624003156E+03  0.22806309265E+03  0.00000000000E+00 0.  1.
          2    1    6    6  503    0  0.56524318573E+01 -0.34013255641E+02 -0.95311191541E+02  0.10135617780E+03  0.00000000000E+00 0. -1.
         -2    1    6    6    0  503  0.12838968748E+03 -0.29152272011E+02 -0.14514715820E+03  0.19596291575E+03  0.00000000000E+00 0.  1.
<mgrwt>
<rscale>  0 0.19794066E+04</rscale>
<asrwt>0</asrwt>
<pdfrwt beam="1">  1        2 0.50657118E+00 0.19794066E+04</pdfrwt>
<pdfrwt beam="2">  1       -1 0.45765987E-01 0.19794066E+04</pdfrwt>
<totfact> 0.56857791E+00</totfact>
</mgrwt>
</event>
<event>
12    7  0.1707730E-007  0.1306935E+04  0.7818608E-02  0.9024084E-01
          2   -1    0    0  501    0  0.00000000000E+00  0.00000000000E+00  0.12618724981E+04  0.12618724981E+04  0.00000000000E+00 0. -1.
         -1   -1    0    0    0  501 -0.00000000000E+00 -0.00000000000E+00 -0.33840166585E+03  0.33840166585E+03  0.00000000000E+00 0.  1.
         24    2    1    2    0    0 -0.17570055243E+03  0.19342023349E+03  0.49432604345E+03  0.56474211248E+03  0.79330609013E+02 0.  0.
        254    2    1    2    0    0  0.17570055243E+03 -0.19342023349E+03  0.42914478883E+03  0.10355320515E+04  0.90547187093E+03 0.  0.
         23    2    4    4    0    0 -0.73407809506E+02  0.51551472362E+02 -0.24192672774E+03  0.27361960667E+03  0.91065288429E+02 0.  0.
         23    2    4    4    0    0  0.24910836193E+03 -0.24497170585E+03  0.67107151657E+03  0.76191244483E+03  0.90041549159E+02 0.  0.
          2    1    3    3  502    0 -0.16178703332E+03  0.20023231854E+03  0.46140985248E+03  0.52836263825E+03  0.00000000000E+00 0. -1.
         -1    1    3    3    0  502 -0.13913519109E+02 -0.68120850513E+01  0.32916190970E+02  0.36379474223E+02  0.00000000000E+00 0.  1.
         13    1    5    5    0    0 -0.47555354069E+02  0.46899651894E+01 -0.20000926443E+03  0.20563855021E+03  0.00000000000E+00 0.  1.
        -13    1    5    5    0    0 -0.25852455437E+02  0.46861507172E+02 -0.41917463315E+02  0.67981056459E+02  0.00000000000E+00 0. -1.
          4    1    6    6  503    0  0.27131952898E+02 -0.55958332096E+02  0.68519446086E+02  0.92533195616E+02  0.00000000000E+00 0. -1.
         -4    1    6    6    0  503  0.22197640903E+03 -0.18901337375E+03  0.60255207048E+03  0.66937924921E+03  0.00000000000E+00 0.  1.
<mgrwt>
<rscale>  0 0.13069350E+04</rscale>
<asrwt>0</asrwt>
<pdfrwt beam="1">  1        2 0.19413423E+00 0.13069350E+04</pdfrwt>
<pdfrwt beam="2">  1       -1 0.52061795E-01 0.13069350E+04</pdfrwt>
<totfact> 0.72199922E+01</totfact>
</mgrwt>
</event>
<event>
12    7  0.1707730E-007  0.1103453E+04  0.7818608E-02  0.9201833E-01
         -1   -1    0    0    0  501 -0.00000000000E+00  0.00000000000E+00  0.63524858670E+03  0.63524858670E+03  0.00000000000E+00 0.  1.
          2   -1    0    0  501    0  0.00000000000E+00 -0.00000000000E+00 -0.47918545600E+03  0.47918545600E+03  0.00000000000E+00 0. -1.
         24    2    1    2    0    0  0.66573378014E+02 -0.33446920535E+02 -0.19392680952E+03  0.22137549827E+03  0.76477399456E+02 0.  0.
        254    2    1    2    0    0 -0.66573378014E+02  0.33446920535E+02  0.34998994022E+03  0.89305854444E+03  0.81823584276E+03 0.  0.
         23    2    4    4    0    0  0.70409495564E+01  0.13598924381E+03 -0.23530221299E+03  0.28655861628E+03  0.90587304438E+02 0.  0.
         23    2    4    4    0    0 -0.73614327570E+02 -0.10254232328E+03  0.58529215320E+03  0.60649992816E+03  0.96650198994E+02 0.  0.
          2    1    3    3  502    0  0.11209204078E+02 -0.21412870568E+02 -0.14352067289E+03  0.14554154331E+03  0.00000000000E+00 0. -1.
         -1    1    3    3    0  502  0.55364173935E+02 -0.12034049967E+02 -0.50406136632E+02  0.75833954956E+02  0.00000000000E+00 0.  1.
         13    1    5    5    0    0  0.29703951065E+01  0.12954361310E+03 -0.13928212845E+03  0.19023638518E+03  0.00000000000E+00 0.  1.
        -13    1    5    5    0    0  0.40705544499E+01  0.64456307097E+01 -0.96020084539E+02  0.96322231098E+02  0.00000000000E+00 0. -1.
          2    1    6    6  503    0 -0.65270981693E+02 -0.36110259622E+02  0.44307669581E+03  0.44931192981E+03  0.00000000000E+00 0. -1.
         -2    1    6    6    0  503 -0.83433458766E+01 -0.66432063656E+02  0.14221545739E+03  0.15718799834E+03  0.00000000000E+00 0.  1.
<mgrwt>
<rscale>  0 0.11034526E+04</rscale>
<asrwt>0</asrwt>
<pdfrwt beam="1">  1        2 0.73720839E-01 0.11034526E+04</pdfrwt>
<pdfrwt beam="2">  1       -1 0.97730553E-01 0.11034526E+04</pdfrwt>
<totfact> 0.73818200E+01</totfact>
</mgrwt>
</event>
<event>
12    7  0.1707730E-007  0.1725891E+04  0.7818608E-02  0.8746734E-01
          2   -1    0    0  501    0  0.00000000000E+00  0.00000000000E+00  0.18441764058E+04  0.18441764058E+04  0.00000000000E+00 0. -1.
         -1   -1    0    0    0  501 -0.00000000000E+00 -0.00000000000E+00 -0.40379807070E+03  0.40379807070E+03  0.00000000000E+00 0.  1.
         24    2    1    2    0    0 -0.18650920551E+03 -0.56930172982E+03  0.29307374128E+03  0.67089905734E+03  0.72960153497E+02 0.  0.
        254    2    1    2    0    0  0.18650920551E+03  0.56930172982E+03  0.11473045938E+04  0.15770754191E+04  0.90109317132E+03 0.  0.
         23    2    4    4    0    0  0.18827150597E+03  0.68173434433E+03  0.12211331309E+04  0.14142986602E+04  0.94163159490E+02 0.  0.
         23    2    4    4    0    0 -0.17623004584E+01 -0.11243261451E+03 -0.73828537152E+02  0.16277675892E+03  0.91659270327E+02 0.  0.
          4    1    3    3  502    0 -0.19213051707E+02 -0.16157341838E+03  0.74399256505E+02  0.17891439364E+03  0.00000000000E+00 0. -1.
         -3    1    3    3    0  502 -0.16729615380E+03 -0.40772831144E+03  0.21867448477E+03  0.49198466370E+03  0.00000000000E+00 0.  1.
         13    1    5    5    0    0  0.62059552592E+02  0.39278481863E+03  0.65401579089E+03  0.76542011768E+03  0.00000000000E+00 0. -1.
        -13    1    5    5    0    0  0.12621195337E+03  0.28894952570E+03  0.56711734005E+03  0.64887854253E+03  0.00000000000E+00 0.  1.
          1    1    6    6  503    0 -0.11212745896E+02 -0.12683636209E+03 -0.69283736532E+02  0.14496007921E+03  0.00000000000E+00 0. -1.
         -1    1    6    6    0  503  0.94504454375E+01  0.14403747572E+02 -0.45448006204E+01  0.17816679706E+02  0.00000000000E+00 0.  1.
<mgrwt>
<rscale>  0 0.17258909E+04</rscale>
<asrwt>0</asrwt>
<pdfrwt beam="1">  1        2 0.28371944E+00 0.17258909E+04</pdfrwt>
<pdfrwt beam="2">  1       -1 0.62122781E-01 0.17258909E+04</pdfrwt>
<totfact> 0.23182172E+01</totfact>
</mgrwt>
</event>
<event>
12    7  0.1707730E-007  0.2362960E+04  0.7818608E-02  0.8453502E-01
         -3   -1    0    0    0  501 -0.00000000000E+00  0.00000000000E+00  0.32032421322E+04  0.32032421322E+04  0.00000000000E+00 0.  1.
          2   -1    0    0  501    0  0.00000000000E+00 -0.00000000000E+00 -0.43577577703E+03  0.43577577703E+03  0.00000000000E+00 0. -1.
         24    2    1    2    0    0  0.31130805361E+03 -0.94148278537E+03  0.13140078446E+04  0.16483143161E+04  0.83790985976E+02 0.  0.
        254    2    1    2    0    0 -0.31130805361E+03  0.94148278537E+03  0.14534585105E+04  0.19907035931E+04  0.93115874835E+03 0.  0.
         23    2    4    4    0    0 -0.25513788182E+03  0.17774675073E+03  0.10923056180E+04  0.11393880688E+04  0.91566163209E+02 0.  0.
         23    2    4    4    0    0 -0.56170171795E+02  0.76373603464E+03  0.36115289252E+03  0.85131552430E+03  0.88650388167E+02 0.  0.
          2    1    3    3  502    0  0.75750439446E+02 -0.15528047116E+03  0.26588318283E+03  0.31708677158E+03  0.00000000000E+00 0. -1.
         -1    1    3    3    0  502  0.23555761417E+03 -0.78620231421E+03  0.10481246618E+04  0.13312275445E+04  0.00000000000E+00 0.  1.
         13    1    5    5    0    0 -0.18621865101E+03  0.99807831842E+02  0.84655058302E+03  0.87251755220E+03  0.00000000000E+00 0. -1.
        -13    1    5    5    0    0 -0.68919230806E+02  0.77938918886E+02  0.24575503493E+03  0.26687051663E+03  0.00000000000E+00 0.  1.
          1    1    6    6  503    0 -0.22825492917E+02  0.64513339339E+03  0.32608135519E+03  0.72321998631E+03  0.00000000000E+00 0. -1.
         -1    1    6    6    0  503 -0.33344678879E+02  0.11860264125E+03  0.35071537326E+02  0.12809553799E+03  0.00000000000E+00 0.  1.
<mgrwt>
<rscale>  0 0.23629603E+04</rscale>
<asrwt>0</asrwt>
<pdfrwt beam="1">  1        2 0.67042429E-01 0.23629603E+04</pdfrwt>
<pdfrwt beam="2">  1       -3 0.49280647E+00 0.23629603E+04</pdfrwt>
<totfact> 0.13364493E-01</totfact>
</mgrwt>
</event>
<event>
12    7  0.1707730E-007  0.1812581E+04  0.7818608E-02  0.8699638E-01
          2   -1    0    0  501    0  0.00000000000E+00  0.00000000000E+00  0.33122599401E+04  0.33122599401E+04  0.00000000000E+00 0. -1.
         -1   -1    0    0    0  501 -0.00000000000E+00 -0.00000000000E+00 -0.24797637773E+03  0.24797637773E+03  0.00000000000E+00 0.  1.
         24    2    1    2    0    0  0.57415023555E+03  0.82059112375E+02  0.18083125466E+04  0.19007473028E+04  0.80398084351E+02 0.  0.
        254    2    1    2    0    0 -0.57415023555E+03 -0.82059112375E+02  0.12559710158E+04  0.16594890151E+04  0.91654700246E+03 0.  0.
         23    2    4    4    0    0  0.20570326776E+03 -0.16775089950E+03  0.22063031654E+03  0.35715567447E+03  0.91805449602E+02 0.  0.
         23    2    4    4    0    0 -0.77985350331E+03  0.85691787129E+02  0.10353406993E+04  0.13023333406E+04  0.92882708260E+02 0.  0.
          4    1    3    3  502    0  0.34915616679E+03  0.87045843699E+02  0.11552423948E+04  0.12099884291E+04  0.00000000000E+00 0. -1.
         -3    1    3    3    0  502  0.22499406875E+03 -0.49867313241E+01  0.65307015176E+03  0.69075887369E+03  0.00000000000E+00 0.  1.
         13    1    5    5    0    0  0.15326090778E+03 -0.12614174266E+03  0.10758862886E+03  0.22577856000E+03  0.00000000000E+00 0. -1.
        -13    1    5    5    0    0  0.52442359985E+02 -0.41609156842E+02  0.11304168767E+03  0.13137711447E+03  0.00000000000E+00 0.  1.
          3    1    6    6  503    0 -0.49093491592E+03  0.20587211172E+02  0.69530152100E+03  0.85140186166E+03  0.00000000000E+00 0. -1.
         -3    1    6    6    0  503 -0.28891858739E+03  0.65104575957E+02  0.34003917828E+03  0.45093147896E+03  0.00000000000E+00 0.  1.
<mgrwt>
<rscale>  0 0.18125807E+04</rscale>
<asrwt>0</asrwt>
<pdfrwt beam="1">  1        2 0.50957842E+00 0.18125807E+04</pdfrwt>
<pdfrwt beam="2">  1       -1 0.38150214E-01 0.18125807E+04</pdfrwt>
<totfact> 0.78421354E+00</totfact>
</mgrwt>
</event>
<event>
12    7  0.1707730E-007  0.1504034E+04  0.7818608E-02  0.8881775E-01
         -1   -1    0    0    0  501 -0.00000000000E+00  0.00000000000E+00  0.13452844451E+04  0.13452844451E+04  0.00000000000E+00 0.  1.
          2   -1    0    0  501    0  0.00000000000E+00 -0.00000000000E+00 -0.42037895995E+03  0.42037895995E+03  0.00000000000E+00 0. -1.
         24    2    1    2    0    0 -0.88108437154E+02  0.47180470431E+03  0.33409837870E+03  0.59011594932E+03  0.79071684459E+02 0.  0.
        254    2    1    2    0    0  0.88108437154E+02 -0.47180470431E+03  0.59080710649E+03  0.11755474558E+04  0.89582141524E+03 0.  0.
         23    2    4    4    0    0  0.17511852562E+03 -0.23181597056E+03 -0.18346445390E+03  0.35521090975E+03  0.90057994287E+02 0.  0.
         23    2    4    4    0    0 -0.87010088471E+02 -0.23998873375E+03  0.77427156039E+03  0.82033654603E+03  0.91050819278E+02 0.  0.
          4    1    3    3  502    0 -0.98447535750E+02  0.39638099900E+03  0.29964280643E+03  0.50655268739E+03  0.00000000000E+00 0. -1.
         -3    1    3    3    0  502  0.10339098596E+02  0.75423705317E+02  0.34455572272E+02  0.83563261929E+02  0.00000000000E+00 0.  1.
         13    1    5    5    0    0  0.18123070156E+03 -0.21939603814E+03 -0.18750687060E+03  0.34079028047E+03  0.00000000000E+00 0. -1.
        -13    1    5    5    0    0 -0.61121759371E+01 -0.12419932421E+02  0.40424166992E+01  0.14420629279E+02  0.00000000000E+00 0.  1.
          1    1    6    6  503    0 -0.39469867371E+02 -0.15152920422E+03  0.59057904596E+03  0.61098492591E+03  0.00000000000E+00 0. -1.
         -1    1    6    6    0  503 -0.47540221100E+02 -0.88459529531E+02  0.18369251443E+03  0.20935162012E+03  0.00000000000E+00 0.  1.
<mgrwt>
<rscale>  0 0.15040336E+04</rscale>
<asrwt>0</asrwt>
<pdfrwt beam="1">  1        2 0.64673687E-01 0.15040336E+04</pdfrwt>
<pdfrwt beam="2">  1       -1 0.20696684E+00 0.15040336E+04</pdfrwt>
<totfact> 0.11194846E+01</totfact>
</mgrwt>
</event>
<event>
12    7  0.1707730E-007  0.1446241E+04  0.7818608E-02  0.8921011E-01
          2   -1    0    0  501    0  0.00000000000E+00  0.00000000000E+00  0.20975066632E+04  0.20975066632E+04  0.00000000000E+00 0. -1.
         -1   -1    0    0    0  501 -0.00000000000E+00 -0.00000000000E+00 -0.24929757056E+03  0.24929757056E+03  0.00000000000E+00 0.  1.
         24    2    1    2    0    0 -0.23031379617E+03  0.24261473544E+03  0.10502520697E+03  0.35922847695E+03  0.78156573603E+02 0.  0.
        254    2    1    2    0    0  0.23031379617E+03 -0.24261473544E+03  0.17431838857E+04  0.19875757568E+04  0.89434947042E+03 0.  0.
         23    2    4    4    0    0 -0.53139847457E+02 -0.26223454407E+02 -0.74999194913E+02  0.13248343757E+03  0.91735865642E+02 0.  0.
         23    2    4    4    0    0  0.28345364363E+03 -0.21639128103E+03  0.18181830806E+04  0.18550923193E+04  0.91687751427E+02 0.  0.
          2    1    3    3  502    0 -0.38583598011E+01 -0.21054936271E+01  0.12435705861E+02  0.13189648366E+02  0.00000000000E+00 0. -1.
         -1    1    3    3    0  502 -0.22645543637E+03  0.24472022906E+03  0.92589501111E+02  0.34603882859E+03  0.00000000000E+00 0.  1.
         13    1    5    5    0    0 -0.31582622395E+02 -0.51350374966E+02 -0.12222796672E+02  0.61511948473E+02  0.00000000000E+00 0. -1.
        -13    1    5    5    0    0 -0.21557225062E+02  0.25126920559E+02 -0.62776398241E+02  0.70971489101E+02  0.00000000000E+00 0.  1.
          3    1    6    6  503    0  0.14322975660E+03 -0.70117181043E+02  0.63722384127E+03  0.65687548755E+03  0.00000000000E+00 0. -1.
         -3    1    6    6    0  503  0.14022388702E+03 -0.14627409999E+03  0.11809592393E+04  0.11982168317E+04  0.00000000000E+00 0.  1.
<mgrwt>
<rscale>  0 0.14462411E+04</rscale>
<asrwt>0</asrwt>
<pdfrwt beam="1">  1        2 0.32269332E+00 0.14462411E+04</pdfrwt>
<pdfrwt beam="2">  1       -1 0.38353474E-01 0.14462411E+04</pdfrwt>
<totfact> 0.42874526E+01</totfact>
</mgrwt>
</event>
<event>
12    7  0.1894612E-007  0.2074502E+04  0.7818608E-02  0.8572559E-01
          2   -1    0    0  501    0  0.00000000000E+00  0.00000000000E+00  0.14141353843E+04  0.14141353843E+04  0.00000000000E+00 0. -1.
         -1   -1    0    0    0  501 -0.00000000000E+00 -0.00000000000E+00 -0.76081115531E+03  0.76081115531E+03  0.00000000000E+00 0.  1.
         24    2    1    2    0    0  0.57963656192E+03  0.36571986996E+03 -0.24584935034E+03  0.73255678691E+03  0.80423726611E+02 0.  0.
        254    2    1    2    0    0 -0.57963656192E+03 -0.36571986996E+03  0.89917357932E+03  0.14423897527E+04  0.89568158722E+03 0.  0.
         23    2    4    4    0    0  0.24728642549E+02 -0.24745689862E+03 -0.84627030307E+02  0.27810186009E+03  0.91282462114E+02 0.  0.
         23    2    4    4    0    0 -0.60436520447E+03 -0.11826297134E+03  0.98380060962E+03  0.11642878926E+04  0.91974053771E+02 0.  0.
          2    1    3    3  502    0  0.85261268576E+01  0.15773936577E+02 -0.17092379342E+02  0.24772188961E+02  0.00000000000E+00 0. -1.
         -1    1    3    3    0  502  0.57111043506E+03  0.34994593338E+03 -0.22875697100E+03  0.70778459795E+03  0.00000000000E+00 0.  1.
         13    1    5    5    0    0  0.31060581888E+02 -0.13686794582E+03 -0.90801010832E+02  0.16715985735E+03  0.00000000000E+00 0. -1.
        -13    1    5    5    0    0 -0.63319393386E+01 -0.11058895279E+03  0.61739805249E+01  0.11094200274E+03  0.00000000000E+00 0.  1.
          1    1    6    6  503    0 -0.22999757097E+03 -0.88037938897E+02  0.41874171971E+03  0.48579233132E+03  0.00000000000E+00 0. -1.
         -1    1    6    6    0  503 -0.37436763350E+03 -0.30225032441E+02  0.56505888991E+03  0.67849556127E+03  0.00000000000E+00 0.  1.
<mgrwt>
<rscale>  0 0.20745023E+04</rscale>
<asrwt>0</asrwt>
<pdfrwt beam="1">  1        2 0.21755929E+00 0.20745023E+04</pdfrwt>
<pdfrwt beam="2">  1       -1 0.11704787E+00 0.20745023E+04</pdfrwt>
<totfact> 0.98326321E+00</totfact>
</mgrwt>
</event>
<event>
12    7  0.1707730E-007  0.3267909E+04  0.7818608E-02  0.8171109E-01
         -1   -1    0    0    0  501 -0.00000000000E+00  0.00000000000E+00  0.10230734918E+04  0.10230734918E+04  0.00000000000E+00 0.  1.
          2   -1    0    0  501    0  0.00000000000E+00 -0.00000000000E+00 -0.26095950282E+04  0.26095950282E+04  0.00000000000E+00 0. -1.
         24    2    1    2    0    0  0.14225144112E+03  0.14887290856E+04 -0.96981858586E+03  0.17843739376E+04  0.83021061589E+02 0.  0.
        254    2    1    2    0    0 -0.14225144112E+03 -0.14887290856E+04 -0.61670295048E+03  0.18482945824E+04  0.89404729816E+03 0.  0.
         23    2    4    4    0    0 -0.48973403506E+03 -0.89228430920E+03 -0.51571710162E+03  0.11446862772E+04  0.91278862492E+02 0.  0.
         23    2    4    4    0    0  0.34748259395E+03 -0.59644477642E+03 -0.10098584886E+03  0.70360830522E+03  0.91520386159E+02 0.  0.
          4    1    3    3  502    0  0.12399723945E+03  0.14224021058E+04 -0.90936641904E+03  0.16927936526E+04  0.00000000000E+00 0. -1.
         -3    1    3    3    0  502  0.18254201671E+02  0.66326979793E+02 -0.60452166822E+02  0.91580285000E+02  0.00000000000E+00 0.  1.
         13    1    5    5    0    0 -0.27876484063E+03 -0.44358781920E+03 -0.22738138447E+03  0.57112370264E+03  0.00000000000E+00 0.  1.
        -13    1    5    5    0    0 -0.21096919443E+03 -0.44869649000E+03 -0.28833571715E+03  0.57356257455E+03  0.00000000000E+00 0. -1.
          2    1    6    6  503    0  0.31005179295E+02 -0.10088998881E+03  0.70234320873E+01  0.10578014740E+03  0.00000000000E+00 0. -1.
         -2    1    6    6    0  503  0.31647741465E+03 -0.49555478761E+03 -0.10800928095E+03  0.59782815782E+03  0.00000000000E+00 0.  1.
<mgrwt>
<rscale>  0 0.32679091E+04</rscale>
<asrwt>0</asrwt>
<pdfrwt beam="1">  1        2 0.40147616E+00 0.32679091E+04</pdfrwt>
<pdfrwt beam="2">  1       -1 0.15739592E+00 0.32679091E+04</pdfrwt>
<totfact> 0.87407481E-01</totfact>
</mgrwt>
</event>
<event>
12    7  0.1707730E-007  0.1320103E+04  0.7818608E-02  0.9013774E-01
         -3   -1    0    0    0  501 -0.00000000000E+00  0.00000000000E+00  0.88413894136E+03  0.88413894136E+03  0.00000000000E+00 0.  1.
          4   -1    0    0  501    0  0.00000000000E+00 -0.00000000000E+00 -0.49275952000E+03  0.49275952000E+03  0.00000000000E+00 0. -1.
         24    2    1    2    0    0  0.11170277402E+03  0.35642784582E+03  0.15242272839E+03  0.41095094293E+03  0.78292211411E+02 0.  0.
        254    2    1    2    0    0 -0.11170277402E+03 -0.35642784582E+03  0.23895669298E+03  0.96594751843E+03  0.85815848667E+03 0.  0.
         23    2    4    4    0    0  0.65427311582E+02 -0.60272225769E+03  0.21347822553E+03  0.64760081211E+03  0.79113880319E+02 0.  0.
         23    2    4    4    0    0 -0.17713008560E+03  0.24629441187E+03  0.25478467447E+02  0.31834670632E+03  0.93056265657E+02 0.  0.
          4    1    3    3  502    0 -0.40549205885E+01  0.49963697567E+02  0.12195703860E+01  0.50142804144E+02  0.00000000000E+00 0. -1.
         -3    1    3    3    0  502  0.11575769460E+03  0.30646414825E+03  0.15120315800E+03  0.36080813879E+03  0.00000000000E+00 0.  1.
         13    1    5    5    0    0 -0.16743652011E+01 -0.20921536657E+02 -0.65325618579E+01  0.21981550431E+02  0.00000000000E+00 0.  1.
        -13    1    5    5    0    0  0.67101676783E+02 -0.58180072103E+03  0.22001078739E+03  0.62561926168E+03  0.00000000000E+00 0. -1.
          3    1    6    6  503    0 -0.94180404871E+02  0.14745432814E+03 -0.30656132542E+02  0.17763030713E+03  0.00000000000E+00 0. -1.
         -3    1    6    6    0  503 -0.82949680728E+02  0.98840083727E+02  0.56134599988E+02  0.14071639919E+03  0.00000000000E+00 0.  1.
<mgrwt>
<rscale>  0 0.13201028E+04</rscale>
<asrwt>0</asrwt>
<pdfrwt beam="1">  1        4 0.75809157E-01 0.13201028E+04</pdfrwt>
<pdfrwt beam="2">  1       -3 0.13602138E+00 0.13201028E+04</pdfrwt>
<totfact> 0.14540774E+00</totfact>
</mgrwt>
</event>
<event>
12    7  0.1707730E-007  0.1326794E+04  0.7818608E-02  0.9008583E-01
         -1   -1    0    0    0  501 -0.00000000000E+00  0.00000000000E+00  0.16712266527E+03  0.16712266527E+03  0.00000000000E+00 0.  1.
          2   -1    0    0  501    0  0.00000000000E+00 -0.00000000000E+00 -0.26333698618E+04  0.26333698618E+04  0.00000000000E+00 0. -1.
         24    2    1    2    0    0  0.12049028287E+03 -0.32690741302E+03 -0.68218646098E+03  0.76988008512E+03  0.77140216297E+02 0.  0.
        254    2    1    2    0    0 -0.12049028287E+03  0.32690741302E+03 -0.17840607356E+04  0.20306124420E+04  0.90505680282E+03 0.  0.
         23    2    4    4    0    0  0.16136463293E+03 -0.11644301230E+03 -0.58934927330E+02  0.22510688475E+03  0.87190963005E+02 0.  0.
         23    2    4    4    0    0 -0.28185491580E+03  0.44335042532E+03 -0.17251258083E+04  0.18055055572E+04  0.88257972403E+02 0.  0.
          2    1    3    3  502    0  0.11189452677E+03 -0.25211787679E+03 -0.58653559858E+03  0.64815724737E+03  0.00000000000E+00 0. -1.
         -1    1    3    3    0  502  0.85957561001E+01 -0.74789536232E+02 -0.95650862407E+02  0.12172283776E+03  0.00000000000E+00 0.  1.
         13    1    5    5    0    0  0.78923391194E+02 -0.69420557658E+02  0.13146352826E+02  0.10592894834E+03  0.00000000000E+00 0.  1.
        -13    1    5    5    0    0  0.82441241734E+02 -0.47022454641E+02 -0.72081280156E+02  0.11917793641E+03  0.00000000000E+00 0. -1.
          4    1    6    6  503    0 -0.14988988890E+03  0.18879172330E+03 -0.66720815225E+03  0.70941948944E+03  0.00000000000E+00 0. -1.
         -4    1    6    6    0  503 -0.13196502690E+03  0.25455870202E+03 -0.10579176560E+04  0.10960860678E+04  0.00000000000E+00 0.  1.
<mgrwt>
<rscale>  0 0.13267943E+04</rscale>
<asrwt>0</asrwt>
<pdfrwt beam="1">  1        2 0.40513379E+00 0.13267943E+04</pdfrwt>
<pdfrwt beam="2">  1       -1 0.25711181E-01 0.13267943E+04</pdfrwt>
<totfact> 0.43512428E+01</totfact>
</mgrwt>
</event>
<event>
12    7  0.1707730E-007  0.1174475E+04  0.7818608E-02  0.9135497E-01
         -1   -1    0    0    0  501 -0.00000000000E+00  0.00000000000E+00  0.29032252903E+03  0.29032252903E+03  0.00000000000E+00 0.  1.
          2   -1    0    0  501    0  0.00000000000E+00 -0.00000000000E+00 -0.11878085950E+04  0.11878085950E+04  0.00000000000E+00 0. -1.
         24    2    1    2    0    0  0.17940652507E+03 -0.11214042122E+03 -0.32385030936E+03  0.39511619844E+03  0.80471187975E+02 0.  0.
        254    2    1    2    0    0 -0.17940652507E+03  0.11214042122E+03 -0.57363575658E+03  0.10830149256E+04  0.89392458991E+03 0.  0.
         23    2    4    4    0    0 -0.50079018572E+03 -0.82653780835E+02 -0.22717113226E+03  0.56382401562E+03  0.93103918602E+02 0.  0.
         23    2    4    4    0    0  0.32138366065E+03  0.19479420205E+03 -0.34646462431E+03  0.51919090993E+03  0.91045189681E+02 0.  0.
          4    1    3    3  502    0  0.17876198763E+03 -0.11928815888E+03 -0.32289724298E+03  0.38787645275E+03  0.00000000000E+00 0. -1.
         -3    1    3    3    0  502  0.64453743454E+00  0.71477376634E+01 -0.95306637535E+00  0.72397456947E+01  0.00000000000E+00 0.  1.
         13    1    5    5    0    0 -0.19338475624E+03  0.75110106266E+01 -0.60881976882E+02  0.20288098564E+03  0.00000000000E+00 0. -1.
        -13    1    5    5    0    0 -0.30740542948E+03 -0.90164791462E+02 -0.16628915538E+03  0.36094302998E+03  0.00000000000E+00 0.  1.
          2    1    6    6  503    0  0.30985630433E+02 -0.72279396675E+01 -0.40282304259E+02  0.51332411219E+02  0.00000000000E+00 0. -1.
         -2    1    6    6    0  503  0.29039803022E+03  0.20202214172E+03 -0.30618232005E+03  0.46785849871E+03  0.00000000000E+00 0.  1.
<mgrwt>
<rscale>  0 0.11744745E+04</rscale>
<asrwt>0</asrwt>
<pdfrwt beam="1">  1        2 0.18273979E+00 0.11744745E+04</pdfrwt>
<pdfrwt beam="2">  1       -1 0.44665004E-01 0.11744745E+04</pdfrwt>
<totfact> 0.10773105E+02</totfact>
</mgrwt>
</event>
<event>
12    7  0.1707730E-007  0.9896740E+03  0.7818608E-02  0.9319943E-01
          2   -1    0    0  501    0  0.00000000000E+00  0.00000000000E+00  0.27632224182E+03  0.27632224182E+03  0.00000000000E+00 0. -1.
         -1   -1    0    0    0  501 -0.00000000000E+00 -0.00000000000E+00 -0.88615251335E+03  0.88615251335E+03  0.00000000000E+00 0.  1.
         24    2    1    2    0    0 -0.35944648523E+02  0.65369745576E+02 -0.78154167041E+01  0.11027306286E+03  0.80832210540E+02 0.  0.
        254    2    1    2    0    0  0.35944648523E+02 -0.65369745576E+02 -0.60201485482E+03  0.10522016923E+04  0.85973326938E+03 0.  0.
         23    2    4    4    0    0  0.42543986543E+03 -0.10207468044E+03 -0.41142701199E+03  0.60764425607E+03  0.92417726929E+02 0.  0.
         23    2    4    4    0    0 -0.38949521691E+03  0.36704934868E+02 -0.19058784283E+03  0.44455743624E+03  0.90850492819E+02 0.  0.
          2    1    3    3  502    0 -0.31658060056E+02  0.78285528533E+02  0.12964327129E+02  0.85433778577E+02  0.00000000000E+00 0. -1.
         -1    1    3    3    0  502 -0.42865884671E+01 -0.12915782956E+02 -0.20779743833E+02  0.24839284286E+02  0.00000000000E+00 0.  1.
         13    1    5    5    0    0  0.18677324412E+02 -0.14097780480E+01  0.21910138659E+01  0.18858167013E+02  0.00000000000E+00 0.  1.
        -13    1    5    5    0    0  0.40676254102E+03 -0.10066490240E+03 -0.41361802586E+03  0.58878608905E+03  0.00000000000E+00 0. -1.
          4    1    6    6  503    0 -0.32424893858E+03 -0.53185136949E+00 -0.13561101169E+03  0.35146550831E+03  0.00000000000E+00 0. -1.
         -4    1    6    6    0  503 -0.65246278328E+02  0.37236786238E+02 -0.54976831140E+02  0.93091927938E+02  0.00000000000E+00 0.  1.
<mgrwt>
<rscale>  0 0.98967398E+03</rscale>
<asrwt>0</asrwt>
<pdfrwt beam="1">  1        2 0.42511113E-01 0.98967398E+03</pdfrwt>
<pdfrwt beam="2">  1       -1 0.13633116E+00 0.98967398E+03</pdfrwt>
<totfact> 0.61923300E+01</totfact>
</mgrwt>
</event>
<event>
12    7  0.1707730E-007  0.1378004E+04  0.7818608E-02  0.8969896E-01
          2   -1    0    0  501    0  0.00000000000E+00  0.00000000000E+00  0.74805862304E+03  0.74805862304E+03  0.00000000000E+00 0. -1.
         -1   -1    0    0    0  501 -0.00000000000E+00 -0.00000000000E+00 -0.63460809312E+03  0.63460809312E+03  0.00000000000E+00 0.  1.
         24    2    1    2    0    0  0.14059133358E+02 -0.15602795224E+03 -0.32856866381E+03  0.37268060055E+03  0.79944243526E+02 0.  0.
        254    2    1    2    0    0 -0.14059133358E+02  0.15602795224E+03  0.44201919373E+03  0.10099861156E+04  0.89451025986E+03 0.  0.
         23    2    4    4    0    0  0.31064452534E+03 -0.17788566336E+03  0.38339747422E+03  0.53161122386E+03  0.86449637044E+02 0.  0.
         23    2    4    4    0    0 -0.32470365870E+03  0.33391361561E+03  0.58621719518E+02  0.47837489175E+03  0.92061188337E+02 0.  0.
          2    1    3    3  502    0  0.32526372477E+02 -0.82214635195E+02 -0.10928835339E+03  0.14057437652E+03  0.00000000000E+00 0. -1.
         -1    1    3    3    0  502 -0.18467239119E+02 -0.73813317049E+02 -0.21928031042E+03  0.23210622403E+03  0.00000000000E+00 0.  1.
         13    1    5    5    0    0  0.83350036851E+02 -0.71956945444E+02  0.71009914460E+02  0.13102457248E+03  0.00000000000E+00 0. -1.
        -13    1    5    5    0    0  0.22729448849E+03 -0.10592871792E+03  0.31238755976E+03  0.40058665139E+03  0.00000000000E+00 0.  1.
          3    1    6    6  503    0 -0.16859035411E+03  0.22632533614E+03  0.61137599176E+02  0.28876230936E+03  0.00000000000E+00 0. -1.
         -3    1    6    6    0  503 -0.15611330459E+03  0.10758827947E+03 -0.25158796584E+01  0.18961258239E+03  0.00000000000E+00 0.  1.
<mgrwt>
<rscale>  0 0.13780044E+04</rscale>
<asrwt>0</asrwt>
<pdfrwt beam="1">  1        2 0.11508594E+00 0.13780044E+04</pdfrwt>
<pdfrwt beam="2">  1       -1 0.97632014E-01 0.13780044E+04</pdfrwt>
<totfact> 0.42184188E+01</totfact>
</mgrwt>
</event>
<event>
12    7  0.1707730E-007  0.4036900E+04  0.7818608E-02  0.7997144E-01
          2   -1    0    0  501    0  0.00000000000E+00  0.00000000000E+00  0.40878946783E+04  0.40878946783E+04  0.00000000000E+00 0. -1.
         -1   -1    0    0    0  501 -0.00000000000E+00 -0.00000000000E+00 -0.99663551307E+03  0.99663551307E+03  0.00000000000E+00 0.  1.
         24    2    1    2    0    0  0.14051838011E+04 -0.12983393946E+04  0.14379547365E+04  0.23946603453E+04  0.80359482907E+02 0.  0.
        254    2    1    2    0    0 -0.14051838011E+04  0.12983393946E+04  0.16533044287E+04  0.26898698460E+04  0.91747346335E+03 0.  0.
         23    2    4    4    0    0 -0.59024641992E+03  0.47695901168E+03  0.13040900069E+03  0.77536374892E+03  0.91113668715E+02 0.  0.
         23    2    4    4    0    0 -0.81493738122E+03  0.82138038296E+03  0.15228954280E+04  0.19145060971E+04  0.85641359345E+02 0.  0.
          2    1    3    3  502    0  0.43185030230E+03 -0.41293648317E+03  0.40471039020E+03  0.72166593564E+03  0.00000000000E+00 0. -1.
         -3    1    3    3    0  502  0.97333349884E+03 -0.88540291147E+03  0.10332443463E+04  0.16729944097E+04  0.00000000000E+00 0.  1.
         13    1    5    5    0    0 -0.11544606225E+03  0.12284252573E+03 -0.13124666421E+01  0.16858173680E+03  0.00000000000E+00 0.  1.
        -13    1    5    5    0    0 -0.47480035767E+03  0.35411648595E+03  0.13172146734E+03  0.60678201211E+03  0.00000000000E+00 0. -1.
          4    1    6    6  503    0 -0.44585115885E+03  0.42154848146E+03  0.74424421548E+03  0.96456509907E+03  0.00000000000E+00 0.  1.
         -4    1    6    6    0  503 -0.36908622236E+03  0.39983190150E+03  0.77865121249E+03  0.94994099801E+03  0.00000000000E+00 0. -1.
<mgrwt>
<rscale>  0 0.40369003E+04</rscale>
<asrwt>0</asrwt>
<pdfrwt beam="1">  1        2 0.62890687E+00 0.40369003E+04</pdfrwt>
<pdfrwt beam="2">  1       -1 0.15332854E+00 0.40369003E+04</pdfrwt>
<totfact> 0.84598060E-02</totfact>
</mgrwt>
</event>
<event>
12    7  0.1707730E-007  0.1336998E+04  0.7818608E-02  0.9000729E-01
          2   -1    0    0  501    0  0.00000000000E+00  0.00000000000E+00  0.13361787062E+04  0.13361787062E+04  0.00000000000E+00 0. -1.
         -1   -1    0    0    0  501 -0.00000000000E+00 -0.00000000000E+00 -0.33445448585E+03  0.33445448585E+03  0.00000000000E+00 0.  1.
         24    2    1    2    0    0 -0.25365251311E+03  0.48077396555E+02  0.57984774560E+03  0.63955042740E+03  0.78423897148E+02 0.  0.
        254    2    1    2    0    0  0.25365251311E+03 -0.48077396555E+02  0.42187647478E+03  0.10310827647E+04  0.90471038137E+03 0.  0.
         23    2    4    4    0    0 -0.60434168326E+02 -0.40596282726E+03  0.33824636537E+03  0.53919637731E+03  0.88679331265E+02 0.  0.
         23    2    4    4    0    0  0.31408668143E+03  0.35788543070E+03  0.83630109402E+02  0.49188638736E+03  0.90696184657E+02 0.  0.
          2    1    3    3  502    0 -0.24736883936E+03  0.51222411684E+02  0.50783975966E+03  0.56720040518E+03  0.00000000000E+00 0. -1.
         -1    1    3    3    0  502 -0.62836737460E+01 -0.31450151288E+01  0.72007985938E+02  0.72350022217E+02  0.00000000000E+00 0.  1.
         13    1    5    5    0    0 -0.57420490171E+00 -0.26518222153E+03  0.23779408496E+03  0.35618529892E+03  0.00000000000E+00 0.  1.
        -13    1    5    5    0    0 -0.59859963425E+02 -0.14078060573E+03  0.10045228042E+03  0.18301107839E+03  0.00000000000E+00 0. -1.
          4    1    6    6  503    0  0.16615779471E+02  0.59281342649E+02 -0.27879231843E+01  0.61629004774E+02  0.00000000000E+00 0. -1.
         -4    1    6    6    0  503  0.29747090196E+03  0.29860408806E+03  0.86418032587E+02  0.43025738259E+03  0.00000000000E+00 0.  1.
<mgrwt>
<rscale>  0 0.13369981E+04</rscale>
<asrwt>0</asrwt>
<pdfrwt beam="1">  1        2 0.20556595E+00 0.13369981E+04</pdfrwt>
<pdfrwt beam="2">  1       -1 0.51454537E-01 0.13369981E+04</pdfrwt>
<totfact> 0.66673068E+01</totfact>
</mgrwt>
</event>
<event>
12    7  0.1707730E-007  0.1793230E+04  0.7818608E-02  0.8709908E-01
         -1   -1    0    0    0  501 -0.00000000000E+00  0.00000000000E+00  0.99097988077E+03  0.99097988077E+03  0.00000000000E+00 0.  1.
          2   -1    0    0  501    0  0.00000000000E+00 -0.00000000000E+00 -0.81123627552E+03  0.81123627552E+03  0.00000000000E+00 0. -1.
         24    2    1    2    0    0  0.30300767759E+03 -0.56947354571E+03 -0.14039905979E+03  0.66495653635E+03  0.79633707067E+02 0.  0.
        254    2    1    2    0    0 -0.30300767759E+03  0.56947354571E+03  0.32014266505E+03  0.11372596199E+04  0.88020130948E+03 0.  0.
         23    2    4    4    0    0 -0.26066419185E+03 -0.10525722874E+03  0.34578628802E+03  0.45471781924E+03  0.90416995307E+02 0.  0.
         23    2    4    4    0    0 -0.42343485736E+02  0.67473077445E+03 -0.25643622970E+02  0.68254180070E+03  0.90283583925E+02 0.  0.
          4    1    3    3  502    0  0.25196809431E+03 -0.49534911799E+03 -0.14655390574E+03  0.57474926406E+03  0.00000000000E+00 0. -1.
         -3    1    3    3    0  502  0.51039583273E+02 -0.74124427728E+02  0.61548459513E+01  0.90207272297E+02  0.00000000000E+00 0.  1.
         13    1    5    5    0    0 -0.20712814321E+03 -0.69405921243E+02  0.20361328886E+03  0.29862622292E+03  0.00000000000E+00 0. -1.
        -13    1    5    5    0    0 -0.53536048637E+02 -0.35851307492E+02  0.14217299916E+03  0.15609159632E+03  0.00000000000E+00 0.  1.
          3    1    6    6  503    0 -0.16831490429E+02  0.58740023018E+03  0.13438252413E+01  0.58764286378E+03  0.00000000000E+00 0. -1.
         -3    1    6    6    0  503 -0.25511995306E+02  0.87330544267E+02 -0.26987448212E+02  0.94898936914E+02  0.00000000000E+00 0.  1.
<mgrwt>
<rscale>  0 0.17932304E+04</rscale>
<asrwt>0</asrwt>
<pdfrwt beam="1">  1        2 0.12480558E+00 0.17932304E+04</pdfrwt>
<pdfrwt beam="2">  1       -1 0.15245844E+00 0.17932304E+04</pdfrwt>
<totfact> 0.12171190E+01</totfact>
</mgrwt>
</event>
<event>
12    7  0.1707730E-007  0.1395256E+04  0.7818608E-02  0.8957259E-01
          2   -1    0    0  501    0  0.00000000000E+00  0.00000000000E+00  0.57142357907E+03  0.57142357907E+03  0.00000000000E+00 0. -1.
         -1   -1    0    0    0  501 -0.00000000000E+00 -0.00000000000E+00 -0.85170617874E+03  0.85170617874E+03  0.00000000000E+00 0.  1.
         24    2    1    2    0    0  0.27174986379E+03  0.26792938753E+03 -0.18824334862E+03  0.43674708614E+03  0.98378421267E+02 0.  0.
        254    2    1    2    0    0 -0.27174986379E+03 -0.26792938753E+03 -0.92039251041E+02  0.98638267168E+03  0.90490077140E+03 0.  0.
         23    2    4    4    0    0 -0.20948482493E+03 -0.52252487342E+03 -0.29501943178E+03  0.64250688749E+03  0.94140852585E+02 0.  0.
         23    2    4    4    0    0 -0.62265038869E+02  0.25459548589E+03  0.20298018074E+03  0.34387578418E+03  0.91399150293E+02 0.  0.
          4    1    3    3  502    0  0.17889087404E+03  0.17874010366E+03 -0.71126049988E+02  0.26269542146E+03  0.00000000000E+00 0. -1.
         -3    1    3    3    0  502  0.92858989758E+02  0.89189283876E+02 -0.11711729863E+03  0.17405166467E+03  0.00000000000E+00 0.  1.
         13    1    5    5    0    0 -0.31514960513E+02 -0.19761998160E+03 -0.95412837887E+02  0.22169902909E+03  0.00000000000E+00 0.  1.
        -13    1    5    5    0    0 -0.17796986441E+03 -0.32490489182E+03 -0.19960659390E+03  0.42080785840E+03  0.00000000000E+00 0. -1.
          1    1    6    6  503    0  0.74520932879E+01  0.14379610758E+03  0.82415091444E+02  0.16590690627E+03  0.00000000000E+00 0. -1.
         -1    1    6    6    0  503 -0.69717132156E+02  0.11079937831E+03  0.12056508930E+03  0.17796887792E+03  0.00000000000E+00 0.  1.
<mgrwt>
<rscale>  0 0.13952562E+04</rscale>
<asrwt>0</asrwt>
<pdfrwt beam="1">  1        2 0.87911320E-01 0.13952562E+04</pdfrwt>
<pdfrwt beam="2">  1       -1 0.13103172E+00 0.13952562E+04</pdfrwt>
<totfact> 0.29104252E+01</totfact>
</mgrwt>
</event>
<event>
12    7  0.1707730E-007  0.3045698E+04  0.7818608E-02  0.8230801E-01
          2   -1    0    0  501    0  0.00000000000E+00  0.00000000000E+00  0.34419725296E+04  0.34419725296E+04  0.00000000000E+00 0. -1.
         -1   -1    0    0    0  501 -0.00000000000E+00 -0.00000000000E+00 -0.67376147207E+03  0.67376147207E+03  0.00000000000E+00 0.  1.
         24    2    1    2    0    0  0.11373981041E+04  0.47575522976E+02  0.19147527767E+03  0.11571513746E+04  0.79991525823E+02 0.  0.
        254    2    1    2    0    0 -0.11373981041E+04 -0.47575522976E+02  0.25767357798E+04  0.29585826271E+04  0.90427097969E+03 0.  0.
         23    2    4    4    0    0 -0.59877950576E+03 -0.33840109868E+03  0.19821474209E+04  0.20999384471E+04  0.88209313969E+02 0.  0.
         23    2    4    4    0    0 -0.53861859829E+03  0.29082557570E+03  0.59458835889E+03  0.85864418000E+03  0.95105212328E+02 0.  0.
          4    1    3    3  502    0  0.16759785507E+02 -0.79415926230E+01  0.81614162289E+01  0.20262478093E+02  0.00000000000E+00 0. -1.
         -3    1    3    3    0  502  0.11206383185E+04  0.55517115599E+02  0.18331386144E+03  0.11368888965E+04  0.00000000000E+00 0.  1.
         13    1    5    5    0    0 -0.15795588699E+03 -0.10507017011E+03  0.44046081745E+03  0.47957849680E+03  0.00000000000E+00 0. -1.
        -13    1    5    5    0    0 -0.44082361877E+03 -0.23333092857E+03  0.15416866035E+04  0.16203599503E+04  0.00000000000E+00 0.  1.
          1    1    6    6  503    0 -0.38856284185E+02  0.30830970088E+02  0.88026634278E+02  0.10103983313E+03  0.00000000000E+00 0. -1.
         -1    1    6    6    0  503 -0.49976231411E+03  0.25999460562E+03  0.50656172461E+03  0.75760434687E+03  0.00000000000E+00 0.  1.
<mgrwt>
<rscale>  0 0.30456976E+04</rscale>
<asrwt>0</asrwt>
<pdfrwt beam="1">  1        2 0.52953422E+00 0.30456976E+04</pdfrwt>
<pdfrwt beam="2">  1       -1 0.10365561E+00 0.30456976E+04</pdfrwt>
<totfact> 0.75752884E-01</totfact>
</mgrwt>
</event>
<event>
12    7  0.1707730E-007  0.1708344E+04  0.7818608E-02  0.8756620E-01
          2   -1    0    0  501    0  0.00000000000E+00  0.00000000000E+00  0.47968208872E+03  0.47968208872E+03  0.00000000000E+00 0. -1.
         -1   -1    0    0    0  501 -0.00000000000E+00 -0.00000000000E+00 -0.15210270288E+04  0.15210270288E+04  0.00000000000E+00 0.  1.
         24    2    1    2    0    0 -0.14842760746E+02  0.44796598531E+03  0.11311056318E+03  0.46954704482E+03  0.82380800228E+02 0.  0.
        254    2    1    2    0    0  0.14842760746E+02 -0.44796598531E+03 -0.11544555032E+04  0.15311620727E+04  0.90044208715E+03 0.  0.
         23    2    4    4    0    0  0.40207818950E+02 -0.47192021203E+03 -0.12827316216E+04  0.13704635016E+04  0.91893638542E+02 0.  0.
         23    2    4    4    0    0 -0.25365058204E+02  0.23954226719E+02  0.12827611841E+03  0.16069857108E+03  0.90288853343E+02 0.  0.
          4    1    3    3  502    0 -0.46959290978E+02  0.32310859142E+03  0.88665917112E+02  0.33832821596E+03  0.00000000000E+00 0. -1.
         -3    1    3    3    0  502  0.32116530232E+02  0.12485739390E+03  0.24444646070E+02  0.13121882885E+03  0.00000000000E+00 0.  1.
         13    1    5    5    0    0  0.50027944859E+02 -0.26983327323E+03 -0.83997389425E+03  0.88366788650E+03  0.00000000000E+00 0.  1.
        -13    1    5    5    0    0 -0.98201259085E+01 -0.20208693881E+03 -0.44275772740E+03  0.48679561510E+03  0.00000000000E+00 0. -1.
          1    1    6    6  503    0  0.23698450885E+02  0.40607899934E+01  0.95388776658E+02  0.98372380788E+02  0.00000000000E+00 0. -1.
         -1    1    6    6    0  503 -0.49063509089E+02  0.19893436726E+02  0.32887341752E+02  0.62326190293E+02  0.00000000000E+00 0.  1.
<mgrwt>
<rscale>  0 0.17083436E+04</rscale>
<asrwt>0</asrwt>
<pdfrwt beam="1">  1        2 0.73797246E-01 0.17083436E+04</pdfrwt>
<pdfrwt beam="2">  1       -1 0.23400415E+00 0.17083436E+04</pdfrwt>
<totfact> 0.62370526E+00</totfact>
</mgrwt>
</event>
<event>
12    7  0.1707730E-007  0.1883701E+04  0.7818608E-02  0.8663012E-01
         -1   -1    0    0    0  501 -0.00000000000E+00  0.00000000000E+00  0.21782544707E+03  0.21782544707E+03  0.00000000000E+00 0.  1.
          2   -1    0    0  501    0  0.00000000000E+00 -0.00000000000E+00 -0.40724440289E+04  0.40724440289E+04  0.00000000000E+00 0. -1.
         24    2    1    2    0    0 -0.40537057047E+03  0.45171511580E+03 -0.59513200846E+03  0.85465491520E+03  0.88775398237E+02 0.  0.
        254    2    1    2    0    0  0.40537057047E+03 -0.45171511580E+03 -0.32594865734E+04  0.34356145608E+04  0.90045701892E+03 0.  0.
         23    2    4    4    0    0  0.18152704918E+03 -0.29527837954E+03 -0.30683216706E+04  0.30891954914E+04  0.91594314727E+02 0.  0.
         23    2    4    4    0    0  0.22384352129E+03 -0.15643673625E+03 -0.19116490275E+03  0.34641906939E+03  0.94253791027E+02 0.  0.
          2    1    3    3  502    0 -0.41044703659E+02  0.31380121952E+02 -0.87371517675E+02  0.10150449179E+03  0.00000000000E+00 0. -1.
         -1    1    3    3    0  502 -0.36432586681E+03  0.42033499385E+03 -0.50776049079E+03  0.75315042341E+03  0.00000000000E+00 0.  1.
         13    1    5    5    0    0  0.11311039835E+03 -0.98652196481E+02 -0.12304418326E+04  0.12395617457E+04  0.00000000000E+00 0.  1.
        -13    1    5    5    0    0  0.68416650829E+02 -0.19662618306E+03 -0.18378798381E+04  0.18496337457E+04  0.00000000000E+00 0. -1.
          4    1    6    6  503    0  0.18286204193E+03 -0.75838252503E+02 -0.12150971192E+03  0.23228124550E+03  0.00000000000E+00 0. -1.
         -4    1    6    6    0  503  0.40981479367E+02 -0.80598483751E+02 -0.69655190831E+02  0.11413782390E+03  0.00000000000E+00 0.  1.
<mgrwt>
<rscale>  0 0.18837006E+04</rscale>
<asrwt>0</asrwt>
<pdfrwt beam="1">  1        2 0.62652985E+00 0.18837006E+04</pdfrwt>
<pdfrwt beam="2">  1       -1 0.33511607E-01 0.18837006E+04</pdfrwt>
<totfact> 0.27085115E+00</totfact>
</mgrwt>
</event>
<event>
12    7  0.1707730E-007  0.1708514E+04  0.7818608E-02  0.8756524E-01
         -1   -1    0    0    0  501 -0.00000000000E+00  0.00000000000E+00  0.38417573967E+03  0.38417573967E+03  0.00000000000E+00 0.  1.
          2   -1    0    0  501    0  0.00000000000E+00 -0.00000000000E+00 -0.18995337828E+04  0.18995337828E+04  0.00000000000E+00 0. -1.
         24    2    1    2    0    0 -0.22472111711E+03 -0.40460906736E+03  0.14899912400E+01  0.47009282335E+03  0.82322321518E+02 0.  0.
        254    2    1    2    0    0  0.22472111711E+03  0.40460906736E+03 -0.15168480343E+04  0.18136166991E+04  0.87986902096E+03 0.  0.
         23    2    4    4    0    0  0.16289895738E+03  0.62159848111E+03 -0.14015762322E+04  0.15447507206E+04  0.94435756180E+02 0.  0.
         23    2    4    4    0    0  0.61822159732E+02 -0.21698941375E+03 -0.11527180213E+03  0.26886597849E+03  0.89971889565E+02 0.  0.
          4    1    3    3  502    0 -0.10951794757E+03 -0.14704040759E+03 -0.31436627218E+02  0.18601968669E+03  0.00000000000E+00 0. -1.
         -3    1    3    3    0  502 -0.11520316955E+03 -0.25756865977E+03  0.32926618458E+02  0.28407313666E+03  0.00000000000E+00 0.  1.
         13    1    5    5    0    0  0.15790786586E+03  0.50406964357E+03 -0.10781275447E+04  0.12005749049E+04  0.00000000000E+00 0.  1.
        -13    1    5    5    0    0  0.49910915253E+01  0.11752883754E+03 -0.32344868748E+03  0.34417581566E+03  0.00000000000E+00 0. -1.
          4    1    6    6  503    0 -0.14807529368E+02 -0.98854740413E+01  0.34706244368E+01  0.18139204971E+02  0.00000000000E+00 0. -1.
         -4    1    6    6    0  503  0.76629689100E+02 -0.20710393971E+03 -0.11874242657E+03  0.25072677352E+03  0.00000000000E+00 0.  1.
<mgrwt>
<rscale>  0 0.17085137E+04</rscale>
<asrwt>0</asrwt>
<pdfrwt beam="1">  1        2 0.29223597E+00 0.17085137E+04</pdfrwt>
<pdfrwt beam="2">  1       -1 0.59103960E-01 0.17085137E+04</pdfrwt>
<totfact> 0.23878902E+01</totfact>
</mgrwt>
</event>
<event>
12    7  0.1707730E-007  0.1427883E+04  0.7818608E-02  0.8933879E-01
         -1   -1    0    0    0  501 -0.00000000000E+00  0.00000000000E+00  0.22774817950E+03  0.22774817950E+03  0.00000000000E+00 0.  1.
          2   -1    0    0  501    0  0.00000000000E+00 -0.00000000000E+00 -0.22380534913E+04  0.22380534913E+04  0.00000000000E+00 0. -1.
         24    2    1    2    0    0  0.27548235104E+03 -0.28445484606E+03 -0.33047020533E+03  0.52286067764E+03  0.85834995399E+02 0.  0.
        254    2    1    2    0    0 -0.27548235104E+03  0.28445484606E+03 -0.16798351065E+04  0.19429409932E+04  0.89239488611E+03 0.  0.
         23    2    4    4    0    0 -0.15440066749E+02 -0.70542051406E+02 -0.14164557600E+04  0.14211819235E+04  0.90534872645E+02 0.  0.
         23    2    4    4    0    0 -0.26004228429E+03  0.35499689746E+03 -0.26337934650E+03  0.52175906961E+03  0.96015934785E+02 0.  0.
          2    1    3    3  502    0  0.81591248955E+01 -0.28179547893E+02 -0.48387767148E+01  0.29733348258E+02  0.00000000000E+00 0. -1.
         -1    1    3    3    0  502  0.26732322615E+03 -0.25627529817E+03 -0.32563142861E+03  0.49312732938E+03  0.00000000000E+00 0.  1.
         13    1    5    5    0    0  0.36255531607E+02 -0.40400611147E+02 -0.55419345616E+03  0.55684563373E+03  0.00000000000E+00 0. -1.
        -13    1    5    5    0    0 -0.51695598356E+02 -0.30141440259E+02 -0.86226230381E+03  0.86433628981E+03  0.00000000000E+00 0.  1.
          2    1    6    6  503    0 -0.21594992388E+02  0.93299412761E+02 -0.45244467233E+02  0.10591593805E+03  0.00000000000E+00 0. -1.
         -2    1    6    6    0  503 -0.23844729190E+03  0.26169748470E+03 -0.21813487927E+03  0.41584313156E+03  0.00000000000E+00 0.  1.
<mgrwt>
<rscale>  0 0.14278832E+04</rscale>
<asrwt>0</asrwt>
<pdfrwt beam="1">  1        2 0.34431591E+00 0.14278832E+04</pdfrwt>
<pdfrwt beam="2">  1       -1 0.35038183E-01 0.14278832E+04</pdfrwt>
<totfact> 0.42180450E+01</totfact>
</mgrwt>
</event>
<event>
12    7  0.1707730E-007  0.2836989E+04  0.7818608E-02  0.8291876E-01
         -1   -1    0    0    0  501 -0.00000000000E+00  0.00000000000E+00  0.14327946326E+04  0.14327946326E+04  0.00000000000E+00 0.  1.
          2   -1    0    0  501    0  0.00000000000E+00 -0.00000000000E+00 -0.14043373564E+04  0.14043373564E+04  0.00000000000E+00 0. -1.
         24    2    1    2    0    0 -0.11137929052E+04 -0.17144837463E+03 -0.58461291750E+03  0.12721152123E+04  0.81090500063E+02 0.  0.
        254    2    1    2    0    0  0.11137929052E+04  0.17144837463E+03  0.61307019367E+03  0.15650167767E+04  0.89637786012E+03 0.  0.
         23    2    4    4    0    0  0.64545304590E+03  0.32543991811E+03  0.74936235808E+03  0.10454185302E+04  0.93995663710E+02 0.  0.
         23    2    4    4    0    0  0.46833985928E+03 -0.15399154348E+03 -0.13629216441E+03  0.51959824648E+03  0.91384705576E+02 0.  0.
          2    1    3    3  502    0 -0.84957151975E+03 -0.14173295225E+03 -0.40916846201E+03  0.95356112925E+03  0.00000000000E+00 0. -1.
         -1    1    3    3    0  502 -0.26422138543E+03 -0.29715422376E+02 -0.17544445549E+03  0.31855408301E+03  0.00000000000E+00 0.  1.
         13    1    5    5    0    0  0.50051868316E+03  0.20650098447E+03  0.55449630792E+03  0.77500178340E+03  0.00000000000E+00 0. -1.
        -13    1    5    5    0    0  0.14493436274E+03  0.11893893364E+03  0.19486605016E+03  0.27041674679E+03  0.00000000000E+00 0.  1.
          3    1    6    6  503    0  0.45329076665E+03 -0.12832523134E+03 -0.13382190426E+03  0.48974297973E+03  0.00000000000E+00 0. -1.
         -3    1    6    6    0  503  0.15049092624E+02 -0.25666312140E+02 -0.24702601506E+01  0.29855266753E+02  0.00000000000E+00 0.  1.
<mgrwt>
<rscale>  0 0.28369893E+04</rscale>
<asrwt>0</asrwt>
<pdfrwt beam="1">  1        2 0.21605190E+00 0.28369893E+04</pdfrwt>
<pdfrwt beam="2">  1       -1 0.22042994E+00 0.28369893E+04</pdfrwt>
<totfact> 0.15542051E+00</totfact>
</mgrwt>
</event>
<event>
12    7  0.1707730E-007  0.5133543E+04  0.7818608E-02  0.7808231E-01
         -1   -1    0    0    0  501 -0.00000000000E+00  0.00000000000E+00  0.19384814690E+04  0.19384814690E+04  0.00000000000E+00 0.  1.
          2   -1    0    0  501    0  0.00000000000E+00 -0.00000000000E+00 -0.33986988476E+04  0.33986988476E+04  0.00000000000E+00 0. -1.
         24    2    1    2    0    0  0.22856324680E+04  0.66098300366E+02  0.30875254135E+03  0.23089127457E+04  0.85235974650E+02 0.  0.
        254    2    1    2    0    0 -0.22856324680E+04 -0.66098300366E+02 -0.17689699200E+04  0.30282675709E+04  0.90147941698E+03 0.  0.
         23    2    4    4    0    0 -0.14804931682E+04  0.15856458522E+03 -0.64859917349E+03  0.16266277137E+04  0.90741845151E+02 0.  0.
         23    2    4    4    0    0 -0.80513929978E+03 -0.22466288559E+03 -0.11203707465E+04  0.14016398572E+04  0.10315510371E+03 0.  0.
          2    1    3    3  502    0  0.20659666976E+03 -0.80864411602E+01  0.48220523793E+02  0.21230354072E+03  0.00000000000E+00 0. -1.
         -1    1    3    3    0  502  0.20790357982E+04  0.74184741526E+02  0.26053201755E+03  0.20966092049E+04  0.00000000000E+00 0.  1.
         13    1    5    5    0    0 -0.93050552666E+02 -0.90546063413E+00 -0.20382665004E+02  0.95261105616E+02  0.00000000000E+00 0. -1.
        -13    1    5    5    0    0 -0.13874426155E+04  0.15947004585E+03 -0.62821650849E+03  0.15313666081E+04  0.00000000000E+00 0.  1.
          3    1    6    6  503    0 -0.10687944026E+03  0.35760160082E+01 -0.12423606048E+03  0.16392254685E+03  0.00000000000E+00 0. -1.
         -3    1    6    6    0  503 -0.69825985952E+03 -0.22823890159E+03 -0.99613468603E+03  0.12377173103E+04  0.00000000000E+00 0.  1.
<mgrwt>
<rscale>  0 0.51335425E+04</rscale>
<asrwt>0</asrwt>
<pdfrwt beam="1">  1        2 0.52287675E+00 0.51335425E+04</pdfrwt>
<pdfrwt beam="2">  1       -1 0.29822792E+00 0.51335425E+04</pdfrwt>
<totfact> 0.26470964E-02</totfact>
</mgrwt>
</event>
<event>
12    7  0.1707730E-007  0.1576564E+04  0.7818608E-02  0.8835076E-01
          2   -1    0    0  501    0  0.00000000000E+00  0.00000000000E+00  0.42311140584E+03  0.42311140584E+03  0.00000000000E+00 0. -1.
         -1   -1    0    0    0  501 -0.00000000000E+00 -0.00000000000E+00 -0.14686175390E+04  0.14686175390E+04  0.00000000000E+00 0.  1.
         24    2    1    2    0    0 -0.41395786375E+03 -0.24423460326E+03 -0.11220009137E+03  0.49978629754E+03  0.78650036977E+02 0.  0.
        254    2    1    2    0    0  0.41395786375E+03  0.24423460326E+03 -0.93330604182E+03  0.13919426473E+04  0.91401997319E+03 0.  0.
         23    2    4    4    0    0  0.28282873945E+03 -0.23949200617E+03 -0.67700739041E+02  0.38765428481E+03  0.91345156328E+02 0.  0.
         23    2    4    4    0    0  0.13112912430E+03  0.48372660943E+03 -0.86560530278E+03  0.10042883625E+04  0.90201413472E+02 0.  0.
          2    1    3    3  502    0 -0.17049211786E+03 -0.97392925224E+02 -0.85689602888E+02  0.21423270567E+03  0.00000000000E+00 0. -1.
         -1    1    3    3    0  502 -0.24346574589E+03 -0.14684167804E+03 -0.26510488479E+02  0.28555359187E+03  0.00000000000E+00 0.  1.
         13    1    5    5    0    0  0.10480116356E+03 -0.42163389464E+02 -0.42498377394E+02  0.12069443805E+03  0.00000000000E+00 0. -1.
        -13    1    5    5    0    0  0.17802757589E+03 -0.19732861671E+03 -0.25202361647E+02  0.26695984676E+03  0.00000000000E+00 0.  1.
          4    1    6    6  503    0 -0.13556136799E+01  0.11079882615E+03 -0.23443584366E+03  0.25930364895E+03  0.00000000000E+00 0. -1.
         -4    1    6    6    0  503  0.13248473798E+03  0.37292778328E+03 -0.63116945912E+03  0.74498471358E+03  0.00000000000E+00 0.  1.
<mgrwt>
<rscale>  0 0.15765644E+04</rscale>
<asrwt>0</asrwt>
<pdfrwt beam="1">  1        2 0.65094062E-01 0.15765644E+04</pdfrwt>
<pdfrwt beam="2">  1       -1 0.22594116E+00 0.15765644E+04</pdfrwt>
<totfact> 0.82338969E+00</totfact>
</mgrwt>
</event>
<event>
12    7  0.1707730E-007  0.1274567E+04  0.7818608E-02  0.9049981E-01
          2   -1    0    0  501    0  0.00000000000E+00  0.00000000000E+00  0.27154098698E+04  0.27154098698E+04  0.00000000000E+00 0. -1.
         -1   -1    0    0    0  501 -0.00000000000E+00 -0.00000000000E+00 -0.14956495397E+03  0.14956495397E+03  0.00000000000E+00 0.  1.
         24    2    1    2    0    0 -0.59841329924E+02 -0.19493413981E+02  0.13158768186E+04  0.13219009568E+04  0.10922160940E+03 0.  0.
        254    2    1    2    0    0  0.59841329924E+02  0.19493413981E+02  0.12499680972E+04  0.15430738669E+04  0.90260497273E+03 0.  0.
         23    2    4    4    0    0  0.29033211457E+03  0.29752201915E+02  0.12602731870E+04  0.12967525577E+04  0.90004219935E+02 0.  0.
         23    2    4    4    0    0 -0.23049078465E+03 -0.10258787934E+02 -0.10305089799E+02  0.24632130928E+03  0.85654818849E+02 0.  0.
          2    1    3    3  502    0 -0.51037779430E+02 -0.41421886968E+02  0.12531226764E+04  0.12548454366E+04  0.00000000000E+00 0. -1.
         -1    1    3    3    0  502 -0.88035504934E+01  0.21928472987E+02  0.62754142202E+02  0.67055520223E+02  0.00000000000E+00 0.  1.
         13    1    5    5    0    0  0.10191858372E+03 -0.12278319947E+02  0.60454534201E+03  0.61319917269E+03  0.00000000000E+00 0. -1.
        -13    1    5    5    0    0  0.18841353085E+03  0.42030521862E+02  0.65572784502E+03  0.68355338497E+03  0.00000000000E+00 0.  1.
          1    1    6    6  503    0 -0.97891859028E+02 -0.21279663974E+02 -0.43456336272E+02  0.10919749688E+03  0.00000000000E+00 0. -1.
         -1    1    6    6    0  503 -0.13259892562E+03  0.11020876040E+02  0.33151246473E+02  0.13712381240E+03  0.00000000000E+00 0.  1.
<mgrwt>
<rscale>  0 0.12745668E+04</rscale>
<asrwt>0</asrwt>
<pdfrwt beam="1">  1        2 0.41775533E+00 0.12745668E+04</pdfrwt>
<pdfrwt beam="2">  1       -1 0.23009995E-01 0.12745668E+04</pdfrwt>
<totfact> 0.47297450E+01</totfact>
</mgrwt>
</event>
<event>
12    7  0.1707730E-007  0.5162772E+04  0.7818608E-02  0.7803877E-01
          2   -1    0    0  501    0  0.00000000000E+00  0.00000000000E+00  0.34083921313E+04  0.34083921313E+04  0.00000000000E+00 0. -1.
         -1   -1    0    0    0  501 -0.00000000000E+00 -0.00000000000E+00 -0.19550428215E+04  0.19550428215E+04  0.00000000000E+00 0.  1.
         24    2    1    2    0    0 -0.10821811244E+04 -0.98519857010E+03 -0.14041485484E+04  0.20297079759E+04  0.79681322752E+02 0.  0.
        254    2    1    2    0    0  0.10821811244E+04  0.98519857010E+03  0.28574978582E+04  0.33337269769E+04  0.89816999397E+03 0.  0.
         23    2    4    4    0    0 -0.52853539487E+02  0.13428768544E+03  0.88996648795E+03  0.90637959111E+03  0.93042648316E+02 0.  0.
         23    2    4    4    0    0  0.11350346639E+04  0.85091088466E+03  0.19675313703E+04  0.24273473858E+04  0.92101120294E+02 0.  0.
          4    1    3    3  502    0 -0.29114577418E+03 -0.22658074956E+03 -0.32672326310E+03  0.49280096240E+03  0.00000000000E+00 0. -1.
         -3    1    3    3    0  502 -0.79103535018E+03 -0.75861782054E+03 -0.10774252853E+04  0.15369070135E+04  0.00000000000E+00 0.  1.
         13    1    5    5    0    0  0.18515170047E+02 -0.11357924178E+01  0.10508180898E+03  0.10670655146E+03  0.00000000000E+00 0. -1.
        -13    1    5    5    0    0 -0.71368709534E+02  0.13542347786E+03  0.78488467897E+03  0.79967303965E+03  0.00000000000E+00 0.  1.
          3    1    6    6  503    0  0.39146376458E+03  0.32760300836E+03  0.64880242802E+03  0.82553752227E+03  0.00000000000E+00 0. -1.
         -3    1    6    6    0  503  0.74357089927E+03  0.52330787630E+03  0.13187289423E+04  0.16018098635E+04  0.00000000000E+00 0.  1.
<mgrwt>
<rscale>  0 0.51627716E+04</rscale>
<asrwt>0</asrwt>
<pdfrwt beam="1">  1        2 0.52436802E+00 0.51627716E+04</pdfrwt>
<pdfrwt beam="2">  1       -1 0.30077582E+00 0.51627716E+04</pdfrwt>
<totfact> 0.25038325E-02</totfact>
</mgrwt>
</event>
<event>
12    7  0.1707730E-007  0.1544327E+04  0.7818608E-02  0.8855500E-01
          2   -1    0    0  501    0  0.00000000000E+00  0.00000000000E+00  0.98300710261E+03  0.98300710261E+03  0.00000000000E+00 0. -1.
         -1   -1    0    0    0  501 -0.00000000000E+00 -0.00000000000E+00 -0.60654315315E+03  0.60654315315E+03  0.00000000000E+00 0.  1.
         24    2    1    2    0    0  0.14326404920E+03  0.28245258494E+03 -0.27264056432E+03  0.42602407153E+03  0.82822591598E+02 0.  0.
        254    2    1    2    0    0 -0.14326404920E+03 -0.28245258494E+03  0.64910451378E+03  0.11635261842E+04  0.91222390950E+03 0.  0.
         23    2    4    4    0    0 -0.10839179927E+02  0.20502737765E+02  0.78844677504E+03  0.79404682952E+03  0.91237055682E+02 0.  0.
         23    2    4    4    0    0 -0.13242486927E+03 -0.30295532270E+03 -0.13934226126E+03  0.36947935471E+03  0.88206883116E+02 0.  0.
          2    1    3    3  502    0  0.10795137327E+03  0.17520300586E+03 -0.12731591411E+03  0.24198953332E+03  0.00000000000E+00 0. -1.
         -1    1    3    3    0  502  0.35312675930E+02  0.10724957908E+03 -0.14532465021E+03  0.18403453821E+03  0.00000000000E+00 0.  1.
         13    1    5    5    0    0  0.36899442053E+02 -0.41784336463E+01  0.22511090872E+03  0.22815334614E+03  0.00000000000E+00 0. -1.
        -13    1    5    5    0    0 -0.47738621981E+02  0.24681171411E+02  0.56333586632E+03  0.56589348338E+03  0.00000000000E+00 0.  1.
          3    1    6    6  503    0 -0.28547760758E+02 -0.68449192128E+02 -0.74078394985E+02  0.10482306593E+03  0.00000000000E+00 0. -1.
         -3    1    6    6    0  503 -0.10387710852E+03 -0.23450613057E+03 -0.65263866273E+02  0.26465628878E+03  0.00000000000E+00 0.  1.
<mgrwt>
<rscale>  0 0.15443267E+04</rscale>
<asrwt>0</asrwt>
<pdfrwt beam="1">  1        2 0.15123186E+00 0.15443267E+04</pdfrwt>
<pdfrwt beam="2">  1       -1 0.93314331E-01 0.15443267E+04</pdfrwt>
<totfact> 0.31646057E+01</totfact>
</mgrwt>
</event>
<event>
12    7  0.1707730E-007  0.2205281E+04  0.7818608E-02  0.8516233E-01
         -1   -1    0    0    0  501 -0.00000000000E+00  0.00000000000E+00  0.12100024101E+04  0.12100024101E+04  0.00000000000E+00 0.  1.
          2   -1    0    0  501    0  0.00000000000E+00 -0.00000000000E+00 -0.10048047098E+04  0.10048047098E+04  0.00000000000E+00 0. -1.
         24    2    1    2    0    0 -0.18343533974E+03 -0.62230720955E+03  0.73388490691E+03  0.98309075796E+03  0.83460139372E+02 0.  0.
        254    2    1    2    0    0  0.18343533974E+03  0.62230720955E+03 -0.52868720667E+03  0.12317163620E+04  0.90371469331E+03 0.  0.
         23    2    4    4    0    0 -0.42319184559E+02 -0.21632443113E+03 -0.10945178177E+03  0.26257981664E+03  0.91549411178E+02 0.  0.
         23    2    4    4    0    0  0.22575452430E+03  0.83863164068E+03 -0.41923542489E+03  0.96913654532E+03  0.95912293226E+02 0.  0.
          2    1    3    3  502    0 -0.97398911180E+02 -0.40237973212E+03  0.41407634748E+03  0.58553840033E+03  0.00000000000E+00 0. -1.
         -1    1    3    3    0  502 -0.86036428560E+02 -0.21992747743E+03  0.31980855943E+03  0.39755235763E+03  0.00000000000E+00 0.  1.
         13    1    5    5    0    0 -0.13339932692E+02 -0.20105608091E+03 -0.74897773266E+02  0.21496785321E+03  0.00000000000E+00 0. -1.
        -13    1    5    5    0    0 -0.28979251867E+02 -0.15268350221E+02 -0.34554008509E+02  0.47611963426E+02  0.00000000000E+00 0.  1.
          4    1    6    6  503    0  0.63451863143E+02  0.40995151621E+03 -0.18190143037E+03  0.45296193543E+03  0.00000000000E+00 0. -1.
         -4    1    6    6    0  503  0.16230266116E+03  0.42868012447E+03 -0.23733399453E+03  0.51617460989E+03  0.00000000000E+00 0.  1.
<mgrwt>
<rscale>  0 0.22052810E+04</rscale>
<asrwt>0</asrwt>
<pdfrwt beam="1">  1        2 0.15458534E+00 0.22052810E+04</pdfrwt>
<pdfrwt beam="2">  1       -1 0.18615422E+00 0.22052810E+04</pdfrwt>
<totfact> 0.49014760E+00</totfact>
</mgrwt>
</event>
<event>
12    7  0.1707730E-007  0.3033032E+04  0.7818608E-02  0.8234361E-01
          2   -1    0    0  501    0  0.00000000000E+00  0.00000000000E+00  0.23541782160E+04  0.23541782160E+04  0.00000000000E+00 0. -1.
         -1   -1    0    0    0  501 -0.00000000000E+00 -0.00000000000E+00 -0.97691001876E+03  0.97691001876E+03  0.00000000000E+00 0.  1.
         24    2    1    2    0    0  0.22371780858E+03  0.98726305551E+03 -0.44939861358E+03  0.11105018768E+04  0.80729832023E+02 0.  0.
        254    2    1    2    0    0 -0.22371780858E+03 -0.98726305551E+03  0.18266668108E+04  0.22205863580E+04  0.75468810573E+03 0.  0.
         23    2    4    4    0    0  0.24334956772E+03 -0.27232448904E+03  0.36348862256E+03  0.52419887510E+03  0.96337129285E+02 0.  0.
         23    2    4    4    0    0 -0.46706737630E+03 -0.71493856647E+03  0.14631781882E+04  0.16963874829E+04  0.86896454041E+02 0.  0.
          4    1    3    3  502    0  0.10715736396E+03  0.33314858028E+03 -0.18010400818E+03  0.39358370260E+03  0.00000000000E+00 0. -1.
         -3    1    3    3    0  502  0.11656044462E+03  0.65411447523E+03 -0.26929460539E+03  0.71691817417E+03  0.00000000000E+00 0.  1.
         13    1    5    5    0    0  0.12817078372E+03 -0.10813051581E+03  0.22436435134E+03  0.28010590925E+03  0.00000000000E+00 0.  1.
        -13    1    5    5    0    0  0.11517878401E+03 -0.16419397323E+03  0.13912427123E+03  0.24409296584E+03  0.00000000000E+00 0. -1.
          3    1    6    6  503    0 -0.13316326259E+03 -0.27465259903E+03  0.55085083502E+03  0.62976435839E+03  0.00000000000E+00 0. -1.
         -3    1    6    6    0  503 -0.33390411371E+03 -0.44028596744E+03  0.91232735322E+03  0.10666231245E+04  0.00000000000E+00 0.  1.
<mgrwt>
<rscale>  0 0.30330317E+04</rscale>
<asrwt>0</asrwt>
<pdfrwt beam="1">  1        2 0.36218126E+00 0.30330317E+04</pdfrwt>
<pdfrwt beam="2">  1       -1 0.15029385E+00 0.30330317E+04</pdfrwt>
<totfact> 0.14221495E+00</totfact>
</mgrwt>
</event>
<event>
12    7  0.1707730E-007  0.1188920E+04  0.7818608E-02  0.9122611E-01
         -1   -1    0    0    0  501 -0.00000000000E+00  0.00000000000E+00  0.27306952051E+03  0.27306952051E+03  0.00000000000E+00 0.  1.
          2   -1    0    0  501    0  0.00000000000E+00 -0.00000000000E+00 -0.12941120072E+04  0.12941120072E+04  0.00000000000E+00 0. -1.
         24    2    1    2    0    0  0.10202112680E+03  0.14898300926E+03 -0.36797935262E+02  0.20061457879E+03  0.79296114797E+02 0.  0.
        254    2    1    2    0    0 -0.10202112680E+03 -0.14898300926E+03 -0.98424455142E+03  0.13665669489E+04  0.93067912920E+03 0.  0.
         23    2    4    4    0    0  0.28249297356E+03 -0.20239950059E+03 -0.88604921309E+03  0.95597781894E+03  0.89680233878E+02 0.  0.
         23    2    4    4    0    0 -0.38451410035E+03  0.53416491328E+02 -0.98195338327E+02  0.41058912998E+03  0.90756235427E+02 0.  0.
          4    1    3    3  502    0  0.17218683969E+02  0.58633704198E+02 -0.45810680932E+02  0.76374163386E+02  0.00000000000E+00 0. -1.
         -3    1    3    3    0  502  0.84802442827E+02  0.90349305062E+02  0.90127456696E+01  0.12424041540E+03  0.00000000000E+00 0.  1.
         13    1    5    5    0    0  0.26407962108E+02 -0.60225230942E+02 -0.17625796774E+03  0.18812583581E+03  0.00000000000E+00 0.  1.
        -13    1    5    5    0    0  0.25608501145E+03 -0.14217426965E+03 -0.70979124535E+03  0.76785198314E+03  0.00000000000E+00 0. -1.
          4    1    6    6  503    0 -0.15552291859E+03  0.66614048930E+02 -0.36828254412E+02  0.17315059932E+03  0.00000000000E+00 0.  1.
         -4    1    6    6    0  503 -0.22899118176E+03 -0.13197557602E+02 -0.61367083915E+02  0.23743853066E+03  0.00000000000E+00 0. -1.
<mgrwt>
<rscale>  0 0.11889198E+04</rscale>
<asrwt>0</asrwt>
<pdfrwt beam="1">  1        2 0.19909416E+00 0.11889198E+04</pdfrwt>
<pdfrwt beam="2">  1       -1 0.42010695E-01 0.11889198E+04</pdfrwt>
<totfact> 0.10430566E+02</totfact>
</mgrwt>
</event>
<event>
12    7  0.1707730E-007  0.2100521E+04  0.7818608E-02  0.8561014E-01
          2   -1    0    0  501    0  0.00000000000E+00  0.00000000000E+00  0.93773422848E+03  0.93773422848E+03  0.00000000000E+00 0. -1.
         -1   -1    0    0    0  501 -0.00000000000E+00 -0.00000000000E+00 -0.11762894163E+04  0.11762894163E+04  0.00000000000E+00 0.  1.
         24    2    1    2    0    0  0.63393471324E+02  0.36478361112E+03  0.67701681737E+03  0.77562454786E+03  0.78459244808E+02 0.  0.
        254    2    1    2    0    0 -0.63393471324E+02 -0.36478361112E+03 -0.91557200520E+03  0.13383990969E+04  0.90330184921E+03 0.  0.
         23    2    4    4    0    0  0.17613525152E+03 -0.80938452998E+00  0.10386217622E+03  0.22568038146E+03  0.95498696304E+02 0.  0.
         23    2    4    4    0    0 -0.23952872285E+03 -0.36397422659E+03 -0.10194341814E+04  0.11127187155E+04  0.95108584256E+02 0.  0.
          4    1    3    3  502    0  0.48603852189E+01  0.21329599931E+03  0.42972844960E+03  0.47977635109E+03  0.00000000000E+00 0. -1.
         -1    1    3    3    0  502  0.58533086105E+02  0.15148761181E+03  0.24728836777E+03  0.29584819677E+03  0.00000000000E+00 0.  1.
         13    1    5    5    0    0  0.12424560301E+03 -0.39216569726E+02  0.43660469652E+02  0.13740868175E+03  0.00000000000E+00 0. -1.
        -13    1    5    5    0    0  0.51889648511E+02  0.38407185196E+02  0.60201706569E+02  0.88271699718E+02  0.00000000000E+00 0.  1.
          4    1    6    6  503    0 -0.16433598716E+03 -0.30385978145E+03 -0.85540028287E+03  0.92252193871E+03  0.00000000000E+00 0.  1.
         -4    1    6    6    0  503 -0.75192735687E+02 -0.60114445139E+02 -0.16403389854E+03  0.19019677675E+03  0.00000000000E+00 0. -1.
<mgrwt>
<rscale>  0 0.21005207E+04</rscale>
<asrwt>0</asrwt>
<pdfrwt beam="1">  1        2 0.14426680E+00 0.21005207E+04</pdfrwt>
<pdfrwt beam="2">  1       -1 0.18096760E+00 0.21005207E+04</pdfrwt>
<totfact> 0.59553532E+00</totfact>
</mgrwt>
</event>
<event>
12    7  0.1707730E-007  0.1656598E+04  0.7818608E-02  0.8786513E-01
         -1   -1    0    0    0  501 -0.00000000000E+00  0.00000000000E+00  0.87019501629E+03  0.87019501629E+03  0.00000000000E+00 0.  1.
          2   -1    0    0  501    0  0.00000000000E+00 -0.00000000000E+00 -0.78842014717E+03  0.78842014717E+03  0.00000000000E+00 0. -1.
         24    2    1    2    0    0  0.35561561827E+03  0.44262758438E+03  0.48774427307E+02  0.57509608086E+03  0.77297548833E+02 0.  0.
        254    2    1    2    0    0 -0.35561561827E+03 -0.44262758438E+03  0.33000441813E+02  0.10835190826E+04  0.92224884212E+03 0.  0.
         23    2    4    4    0    0  0.21423052191E+03 -0.13886682533E+03  0.27659546011E+03  0.38729736139E+03  0.91189286063E+02 0.  0.
         23    2    4    4    0    0 -0.56984614018E+03 -0.30376075904E+03 -0.24359501830E+03  0.69622172121E+03  0.91602019304E+02 0.  0.
          4    1    3    3  502    0  0.19240289571E+03  0.18247112532E+03  0.80364842813E+01  0.26529072908E+03  0.00000000000E+00 0. -1.
         -3    1    3    3    0  502  0.16321272255E+03  0.26015645905E+03  0.40737943026E+02  0.30980535178E+03  0.00000000000E+00 0.  1.
         13    1    5    5    0    0  0.10245927221E+03 -0.88512435188E+02  0.20394158848E+03  0.24479486342E+03  0.00000000000E+00 0. -1.
        -13    1    5    5    0    0  0.11177124970E+03 -0.50354390144E+02  0.72653871631E+02  0.14250249797E+03  0.00000000000E+00 0.  1.
          3    1    6    6  503    0 -0.51066622354E+03 -0.28787163317E+03 -0.24393649280E+03  0.63494494373E+03  0.00000000000E+00 0. -1.
         -3    1    6    6    0  503 -0.59179916633E+02 -0.15889125871E+02  0.34147449744E+00  0.61276777481E+02  0.00000000000E+00 0.  1.
<mgrwt>
<rscale>  0 0.16565981E+04</rscale>
<asrwt>0</asrwt>
<pdfrwt beam="1">  1        2 0.12129541E+00 0.16565981E+04</pdfrwt>
<pdfrwt beam="2">  1       -1 0.13387616E+00 0.16565981E+04</pdfrwt>
<totfact> 0.18019313E+01</totfact>
</mgrwt>
</event>
<event>
12    7  0.1707730E-007  0.2072184E+04  0.7818608E-02  0.8573596E-01
         -1   -1    0    0    0  501 -0.00000000000E+00  0.00000000000E+00  0.44406631056E+03  0.44406631056E+03  0.00000000000E+00 0.  1.
          2   -1    0    0  501    0  0.00000000000E+00 -0.00000000000E+00 -0.24174024584E+04  0.24174024584E+04  0.00000000000E+00 0. -1.
         24    2    1    2    0    0 -0.58041278048E+03  0.57870006534E+03 -0.62659134768E+03  0.10347635776E+04  0.79662934349E+02 0.  0.
        254    2    1    2    0    0  0.58041278048E+03 -0.57870006534E+03 -0.13467448002E+04  0.18267051914E+04  0.92269038042E+03 0.  0.
         23    2    4    4    0    0  0.82042945838E+03 -0.43617916564E+03 -0.93143324894E+03  0.13188451138E+04  0.91802921249E+02 0.  0.
         23    2    4    4    0    0 -0.24001667790E+03 -0.14252089970E+03 -0.41531155123E+03  0.50786007755E+03  0.86706177785E+02 0.  0.
          2    1    3    3  502    0 -0.50122412371E+03  0.51434046523E+03 -0.57730383073E+03  0.92143987831E+03  0.00000000000E+00 0. -1.
         -3    1    3    3    0  502 -0.79188656764E+02  0.64359600117E+02 -0.49287516950E+02  0.11332369926E+03  0.00000000000E+00 0.  1.
         13    1    5    5    0    0  0.57612121156E+03 -0.30087466467E+03 -0.70884588062E+03  0.96171913609E+03  0.00000000000E+00 0. -1.
        -13    1    5    5    0    0  0.24430824682E+03 -0.13530450098E+03 -0.22258736831E+03  0.35712597774E+03  0.00000000000E+00 0.  1.
          1    1    6    6  503    0 -0.18207855644E+02  0.10877950968E+02 -0.18893875805E+02  0.28404830000E+02  0.00000000000E+00 0.  1.
         -1    1    6    6    0  503 -0.22180882226E+03 -0.15339885067E+03 -0.39641767542E+03  0.47945524755E+03  0.00000000000E+00 0. -1.
<mgrwt>
<rscale>  0 0.20721843E+04</rscale>
<asrwt>0</asrwt>
<pdfrwt beam="1">  1        2 0.37190807E+00 0.20721843E+04</pdfrwt>
<pdfrwt beam="2">  1       -1 0.68317894E-01 0.20721843E+04</pdfrwt>
<totfact> 0.88602633E+00</totfact>
</mgrwt>
</event>
<event>
12    7  0.1707730E-007  0.1528666E+04  0.7818608E-02  0.8865611E-01
          2   -1    0    0  501    0  0.00000000000E+00  0.00000000000E+00  0.17323238252E+04  0.17323238252E+04  0.00000000000E+00 0. -1.
         -1   -1    0    0    0  501 -0.00000000000E+00 -0.00000000000E+00 -0.33723753050E+03  0.33723753050E+03  0.00000000000E+00 0.  1.
         24    2    1    2    0    0  0.29963847072E+03 -0.39350053475E+03  0.47538806226E+03  0.69063771864E+03  0.79754402254E+02 0.  0.
        254    2    1    2    0    0 -0.29963847072E+03  0.39350053475E+03  0.91969823244E+03  0.13789236371E+04  0.90053299446E+03 0.  0.
         23    2    4    4    0    0 -0.56012698529E+03  0.78469945842E+02  0.34617729076E+03  0.66870703024E+03  0.86200949005E+02 0.  0.
         23    2    4    4    0    0  0.26048851457E+03  0.31503058891E+03  0.57352094169E+03  0.71021660683E+03  0.91557740735E+02 0.  0.
          4    1    3    3  502    0  0.34853909020E+02 -0.30808339729E+02  0.78883587531E+02  0.91578213308E+02  0.00000000000E+00 0. -1.
         -3    1    3    3    0  502  0.26478456170E+03 -0.36269219502E+03  0.39650447473E+03  0.59905950533E+03  0.00000000000E+00 0.  1.
         13    1    5    5    0    0 -0.11785188509E+02  0.10659870270E+02  0.24992169274E+02  0.29616414830E+02  0.00000000000E+00 0. -1.
        -13    1    5    5    0    0 -0.54834179678E+03  0.67810075572E+02  0.32118512148E+03  0.63909061541E+03  0.00000000000E+00 0.  1.
          3    1    6    6  503    0  0.13645785598E+03  0.14416945521E+03  0.20407657941E+03  0.28469778457E+03  0.00000000000E+00 0. -1.
         -3    1    6    6    0  503  0.12403065859E+03  0.17086113370E+03  0.36944436227E+03  0.42551882226E+03  0.00000000000E+00 0.  1.
<mgrwt>
<rscale>  0 0.15286656E+04</rscale>
<asrwt>0</asrwt>
<pdfrwt beam="1">  1        2 0.26651135E+00 0.15286656E+04</pdfrwt>
<pdfrwt beam="2">  1       -1 0.51882698E-01 0.15286656E+04</pdfrwt>
<totfact> 0.38646650E+01</totfact>
</mgrwt>
</event>
<event>
12    7  0.1707730E-007  0.1889356E+04  0.7818608E-02  0.8660173E-01
         -1   -1    0    0    0  501 -0.00000000000E+00  0.00000000000E+00  0.28703734259E+03  0.28703734259E+03  0.00000000000E+00 0.  1.
          2   -1    0    0  501    0  0.00000000000E+00 -0.00000000000E+00 -0.31090622661E+04  0.31090622661E+04  0.00000000000E+00 0. -1.
         24    2    1    2    0    0  0.37437140057E+03  0.34827514573E+03 -0.20117276378E+04  0.20772398005E+04  0.80172174608E+02 0.  0.
        254    2    1    2    0    0 -0.37437140057E+03 -0.34827514573E+03 -0.81029728575E+03  0.13188598082E+04  0.90628912586E+03 0.  0.
         23    2    4    4    0    0  0.12953950402E+03  0.22177544414E+03 -0.22545611454E+03  0.35429344226E+03  0.93426724872E+02 0.  0.
         23    2    4    4    0    0 -0.50391090460E+03 -0.57005058987E+03 -0.58484117121E+03  0.96456636592E+03  0.97289279683E+02 0.  0.
          2    1    3    3  502    0  0.20523338376E+03  0.20557229037E+03 -0.12923420031E+04  0.13245861849E+04  0.00000000000E+00 0. -1.
         -3    1    3    3    0  502  0.16913801682E+03  0.14270285537E+03 -0.71938563469E+03  0.75265361559E+03  0.00000000000E+00 0.  1.
         13    1    5    5    0    0  0.97634058785E+02  0.22066253900E+03 -0.19632878180E+03  0.31107773324E+03  0.00000000000E+00 0. -1.
        -13    1    5    5    0    0  0.31905445240E+02  0.11129051355E+01 -0.29127332737E+02  0.43215709021E+02  0.00000000000E+00 0.  1.
          1    1    6    6  503    0 -0.47365845154E+03 -0.55861268209E+03 -0.57376485914E+03  0.93037979928E+03  0.00000000000E+00 0. -1.
         -1    1    6    6    0  503 -0.30252453052E+02 -0.11437907778E+02 -0.11076312070E+02  0.34186566647E+02  0.00000000000E+00 0.  1.
<mgrwt>
<rscale>  0 0.18893565E+04</rscale>
<asrwt>0</asrwt>
<pdfrwt beam="1">  1        2 0.47831727E+00 0.18893565E+04</pdfrwt>
<pdfrwt beam="2">  1       -1 0.44159591E-01 0.18893565E+04</pdfrwt>
<totfact> 0.80686429E+00</totfact>
</mgrwt>
</event>
<event>
12    7  0.1707730E-007  0.1467432E+04  0.7818608E-02  0.8906404E-01
         -1   -1    0    0    0  501 -0.00000000000E+00  0.00000000000E+00  0.75218679268E+03  0.75218679268E+03  0.00000000000E+00 0.  1.
          2   -1    0    0  501    0  0.00000000000E+00 -0.00000000000E+00 -0.71569853467E+03  0.71569853467E+03  0.00000000000E+00 0. -1.
         24    2    1    2    0    0  0.46833403937E+01 -0.44095764393E+03  0.13244383375E+03  0.46644831353E+03  0.74612885437E+02 0.  0.
        254    2    1    2    0    0 -0.46833403937E+01  0.44095764393E+03 -0.95955575734E+02  0.10014370138E+04  0.89398156733E+03 0.  0.
         23    2    4    4    0    0 -0.55887881367E+02  0.70268927231E+03 -0.31081136970E+02  0.71133645826E+03  0.90210038655E+02 0.  0.
         23    2    4    4    0    0  0.51204540973E+02 -0.26173162838E+03 -0.64874438764E+02  0.29010055556E+03  0.93937687991E+02 0.  0.
          2    1    3    3  502    0 -0.17377037891E+02 -0.47523263424E+02 -0.41189224872E+00  0.50602289153E+02  0.00000000000E+00 0. -1.
         -3    1    3    3    0  502  0.22060378284E+02 -0.39343438051E+03  0.13285572600E+03  0.41584602437E+03  0.00000000000E+00 0.  1.
         13    1    5    5    0    0  0.23055482687E+00  0.40990227459E+03 -0.48212920880E+02  0.41272801408E+03  0.00000000000E+00 0.  1.
        -13    1    5    5    0    0 -0.56118436194E+02  0.29278699772E+03  0.17131783910E+02  0.29860844418E+03  0.00000000000E+00 0. -1.
          3    1    6    6  503    0  0.28115406812E+02 -0.33060904614E+02 -0.39830933664E+02  0.58906729588E+02  0.00000000000E+00 0. -1.
         -3    1    6    6    0  503  0.23089134161E+02 -0.22867072376E+03 -0.25043505100E+02  0.23119382598E+03  0.00000000000E+00 0.  1.
<mgrwt>
<rscale>  0 0.14674318E+04</rscale>
<asrwt>0</asrwt>
<pdfrwt beam="1">  1        2 0.11010747E+00 0.14674318E+04</pdfrwt>
<pdfrwt beam="2">  1       -1 0.11572104E+00 0.14674318E+04</pdfrwt>
<totfact> 0.29802599E+01</totfact>
</mgrwt>
</event>
<event>
12    7  0.1707730E-007  0.1254800E+04  0.7818608E-02  0.9066198E-01
          2   -1    0    0  501    0  0.00000000000E+00  0.00000000000E+00  0.14129475187E+04  0.14129475187E+04  0.00000000000E+00 0. -1.
         -1   -1    0    0    0  501 -0.00000000000E+00 -0.00000000000E+00 -0.27858836027E+03  0.27858836027E+03  0.00000000000E+00 0.  1.
         24    2    1    2    0    0 -0.13192161426E+03 -0.18434654870E+03  0.50895029959E+03  0.56244958596E+03  0.77020562002E+02 0.  0.
        254    2    1    2    0    0  0.13192161426E+03  0.18434654870E+03  0.62540885887E+03  0.11290862930E+04  0.91231170881E+03 0.  0.
         23    2    4    4    0    0 -0.13653874744E+03  0.47546266916E+02  0.76582226759E+03  0.78456148647E+03  0.90274600322E+02 0.  0.
         23    2    4    4    0    0  0.26846036169E+03  0.13680028179E+03 -0.14041340872E+03  0.34452480657E+03  0.90532502969E+02 0.  0.
          4    1    3    3  502    0 -0.44584842168E+02 -0.79675244134E+02  0.29458869610E+03  0.30841279569E+03  0.00000000000E+00 0. -1.
         -3    1    3    3    0  502 -0.87336772087E+02 -0.10467130457E+03  0.21436160349E+03  0.25403679027E+03  0.00000000000E+00 0.  1.
         13    1    5    5    0    0 -0.18460760190E+02  0.67320056095E+01  0.34567146350E+03  0.34622951960E+03  0.00000000000E+00 0.  1.
        -13    1    5    5    0    0 -0.11807798725E+03  0.40814261307E+02  0.42015080409E+03  0.43833196686E+03  0.00000000000E+00 0. -1.
          2    1    6    6  503    0  0.21884642308E+03  0.85578954683E+02 -0.72158660384E+02  0.24581372347E+03  0.00000000000E+00 0. -1.
         -2    1    6    6    0  503  0.49613938614E+02  0.51221327103E+02 -0.68254748336E+02  0.98711083093E+02  0.00000000000E+00 0.  1.
<mgrwt>
<rscale>  0 0.12548000E+04</rscale>
<asrwt>0</asrwt>
<pdfrwt beam="1">  1        2 0.21737654E+00 0.12548000E+04</pdfrwt>
<pdfrwt beam="2">  1       -1 0.42859749E-01 0.12548000E+04</pdfrwt>
<totfact> 0.85440459E+01</totfact>
</mgrwt>
</event>
<event>
12    7  0.1707730E-007  0.1273540E+04  0.7818608E-02  0.9050816E-01
          2   -1    0    0  501    0  0.00000000000E+00  0.00000000000E+00  0.25328599730E+04  0.25328599730E+04  0.00000000000E+00 0. -1.
         -1   -1    0    0    0  501 -0.00000000000E+00 -0.00000000000E+00 -0.16008617815E+03  0.16008617815E+03  0.00000000000E+00 0.  1.
         24    2    1    2    0    0 -0.10563530941E+02 -0.13058148534E+03  0.11981794565E+04  0.12079585584E+04  0.79791956842E+02 0.  0.
        254    2    1    2    0    0  0.10563530941E+02  0.13058148534E+03  0.11745943383E+04  0.14849875927E+04  0.89908463362E+03 0.  0.
         23    2    4    4    0    0  0.29956754676E+03  0.15528649705E+03  0.92697209770E+02  0.36105208167E+03  0.88945048983E+02 0.  0.
         23    2    4    4    0    0 -0.28900401582E+03 -0.24705011713E+02  0.10818971286E+04  0.11239355111E+04  0.92714494316E+02 0.  0.
          2    1    3    3  502    0 -0.85234046200E+01 -0.84140136941E+02  0.10302026888E+04  0.10336681243E+04  0.00000000000E+00 0. -1.
         -1    1    3    3    0  502 -0.20401263209E+01 -0.46441348397E+02  0.16797676765E+03  0.17429043412E+03  0.00000000000E+00 0.  1.
         13    1    5    5    0    0  0.14214267037E+03  0.57954054702E+02 -0.12090964512E+01  0.15350789267E+03  0.00000000000E+00 0. -1.
        -13    1    5    5    0    0  0.15742487639E+03  0.97332442349E+02  0.93906306221E+02  0.20754418900E+03  0.00000000000E+00 0.  1.
          2    1    6    6  503    0 -0.28789568651E+03 -0.37036748537E+02  0.10061675097E+04  0.10472004129E+04  0.00000000000E+00 0. -1.
         -2    1    6    6    0  503 -0.11083293089E+01  0.12331736823E+02  0.75729618819E+02  0.76735098184E+02  0.00000000000E+00 0.  1.
<mgrwt>
<rscale>  0 0.12735397E+04</rscale>
<asrwt>0</asrwt>
<pdfrwt beam="1">  1        2 0.38967074E+00 0.12735397E+04</pdfrwt>
<pdfrwt beam="2">  1       -1 0.24628645E-01 0.12735397E+04</pdfrwt>
<totfact> 0.53841273E+01</totfact>
</mgrwt>
</event>
<event>
12    7  0.1707730E-007  0.2088908E+04  0.7818608E-02  0.8566145E-01
          2   -1    0    0  501    0  0.00000000000E+00  0.00000000000E+00  0.57998816224E+03  0.57998816224E+03  0.00000000000E+00 0. -1.
         -1   -1    0    0    0  501 -0.00000000000E+00 -0.00000000000E+00 -0.18808735282E+04  0.18808735282E+04  0.00000000000E+00 0.  1.
         24    2    1    2    0    0  0.65439590763E+03  0.69766318688E+02 -0.11657886883E+04  0.13410412384E+04  0.78911305656E+02 0.  0.
        254    2    1    2    0    0 -0.65439590763E+03 -0.69766318688E+02 -0.13509667772E+03  0.11198204521E+04  0.89590478817E+03 0.  0.
         23    2    4    4    0    0 -0.85305386407E+03 -0.11491245821E+03 -0.22814305643E+02  0.86601683809E+03  0.92514340828E+02 0.  0.
         23    2    4    4    0    0  0.19865795644E+03  0.45146139517E+02 -0.11228237208E+03  0.25380361401E+03  0.10151741641E+03 0.  0.
          2    1    3    3  502    0  0.12526395433E+03  0.29617427980E+02 -0.17695285019E+03  0.21881627335E+03  0.00000000000E+00 0. -1.
         -1    1    3    3    0  502  0.52913195330E+03  0.40148890708E+02 -0.98883583809E+03  0.11222249650E+04  0.00000000000E+00 0.  1.
         13    1    5    5    0    0 -0.17726227743E+03 -0.59458087240E+02  0.92401426001E+01  0.18719657949E+03  0.00000000000E+00 0.  1.
        -13    1    5    5    0    0 -0.67579158664E+03 -0.55454370965E+02 -0.32054448243E+02  0.67882025860E+03  0.00000000000E+00 0. -1.
          1    1    6    6  503    0  0.20751039455E+03  0.29450476096E+02 -0.10388724490E+03  0.23392403476E+03  0.00000000000E+00 0. -1.
         -1    1    6    6    0  503 -0.88524381077E+01  0.15695663422E+02 -0.83951271789E+01  0.19879579247E+02  0.00000000000E+00 0.  1.
<mgrwt>
<rscale>  0 0.20889082E+04</rscale>
<asrwt>0</asrwt>
<pdfrwt beam="1">  1        2 0.89228948E-01 0.20889082E+04</pdfrwt>
<pdfrwt beam="2">  1       -1 0.28936516E+00 0.20889082E+04</pdfrwt>
<totfact> 0.21071341E+00</totfact>
</mgrwt>
</event>
<event>
12    7  0.1707730E-007  0.2228686E+04  0.7818608E-02  0.8506582E-01
         -1   -1    0    0    0  501 -0.00000000000E+00  0.00000000000E+00  0.87167693669E+03  0.87167693669E+03  0.00000000000E+00 0.  1.
          2   -1    0    0  501    0  0.00000000000E+00 -0.00000000000E+00 -0.14245654397E+04  0.14245654397E+04  0.00000000000E+00 0. -1.
         24    2    1    2    0    0 -0.86328926873E+03 -0.18713785927E+03  0.63654813912E+02  0.88932892063E+03  0.81025019941E+02 0.  0.
        254    2    1    2    0    0  0.86328926873E+03  0.18713785927E+03 -0.61654331697E+03  0.14069134558E+04  0.90498114376E+03 0.  0.
         23    2    4    4    0    0  0.82134405370E+03  0.42807149564E+03 -0.66104536866E+03  0.11416282939E+04  0.92102779356E+02 0.  0.
         23    2    4    4    0    0  0.41945215027E+02 -0.24093363637E+03  0.44502051695E+02  0.26528516196E+03  0.92668043842E+02 0.  0.
          4    1    3    3  502    0 -0.54777678023E+03 -0.11277647549E+03  0.78953615985E+02  0.56481112583E+03  0.00000000000E+00 0. -1.
         -3    1    3    3    0  502 -0.31551248850E+03 -0.74361383775E+02 -0.15298802073E+02  0.32451779480E+03  0.00000000000E+00 0.  1.
         13    1    5    5    0    0  0.50964383965E+03  0.31076327599E+03 -0.44696529602E+03  0.74571350588E+03  0.00000000000E+00 0. -1.
        -13    1    5    5    0    0  0.31170021405E+03  0.11730821965E+03 -0.21408007264E+03  0.39591478798E+03  0.00000000000E+00 0.  1.
          3    1    6    6  503    0 -0.19443783184E+02 -0.10485933532E+03  0.45633583016E+02  0.11599984831E+03  0.00000000000E+00 0. -1.
         -3    1    6    6    0  503  0.61388998211E+02 -0.13607430105E+03 -0.11315313203E+01  0.14928531365E+03  0.00000000000E+00 0.  1.
<mgrwt>
<rscale>  0 0.22286865E+04</rscale>
<asrwt>0</asrwt>
<pdfrwt beam="1">  1        2 0.21916391E+00 0.22286865E+04</pdfrwt>
<pdfrwt beam="2">  1       -1 0.13410414E+00 0.22286865E+04</pdfrwt>
<totfact> 0.68210632E+00</totfact>
</mgrwt>
</event>
<event>
12    7  0.1707730E-007  0.4020707E+04  0.7818608E-02  0.8000382E-01
         -1   -1    0    0    0  501 -0.00000000000E+00  0.00000000000E+00  0.93065718510E+03  0.93065718510E+03  0.00000000000E+00 0.  1.
          2   -1    0    0  501    0  0.00000000000E+00 -0.00000000000E+00 -0.43426523453E+04  0.43426523453E+04  0.00000000000E+00 0. -1.
         24    2    1    2    0    0 -0.10915938748E+04  0.47465752040E+03  0.34014710777E+03  0.12405904560E+04  0.80546106735E+02 0.  0.
        254    2    1    2    0    0  0.10915938748E+04 -0.47465752040E+03 -0.37521422680E+04  0.40327190744E+04  0.87599919241E+03 0.  0.
         23    2    4    4    0    0  0.11273571489E+04 -0.48643533592E+03 -0.37359099879E+04  0.39335541873E+04  0.90948498608E+02 0.  0.
         23    2    4    4    0    0 -0.35763274133E+02  0.11777815522E+02 -0.16232280113E+02  0.99164887189E+02  0.90290969750E+02 0.  0.
          2    1    3    3  502    0 -0.42837958932E+03  0.18895047200E+03  0.93117688908E+02  0.47737014716E+03  0.00000000000E+00 0. -1.
         -1    1    3    3    0  502 -0.66321428549E+03  0.28570704839E+03  0.24702941886E+03  0.76322030880E+03  0.00000000000E+00 0.  1.
         13    1    5    5    0    0  0.85458487623E+03 -0.34919284908E+03 -0.29150856703E+04  0.30577729513E+04  0.00000000000E+00 0.  1.
        -13    1    5    5    0    0  0.27277227271E+03 -0.13724248684E+03 -0.82082431759E+03  0.87578123598E+03  0.00000000000E+00 0. -1.
          3    1    6    6  503    0 -0.16174487122E+02  0.15087718994E+02 -0.52968280304E+02  0.57401149957E+02  0.00000000000E+00 0. -1.
         -3    1    6    6    0  503 -0.19588787011E+02 -0.33099034718E+01  0.36736000191E+02  0.41763737232E+02  0.00000000000E+00 0.  1.
<mgrwt>
<rscale>  0 0.40207067E+04</rscale>
<asrwt>0</asrwt>
<pdfrwt beam="1">  1        2 0.66810037E+00 0.40207067E+04</pdfrwt>
<pdfrwt beam="2">  1       -1 0.14317803E+00 0.40207067E+04</pdfrwt>
<totfact> 0.60860622E-02</totfact>
</mgrwt>
</event>
<event>
12    7  0.1707730E-007  0.1428518E+04  0.7818608E-02  0.8933430E-01
          2   -1    0    0  501    0  0.00000000000E+00  0.00000000000E+00  0.12405340025E+04  0.12405340025E+04  0.00000000000E+00 0. -1.
         -1   -1    0    0    0  501 -0.00000000000E+00 -0.00000000000E+00 -0.41124721367E+03  0.41124721367E+03  0.00000000000E+00 0.  1.
         24    2    1    2    0    0 -0.30916898821E+03 -0.13646139566E+03  0.54084975467E+03  0.64236545405E+03  0.76861847835E+02 0.  0.
        254    2    1    2    0    0  0.30916898821E+03  0.13646139566E+03  0.28843703412E+03  0.10094157621E+04  0.90637579530E+03 0.  0.
         23    2    4    4    0    0 -0.29440782098E+03  0.90249280132E+02  0.22795748603E+03  0.39393506478E+03  0.91647816158E+02 0.  0.
         23    2    4    4    0    0  0.60357680920E+03  0.46212115525E+02  0.60479548093E+02  0.61548069730E+03  0.93371241741E+02 0.  0.
          4    1    3    3  502    0 -0.24211925628E+03 -0.69688413667E+02  0.39308149405E+03  0.46689535255E+03  0.00000000000E+00 0. -1.
         -3    1    3    3    0  502 -0.67049731929E+02 -0.66772981991E+02  0.14776826062E+03  0.17547010150E+03  0.00000000000E+00 0.  1.
         13    1    5    5    0    0 -0.14796769508E+03  0.11045860726E+02  0.68588114087E+02  0.16346491740E+03  0.00000000000E+00 0.  1.
        -13    1    5    5    0    0 -0.14644012590E+03  0.79203419406E+02  0.15936937194E+03  0.23047014738E+03  0.00000000000E+00 0. -1.
          4    1    6    6  503    0  0.40380975934E+03  0.66295341761E+02  0.66671332887E+02  0.41461121633E+03  0.00000000000E+00 0.  1.
         -4    1    6    6    0  503  0.19976704986E+03 -0.20083226236E+02 -0.61917847940E+01  0.20086948097E+03  0.00000000000E+00 0. -1.
<mgrwt>
<rscale>  0 0.14285183E+04</rscale>
<asrwt>0</asrwt>
<pdfrwt beam="1">  1        2 0.19085138E+00 0.14285183E+04</pdfrwt>
<pdfrwt beam="2">  1       -1 0.63268803E-01 0.14285183E+04</pdfrwt>
<totfact> 0.50272301E+01</totfact>
</mgrwt>
</event>
<event>
12    7  0.1707730E-007  0.1582904E+04  0.7818608E-02  0.8831120E-01
         -1   -1    0    0    0  501 -0.00000000000E+00  0.00000000000E+00  0.70441493214E+03  0.70441493214E+03  0.00000000000E+00 0.  1.
          2   -1    0    0  501    0  0.00000000000E+00 -0.00000000000E+00 -0.88924369102E+03  0.88924369102E+03  0.00000000000E+00 0. -1.
         24    2    1    2    0    0  0.41694751522E+03  0.25035779874E+03 -0.15526754330E+03  0.51799595596E+03  0.87678632238E+02 0.  0.
        254    2    1    2    0    0 -0.41694751522E+03 -0.25035779874E+03 -0.29561215576E+02  0.10756626672E+04  0.95898490618E+03 0.  0.
         23    2    4    4    0    0 -0.54235936620E+02 -0.46349640540E+03 -0.30372746960E+03  0.56527831206E+03  0.97564028513E+02 0.  0.
         23    2    4    4    0    0 -0.36271157860E+03  0.21313860666E+03  0.27416625402E+03  0.51038435513E+03  0.91308817886E+02 0.  0.
          2    1    3    3  502    0  0.94771721349E+02  0.29875776930E+02 -0.44141479810E+01  0.99467210260E+02  0.00000000000E+00 0. -1.
         -1    1    3    3    0  502  0.32217579387E+03  0.22048202181E+03 -0.15085339532E+03  0.41852874570E+03  0.00000000000E+00 0.  1.
         13    1    5    5    0    0 -0.26271053883E+02 -0.40755100142E+02 -0.57660050906E+02  0.75338090832E+02  0.00000000000E+00 0.  1.
        -13    1    5    5    0    0 -0.27964882737E+02 -0.42274130525E+03 -0.24606741869E+03  0.48994022123E+03  0.00000000000E+00 0. -1.
          2    1    6    6  503    0 -0.32223861601E+03  0.18087294013E+03  0.20070004398E+03  0.42051546199E+03  0.00000000000E+00 0. -1.
         -2    1    6    6    0  503 -0.40472962595E+02  0.32265666524E+02  0.73466210042E+02  0.89868893147E+02  0.00000000000E+00 0.  1.
<mgrwt>
<rscale>  0 0.15829043E+04</rscale>
<asrwt>0</asrwt>
<pdfrwt beam="1">  1        2 0.13680672E+00 0.15829043E+04</pdfrwt>
<pdfrwt beam="2">  1       -1 0.10837153E+00 0.15829043E+04</pdfrwt>
<totfact> 0.25841098E+01</totfact>
</mgrwt>
</event>
<event>
12    7  0.1707730E-007  0.1677871E+04  0.7818608E-02  0.8774087E-01
          2   -1    0    0  501    0  0.00000000000E+00  0.00000000000E+00  0.19126033506E+04  0.19126033506E+04  0.00000000000E+00 0. -1.
         -1   -1    0    0    0  501 -0.00000000000E+00 -0.00000000000E+00 -0.36798700304E+03  0.36798700304E+03  0.00000000000E+00 0.  1.
         24    2    1    2    0    0 -0.29474151172E+03 -0.23773526756E+03 -0.24602419924E+02  0.38785205160E+03  0.80207971511E+02 0.  0.
        254    2    1    2    0    0  0.29474151172E+03  0.23773526756E+03  0.15692187675E+04  0.18927383021E+04  0.98824092387E+03 0.  0.
         23    2    4    4    0    0 -0.21029949357E+03  0.43868978632E+03  0.59627587841E+03  0.77473872791E+03  0.89445892730E+02 0.  0.
         23    2    4    4    0    0  0.50504100528E+03 -0.20095451877E+03  0.97294288911E+03  0.11179995742E+04  0.88634342832E+02 0.  0.
          4    1    3    3  502    0 -0.42807022246E+02 -0.35319211085E+01 -0.59994364645E+01  0.43369446137E+02  0.00000000000E+00 0. -1.
         -3    1    3    3    0  502 -0.25193448947E+03 -0.23420334645E+03 -0.18602983459E+02  0.34448260546E+03  0.00000000000E+00 0.  1.
         13    1    5    5    0    0 -0.14611189792E+03  0.38093771099E+03  0.50220995968E+03  0.64705260217E+03  0.00000000000E+00 0. -1.
        -13    1    5    5    0    0 -0.64187595647E+02  0.57752075334E+02  0.94065918732E+02  0.12768612574E+03  0.00000000000E+00 0.  1.
          4    1    6    6  503    0  0.13422259216E+03 -0.92714399797E+02  0.25461850522E+03  0.30239419203E+03  0.00000000000E+00 0. -1.
         -4    1    6    6    0  503  0.37081841313E+03 -0.10824011897E+03  0.71832438389E+03  0.81560538213E+03  0.00000000000E+00 0.  1.
<mgrwt>
<rscale>  0 0.16778715E+04</rscale>
<asrwt>0</asrwt>
<pdfrwt beam="1">  1        2 0.29424666E+00 0.16778715E+04</pdfrwt>
<pdfrwt beam="2">  1       -1 0.56613386E-01 0.16778715E+04</pdfrwt>
<totfact> 0.25619845E+01</totfact>
</mgrwt>
</event>
<event>
12    7  0.1707730E-007  0.1303336E+04  0.7818608E-02  0.9026924E-01
          2   -1    0    0  501    0  0.00000000000E+00  0.00000000000E+00  0.90719223099E+03  0.90719223099E+03  0.00000000000E+00 0. -1.
         -1   -1    0    0    0  501 -0.00000000000E+00 -0.00000000000E+00 -0.46811601732E+03  0.46811601732E+03  0.00000000000E+00 0.  1.
         24    2    1    2    0    0  0.21332391895E+03  0.20914761891E+03 -0.37108996765E+02  0.31566179591E+03  0.94949833422E+02 0.  0.
        254    2    1    2    0    0 -0.21332391895E+03 -0.20914761891E+03  0.47618521043E+03  0.10596464524E+04  0.89824742057E+03 0.  0.
         23    2    4    4    0    0  0.16953998691E+03  0.25917046936E+03  0.87638978665E+02  0.33472351371E+03  0.91902669684E+02 0.  0.
         23    2    4    4    0    0 -0.38286390586E+03 -0.46831808827E+03  0.38854623176E+03  0.72492293869E+03  0.92943480751E+02 0.  0.
          4    1    3    3  502    0  0.77682921166E+02  0.19210692289E+02 -0.11988402166E+02  0.80916059751E+02  0.00000000000E+00 0. -1.
         -3    1    3    3    0  502  0.13564099778E+03  0.18993692662E+03 -0.25120594599E+02  0.23474573616E+03  0.00000000000E+00 0.  1.
         13    1    5    5    0    0 -0.32393550566E+01  0.21802725455E+01 -0.94202571166E+01  0.10197463101E+02  0.00000000000E+00 0. -1.
        -13    1    5    5    0    0  0.17277934197E+03  0.25699019681E+03  0.97059235782E+02  0.32452605061E+03  0.00000000000E+00 0.  1.
          2    1    6    6  503    0 -0.33885763427E+02 -0.10899285802E+02  0.13164070689E+02  0.37951708145E+02  0.00000000000E+00 0. -1.
         -2    1    6    6    0  503 -0.34897814244E+03 -0.45741880246E+03  0.37538216107E+03  0.68697123055E+03  0.00000000000E+00 0.  1.
<mgrwt>
<rscale>  0 0.13033360E+04</rscale>
<asrwt>0</asrwt>
<pdfrwt beam="1">  1        2 0.13956804E+00 0.13033360E+04</pdfrwt>
<pdfrwt beam="2">  1       -1 0.72017849E-01 0.13033360E+04</pdfrwt>
<totfact> 0.63105153E+01</totfact>
</mgrwt>
</event>
<event>
12    7  0.1707730E-007  0.2121897E+04  0.7818608E-02  0.8551659E-01
         -1   -1    0    0    0  501 -0.00000000000E+00  0.00000000000E+00  0.54283292683E+03  0.54283292683E+03  0.00000000000E+00 0.  1.
          2   -1    0    0  501    0  0.00000000000E+00 -0.00000000000E+00 -0.20735871188E+04  0.20735871188E+04  0.00000000000E+00 0. -1.
         24    2    1    2    0    0  0.29121222505E+02 -0.41180117689E+03 -0.15778362968E+04  0.16328875994E+04  0.79537901809E+02 0.  0.
        254    2    1    2    0    0 -0.29121222505E+02  0.41180117689E+03  0.47082104822E+02  0.98353244625E+03  0.89145448193E+03 0.  0.
         23    2    4    4    0    0 -0.19426436257E+03  0.61362160514E+00  0.36979185645E+03  0.42755002931E+03  0.91181091065E+02 0.  0.
         23    2    4    4    0    0  0.16514314007E+03  0.41118755529E+03 -0.32270975163E+03  0.55598241695E+03  0.92883808194E+02 0.  0.
          4    1    3    3  502    0  0.11030541773E+02 -0.39446140556E+03 -0.14579524809E+04  0.15104128276E+04  0.00000000000E+00 0. -1.
         -3    1    3    3    0  502  0.18090680732E+02 -0.17339771335E+02 -0.11988381589E+03  0.12247477174E+03  0.00000000000E+00 0.  1.
         13    1    5    5    0    0 -0.18368987705E+03  0.27169885021E+02  0.32808578005E+03  0.37698866382E+03  0.00000000000E+00 0. -1.
        -13    1    5    5    0    0 -0.10574485521E+02 -0.26556263416E+02  0.41706076403E+02  0.50561365484E+02  0.00000000000E+00 0.  1.
          4    1    6    6  503    0  0.63878386168E+02  0.93320683290E+02 -0.12335382430E+03  0.16734803291E+03  0.00000000000E+00 0. -1.
         -4    1    6    6    0  503  0.10126475390E+03  0.31786687200E+03 -0.19935592733E+03  0.38863438404E+03  0.00000000000E+00 0.  1.
<mgrwt>
<rscale>  0 0.21218967E+04</rscale>
<asrwt>0</asrwt>
<pdfrwt beam="1">  1        2 0.31901340E+00 0.21218967E+04</pdfrwt>
<pdfrwt beam="2">  1       -1 0.83512759E-01 0.21218967E+04</pdfrwt>
<totfact> 0.90540220E+00</totfact>
</mgrwt>
</event>
<event>
12    7  0.1707730E-007  0.2153876E+04  0.7818608E-02  0.8537875E-01
         -1   -1    0    0    0  501 -0.00000000000E+00  0.00000000000E+00  0.18090739304E+04  0.18090739304E+04  0.00000000000E+00 0.  1.
          2   -1    0    0  501    0  0.00000000000E+00 -0.00000000000E+00 -0.64109877973E+03  0.64109877973E+03  0.00000000000E+00 0. -1.
         24    2    1    2    0    0  0.50066443748E+03 -0.31472441807E+03 -0.26813553861E+03  0.65410419595E+03  0.78989200534E+02 0.  0.
        254    2    1    2    0    0 -0.50066443748E+03  0.31472441807E+03  0.14361106893E+04  0.17960685142E+04  0.90207087166E+03 0.  0.
         23    2    4    4    0    0 -0.48788934247E+03  0.57909299684E+03  0.82408851418E+03  0.11228602731E+04  0.91151545627E+02 0.  0.
         23    2    4    4    0    0 -0.12775095016E+02 -0.26436857877E+03  0.61202217513E+03  0.67320824109E+03  0.92651198175E+02 0.  0.
          2    1    3    3  502    0  0.49513177980E+03 -0.31005794216E+03 -0.25164427066E+03  0.63609452586E+03  0.00000000000E+00 0. -1.
         -1    1    3    3    0  502  0.55326576863E+01 -0.46664759088E+01 -0.16491267945E+02  0.18009670094E+02  0.00000000000E+00 0.  1.
         13    1    5    5    0    0 -0.16788357270E+03  0.13567515252E+03  0.23142061379E+03  0.31646191159E+03  0.00000000000E+00 0. -1.
        -13    1    5    5    0    0 -0.32000576977E+03  0.44341784432E+03  0.59266790038E+03  0.80639836154E+03  0.00000000000E+00 0.  1.
          2    1    6    6  503    0 -0.24546143947E+02 -0.26186362069E+03  0.60390255268E+03  0.65869064223E+03  0.00000000000E+00 0.  1.
         -2    1    6    6    0  503  0.11771048931E+02 -0.25049580783E+01  0.81196224492E+01  0.14517598859E+02  0.00000000000E+00 0. -1.
<mgrwt>
<rscale>  0 0.21538757E+04</rscale>
<asrwt>0</asrwt>
<pdfrwt beam="1">  1        2 0.98630582E-01 0.21538757E+04</pdfrwt>
<pdfrwt beam="2">  1       -1 0.27831906E+00 0.21538757E+04</pdfrwt>
<totfact> 0.21864476E+00</totfact>
</mgrwt>
</event>
<event>
12    7  0.1707730E-007  0.1492299E+04  0.7818608E-02  0.8889590E-01
         -1   -1    0    0    0  501 -0.00000000000E+00  0.00000000000E+00  0.19419833781E+03  0.19419833781E+03  0.00000000000E+00 0.  1.
          2   -1    0    0  501    0  0.00000000000E+00 -0.00000000000E+00 -0.28668565865E+04  0.28668565865E+04  0.00000000000E+00 0. -1.
         24    2    1    2    0    0  0.12337482481E+03 -0.31238182629E+03 -0.13306230021E+04  0.13746624512E+04  0.79596030236E+02 0.  0.
        254    2    1    2    0    0 -0.12337482481E+03  0.31238182629E+03 -0.13420352466E+04  0.16863924732E+04  0.96439474165E+03 0.  0.
         23    2    4    4    0    0  0.40984542702E+03  0.86226570680E+02 -0.66106858129E+03  0.78795080187E+03  0.91904850045E+02 0.  0.
         23    2    4    4    0    0 -0.53322025184E+03  0.22615525561E+03 -0.68096666527E+03  0.89844167128E+03  0.89508663711E+02 0.  0.
          4    1    3    3  502    0  0.55107683919E+02 -0.75664729718E+02 -0.48183868832E+03  0.49084674768E+03  0.00000000000E+00 0. -1.
         -3    1    3    3    0  502  0.68267140895E+02 -0.23671709657E+03 -0.84878431382E+03  0.88381570348E+03  0.00000000000E+00 0.  1.
         13    1    5    5    0    0  0.82770009313E+02  0.23538046095E+01 -0.75771726067E+02  0.11223978488E+03  0.00000000000E+00 0. -1.
        -13    1    5    5    0    0  0.32707541771E+03  0.83872766070E+02 -0.58529685522E+03  0.67571101700E+03  0.00000000000E+00 0.  1.
          3    1    6    6  503    0 -0.14263683288E+03  0.40199089907E+02 -0.22940074284E+03  0.27310425434E+03  0.00000000000E+00 0. -1.
         -3    1    6    6    0  503 -0.39058341896E+03  0.18595616570E+03 -0.45156592243E+03  0.62533741694E+03  0.00000000000E+00 0.  1.
<mgrwt>
<rscale>  0 0.14922986E+04</rscale>
<asrwt>0</asrwt>
<pdfrwt beam="1">  1        2 0.44105484E+00 0.14922986E+04</pdfrwt>
<pdfrwt beam="2">  1       -1 0.29876669E-01 0.14922986E+04</pdfrwt>
<totfact> 0.23967915E+01</totfact>
</mgrwt>
</event>
<event>
12    7  0.1707730E-007  0.2224990E+04  0.7818608E-02  0.8508098E-01
         -1   -1    0    0    0  501 -0.00000000000E+00  0.00000000000E+00  0.43557014705E+03  0.43557014705E+03  0.00000000000E+00 0.  1.
          2   -1    0    0  501    0  0.00000000000E+00 -0.00000000000E+00 -0.28414379527E+04  0.28414379527E+04  0.00000000000E+00 0. -1.
         24    2    1    2    0    0  0.72373341806E+03  0.52901105456E+03 -0.65232833088E+03  0.11115453286E+04  0.79737130637E+02 0.  0.
        254    2    1    2    0    0 -0.72373341806E+03 -0.52901105456E+03 -0.17535394747E+04  0.21654627711E+04  0.90038079023E+03 0.  0.
         23    2    4    4    0    0 -0.89026964832E+03 -0.47778314163E+03 -0.11734801081E+04  0.15512681691E+04  0.92307047779E+02 0.  0.
         23    2    4    4    0    0  0.16653623026E+03 -0.51227912929E+02 -0.58005936662E+03  0.61419460206E+03  0.10201727963E+03 0.  0.
          2    1    3    3  502    0  0.84889226337E+02  0.86565656898E+02 -0.65808289526E+02  0.13795116771E+03  0.00000000000E+00 0. -1.
         -1    1    3    3    0  502  0.63884419172E+03  0.44244539766E+03 -0.58652004136E+03  0.97359416089E+03  0.00000000000E+00 0.  1.
         13    1    5    5    0    0 -0.44686058234E+02 -0.84590436749E+01 -0.75199832672E+02  0.87882956563E+02  0.00000000000E+00 0. -1.
        -13    1    5    5    0    0 -0.84558359008E+03 -0.46932409795E+03 -0.10982802754E+04  0.14633852125E+04  0.00000000000E+00 0.  1.
          3    1    6    6  503    0  0.44506413863E+02 -0.55670089907E+02 -0.13465427601E+03  0.15235404107E+03  0.00000000000E+00 0. -1.
         -3    1    6    6    0  503  0.12202981640E+03  0.44421769778E+01 -0.44540509062E+03  0.46184056099E+03  0.00000000000E+00 0.  1.
<mgrwt>
<rscale>  0 0.22249904E+04</rscale>
<asrwt>0</asrwt>
<pdfrwt beam="1">  1        2 0.43714429E+00 0.22249904E+04</pdfrwt>
<pdfrwt beam="2">  1       -1 0.67010793E-01 0.22249904E+04</pdfrwt>
<totfact> 0.51127662E+00</totfact>
</mgrwt>
</event>
<event>
12    7  0.1707730E-007  0.3374443E+04  0.7818608E-02  0.8144207E-01
         -1   -1    0    0    0  501 -0.00000000000E+00  0.00000000000E+00  0.11616643581E+04  0.11616643581E+04  0.00000000000E+00 0.  1.
          2   -1    0    0  501    0  0.00000000000E+00 -0.00000000000E+00 -0.24505499200E+04  0.24505499200E+04  0.00000000000E+00 0. -1.
         24    2    1    2    0    0 -0.86416882218E+03 -0.56942585301E+03 -0.18578991454E+04  0.21282931497E+04  0.82516308543E+02 0.  0.
        254    2    1    2    0    0  0.86416882218E+03  0.56942585301E+03  0.56901358356E+03  0.14839211284E+04  0.89844972129E+03 0.  0.
         23    2    4    4    0    0 -0.42247310070E+02  0.28466197019E+03 -0.99993735042E+02  0.31823498846E+03  0.91964603806E+02 0.  0.
         23    2    4    4    0    0  0.90641613225E+03  0.28476388282E+03  0.66900731860E+03  0.11656861399E+04  0.92588934006E+02 0.  0.
          2    1    3    3  502    0 -0.20810290320E+03 -0.11831620391E+03 -0.49567824885E+03  0.55045660030E+03  0.00000000000E+00 0. -1.
         -1    1    3    3    0  502 -0.65606591898E+03 -0.45110964911E+03 -0.13622208966E+04  0.15778365494E+04  0.00000000000E+00 0.  1.
         13    1    5    5    0    0 -0.68130055307E+02  0.23451446595E+03 -0.93216889749E+02  0.26139649522E+03  0.00000000000E+00 0. -1.
        -13    1    5    5    0    0  0.25882745237E+02  0.50147504236E+02 -0.67768452929E+01  0.56838493244E+02  0.00000000000E+00 0.  1.
          3    1    6    6  503    0  0.52840954317E+03  0.15030734426E+03  0.43896940639E+03  0.70320913162E+03  0.00000000000E+00 0.  1.
         -3    1    6    6    0  503  0.37800658909E+03  0.13445653857E+03  0.23003791221E+03  0.46247700830E+03  0.00000000000E+00 0. -1.
<mgrwt>
<rscale>  0 0.33744431E+04</rscale>
<asrwt>0</asrwt>
<pdfrwt beam="1">  1        2 0.37700768E+00 0.33744431E+04</pdfrwt>
<pdfrwt beam="2">  1       -1 0.17871759E+00 0.33744431E+04</pdfrwt>
<totfact> 0.74564010E-01</totfact>
</mgrwt>
</event>
<event>
12    7  0.1707730E-007  0.2504922E+04  0.7818608E-02  0.8401234E-01
         -1   -1    0    0    0  501 -0.00000000000E+00  0.00000000000E+00  0.10919223170E+04  0.10919223170E+04  0.00000000000E+00 0.  1.
          2   -1    0    0  501    0  0.00000000000E+00 -0.00000000000E+00 -0.14366028153E+04  0.14366028153E+04  0.00000000000E+00 0. -1.
         24    2    1    2    0    0  0.66888293745E+03  0.96746286475E+02 -0.10100070484E+04  0.12179351539E+04  0.80545473173E+02 0.  0.
        254    2    1    2    0    0 -0.66888293745E+03 -0.96746286475E+02  0.66532655009E+03  0.13105899784E+04  0.90455649086E+03 0.  0.
         23    2    4    4    0    0 -0.86242059370E+03 -0.20132008050E+03  0.53245799938E+03  0.10372729714E+04  0.90136789956E+02 0.  0.
         23    2    4    4    0    0  0.19353765625E+03  0.10457379402E+03  0.13286855070E+03  0.27331700692E+03  0.93035647586E+02 0.  0.
          4    1    3    3  502    0  0.53566158319E+03  0.68573307708E+02 -0.74690521335E+03  0.92168488540E+03  0.00000000000E+00 0. -1.
         -3    1    3    3    0  502  0.13322135426E+03  0.28172978767E+02 -0.26310183503E+03  0.29625026846E+03  0.00000000000E+00 0.  1.
         13    1    5    5    0    0 -0.65699334899E+03 -0.12600157548E+03  0.43343514673E+03  0.79710895369E+03  0.00000000000E+00 0. -1.
        -13    1    5    5    0    0 -0.20542724472E+03 -0.75318505015E+02  0.99022852655E+02  0.24016401774E+03  0.00000000000E+00 0.  1.
          3    1    6    6  503    0  0.91853794006E+02  0.25244183472E+02  0.11026182122E+02  0.95895594084E+02  0.00000000000E+00 0. -1.
         -3    1    6    6    0  503  0.10168386225E+03  0.79329610548E+02  0.12184236858E+03  0.17742141283E+03  0.00000000000E+00 0.  1.
<mgrwt>
<rscale>  0 0.25049221E+04</rscale>
<asrwt>0</asrwt>
<pdfrwt beam="1">  1        2 0.22101582E+00 0.25049221E+04</pdfrwt>
<pdfrwt beam="2">  1       -1 0.16798805E+00 0.25049221E+04</pdfrwt>
<totfact> 0.35661155E+00</totfact>
</mgrwt>
</event>
<event>
12    7  0.1707730E-007  0.1545093E+04  0.7818608E-02  0.8855008E-01
         -1   -1    0    0    0  501 -0.00000000000E+00  0.00000000000E+00  0.16375216012E+03  0.16375216012E+03  0.00000000000E+00 0.  1.
          2   -1    0    0  501    0  0.00000000000E+00 -0.00000000000E+00 -0.36447017161E+04  0.36447017161E+04  0.00000000000E+00 0. -1.
         24    2    1    2    0    0  0.21892580195E+03 -0.31872557539E+03 -0.34893518445E+03  0.52669815747E+03  0.78362535491E+02 0.  0.
        254    2    1    2    0    0 -0.21892580195E+03  0.31872557539E+03 -0.31320143715E+04  0.32817557188E+04  0.90049546079E+03 0.  0.
         23    2    4    4    0    0 -0.23392693449E+02 -0.26486934541E+03 -0.16524044992E+04  0.16760264941E+04  0.89001076243E+02 0.  0.
         23    2    4    4    0    0 -0.19553310850E+03  0.58359492080E+03 -0.14796098723E+04  0.16057292247E+04  0.10151226835E+03 0.  0.
          4    1    3    3  502    0  0.71300326778E+01 -0.19586808411E+02 -0.48450616516E+02  0.52744124512E+02  0.00000000000E+00 0. -1.
         -3    1    3    3    0  502  0.21179576928E+03 -0.29913876698E+03 -0.30048456793E+03  0.47395403296E+03  0.00000000000E+00 0.  1.
         13    1    5    5    0    0  0.14891645858E+02 -0.26299456248E+02 -0.87360312172E+02  0.92440503342E+02  0.00000000000E+00 0. -1.
        -13    1    5    5    0    0 -0.38284339307E+02 -0.23856988916E+03 -0.15650441871E+04  0.15835859907E+04  0.00000000000E+00 0.  1.
          2    1    6    6  503    0 -0.16569552406E+03  0.41699216837E+03 -0.11660813965E+04  0.12494331909E+04  0.00000000000E+00 0. -1.
         -2    1    6    6    0  503 -0.29837584448E+02  0.16660275242E+03 -0.31352847580E+03  0.35629603380E+03  0.00000000000E+00 0.  1.
<mgrwt>
<rscale>  0 0.15450926E+04</rscale>
<asrwt>0</asrwt>
<pdfrwt beam="1">  1        2 0.56072330E+00 0.15450926E+04</pdfrwt>
<pdfrwt beam="2">  1       -1 0.25192642E-01 0.15450926E+04</pdfrwt>
<totfact> 0.98640814E+00</totfact>
</mgrwt>
</event>
<event>
12    7  0.1707730E-007  0.1847700E+04  0.7818608E-02  0.8681336E-01
         -1   -1    0    0    0  501 -0.00000000000E+00  0.00000000000E+00  0.87470607343E+03  0.87470607343E+03  0.00000000000E+00 0.  1.
          2   -1    0    0  501    0  0.00000000000E+00 -0.00000000000E+00 -0.97575509571E+03  0.97575509571E+03  0.00000000000E+00 0. -1.
         24    2    1    2    0    0 -0.43009904605E+03  0.14968621071E+03  0.49694691061E+03  0.67875570995E+03  0.79761712187E+02 0.  0.
        254    2    1    2    0    0  0.43009904605E+03 -0.14968621071E+03 -0.59799593290E+03  0.11717054592E+04  0.89883446543E+03 0.  0.
         23    2    4    4    0    0  0.97050745528E+02  0.27235776645E+02  0.22478495038E+03  0.26289980604E+03  0.91800867964E+02 0.  0.
         23    2    4    4    0    0  0.33304830052E+03 -0.17692198736E+03 -0.82278088328E+03  0.90880565315E+03  0.82077848504E+02 0.  0.
          2    1    3    3  502    0 -0.48318848456E+02  0.34169078131E+02  0.36345229585E+02  0.69449353705E+02  0.00000000000E+00 0. -1.
         -1    1    3    3    0  502 -0.38178019759E+03  0.11551713258E+03  0.46060168103E+03  0.60930635624E+03  0.00000000000E+00 0.  1.
         13    1    5    5    0    0  0.94748931138E+02  0.54153224560E+02  0.17446050727E+03  0.20578241004E+03  0.00000000000E+00 0. -1.
        -13    1    5    5    0    0  0.23018143900E+01 -0.26917447915E+02  0.50324443111E+02  0.57117396003E+02  0.00000000000E+00 0.  1.
          2    1    6    6  503    0  0.25609086676E+03 -0.94005943760E+02 -0.58644584169E+03  0.64679082765E+03  0.00000000000E+00 0. -1.
         -2    1    6    6    0  503  0.76957433765E+02 -0.82916043599E+02 -0.23633504159E+03  0.26201482550E+03  0.00000000000E+00 0.  1.
<mgrwt>
<rscale>  0 0.18477001E+04</rscale>
<asrwt>0</asrwt>
<pdfrwt beam="1">  1        2 0.15011617E+00 0.18477001E+04</pdfrwt>
<pdfrwt beam="2">  1       -1 0.13457017E+00 0.18477001E+04</pdfrwt>
<totfact> 0.13015260E+01</totfact>
</mgrwt>
</event>
<event>
12    7  0.1707730E-007  0.1228941E+04  0.7818608E-02  0.9087895E-01
         -1   -1    0    0    0  501 -0.00000000000E+00  0.00000000000E+00  0.68815988726E+03  0.68815988726E+03  0.00000000000E+00 0.  1.
          2   -1    0    0  501    0  0.00000000000E+00 -0.00000000000E+00 -0.54867210555E+03  0.54867210555E+03  0.00000000000E+00 0. -1.
         24    2    1    2    0    0 -0.15550850725E+03 -0.22576076406E+03 -0.16413086014E+03  0.32746556138E+03  0.71721239736E+02 0.  0.
        254    2    1    2    0    0  0.15550850725E+03  0.22576076406E+03  0.30361864185E+03  0.90936643143E+03  0.81216513624E+03 0.  0.
         23    2    4    4    0    0  0.36220445270E+02 -0.26542410153E+03 -0.48415368324E+02  0.28676174234E+03  0.90146406759E+02 0.  0.
         23    2    4    4    0    0  0.11928806198E+03  0.49118486559E+03  0.35203401018E+03  0.62260468909E+03  0.90644584211E+02 0.  0.
          4    1    3    3  502    0 -0.87978808205E+02 -0.97275728792E+02 -0.41854770490E+02  0.13767592352E+03  0.00000000000E+00 0. -1.
         -3    1    3    3    0  502 -0.67529699040E+02 -0.12848503527E+03 -0.12227608965E+03  0.18978963786E+03  0.00000000000E+00 0.  1.
         13    1    5    5    0    0  0.21906624733E+02 -0.13575017050E+02 -0.20569391396E+02  0.32973946648E+02  0.00000000000E+00 0. -1.
        -13    1    5    5    0    0  0.14313820537E+02 -0.25184908448E+03 -0.27845976927E+02  0.25378779569E+03  0.00000000000E+00 0.  1.
          2    1    6    6  503    0 -0.14995827911E+02  0.45231999924E+02  0.28520707486E+02  0.55535929157E+02  0.00000000000E+00 0. -1.
         -2    1    6    6    0  503  0.13428388989E+03  0.44595286566E+03  0.32351330269E+03  0.56706875993E+03  0.00000000000E+00 0.  1.
<mgrwt>
<rscale>  0 0.12289412E+04</rscale>
<asrwt>0</asrwt>
<pdfrwt beam="1">  1        2 0.84411093E-01 0.12289412E+04</pdfrwt>
<pdfrwt beam="2">  1       -1 0.10587075E+00 0.12289412E+04</pdfrwt>
<totfact> 0.51938052E+01</totfact>
</mgrwt>
</event>
<event>
12    7  0.1707730E-007  0.1600532E+04  0.7818608E-02  0.8820221E-01
         -1   -1    0    0    0  501 -0.00000000000E+00  0.00000000000E+00  0.47002563554E+03  0.47002563554E+03  0.00000000000E+00 0.  1.
          2   -1    0    0  501    0  0.00000000000E+00 -0.00000000000E+00 -0.13625333124E+04  0.13625333124E+04  0.00000000000E+00 0. -1.
         24    2    1    2    0    0 -0.18590101581E+03 -0.39637849535E+03  0.62426376318E+02  0.44850953777E+03  0.74757299021E+02 0.  0.
        254    2    1    2    0    0  0.18590101581E+03  0.39637849535E+03 -0.95493405317E+03  0.13840494102E+04  0.90112076028E+03 0.  0.
         23    2    4    4    0    0  0.39518120040E+03  0.57100864826E+03 -0.56658137511E+03  0.90090156485E+03  0.91597584032E+02 0.  0.
         23    2    4    4    0    0 -0.20928018459E+03 -0.17463015291E+03 -0.38835267806E+03  0.48314784530E+03  0.91214866663E+02 0.  0.
          4    1    3    3  502    0 -0.49738116921E+02 -0.71254651536E+02 -0.13500338015E+02  0.87939551778E+02  0.00000000000E+00 0. -1.
         -3    1    3    3    0  502 -0.13616289889E+03 -0.32512384381E+03  0.75926714333E+02  0.36056998599E+03  0.00000000000E+00 0.  1.
         13    1    5    5    0    0  0.35210106649E+03  0.48805774122E+03 -0.44985046032E+03  0.75135940564E+03  0.00000000000E+00 0.  1.
        -13    1    5    5    0    0  0.43080133910E+02  0.82950907037E+02 -0.11673091478E+03  0.14954215921E+03  0.00000000000E+00 0. -1.
          3    1    6    6  503    0 -0.28794191682E+02  0.79718088042E+01 -0.52417940919E+02  0.60334863391E+02  0.00000000000E+00 0. -1.
         -3    1    6    6    0  503 -0.18048599291E+03 -0.18260196172E+03 -0.33593473714E+03  0.42281298191E+03  0.00000000000E+00 0.  1.
<mgrwt>
<rscale>  0 0.16005319E+04</rscale>
<asrwt>0</asrwt>
<pdfrwt beam="1">  1        2 0.20962051E+00 0.16005319E+04</pdfrwt>
<pdfrwt beam="2">  1       -1 0.72311636E-01 0.16005319E+04</pdfrwt>
<totfact> 0.32065605E+01</totfact>
</mgrwt>
</event>
<event>
12    7  0.1707730E-007  0.1149214E+04  0.7818608E-02  0.9158509E-01
         -1   -1    0    0    0  501 -0.00000000000E+00  0.00000000000E+00  0.10776816474E+03  0.10776816474E+03  0.00000000000E+00 0.  1.
          2   -1    0    0  501    0  0.00000000000E+00 -0.00000000000E+00 -0.30637343180E+04  0.30637343180E+04  0.00000000000E+00 0. -1.
         24    2    1    2    0    0 -0.61370221514E+02  0.53629651291E+01 -0.29233638496E+02  0.10839173445E+03  0.84256139210E+02 0.  0.
        254    2    1    2    0    0  0.61370221514E+02 -0.53629651291E+01 -0.29267325148E+04  0.30631107483E+04  0.90171457665E+03 0.  0.
         23    2    4    4    0    0 -0.35083579584E+03  0.20933213945E+03 -0.16144069575E+04  0.16679783923E+04  0.94532495419E+02 0.  0.
         23    2    4    4    0    0  0.41220601736E+03 -0.21469510458E+03 -0.13123255573E+04  0.13951323560E+04  0.90488306503E+02 0.  0.
          4    1    3    3  502    0 -0.71176692253E+01  0.26910720058E+02 -0.40298071657E+02  0.48977368738E+02  0.00000000000E+00 0. -1.
         -3    1    3    3    0  502 -0.54252552288E+02 -0.21547754929E+02  0.11064433161E+02  0.59414365716E+02  0.00000000000E+00 0.  1.
         13    1    5    5    0    0 -0.10292733889E+02 -0.43520194606E+01 -0.11726589117E+03  0.11779715479E+03  0.00000000000E+00 0. -1.
        -13    1    5    5    0    0 -0.34054306196E+03  0.21368415891E+03 -0.14971410663E+04  0.15501812375E+04  0.00000000000E+00 0.  1.
          4    1    6    6  503    0  0.25875145209E+02 -0.10546414058E+02 -0.32981447214E+02  0.43226448494E+02  0.00000000000E+00 0. -1.
         -4    1    6    6    0  503  0.38633087215E+03 -0.20414869052E+03 -0.12793441101E+04  0.13519059075E+04  0.00000000000E+00 0.  1.
<mgrwt>
<rscale>  0 0.11492137E+04</rscale>
<asrwt>0</asrwt>
<pdfrwt beam="1">  1        2 0.47134378E+00 0.11492137E+04</pdfrwt>
<pdfrwt beam="2">  1       -1 0.16579716E-01 0.11492137E+04</pdfrwt>
<totfact> 0.50879971E+01</totfact>
</mgrwt>
</event>
<event>
12    7  0.1707730E-007  0.2478574E+04  0.7818608E-02  0.8410659E-01
         -1   -1    0    0    0  501 -0.00000000000E+00  0.00000000000E+00  0.67981561482E+03  0.67981561482E+03  0.00000000000E+00 0.  1.
          2   -1    0    0  501    0  0.00000000000E+00 -0.00000000000E+00 -0.22591891802E+04  0.22591891802E+04  0.00000000000E+00 0. -1.
         24    2    1    2    0    0 -0.76684304940E+02 -0.58979149230E+03 -0.17400945591E+04  0.18406309394E+04  0.79111905078E+02 0.  0.
        254    2    1    2    0    0  0.76684304940E+02  0.58979149230E+03  0.16072099372E+03  0.10983738556E+04  0.90931809716E+03 0.  0.
         23    2    4    4    0    0 -0.27051388147E+03  0.41156264508E+03 -0.21892448290E+03  0.54614726907E+03  0.88245903045E+02 0.  0.
         23    2    4    4    0    0  0.34719818641E+03  0.17822884722E+03  0.37964547661E+03  0.55222658653E+03  0.92257315865E+02 0.  0.
          4    1    3    3  502    0 -0.72209592032E+02 -0.54367638499E+03 -0.16580985659E+04  0.17464504262E+04  0.00000000000E+00 0. -1.
         -3    1    3    3    0  502 -0.44747129077E+01 -0.46115107313E+02 -0.81995993202E+02  0.94180513267E+02  0.00000000000E+00 0.  1.
         13    1    5    5    0    0 -0.26008685759E+03  0.34132209493E+03 -0.18216714487E+03  0.46618753163E+03  0.00000000000E+00 0.  1.
        -13    1    5    5    0    0 -0.10427023886E+02  0.70240550148E+02 -0.36757338029E+02  0.79959737438E+02  0.00000000000E+00 0. -1.
          3    1    6    6  503    0  0.23628902401E+03  0.11834629403E+03  0.31302021939E+03  0.40965840150E+03  0.00000000000E+00 0. -1.
         -3    1    6    6    0  503  0.11090916240E+03  0.59882553189E+02  0.66625257225E+02  0.14256818503E+03  0.00000000000E+00 0.  1.
<mgrwt>
<rscale>  0 0.24785738E+04</rscale>
<asrwt>0</asrwt>
<pdfrwt beam="1">  1        2 0.34756757E+00 0.24785738E+04</pdfrwt>
<pdfrwt beam="2">  1       -1 0.10458702E+00 0.24785738E+04</pdfrwt>
<totfact> 0.41750270E+00</totfact>
</mgrwt>
</event>
<event>
12    7  0.1707730E-007  0.2146975E+04  0.7818608E-02  0.8540828E-01
          4   -1    0    0  501    0  0.00000000000E+00  0.00000000000E+00  0.58336587937E+03  0.58336587937E+03  0.00000000000E+00 0. -1.
         -3   -1    0    0    0  501 -0.00000000000E+00 -0.00000000000E+00 -0.19753907676E+04  0.19753907676E+04  0.00000000000E+00 0.  1.
         24    2    1    2    0    0 -0.50114061014E+03  0.11484102230E+03 -0.14224231982E+04  0.15147520238E+04  0.82798352738E+02 0.  0.
        254    2    1    2    0    0  0.50114061014E+03 -0.11484102230E+03  0.30398309953E+02  0.10440046232E+04  0.90812511501E+03 0.  0.
         23    2    4    4    0    0 -0.14896297693E+03  0.16140683570E+03  0.20095093564E+03  0.31135360991E+03  0.91201188364E+02 0.  0.
         23    2    4    4    0    0  0.65010358707E+03 -0.27624785799E+03 -0.17055262569E+03  0.73265101331E+03  0.93497359359E+02 0.  0.
          2    1    3    3  502    0 -0.22978731020E+03  0.94231694507E+02 -0.65475434779E+03  0.70027500036E+03  0.00000000000E+00 0. -1.
         -1    1    3    3    0  502 -0.27135329994E+03  0.20609327789E+02 -0.76766885040E+03  0.81447702340E+03  0.00000000000E+00 0.  1.
         13    1    5    5    0    0 -0.14687395947E+03  0.13194738157E+03  0.20109782933E+03  0.28181981555E+03  0.00000000000E+00 0. -1.
        -13    1    5    5    0    0 -0.20890174587E+01  0.29459454123E+02 -0.14689368865E+00  0.29533794354E+02  0.00000000000E+00 0.  1.
          4    1    6    6  503    0  0.46789645222E+03 -0.22449727980E+03 -0.15946251928E+03  0.54291289697E+03  0.00000000000E+00 0. -1.
         -4    1    6    6    0  503  0.18220713485E+03 -0.51750578190E+02 -0.11090106414E+02  0.18973811634E+03  0.00000000000E+00 0.  1.
<mgrwt>
<rscale>  0 0.21469751E+04</rscale>
<asrwt>0</asrwt>
<pdfrwt beam="1">  1        4 0.89748596E-01 0.21469751E+04</pdfrwt>
<pdfrwt beam="2">  1       -3 0.30390627E+00 0.21469751E+04</pdfrwt>
<totfact> 0.80931722E-02</totfact>
</mgrwt>
</event>
<event>
12    7  0.1707730E-007  0.2586043E+04  0.7818608E-02  0.8372958E-01
         -1   -1    0    0    0  501 -0.00000000000E+00  0.00000000000E+00  0.46344115599E+03  0.46344115599E+03  0.00000000000E+00 0.  1.
          2   -1    0    0  501    0  0.00000000000E+00 -0.00000000000E+00 -0.36075865261E+04  0.36075865261E+04  0.00000000000E+00 0. -1.
         24    2    1    2    0    0 -0.37550200016E+03  0.93403472324E+01 -0.30585871121E+04  0.30827746166E+04  0.86343615379E+02 0.  0.
        254    2    1    2    0    0  0.37550200016E+03 -0.93403472324E+01 -0.85558258027E+02  0.98825306557E+03  0.91007412439E+03 0.  0.
         23    2    4    4    0    0  0.39683157374E+03  0.23681384638E+03  0.27124321772E+03  0.54328006574E+03  0.89578183271E+02 0.  0.
         23    2    4    4    0    0 -0.21329573580E+02 -0.24615419361E+03 -0.35680147574E+03  0.44497299983E+03  0.98218326926E+02 0.  0.
          4    1    3    3  502    0 -0.28530667782E+03  0.21195819893E+02 -0.25619454023E+04  0.25778699361E+04  0.00000000000E+00 0. -1.
         -3    1    3    3    0  502 -0.90195322340E+02 -0.11855472661E+02 -0.49664170981E+03  0.50490468044E+03  0.00000000000E+00 0.  1.
         13    1    5    5    0    0  0.77822148391E+01  0.27720378008E+02  0.21005364560E+02  0.35639971450E+02  0.00000000000E+00 0.  1.
        -13    1    5    5    0    0  0.38904935890E+03  0.20909346837E+03  0.25023785316E+03  0.50764009429E+03  0.00000000000E+00 0. -1.
          3    1    6    6  503    0 -0.96097884083E+01 -0.22150165217E+03 -0.24735708333E+03  0.33217594227E+03  0.00000000000E+00 0. -1.
         -3    1    6    6    0  503 -0.11719785171E+02 -0.24652541439E+02 -0.10944439242E+03  0.11279705756E+03  0.00000000000E+00 0.  1.
<mgrwt>
<rscale>  0 0.25860426E+04</rscale>
<asrwt>0</asrwt>
<pdfrwt beam="1">  1        2 0.55501333E+00 0.25860426E+04</pdfrwt>
<pdfrwt beam="2">  1       -1 0.71298637E-01 0.25860426E+04</pdfrwt>
<totfact> 0.13652041E+00</totfact>
</mgrwt>
</event>
<event>
12    7  0.1707730E-007  0.1326614E+04  0.7818608E-02  0.9008722E-01
          2   -1    0    0  501    0  0.00000000000E+00  0.00000000000E+00  0.36741965504E+03  0.36741965504E+03  0.00000000000E+00 0. -1.
         -1   -1    0    0    0  501 -0.00000000000E+00 -0.00000000000E+00 -0.11974755802E+04  0.11974755802E+04  0.00000000000E+00 0.  1.
         24    2    1    2    0    0 -0.13711908392E+03 -0.23626093904E+03  0.12563087349E+03  0.31163092036E+03  0.81913610945E+02 0.  0.
        254    2    1    2    0    0  0.13711908392E+03  0.23626093904E+03 -0.95568679870E+03  0.12532643149E+04  0.76335660824E+03 0.  0.
         23    2    4    4    0    0 -0.79392336748E+02 -0.11239125705E+03 -0.78036186803E+03  0.79771516203E+03  0.91923320587E+02 0.  0.
         23    2    4    4    0    0  0.21651142067E+03  0.34865219609E+03 -0.17532493067E+03  0.45554915289E+03  0.91381892429E+02 0.  0.
          2    1    3    3  502    0 -0.13787766086E+03 -0.22017919776E+03  0.13524123677E+03  0.29288106906E+03  0.00000000000E+00 0. -1.
         -1    1    3    3    0  502  0.75857694098E+00 -0.16081741282E+02 -0.96103632722E+01  0.18749851303E+02  0.00000000000E+00 0.  1.
         13    1    5    5    0    0 -0.70134952203E+02 -0.38770460726E+02 -0.54704525216E+03  0.55288386489E+03  0.00000000000E+00 0.  1.
        -13    1    5    5    0    0 -0.92573845444E+01 -0.73620796321E+02 -0.23331661587E+03  0.24483129714E+03  0.00000000000E+00 0. -1.
          1    1    6    6  503    0  0.27309355406E+02  0.11542121185E+03 -0.67410477972E+02  0.13642591242E+03  0.00000000000E+00 0. -1.
         -1    1    6    6    0  503  0.18920206526E+03  0.23323098423E+03 -0.10791445270E+03  0.31912324047E+03  0.00000000000E+00 0.  1.
<mgrwt>
<rscale>  0 0.13266138E+04</rscale>
<asrwt>0</asrwt>
<pdfrwt beam="1">  1        2 0.56526101E-01 0.13266138E+04</pdfrwt>
<pdfrwt beam="2">  1       -1 0.18422701E+00 0.13266138E+04</pdfrwt>
<totfact> 0.19021983E+01</totfact>
</mgrwt>
</event>
<event>
12    7  0.1707730E-007  0.1571975E+04  0.7818608E-02  0.8837952E-01
          2   -1    0    0  501    0  0.00000000000E+00  0.00000000000E+00  0.16911896418E+04  0.16911896418E+04  0.00000000000E+00 0. -1.
         -1   -1    0    0    0  501 -0.00000000000E+00 -0.00000000000E+00 -0.36529114275E+03  0.36529114275E+03  0.00000000000E+00 0.  1.
         24    2    1    2    0    0  0.26595202175E+03 -0.11125292745E+03  0.10202626367E+04  0.10631690955E+04  0.79277904413E+02 0.  0.
        254    2    1    2    0    0 -0.26595202175E+03  0.11125292745E+03  0.30563586238E+03  0.99331168903E+03  0.90008174043E+03 0.  0.
         23    2    4    4    0    0 -0.25397647477E+03 -0.35089840668E+03  0.27452853659E+03  0.52102911322E+03  0.92041718150E+02 0.  0.
         23    2    4    4    0    0 -0.11975546974E+02  0.46215133413E+03  0.31107325792E+02  0.47228257581E+03  0.91410591994E+02 0.  0.
          2    1    3    3  502    0  0.22277187758E+03 -0.11998727932E+03  0.82161298140E+03  0.85969305443E+03  0.00000000000E+00 0. -1.
         -1    1    3    3    0  502  0.43180144164E+02  0.87343518698E+01  0.19864965529E+03  0.20347604110E+03  0.00000000000E+00 0.  1.
         13    1    5    5    0    0 -0.11377636358E+03 -0.13705105213E+03  0.16516818039E+03  0.24291681624E+03  0.00000000000E+00 0. -1.
        -13    1    5    5    0    0 -0.14020011120E+03 -0.21384735455E+03  0.10936035620E+03  0.27811229699E+03  0.00000000000E+00 0.  1.
          2    1    6    6  503    0  0.58018980308E+00  0.32096862465E+00 -0.85564311853E+01  0.85820834122E+01  0.00000000000E+00 0. -1.
         -2    1    6    6    0  503 -0.12555736777E+02  0.46183036551E+03  0.39663756977E+02  0.46370049240E+03  0.00000000000E+00 0.  1.
<mgrwt>
<rscale>  0 0.15719753E+04</rscale>
<asrwt>0</asrwt>
<pdfrwt beam="1">  1        2 0.26018302E+00 0.15719753E+04</pdfrwt>
<pdfrwt beam="2">  1       -1 0.56198638E-01 0.15719753E+04</pdfrwt>
<totfact> 0.34785174E+01</totfact>
</mgrwt>
</event>
<event>
12    7  0.1707730E-007  0.2165558E+04  0.7818608E-02  0.8532902E-01
         -1   -1    0    0    0  501 -0.00000000000E+00  0.00000000000E+00  0.98142737088E+03  0.98142737088E+03  0.00000000000E+00 0.  1.
          2   -1    0    0  501    0  0.00000000000E+00 -0.00000000000E+00 -0.11945972651E+04  0.11945972651E+04  0.00000000000E+00 0. -1.
         24    2    1    2    0    0  0.11799096407E+03  0.25365604757E+03  0.76561321531E+03  0.81895091661E+03  0.79080656838E+02 0.  0.
        254    2    1    2    0    0 -0.11799096407E+03 -0.25365604757E+03 -0.97878310951E+03  0.13570737194E+04  0.89742378296E+03 0.  0.
         23    2    4    4    0    0 -0.35112472045E+03  0.12081247066E+02 -0.57166288993E+02  0.36585932609E+03  0.84560842308E+02 0.  0.
         23    2    4    4    0    0  0.23313375638E+03 -0.26573729463E+03 -0.92161682052E+03  0.99121439326E+03  0.90336877405E+02 0.  0.
          4    1    3    3  502    0  0.17390682264E+02  0.32973949417E+02  0.43987674051E+02  0.57659627454E+02  0.00000000000E+00 0. -1.
         -3    1    3    3    0  502  0.10060028180E+03  0.22068209815E+03  0.72162554126E+03  0.76129128916E+03  0.00000000000E+00 0.  1.
         13    1    5    5    0    0 -0.31944147900E+03 -0.13321847255E+02 -0.41801652174E+02  0.32244023980E+03  0.00000000000E+00 0.  1.
        -13    1    5    5    0    0 -0.31683241451E+02  0.25403094321E+02 -0.15364636819E+02  0.43419086293E+02  0.00000000000E+00 0. -1.
          3    1    6    6  503    0 -0.64470581038E+01 -0.80976128647E+01 -0.11545535504E+02  0.15505975699E+02  0.00000000000E+00 0. -1.
         -3    1    6    6    0  503  0.23958081449E+03 -0.25763968177E+03 -0.91007128501E+03  0.97570841756E+03  0.00000000000E+00 0.  1.
<mgrwt>
<rscale>  0 0.21655581E+04</rscale>
<asrwt>0</asrwt>
<pdfrwt beam="1">  1        2 0.18378419E+00 0.21655581E+04</pdfrwt>
<pdfrwt beam="2">  1       -1 0.15098883E+00 0.21655581E+04</pdfrwt>
<totfact> 0.68353021E+00</totfact>
</mgrwt>
</event>
<event>
12    7  0.1707730E-007  0.3102974E+04  0.7818608E-02  0.8214922E-01
         -1   -1    0    0    0  501 -0.00000000000E+00  0.00000000000E+00  0.15722049250E+04  0.15722049250E+04  0.00000000000E+00 0.  1.
          2   -1    0    0  501    0  0.00000000000E+00 -0.00000000000E+00 -0.15310423072E+04  0.15310423072E+04  0.00000000000E+00 0. -1.
         24    2    1    2    0    0  0.54301101523E+01  0.51871717144E+03  0.13398408470E+04  0.14388575226E+04  0.77720557046E+02 0.  0.
        254    2    1    2    0    0 -0.54301101523E+01 -0.51871717144E+03 -0.12986782292E+04  0.16643897097E+04  0.90251369666E+03 0.  0.
         23    2    4    4    0    0  0.44093262367E+02  0.75764719824E+02 -0.96658456508E+03  0.97510512700E+03  0.94126397451E+02 0.  0.
         23    2    4    4    0    0 -0.49523372519E+02 -0.59448189126E+03 -0.33209366410E+03  0.68928458266E+03  0.94687648089E+02 0.  0.
          4    1    3    3  502    0  0.41108878440E+02  0.28822131976E+03  0.72638514244E+03  0.78255788553E+03  0.00000000000E+00 0. -1.
         -1    1    3    3    0  502 -0.35678768288E+02  0.23049585168E+03  0.61345570454E+03  0.65629963704E+03  0.00000000000E+00 0.  1.
         13    1    5    5    0    0 -0.44572176837E+00 -0.21042416273E+02 -0.11883450603E+03  0.12068397480E+03  0.00000000000E+00 0. -1.
        -13    1    5    5    0    0  0.44538984135E+02  0.96807136097E+02 -0.84775005905E+03  0.85442115220E+03  0.00000000000E+00 0.  1.
          4    1    6    6  503    0 -0.11111805174E+02 -0.23290168436E+03 -0.78712222514E+02  0.24609404862E+03  0.00000000000E+00 0. -1.
         -4    1    6    6    0  503 -0.38411567345E+02 -0.36158020690E+03 -0.25338144158E+03  0.44319053404E+03  0.00000000000E+00 0.  1.
<mgrwt>
<rscale>  0 0.31029742E+04</rscale>
<asrwt>0</asrwt>
<pdfrwt beam="1">  1        2 0.23554497E+00 0.31029742E+04</pdfrwt>
<pdfrwt beam="2">  1       -1 0.24187768E+00 0.31029742E+04</pdfrwt>
<totfact> 0.92847880E-01</totfact>
</mgrwt>
</event>
<event>
12    7  0.1707730E-007  0.2811014E+04  0.7818608E-02  0.8299857E-01
          2   -1    0    0  501    0  0.00000000000E+00  0.00000000000E+00  0.24669297861E+04  0.24669297861E+04  0.00000000000E+00 0. -1.
         -1   -1    0    0    0  501 -0.00000000000E+00 -0.00000000000E+00 -0.80077252036E+03  0.80077252036E+03  0.00000000000E+00 0.  1.
         24    2    1    2    0    0 -0.72685853082E+03  0.21135839949E+03  0.19454461153E+04  0.20890704803E+04  0.80369068980E+02 0.  0.
        254    2    1    2    0    0  0.72685853082E+03 -0.21135839949E+03 -0.27928884958E+03  0.11786318261E+04  0.85917112570E+03 0.  0.
         23    2    4    4    0    0  0.31762370451E+03 -0.30637712457E+03  0.23512753645E+03  0.50817509572E+03  0.90582610819E+02 0.  0.
         23    2    4    4    0    0  0.40923482631E+03  0.95018725081E+02 -0.51441638603E+03  0.67045673042E+03  0.91576787328E+02 0.  0.
          2    1    3    3  502    0 -0.66347289513E+03  0.21544831822E+03  0.17932750319E+04  0.19241750441E+04  0.00000000000E+00 0. -1.
         -1    1    3    3    0  502 -0.63385635690E+02 -0.40899187322E+01  0.15217108341E+03  0.16489543618E+03  0.00000000000E+00 0.  1.
         13    1    5    5    0    0  0.86349709395E+02 -0.13988951126E+03  0.10364044052E+03  0.19433653436E+03  0.00000000000E+00 0. -1.
        -13    1    5    5    0    0  0.23127399512E+03 -0.16648761331E+03  0.13148709592E+03  0.31383856136E+03  0.00000000000E+00 0.  1.
          4    1    6    6  503    0  0.13015352469E+03  0.34585331060E+02 -0.10248123604E+03  0.16922910168E+03  0.00000000000E+00 0. -1.
         -4    1    6    6    0  503  0.27908130162E+03  0.60433394020E+02 -0.41193514998E+03  0.50122762875E+03  0.00000000000E+00 0.  1.
<mgrwt>
<rscale>  0 0.28110138E+04</rscale>
<asrwt>0</asrwt>
<pdfrwt beam="1">  1        2 0.37952766E+00 0.28110138E+04</pdfrwt>
<pdfrwt beam="2">  1       -1 0.12319577E+00 0.28110138E+04</pdfrwt>
<totfact> 0.20858409E+00</totfact>
</mgrwt>
</event>
<event>
12    7  0.1707730E-007  0.2365327E+04  0.7818608E-02  0.8452600E-01
         -1   -1    0    0    0  501 -0.00000000000E+00  0.00000000000E+00  0.37922679124E+03  0.37922679124E+03  0.00000000000E+00 0.  1.
          2   -1    0    0  501    0  0.00000000000E+00 -0.00000000000E+00 -0.36882741945E+04  0.36882741945E+04  0.00000000000E+00 0. -1.
         24    2    1    2    0    0  0.28212459028E+03  0.80253745966E+03 -0.23962358404E+04  0.25440142171E+04  0.80009220542E+02 0.  0.
        254    2    1    2    0    0 -0.28212459028E+03 -0.80253745966E+03 -0.91281156285E+03  0.15234867686E+04  0.87414319554E+03 0.  0.
         23    2    4    4    0    0 -0.43507208223E+03 -0.60755772037E+03 -0.22328517293E+03  0.78515859550E+03  0.90574010182E+02 0.  0.
         23    2    4    4    0    0  0.15294749195E+03 -0.19497973929E+03 -0.68952638992E+03  0.73832817313E+03  0.90949517942E+02 0.  0.
          4    1    3    3  502    0  0.25238475241E+03  0.73108726065E+03 -0.21021509445E+04  0.22399163465E+04  0.00000000000E+00 0. -1.
         -3    1    3    3    0  502  0.29739837876E+02  0.71450199014E+02 -0.29408489585E+03  0.30409787053E+03  0.00000000000E+00 0.  1.
         13    1    5    5    0    0 -0.34279271011E+03 -0.48146591368E+03 -0.13713504426E+03  0.60673082046E+03  0.00000000000E+00 0.  1.
        -13    1    5    5    0    0 -0.92279372123E+02 -0.12609180669E+03 -0.86150128675E+02  0.17842777504E+03  0.00000000000E+00 0. -1.
          3    1    6    6  503    0  0.60167683015E+02 -0.24217150210E+02 -0.23962434293E+03  0.24824674453E+03  0.00000000000E+00 0. -1.
         -3    1    6    6    0  503  0.92779808935E+02 -0.17076258908E+03 -0.44990204698E+03  0.49008142859E+03  0.00000000000E+00 0.  1.
<mgrwt>
<rscale>  0 0.23653265E+04</rscale>
<asrwt>0</asrwt>
<pdfrwt beam="1">  1        2 0.56742683E+00 0.23653265E+04</pdfrwt>
<pdfrwt beam="2">  1       -1 0.58342580E-01 0.23653265E+04</pdfrwt>
<totfact> 0.18240031E+00</totfact>
</mgrwt>
</event>
<event>
12    7  0.1707730E-007  0.1613201E+04  0.7818608E-02  0.8812479E-01
         -1   -1    0    0    0  501 -0.00000000000E+00  0.00000000000E+00  0.38948917283E+03  0.38948917283E+03  0.00000000000E+00 0.  1.
          2   -1    0    0  501    0  0.00000000000E+00 -0.00000000000E+00 -0.16704040154E+04  0.16704040154E+04  0.00000000000E+00 0. -1.
         24    2    1    2    0    0  0.37371134656E+03  0.11146145953E+03 -0.95686057896E+03  0.10365928073E+04  0.82816984823E+02 0.  0.
        254    2    1    2    0    0 -0.37371134656E+03 -0.11146145953E+03 -0.32405426364E+03  0.10233003810E+04  0.88884682397E+03 0.  0.
         23    2    4    4    0    0  0.15067571526E+03  0.23932803238E+03 -0.23574051903E+03  0.37928464792E+03  0.91116264127E+02 0.  0.
         23    2    4    4    0    0 -0.52438706182E+03 -0.35078949191E+03 -0.88313744608E+02  0.64401573309E+03  0.94455750169E+02 0.  0.
          4    1    3    3  502    0  0.24866182059E+03  0.95886043168E+02 -0.72930575701E+03  0.77647519052E+03  0.00000000000E+00 0. -1.
         -3    1    3    3    0  502  0.12504952597E+03  0.15575416362E+02 -0.22755482196E+03  0.26011761673E+03  0.00000000000E+00 0.  1.
         13    1    5    5    0    0  0.87557530346E+02  0.16750246391E+03 -0.20502941405E+03  0.27885562064E+03  0.00000000000E+00 0.  1.
        -13    1    5    5    0    0  0.63118184911E+02  0.71825568468E+02 -0.30711104978E+02  0.10042902728E+03  0.00000000000E+00 0. -1.
          2    1    6    6  503    0 -0.17912600219E+03 -0.70263604509E+02 -0.40133054043E+02  0.19655472726E+03  0.00000000000E+00 0. -1.
         -2    1    6    6    0  503 -0.34526105963E+03 -0.28052588740E+03 -0.48180690565E+02  0.44746100583E+03  0.00000000000E+00 0.  1.
<mgrwt>
<rscale>  0 0.16132009E+04</rscale>
<asrwt>0</asrwt>
<pdfrwt beam="1">  1        2 0.25698524E+00 0.16132009E+04</pdfrwt>
<pdfrwt beam="2">  1       -1 0.59921411E-01 0.16132009E+04</pdfrwt>
<totfact> 0.31391353E+01</totfact>
</mgrwt>
</event>
<event>
12    7  0.1707730E-007  0.4657168E+04  0.7818608E-02  0.7883684E-01
         -1   -1    0    0    0  501 -0.00000000000E+00  0.00000000000E+00  0.10886658978E+04  0.10886658978E+04  0.00000000000E+00 0.  1.
          2   -1    0    0  501    0  0.00000000000E+00 -0.00000000000E+00 -0.49806874085E+04  0.49806874085E+04  0.00000000000E+00 0. -1.
         24    2    1    2    0    0  0.15814889084E+04  0.65687262058E+03  0.15174782673E+02  0.17144314896E+04  0.80350803406E+02 0.  0.
        254    2    1    2    0    0 -0.15814889084E+04 -0.65687262058E+03 -0.39071962934E+04  0.43549218167E+04  0.87554117437E+03 0.  0.
         23    2    4    4    0    0 -0.15453132536E+04 -0.80551091572E+03 -0.35367608958E+04  0.39438100638E+04  0.90107151315E+02 0.  0.
         23    2    4    4    0    0 -0.36175654801E+02  0.14863829514E+03 -0.37043539758E+03  0.41111175289E+03  0.91588584461E+02 0.  0.
          2    1    3    3  502    0  0.79132850082E+02  0.15343696708E+02  0.57140079738E+01  0.80808952956E+02  0.00000000000E+00 0. -1.
         -1    1    3    3    0  502  0.15023560583E+04  0.64152892387E+03  0.94607746994E+01  0.16336225367E+04  0.00000000000E+00 0.  1.
         13    1    5    5    0    0 -0.26941304879E+03 -0.17393474680E+03 -0.60966772867E+03  0.68886241470E+03  0.00000000000E+00 0. -1.
        -13    1    5    5    0    0 -0.12759002048E+04 -0.63157616892E+03 -0.29270931671E+04  0.32549476492E+04  0.00000000000E+00 0.  1.
          3    1    6    6  503    0 -0.21561298949E+02  0.61599253099E+00 -0.10166679978E+03  0.10392981881E+03  0.00000000000E+00 0. -1.
         -3    1    6    6    0  503 -0.14614355853E+02  0.14802230261E+03 -0.26876859780E+03  0.30718193408E+03  0.00000000000E+00 0.  1.
<mgrwt>
<rscale>  0 0.46571685E+04</rscale>
<asrwt>0</asrwt>
<pdfrwt beam="1">  1        2 0.76625958E+00 0.46571685E+04</pdfrwt>
<pdfrwt beam="2">  1       -1 0.16748707E+00 0.46571685E+04</pdfrwt>
<totfact> 0.77841505E-03</totfact>
</mgrwt>
</event>
<event>
12    7  0.1707730E-007  0.1793979E+04  0.7818608E-02  0.8709508E-01
         -1   -1    0    0    0  501 -0.00000000000E+00  0.00000000000E+00  0.25650468233E+03  0.25650468233E+03  0.00000000000E+00 0.  1.
          2   -1    0    0  501    0  0.00000000000E+00 -0.00000000000E+00 -0.31367480777E+04  0.31367480777E+04  0.00000000000E+00 0. -1.
         24    2    1    2    0    0  0.38704780236E+03 -0.49481458555E+03 -0.14812884075E+04  0.16116431794E+04  0.92362958287E+02 0.  0.
        254    2    1    2    0    0 -0.38704780236E+03  0.49481458555E+03 -0.13989549878E+04  0.17816095806E+04  0.90686832804E+03 0.  0.
         23    2    4    4    0    0 -0.32475374137E+03  0.60750100465E+03 -0.46932750261E+03  0.83854398847E+03  0.91461755460E+02 0.  0.
         23    2    4    4    0    0 -0.62294060992E+02 -0.11268641910E+03 -0.92962748524E+03  0.94306559216E+03  0.92664290472E+02 0.  0.
          2    1    3    3  502    0  0.36651665714E+03 -0.47299752783E+03 -0.13450269518E+04  0.14721272440E+04  0.00000000000E+00 0. -1.
         -1    1    3    3    0  502  0.20531145224E+02 -0.21817057724E+02 -0.13626145568E+03  0.13951593542E+03  0.00000000000E+00 0.  1.
         13    1    5    5    0    0 -0.20803900747E+02  0.78039410437E+01 -0.10500016515E+02  0.24575478203E+02  0.00000000000E+00 0.  1.
        -13    1    5    5    0    0 -0.30394984062E+03  0.59969706361E+03 -0.45882748610E+03  0.81396851027E+03  0.00000000000E+00 0. -1.
          3    1    6    6  503    0 -0.74671645134E+02 -0.12140828834E+03 -0.86669778685E+03  0.87833984357E+03  0.00000000000E+00 0. -1.
         -3    1    6    6    0  503  0.12377584142E+02  0.87218692431E+01 -0.62929698384E+02  0.64725748594E+02  0.00000000000E+00 0.  1.
<mgrwt>
<rscale>  0 0.17939795E+04</rscale>
<asrwt>0</asrwt>
<pdfrwt beam="1">  1        2 0.48257663E+00 0.17939795E+04</pdfrwt>
<pdfrwt beam="2">  1       -1 0.39462258E-01 0.17939795E+04</pdfrwt>
<totfact> 0.96168361E+00</totfact>
</mgrwt>
</event>
<event>
12    7  0.1707730E-007  0.1483743E+04  0.7818608E-02  0.8895336E-01
         -1   -1    0    0    0  501 -0.00000000000E+00  0.00000000000E+00  0.43400673023E+03  0.43400673023E+03  0.00000000000E+00 0.  1.
          2   -1    0    0  501    0  0.00000000000E+00 -0.00000000000E+00 -0.12681223278E+04  0.12681223278E+04  0.00000000000E+00 0. -1.
         24    2    1    2    0    0  0.59082475328E+02  0.26394885539E+03  0.16985612863E+03  0.32829400717E+03  0.75934929744E+02 0.  0.
        254    2    1    2    0    0 -0.59082475328E+02 -0.26394885539E+03 -0.10039717262E+04  0.13738350508E+04  0.89794419804E+03 0.  0.
         23    2    4    4    0    0  0.18783700822E+03  0.24082609019E+03 -0.16344006567E+03  0.35813472669E+03  0.90927883618E+02 0.  0.
         23    2    4    4    0    0 -0.24691948355E+03 -0.50477494558E+03 -0.84053166051E+03  0.10157003242E+04  0.96884978829E+02 0.  0.
          2    1    3    3  502    0  0.29299092425E+00 -0.50587075083E+01  0.66271382847E+00  0.51103380470E+01  0.00000000000E+00 0. -1.
         -1    1    3    3    0  502  0.58789484404E+02  0.26900756290E+03  0.16919341480E+03  0.32318366912E+03  0.00000000000E+00 0.  1.
         13    1    5    5    0    0  0.91393345955E+02  0.16171720335E+03 -0.13651310989E+03  0.23052337564E+03  0.00000000000E+00 0.  1.
        -13    1    5    5    0    0  0.96443662267E+02  0.79108886837E+02 -0.26926955779E+02  0.12761135104E+03  0.00000000000E+00 0. -1.
          1    1    6    6  503    0 -0.68639604084E+02 -0.79294733585E+02 -0.20642903245E+03  0.23154264286E+03  0.00000000000E+00 0. -1.
         -1    1    6    6    0  503 -0.17827987946E+03 -0.42548021199E+03 -0.63410262806E+03  0.78415768129E+03  0.00000000000E+00 0.  1.
<mgrwt>
<rscale>  0 0.14837434E+04</rscale>
<asrwt>0</asrwt>
<pdfrwt beam="1">  1        2 0.19509574E+00 0.14837434E+04</pdfrwt>
<pdfrwt beam="2">  1       -1 0.66770268E-01 0.14837434E+04</pdfrwt>
<totfact> 0.43253297E+01</totfact>
</mgrwt>
</event>
<event>
12    7  0.1707730E-007  0.2710761E+04  0.7818608E-02  0.8331522E-01
         -1   -1    0    0    0  501 -0.00000000000E+00  0.00000000000E+00  0.10497820186E+04  0.10497820186E+04  0.00000000000E+00 0.  1.
          2   -1    0    0  501    0  0.00000000000E+00 -0.00000000000E+00 -0.17499406437E+04  0.17499406437E+04  0.00000000000E+00 0. -1.
         24    2    1    2    0    0 -0.29577882568E+03 -0.11365704136E+04 -0.63081055163E+03  0.13353918661E+04  0.77923456639E+02 0.  0.
        254    2    1    2    0    0  0.29577882568E+03  0.11365704136E+04 -0.69348073441E+02  0.14643307962E+04  0.87188193388E+03 0.  0.
         23    2    4    4    0    0 -0.12824220777E+03  0.70185117677E+01  0.16906870488E+03  0.23113578339E+03  0.91346592884E+02 0.  0.
         23    2    4    4    0    0  0.42402103345E+03  0.11295519018E+04 -0.23841677833E+03  0.12331950128E+04  0.90807729264E+02 0.  0.
          4    1    3    3  502    0 -0.15780274136E+03 -0.56282141997E+03 -0.27149695784E+03  0.64450000316E+03  0.00000000000E+00 0. -1.
         -1    1    3    3    0  502 -0.13797608431E+03 -0.57374899363E+03 -0.35931359378E+03  0.69089186289E+03  0.00000000000E+00 0.  1.
         13    1    5    5    0    0 -0.87710139417E+02 -0.15444449300E+02  0.16115231571E+03  0.18412405717E+03  0.00000000000E+00 0.  1.
        -13    1    5    5    0    0 -0.40532068352E+02  0.22462961068E+02  0.79163891785E+01  0.47011726223E+02  0.00000000000E+00 0. -1.
          3    1    6    6  503    0  0.33664337595E+03  0.79282155431E+03 -0.15060032382E+03  0.87439992972E+03  0.00000000000E+00 0. -1.
         -3    1    6    6    0  503  0.87377657497E+02  0.33673034752E+03 -0.87816454500E+02  0.35879508309E+03  0.00000000000E+00 0.  1.
<mgrwt>
<rscale>  0 0.27107609E+04</rscale>
<asrwt>0</asrwt>
<pdfrwt beam="1">  1        2 0.26922164E+00 0.27107609E+04</pdfrwt>
<pdfrwt beam="2">  1       -1 0.16150493E+00 0.27107609E+04</pdfrwt>
<totfact> 0.26129050E+00</totfact>
</mgrwt>
</event>
<event>
12    7  0.1707730E-007  0.2112404E+04  0.7818608E-02  0.8555799E-01
          2   -1    0    0  501    0  0.00000000000E+00  0.00000000000E+00  0.14620511915E+04  0.14620511915E+04  0.00000000000E+00 0. -1.
         -1   -1    0    0    0  501 -0.00000000000E+00 -0.00000000000E+00 -0.76301172097E+03  0.76301172097E+03  0.00000000000E+00 0.  1.
         24    2    1    2    0    0  0.64216145750E+03  0.55525829134E+03  0.36181828491E+03  0.92639575302E+03  0.81323504044E+02 0.  0.
        254    2    1    2    0    0 -0.64216145750E+03 -0.55525829134E+03  0.33722118560E+03  0.12986671594E+04  0.92311167006E+03 0.  0.
         23    2    4    4    0    0 -0.21770876988E+03 -0.62140667550E+03  0.49905209100E+03  0.83094203771E+03  0.88703526726E+02 0.  0.
         23    2    4    4    0    0 -0.42445268762E+03  0.66148384159E+02 -0.16183090540E+03  0.46772512174E+03  0.89676389365E+02 0.  0.
          4    1    3    3  502    0  0.56492099245E+02  0.30867417223E+02  0.10048756640E+02  0.65154679288E+02  0.00000000000E+00 0. -1.
         -3    1    3    3    0  502  0.58566935825E+03  0.52439087412E+03  0.35176952827E+03  0.86124107373E+03  0.00000000000E+00 0.  1.
         13    1    5    5    0    0 -0.10803710575E+03 -0.31158814454E+03  0.19449234766E+03  0.38286611412E+03  0.00000000000E+00 0. -1.
        -13    1    5    5    0    0 -0.10967166413E+03 -0.30981853096E+03  0.30455974334E+03  0.44807592359E+03  0.00000000000E+00 0.  1.
          4    1    6    6  503    0 -0.11872851335E+03 -0.53867614493E+01 -0.10896076572E+02  0.11934907443E+03  0.00000000000E+00 0. -1.
         -4    1    6    6    0  503 -0.30572417427E+03  0.71535145609E+02 -0.15093482883E+03  0.34837604732E+03  0.00000000000E+00 0.  1.
<mgrwt>
<rscale>  0 0.21124036E+04</rscale>
<asrwt>0</asrwt>
<pdfrwt beam="1">  1        2 0.22493095E+00 0.21124036E+04</pdfrwt>
<pdfrwt beam="2">  1       -1 0.11738642E+00 0.21124036E+04</pdfrwt>
<totfact> 0.91396751E+00</totfact>
</mgrwt>
</event>
<event>
12    7  0.1707730E-007  0.1758963E+04  0.7818608E-02  0.8728432E-01
          2   -1    0    0  501    0  0.00000000000E+00  0.00000000000E+00  0.19247341595E+04  0.19247341595E+04  0.00000000000E+00 0. -1.
         -1   -1    0    0    0  501 -0.00000000000E+00 -0.00000000000E+00 -0.40186717190E+03  0.40186717190E+03  0.00000000000E+00 0.  1.
         24    2    1    2    0    0 -0.33711024593E+03 -0.55899553880E+03  0.57856504001E+03  0.87590998170E+03  0.79758762569E+02 0.  0.
        254    2    1    2    0    0  0.33711024593E+03  0.55899553880E+03  0.94430194764E+03  0.14506913497E+04  0.88694976949E+03 0.  0.
         23    2    4    4    0    0  0.23703924410E+03 -0.20927602832E+02 -0.78917605680E+02  0.26677998471E+03  0.91203091783E+02 0.  0.
         23    2    4    4    0    0  0.10007100183E+03  0.57992314164E+03  0.10232195533E+04  0.11839113650E+04  0.91338985948E+02 0.  0.
          4    1    3    3  502    0 -0.14688636516E+03 -0.25232956027E+03  0.20671509425E+03  0.35773864964E+03  0.00000000000E+00 0. -1.
         -3    1    3    3    0  502 -0.19022388077E+03 -0.30666597853E+03  0.37184994576E+03  0.51817133206E+03  0.00000000000E+00 0.  1.
         13    1    5    5    0    0  0.33758742668E+02 -0.23548767822E+01 -0.50346855902E+02  0.60663036937E+02  0.00000000000E+00 0. -1.
        -13    1    5    5    0    0  0.20328050144E+03 -0.18572726050E+02 -0.28570749778E+02  0.20611694777E+03  0.00000000000E+00 0.  1.
          3    1    6    6  503    0  0.93874333473E+02  0.33118276567E+03  0.53983251307E+03  0.64024491948E+03  0.00000000000E+00 0. -1.
         -3    1    6    6    0  503  0.61966683556E+01  0.24874037597E+03  0.48338704025E+03  0.54366644555E+03  0.00000000000E+00 0.  1.
<mgrwt>
<rscale>  0 0.17589627E+04</rscale>
<asrwt>0</asrwt>
<pdfrwt beam="1">  1        2 0.29611294E+00 0.17589627E+04</pdfrwt>
<pdfrwt beam="2">  1       -1 0.61825720E-01 0.17589627E+04</pdfrwt>
<totfact> 0.21058724E+01</totfact>
</mgrwt>
</event>
<event>
12    7  0.1707730E-007  0.1504669E+04  0.7818608E-02  0.8881354E-01
          2   -1    0    0  501    0  0.00000000000E+00  0.00000000000E+00  0.13413085138E+04  0.13413085138E+04  0.00000000000E+00 0. -1.
         -1   -1    0    0    0  501 -0.00000000000E+00 -0.00000000000E+00 -0.42198161641E+03  0.42198161641E+03  0.00000000000E+00 0.  1.
         24    2    1    2    0    0 -0.14407089952E+03 -0.11000445528E+03  0.81525396536E+03  0.83890076619E+03  0.79107921225E+02 0.  0.
        254    2    1    2    0    0  0.14407089952E+03  0.11000445528E+03  0.10407293201E+03  0.92438936401E+03  0.90044828660E+03 0.  0.
         23    2    4    4    0    0  0.50067540821E+03 -0.60126373594E+02  0.24881614440E+02  0.51122096384E+03  0.80229258681E+02 0.  0.
         23    2    4    4    0    0 -0.35660450869E+03  0.17013082888E+03  0.79191317566E+02  0.41316840017E+03  0.91244657727E+02 0.  0.
          4    1    3    3  502    0 -0.13913906598E+03 -0.12035890968E+03  0.72753857055E+03  0.75043875064E+03  0.00000000000E+00 0. -1.
         -3    1    3    3    0  502 -0.49318335340E+01  0.10354454396E+02  0.87715394812E+02  0.88462015549E+02  0.00000000000E+00 0.  1.
         13    1    5    5    0    0  0.47982928445E+03 -0.71979326593E+02  0.15424282190E+02  0.48544317294E+03  0.00000000000E+00 0.  1.
        -13    1    5    5    0    0  0.20846123762E+02  0.11852952999E+02  0.94573322505E+01  0.25777790906E+02  0.00000000000E+00 0. -1.
          4    1    6    6  503    0 -0.17787573243E+03  0.59852900466E+02  0.77770643395E+02  0.20315122164E+03  0.00000000000E+00 0. -1.
         -4    1    6    6    0  503 -0.17872877626E+03  0.11027792841E+03  0.14206741707E+01  0.21001717852E+03  0.00000000000E+00 0.  1.
<mgrwt>
<rscale>  0 0.15046694E+04</rscale>
<asrwt>0</asrwt>
<pdfrwt beam="1">  1        2 0.20635515E+00 0.15046694E+04</pdfrwt>
<pdfrwt beam="2">  1       -1 0.64920249E-01 0.15046694E+04</pdfrwt>
<totfact> 0.41426889E+01</totfact>
</mgrwt>
</event>
<event>
12    7  0.1707730E-007  0.1663623E+04  0.7818608E-02  0.8782388E-01
          2   -1    0    0  501    0  0.00000000000E+00  0.00000000000E+00  0.10493685443E+04  0.10493685443E+04  0.00000000000E+00 0. -1.
         -1   -1    0    0    0  501 -0.00000000000E+00 -0.00000000000E+00 -0.65935899687E+03  0.65935899687E+03  0.00000000000E+00 0.  1.
         24    2    1    2    0    0 -0.40919426509E+01  0.19032208910E+03  0.71043314043E+03  0.73971283558E+03  0.78870720180E+02 0.  0.
        254    2    1    2    0    0  0.40919426509E+01 -0.19032208910E+03 -0.32042359295E+03  0.96901470564E+03  0.89447134064E+03 0.  0.
         23    2    4    4    0    0 -0.74917816610E+02 -0.12255499380E+03  0.29422712757E+03  0.33893759287E+03  0.87616685137E+02 0.  0.
         23    2    4    4    0    0  0.79009759261E+02 -0.67767095304E+02 -0.61465072052E+03  0.63007711277E+03  0.91469877760E+02 0.  0.
          4    1    3    3  502    0  0.20368354541E+02  0.14006401539E+03  0.59298719701E+03  0.60964466215E+03  0.00000000000E+00 0. -1.
         -1    1    3    3    0  502 -0.24460297192E+02  0.50258073715E+02  0.11744594342E+03  0.13006817342E+03  0.00000000000E+00 0.  1.
         13    1    5    5    0    0 -0.24052480164E+02 -0.69355657783E+02  0.22938931952E+03  0.24084889242E+03  0.00000000000E+00 0.  1.
        -13    1    5    5    0    0 -0.50865336446E+02 -0.53199336017E+02  0.64837808044E+02  0.98088700452E+02  0.00000000000E+00 0. -1.
          1    1    6    6  503    0  0.13545162020E+02  0.22902522402E+02 -0.12920174351E+03  0.13191318157E+03  0.00000000000E+00 0. -1.
         -1    1    6    6    0  503  0.65464597241E+02 -0.90669617706E+02 -0.48544897701E+03  0.49816393120E+03  0.00000000000E+00 0.  1.
<mgrwt>
<rscale>  0 0.16636233E+04</rscale>
<asrwt>0</asrwt>
<pdfrwt beam="1">  1        2 0.16144131E+00 0.16636233E+04</pdfrwt>
<pdfrwt beam="2">  1       -1 0.10143985E+00 0.16636233E+04</pdfrwt>
<totfact> 0.23527081E+01</totfact>
</mgrwt>
</event>
<event>
12    7  0.1707730E-007  0.2605334E+04  0.7818608E-02  0.8366392E-01
          2   -1    0    0  501    0  0.00000000000E+00  0.00000000000E+00  0.30864631100E+04  0.30864631100E+04  0.00000000000E+00 0. -1.
         -1   -1    0    0    0  501 -0.00000000000E+00 -0.00000000000E+00 -0.54980120781E+03  0.54980120781E+03  0.00000000000E+00 0.  1.
         24    2    1    2    0    0  0.73959492081E+02 -0.79231738791E+02  0.27148350855E+04  0.27181184930E+04  0.78044382323E+02 0.  0.
        254    2    1    2    0    0 -0.73959492081E+02  0.79231738791E+02 -0.17817318330E+03  0.91814582483E+03  0.89414674271E+03 0.  0.
         23    2    4    4    0    0 -0.34717235841E+03 -0.17618263590E+02  0.21742805625E+03  0.41944081750E+03  0.88411481609E+02 0.  0.
         23    2    4    4    0    0  0.27321286633E+03  0.96850002381E+02 -0.39560123956E+03  0.49870500733E+03  0.90449711479E+02 0.  0.
          4    1    3    3  502    0  0.73347830989E+02 -0.59515588334E+02  0.25910886353E+04  0.25928097357E+04  0.00000000000E+00 0. -1.
         -3    1    3    3    0  502  0.61166109243E+00 -0.19716150457E+02  0.12374645023E+03  0.12530875732E+03  0.00000000000E+00 0.  1.
         13    1    5    5    0    0 -0.27760680184E+03 -0.27957826414E+01  0.12948008719E+03  0.30633061520E+03  0.00000000000E+00 0. -1.
        -13    1    5    5    0    0 -0.69565556573E+02 -0.14822480948E+02  0.87947969058E+02  0.11311020230E+03  0.00000000000E+00 0.  1.
          3    1    6    6  503    0  0.14413039200E+03  0.98330496274E+02 -0.22147791902E+03  0.28194844389E+03  0.00000000000E+00 0. -1.
         -3    1    6    6    0  503  0.12908247433E+03 -0.14804938932E+01 -0.17412332053E+03  0.21675656344E+03  0.00000000000E+00 0.  1.
<mgrwt>
<rscale>  0 0.26053339E+04</rscale>
<asrwt>0</asrwt>
<pdfrwt beam="1">  1        2 0.47484047E+00 0.26053339E+04</pdfrwt>
<pdfrwt beam="2">  1       -1 0.84584803E-01 0.26053339E+04</pdfrwt>
<totfact> 0.21353631E+00</totfact>
</mgrwt>
</event>
<event>
12    7  0.1707730E-007  0.1209151E+04  0.7818608E-02  0.9104884E-01
          2   -1    0    0  501    0  0.00000000000E+00  0.00000000000E+00  0.32322264591E+03  0.32322264591E+03  0.00000000000E+00 0. -1.
         -1   -1    0    0    0  501 -0.00000000000E+00 -0.00000000000E+00 -0.11308356791E+04  0.11308356791E+04  0.00000000000E+00 0.  1.
         24    2    1    2    0    0  0.15067536804E+03  0.16962339275E+03 -0.34498731659E+03  0.42053451366E+03  0.79736231826E+02 0.  0.
        254    2    1    2    0    0 -0.15067536804E+03 -0.16962339275E+03 -0.46262571656E+03  0.10335238113E+04  0.89592061760E+03 0.  0.
         23    2    4    4    0    0 -0.18747475200E+03 -0.97320876657E+02  0.23323118107E+03  0.32755850656E+03  0.90992613580E+02 0.  0.
         23    2    4    4    0    0  0.36799383962E+02 -0.72302516089E+02 -0.69585689762E+03  0.70596530476E+03  0.87111084577E+02 0.  0.
          2    1    3    3  502    0  0.12995906204E+03  0.13394062257E+03 -0.21779485792E+03  0.28681709907E+03  0.00000000000E+00 0. -1.
         -1    1    3    3    0  502  0.20716306001E+02  0.35682770178E+02 -0.12719245867E+03  0.13371741459E+03  0.00000000000E+00 0.  1.
         13    1    5    5    0    0 -0.68175453720E+02  0.43613984168E+01  0.10386093401E+03  0.12431415004E+03  0.00000000000E+00 0. -1.
        -13    1    5    5    0    0 -0.11929929828E+03 -0.10168227507E+03  0.12937024706E+03  0.20324435652E+03  0.00000000000E+00 0.  1.
          2    1    6    6  503    0  0.24499029587E+02 -0.89718616937E+02 -0.62766002068E+03  0.63451298981E+03  0.00000000000E+00 0. -1.
         -2    1    6    6    0  503  0.12300354375E+02  0.17416100848E+02 -0.68196876944E+02  0.71452314948E+02  0.00000000000E+00 0.  1.
<mgrwt>
<rscale>  0 0.12091513E+04</rscale>
<asrwt>0</asrwt>
<pdfrwt beam="1">  1        2 0.49726559E-01 0.12091513E+04</pdfrwt>
<pdfrwt beam="2">  1       -1 0.17397473E+00 0.12091513E+04</pdfrwt>
<totfact> 0.26258558E+01</totfact>
</mgrwt>
</event>
<event>
12    7  0.1707730E-007  0.1102259E+04  0.7818608E-02  0.9202993E-01
          2   -1    0    0  501    0  0.00000000000E+00  0.00000000000E+00  0.31276679715E+03  0.31276679715E+03  0.00000000000E+00 0. -1.
         -1   -1    0    0    0  501 -0.00000000000E+00 -0.00000000000E+00 -0.97115143761E+03  0.97115143761E+03  0.00000000000E+00 0.  1.
         24    2    1    2    0    0 -0.14739162008E+03 -0.77087665135E+02 -0.11398448665E+03  0.21723393267E+03  0.80816585660E+02 0.  0.
        254    2    1    2    0    0  0.14739162008E+03  0.77087665135E+02 -0.54440015381E+03  0.10666843021E+04  0.90209593453E+03 0.  0.
         23    2    4    4    0    0 -0.12412011229E+03 -0.12633405890E+03 -0.66584293328E+03  0.69509075674E+03  0.91859956466E+02 0.  0.
         23    2    4    4    0    0  0.27151173237E+03  0.20342172404E+03  0.12144277947E+03  0.37159354536E+03  0.90743570798E+02 0.  0.
          4    1    3    3  502    0 -0.67284391568E+02 -0.80290963999E+02 -0.64496578526E+02  0.12301884770E+03  0.00000000000E+00 0. -1.
         -3    1    3    3    0  502 -0.80107228516E+02  0.32032988640E+01 -0.49487908124E+02  0.94215084963E+02  0.00000000000E+00 0.  1.
         13    1    5    5    0    0 -0.11652074987E+02 -0.72307030933E+02 -0.20650027363E+03  0.21910372107E+03  0.00000000000E+00 0. -1.
        -13    1    5    5    0    0 -0.11246803730E+03 -0.54027027971E+02 -0.45934265964E+03  0.47598703568E+03  0.00000000000E+00 0.  1.
          4    1    6    6  503    0  0.34810299318E+02  0.22209001499E+02 -0.14757520593E+02  0.43849527936E+02  0.00000000000E+00 0. -1.
         -4    1    6    6    0  503  0.23670143305E+03  0.18121272254E+03  0.13620030006E+03  0.32774401742E+03  0.00000000000E+00 0.  1.
<mgrwt>
<rscale>  0 0.11022594E+04</rscale>
<asrwt>0</asrwt>
<pdfrwt beam="1">  1        2 0.48117969E-01 0.11022594E+04</pdfrwt>
<pdfrwt beam="2">  1       -1 0.14940791E+00 0.11022594E+04</pdfrwt>
<totfact> 0.42041980E+01</totfact>
</mgrwt>
</event>
<event>
12    7  0.1707730E-007  0.1629577E+04  0.7818608E-02  0.8802581E-01
         -1   -1    0    0    0  501 -0.00000000000E+00  0.00000000000E+00  0.65530090622E+03  0.65530090622E+03  0.00000000000E+00 0.  1.
          2   -1    0    0  501    0  0.00000000000E+00 -0.00000000000E+00 -0.10130918271E+04  0.10130918271E+04  0.00000000000E+00 0. -1.
         24    2    1    2    0    0 -0.21515811425E+03 -0.24507128417E+03 -0.59480645190E+03  0.68271135039E+03  0.77117600329E+02 0.  0.
        254    2    1    2    0    0  0.21515811425E+03  0.24507128417E+03  0.23701553101E+03  0.98568138293E+03  0.89946566264E+03 0.  0.
         23    2    4    4    0    0 -0.19332176440E+03  0.41455819530E+03  0.26156425214E+03  0.53477134431E+03  0.91283792754E+02 0.  0.
         23    2    4    4    0    0  0.40847987865E+03 -0.16948691114E+03 -0.24548721126E+02  0.45091003862E+03  0.84472474263E+02 0.  0.
          4    1    3    3  502    0 -0.19879781848E+03 -0.23013607621E+03 -0.49891061532E+03  0.58429015762E+03  0.00000000000E+00 0. -1.
         -3    1    3    3    0  502 -0.16360295771E+02 -0.14935207957E+02 -0.95895836577E+02  0.98421192775E+02  0.00000000000E+00 0.  1.
         13    1    5    5    0    0 -0.10366161013E+03  0.12937208862E+03  0.71655974920E+02  0.18060300515E+03  0.00000000000E+00 0. -1.
        -13    1    5    5    0    0 -0.89660154273E+02  0.28518610669E+03  0.18990827722E+03  0.35416833916E+03  0.00000000000E+00 0.  1.
          4    1    6    6  503    0  0.20378978948E+03 -0.12181475472E+03 -0.37399190789E+02  0.24034935456E+03  0.00000000000E+00 0.  1.
         -4    1    6    6    0  503  0.20469008917E+03 -0.47672156416E+02  0.12850469663E+02  0.21056068406E+03  0.00000000000E+00 0. -1.
<mgrwt>
<rscale>  0 0.16295766E+04</rscale>
<asrwt>0</asrwt>
<pdfrwt beam="1">  1        2 0.15586028E+00 0.16295766E+04</pdfrwt>
<pdfrwt beam="2">  1       -1 0.10081552E+00 0.16295766E+04</pdfrwt>
<totfact> 0.25233490E+01</totfact>
</mgrwt>
</event>
<event>
12    7  0.1707730E-007  0.1368619E+04  0.7818608E-02  0.8976853E-01
         -1   -1    0    0    0  501 -0.00000000000E+00  0.00000000000E+00  0.24340663618E+03  0.24340663618E+03  0.00000000000E+00 0.  1.
          2   -1    0    0  501    0  0.00000000000E+00 -0.00000000000E+00 -0.19238555689E+04  0.19238555689E+04  0.00000000000E+00 0. -1.
         24    2    1    2    0    0  0.20941465310E+03 -0.27121800248E+03 -0.75430792600E+03  0.83279018356E+03  0.84530117726E+02 0.  0.
        254    2    1    2    0    0 -0.20941465310E+03  0.27121800248E+03 -0.92614100674E+03  0.13344720215E+04  0.89758827426E+03 0.  0.
         23    2    4    4    0    0  0.16779700468E+02  0.39859012123E+03 -0.46012297123E+02  0.41232306837E+03  0.93474799461E+02 0.  0.
         23    2    4    4    0    0 -0.22619435356E+03 -0.12737211875E+03 -0.88012870962E+03  0.92214895317E+03  0.91348804652E+02 0.  0.
          2    1    3    3  502    0  0.17106850412E+02 -0.37913571884E+02 -0.16852833503E+03  0.17358537661E+03  0.00000000000E+00 0. -1.
         -1    1    3    3    0  502  0.19230780268E+03 -0.23330443059E+03 -0.58577959097E+03  0.65920480695E+03  0.00000000000E+00 0.  1.
         13    1    5    5    0    0 -0.24764695036E+02  0.22382202452E+03 -0.57193349686E+02  0.23233740127E+03  0.00000000000E+00 0. -1.
        -13    1    5    5    0    0  0.41544395504E+02  0.17476809671E+03  0.11181052563E+02  0.17998566710E+03  0.00000000000E+00 0.  1.
          1    1    6    6  503    0 -0.19953726471E+03 -0.13980125875E+03 -0.74390405339E+03  0.78278525318E+03  0.00000000000E+00 0. -1.
         -1    1    6    6    0  503 -0.26657088851E+02  0.12429140000E+02 -0.13622465624E+03  0.13936369998E+03  0.00000000000E+00 0.  1.
<mgrwt>
<rscale>  0 0.13686186E+04</rscale>
<asrwt>0</asrwt>
<pdfrwt beam="1">  1        2 0.29597779E+00 0.13686186E+04</pdfrwt>
<pdfrwt beam="2">  1       -1 0.37447174E-01 0.13686186E+04</pdfrwt>
<totfact> 0.56243781E+01</totfact>
</mgrwt>
</event>
<event>
12    7  0.1707730E-007  0.2819453E+04  0.7818608E-02  0.8297254E-01
          2   -1    0    0  501    0  0.00000000000E+00  0.00000000000E+00  0.11675125184E+04  0.11675125184E+04  0.00000000000E+00 0. -1.
         -1   -1    0    0    0  501 -0.00000000000E+00 -0.00000000000E+00 -0.17021907398E+04  0.17021907398E+04  0.00000000000E+00 0.  1.
         24    2    1    2    0    0  0.83293654542E+03 -0.84279486875E+03 -0.68174543807E+03  0.13694624247E+04  0.81018584152E+02 0.  0.
        254    2    1    2    0    0 -0.83293654542E+03  0.84279486875E+03  0.14706721662E+03  0.15002408335E+04  0.90829913180E+03 0.  0.
         23    2    4    4    0    0 -0.57102418138E+03  0.24498178534E+03  0.45212485078E+03  0.77413683638E+03  0.93735104830E+02 0.  0.
         23    2    4    4    0    0 -0.26191236405E+03  0.59781308340E+03 -0.30505763416E+03  0.72610399713E+03  0.90489144979E+02 0.  0.
          2    1    3    3  502    0  0.87184281204E+02 -0.61240314073E+02 -0.76878467885E+02  0.13138406974E+03  0.00000000000E+00 0. -1.
         -1    1    3    3    0  502  0.74575226422E+03 -0.78155455467E+03 -0.60486697018E+03  0.12380783550E+04  0.00000000000E+00 0.  1.
         13    1    5    5    0    0 -0.23133086180E+03  0.12057580275E+03  0.13848411730E+03  0.29534783320E+03  0.00000000000E+00 0.  1.
        -13    1    5    5    0    0 -0.33969331958E+03  0.12440598259E+03  0.31364073347E+03  0.47878900318E+03  0.00000000000E+00 0. -1.
          1    1    6    6  503    0 -0.18521704989E+03  0.32121744195E+03 -0.15117714201E+03  0.40042543482E+03  0.00000000000E+00 0. -1.
         -1    1    6    6    0  503 -0.76695314156E+02  0.27659564146E+03 -0.15388049215E+03  0.32567856231E+03  0.00000000000E+00 0.  1.
<mgrwt>
<rscale>  0 0.28194531E+04</rscale>
<asrwt>0</asrwt>
<pdfrwt beam="1">  1        2 0.17961731E+00 0.28194531E+04</pdfrwt>
<pdfrwt beam="2">  1       -1 0.26187550E+00 0.28194531E+04</pdfrwt>
<totfact> 0.11441802E+00</totfact>
</mgrwt>
</event>
<event>
12    7  0.1707730E-007  0.1712325E+04  0.7818608E-02  0.8754366E-01
          2   -1    0    0  501    0  0.00000000000E+00  0.00000000000E+00  0.26081838109E+04  0.26081838109E+04  0.00000000000E+00 0. -1.
         -1   -1    0    0    0  501 -0.00000000000E+00 -0.00000000000E+00 -0.28104387979E+03  0.28104387979E+03  0.00000000000E+00 0.  1.
         24    2    1    2    0    0  0.57967101012E+03 -0.22222099570E+02  0.50363722467E+03  0.77239468600E+03  0.80192239054E+02 0.  0.
        254    2    1    2    0    0 -0.57967101012E+03  0.22222099570E+02  0.18235027064E+04  0.21168330047E+04  0.90515609019E+03 0.  0.
         23    2    4    4    0    0  0.20654266508E+03  0.81548619086E+02  0.70925947696E+03  0.74882679613E+03  0.91556076667E+02 0.  0.
         23    2    4    4    0    0 -0.78621367520E+03 -0.59326519516E+02  0.11142432295E+04  0.13680062085E+04  0.90837399658E+02 0.  0.
          2    1    3    3  502    0  0.15059470680E+03 -0.41162407495E+02  0.13386139627E+03  0.20565014689E+03  0.00000000000E+00 0. -1.
         -1    1    3    3    0  502  0.42907630332E+03  0.18940307925E+02  0.36977582841E+03  0.56674453911E+03  0.00000000000E+00 0.  1.
         13    1    5    5    0    0  0.15467147321E+03  0.98291753825E+02  0.58761291926E+03  0.61552699078E+03  0.00000000000E+00 0.  1.
        -13    1    5    5    0    0  0.51871191877E+02 -0.16743134739E+02  0.12164655769E+03  0.13329980535E+03  0.00000000000E+00 0. -1.
          2    1    6    6  503    0 -0.68509084395E+03 -0.62802159579E+02  0.91759870290E+03  0.11468569899E+04  0.00000000000E+00 0.  1.
         -2    1    6    6    0  503 -0.10112283125E+03  0.34756400629E+01  0.19664452656E+03  0.22114921863E+03  0.00000000000E+00 0. -1.
<mgrwt>
<rscale>  0 0.17123248E+04</rscale>
<asrwt>0</asrwt>
<pdfrwt beam="1">  1        2 0.40125903E+00 0.17123248E+04</pdfrwt>
<pdfrwt beam="2">  1       -1 0.43237522E-01 0.17123248E+04</pdfrwt>
<totfact> 0.17224912E+01</totfact>
</mgrwt>
</event>
<event>
12    7  0.1707730E-007  0.1235022E+04  0.7818608E-02  0.9082742E-01
          2   -1    0    0  501    0  0.00000000000E+00  0.00000000000E+00  0.14395684119E+04  0.14395684119E+04  0.00000000000E+00 0. -1.
         -1   -1    0    0    0  501 -0.00000000000E+00 -0.00000000000E+00 -0.26488492675E+03  0.26488492675E+03  0.00000000000E+00 0.  1.
         24    2    1    2    0    0 -0.11818932927E+02  0.25062750900E+03  0.80031736655E+02  0.27515917083E+03  0.79709817294E+02 0.  0.
        254    2    1    2    0    0  0.11818932927E+02 -0.25062750900E+03  0.10946517485E+04  0.14292941678E+04  0.88411850574E+03 0.  0.
         23    2    4    4    0    0 -0.65739143982E+02  0.13059294097E+03 -0.79904157433E+02  0.18877873347E+03  0.88750124245E+02 0.  0.
         23    2    4    4    0    0  0.77558076910E+02 -0.38122044998E+03  0.11745559059E+04  0.12405154343E+04  0.89177799386E+02 0.  0.
          4    1    3    3  502    0 -0.86421828171E+01  0.83097568194E+02 -0.11329451662E+02  0.84310436119E+02  0.00000000000E+00 0. -1.
         -3    1    3    3    0  502 -0.31767501104E+01  0.16752994081E+03  0.91361188316E+02  0.19084873471E+03  0.00000000000E+00 0.  1.
         13    1    5    5    0    0 -0.51128721131E+02  0.35070561848E+02 -0.67003177518E+02  0.91288094680E+02  0.00000000000E+00 0.  1.
        -13    1    5    5    0    0 -0.14610422852E+02  0.95522379126E+02 -0.12900979915E+02  0.97490638794E+02  0.00000000000E+00 0. -1.
          4    1    6    6  503    0  0.19826035282E+02 -0.24734620134E+02  0.17210677538E+03  0.17500175782E+03  0.00000000000E+00 0. -1.
         -4    1    6    6    0  503  0.57732041628E+02 -0.35648582984E+03  0.10024491305E+04  0.10655136765E+04  0.00000000000E+00 0.  1.
<mgrwt>
<rscale>  0 0.12350222E+04</rscale>
<asrwt>0</asrwt>
<pdfrwt beam="1">  1        2 0.22147206E+00 0.12350222E+04</pdfrwt>
<pdfrwt beam="2">  1       -1 0.40751528E-01 0.12350222E+04</pdfrwt>
<totfact> 0.90668798E+01</totfact>
</mgrwt>
</event>
<event>
12    7  0.1707730E-007  0.1551612E+04  0.7818608E-02  0.8850839E-01
         -1   -1    0    0    0  501 -0.00000000000E+00  0.00000000000E+00  0.23275104097E+03  0.23275104097E+03  0.00000000000E+00 0.  1.
          2   -1    0    0  501    0  0.00000000000E+00 -0.00000000000E+00 -0.25859174992E+04  0.25859174992E+04  0.00000000000E+00 0. -1.
         24    2    1    2    0    0  0.23355637956E+03 -0.19163276442E+03 -0.38148869400E+02  0.31528586968E+03  0.81719915266E+02 0.  0.
        254    2    1    2    0    0 -0.23355637956E+03  0.19163276442E+03 -0.23150175888E+04  0.25033826705E+04  0.90351904211E+03 0.  0.
         23    2    4    4    0    0  0.36648636453E+02  0.35404826191E+03 -0.33909435179E+03  0.50039687481E+03  0.93374292971E+02 0.  0.
         23    2    4    4    0    0 -0.27020501602E+03 -0.16241549749E+03 -0.19759232371E+04  0.20029857957E+04  0.91048967467E+02 0.  0.
          4    1    3    3  502    0  0.95048316156E+02 -0.12831060924E+03 -0.69802469553E+01  0.15983278354E+03  0.00000000000E+00 0. -1.
         -3    1    3    3    0  502  0.13850806341E+03 -0.63322155182E+02 -0.31168622445E+02  0.15545308614E+03  0.00000000000E+00 0.  1.
         13    1    5    5    0    0  0.60836958345E+02  0.14185419396E+03 -0.13758757798E+03  0.20677062039E+03  0.00000000000E+00 0.  1.
        -13    1    5    5    0    0 -0.24188321892E+02  0.21219406796E+03 -0.20150677381E+03  0.29362625442E+03  0.00000000000E+00 0. -1.
          1    1    6    6  503    0 -0.20187650155E+03 -0.16332550645E+03 -0.15874887294E+04  0.16085862765E+04  0.00000000000E+00 0. -1.
         -1    1    6    6    0  503 -0.68328514464E+02  0.91000895666E+00 -0.38843450762E+03  0.39439951916E+03  0.00000000000E+00 0.  1.
<mgrwt>
<rscale>  0 0.15516121E+04</rscale>
<asrwt>0</asrwt>
<pdfrwt beam="1">  1        2 0.39783345E+00 0.15516121E+04</pdfrwt>
<pdfrwt beam="2">  1       -1 0.35807853E-01 0.15516121E+04</pdfrwt>
<totfact> 0.25395995E+01</totfact>
</mgrwt>
</event>
<event>
12    7  0.1707730E-007  0.1241177E+04  0.7818608E-02  0.9077558E-01
         -1   -1    0    0    0  501 -0.00000000000E+00  0.00000000000E+00  0.84498025036E+03  0.84498025036E+03  0.00000000000E+00 0.  1.
          2   -1    0    0  501    0  0.00000000000E+00 -0.00000000000E+00 -0.45578611678E+03  0.45578611678E+03  0.00000000000E+00 0. -1.
         24    2    1    2    0    0  0.23296196662E+03 -0.95981024264E+02 -0.47858372520E+02  0.26855609438E+03  0.79676327067E+02 0.  0.
        254    2    1    2    0    0 -0.23296196662E+03  0.95981024264E+02  0.43705250611E+03  0.10322102728E+04  0.90053290844E+03 0.  0.
         23    2    4    4    0    0 -0.13994414795E+03 -0.17872331493E+03 -0.20679372605E+03  0.32011217539E+03  0.90453147294E+02 0.  0.
         23    2    4    4    0    0 -0.93017818670E+02  0.27470433920E+03  0.64384623216E+03  0.71209809737E+03  0.91820156000E+02 0.  0.
          4    1    3    3  502    0  0.23868839705E+03 -0.88091169208E+02 -0.44805683436E+02  0.25834038447E+03  0.00000000000E+00 0. -1.
         -3    1    3    3    0  502 -0.57264304291E+01 -0.78898550558E+01 -0.30526890841E+01  0.10215709907E+02  0.00000000000E+00 0.  1.
         13    1    5    5    0    0 -0.46532639309E+02 -0.31209784117E+02 -0.98049446159E+01  0.56881227876E+02  0.00000000000E+00 0. -1.
        -13    1    5    5    0    0 -0.93411508643E+02 -0.14751353081E+03 -0.19698878144E+03  0.26323094752E+03  0.00000000000E+00 0.  1.
          1    1    6    6  503    0 -0.10864025422E+02 -0.52327057310E+01  0.19072399759E+02  0.22564677933E+02  0.00000000000E+00 0. -1.
         -1    1    6    6    0  503 -0.82153793248E+02  0.27993704493E+03  0.62477383240E+03  0.68953341944E+03  0.00000000000E+00 0.  1.
<mgrwt>
<rscale>  0 0.12411773E+04</rscale>
<asrwt>0</asrwt>
<pdfrwt beam="1">  1        2 0.70120942E-01 0.12411773E+04</pdfrwt>
<pdfrwt beam="2">  1       -1 0.12999696E+00 0.12411773E+04</pdfrwt>
<totfact> 0.39142047E+01</totfact>
</mgrwt>
</event>
<event>
12    7  0.1707730E-007  0.1495298E+04  0.7818608E-02  0.8887586E-01
         -1   -1    0    0    0  501 -0.00000000000E+00  0.00000000000E+00  0.31189726844E+04  0.31189726844E+04  0.00000000000E+00 0.  1.
          2   -1    0    0  501    0  0.00000000000E+00 -0.00000000000E+00 -0.17921888600E+03  0.17921888600E+03  0.00000000000E+00 0. -1.
         24    2    1    2    0    0  0.37388635933E+03  0.24508449182E+03  0.61395449713E+03  0.76338232689E+03  0.77168870946E+02 0.  0.
        254    2    1    2    0    0 -0.37388635933E+03 -0.24508449182E+03  0.23257993013E+04  0.25348092435E+04  0.90335933787E+03 0.  0.
         23    2    4    4    0    0  0.16764781453E+02 -0.42658076502E+03  0.17800349039E+04  0.18332597131E+04  0.10032302645E+03 0.  0.
         23    2    4    4    0    0 -0.39065114078E+03  0.18149627320E+03  0.54576439739E+03  0.70154953041E+03  0.93614930287E+02 0.  0.
          2    1    3    3  502    0  0.18428157772E+02  0.15568884847E+02  0.71280627189E+02  0.75252342068E+02  0.00000000000E+00 0. -1.
         -1    1    3    3    0  502  0.35545820156E+03  0.22951560698E+03  0.54267386994E+03  0.68812998482E+03  0.00000000000E+00 0.  1.
         13    1    5    5    0    0  0.37086301130E+02 -0.11191196109E+03  0.36711365768E+03  0.38558023603E+03  0.00000000000E+00 0.  1.
        -13    1    5    5    0    0 -0.20321519677E+02 -0.31466880394E+03  0.14129212462E+04  0.14476794771E+04  0.00000000000E+00 0. -1.
          1    1    6    6  503    0 -0.31355699557E+03  0.17421821006E+03  0.40596212176E+03  0.54173353090E+03  0.00000000000E+00 0. -1.
         -1    1    6    6    0  503 -0.77094145207E+02  0.72780631378E+01  0.13980227563E+03  0.15981599951E+03  0.00000000000E+00 0.  1.
<mgrwt>
<rscale>  0 0.14952977E+04</rscale>
<asrwt>0</asrwt>
<pdfrwt beam="1">  1        2 0.27572139E-01 0.14952977E+04</pdfrwt>
<pdfrwt beam="2">  1       -1 0.47984191E+00 0.14952977E+04</pdfrwt>
<totfact> 0.44150395E-01</totfact>
</mgrwt>
</event>
<event>
12    7  0.1707730E-007  0.2060798E+04  0.7818608E-02  0.8578712E-01
         -1   -1    0    0    0  501 -0.00000000000E+00  0.00000000000E+00  0.30160248925E+04  0.30160248925E+04  0.00000000000E+00 0.  1.
          2   -1    0    0  501    0  0.00000000000E+00 -0.00000000000E+00 -0.35202687814E+03  0.35202687814E+03  0.00000000000E+00 0. -1.
         24    2    1    2    0    0  0.55336622960E+02 -0.50822641738E+03  0.73144148979E+01  0.51739949490E+03  0.79325301750E+02 0.  0.
        254    2    1    2    0    0 -0.55336622960E+02  0.50822641738E+03  0.26566835995E+04  0.28506522757E+04  0.89827301880E+03 0.  0.
         23    2    4    4    0    0 -0.10065587866E+03  0.32802246500E+03  0.26164223983E+04  0.26403981912E+04  0.91137797257E+02 0.  0.
         23    2    4    4    0    0  0.45319255704E+02  0.18020395238E+03  0.40261201136E+02  0.21025408455E+03  0.89769239498E+02 0.  0.
          2    1    3    3  502    0 -0.10006874775E+02 -0.21902766236E+03 -0.17006536365E+02  0.21991470324E+03  0.00000000000E+00 0. -1.
         -1    1    3    3    0  502  0.65343497734E+02 -0.28919875502E+03  0.24320951263E+02  0.29748479167E+03  0.00000000000E+00 0.  1.
         13    1    5    5    0    0 -0.50327201138E+02  0.28155937032E+03  0.21638741866E+04  0.21826955815E+04  0.00000000000E+00 0. -1.
        -13    1    5    5    0    0 -0.50328677526E+02  0.46463094678E+02  0.45254821172E+03  0.45770260965E+03  0.00000000000E+00 0.  1.
          3    1    6    6  503    0  0.14881697973E+02  0.12476982006E+03 -0.14644025018E+02  0.12650462600E+03  0.00000000000E+00 0. -1.
         -3    1    6    6    0  503  0.30437557731E+02  0.55434132325E+02  0.54905226154E+02  0.83749458543E+02  0.00000000000E+00 0.  1.
<mgrwt>
<rscale>  0 0.20607977E+04</rscale>
<asrwt>0</asrwt>
<pdfrwt beam="1">  1        2 0.54157983E-01 0.20607977E+04</pdfrwt>
<pdfrwt beam="2">  1       -1 0.46400381E+00 0.20607977E+04</pdfrwt>
<totfact> 0.25145302E-01</totfact>
</mgrwt>
</event>
<event>
12    7  0.1707730E-007  0.1552787E+04  0.7818608E-02  0.8850090E-01
         -1   -1    0    0    0  501 -0.00000000000E+00  0.00000000000E+00  0.12640768862E+04  0.12640768862E+04  0.00000000000E+00 0.  1.
          2   -1    0    0  501    0  0.00000000000E+00 -0.00000000000E+00 -0.47685935149E+03  0.47685935149E+03  0.00000000000E+00 0. -1.
         24    2    1    2    0    0 -0.38827435732E+03 -0.27555337771E+03  0.46319929084E+03  0.66917646522E+03  0.80974798857E+02 0.  0.
        254    2    1    2    0    0  0.38827435732E+03  0.27555337771E+03  0.32401824383E+03  0.10717597724E+04  0.90387750660E+03 0.  0.
         23    2    4    4    0    0  0.38570577677E+03  0.57507657730E+02 -0.23525099201E+03  0.46486196769E+03  0.93153329717E+02 0.  0.
         23    2    4    4    0    0  0.25685805506E+01  0.21804571998E+03  0.55926923584E+03  0.60689780473E+03  0.89399852487E+02 0.  0.
          2    1    3    3  502    0 -0.20646648228E+02 -0.42831458143E+02  0.52994221680E+02  0.71198352658E+02  0.00000000000E+00 0. -1.
         -1    1    3    3    0  502 -0.36762770909E+03 -0.23272191957E+03  0.41020506916E+03  0.59797811256E+03  0.00000000000E+00 0.  1.
         13    1    5    5    0    0  0.55017474032E+02  0.31679173214E+02 -0.10892087434E+02  0.64413741026E+02  0.00000000000E+00 0.  1.
        -13    1    5    5    0    0  0.33068830273E+03  0.25828484516E+02 -0.22435890458E+03  0.40044822667E+03  0.00000000000E+00 0. -1.
          2    1    6    6  503    0  0.40509396841E+02  0.16824886266E+03  0.40769120489E+03  0.44290045107E+03  0.00000000000E+00 0. -1.
         -2    1    6    6    0  503 -0.37940816290E+02  0.49796857321E+02  0.15157803095E+03  0.16399735366E+03  0.00000000000E+00 0.  1.
<mgrwt>
<rscale>  0 0.15527870E+04</rscale>
<asrwt>0</asrwt>
<pdfrwt beam="1">  1        2 0.73362978E-01 0.15527870E+04</pdfrwt>
<pdfrwt beam="2">  1       -1 0.19447336E+00 0.15527870E+04</pdfrwt>
<totfact> 0.11767123E+01</totfact>
</mgrwt>
</event>
<event>
12    7  0.1707730E-007  0.2449418E+04  0.7818608E-02  0.8421231E-01
         -1   -1    0    0    0  501 -0.00000000000E+00  0.00000000000E+00  0.11779554303E+04  0.11779554303E+04  0.00000000000E+00 0.  1.
          2   -1    0    0  501    0  0.00000000000E+00 -0.00000000000E+00 -0.12733177359E+04  0.12733177359E+04  0.00000000000E+00 0. -1.
         24    2    1    2    0    0 -0.23340060244E+03  0.82860424231E+02  0.98556670203E+03  0.10191071166E+04  0.76784762901E+02 0.  0.
        254    2    1    2    0    0  0.23340060244E+03 -0.82860424231E+02 -0.10809290076E+04  0.14321660496E+04  0.90628383140E+03 0.  0.
         23    2    4    4    0    0 -0.84620996874E+02 -0.38325407068E+03 -0.82556763641E+03  0.91855253918E+03  0.90180092851E+02 0.  0.
         23    2    4    4    0    0  0.31802159931E+03  0.30039364645E+03 -0.25536137121E+03  0.51361351044E+03  0.84943085331E+02 0.  0.
          2    1    3    3  502    0 -0.83575947007E+02  0.66633783192E+02  0.46771244828E+03  0.47977071009E+03  0.00000000000E+00 0. -1.
         -1    1    3    3    0  502 -0.14982465543E+03  0.16226641039E+02  0.51785425374E+03  0.53933640650E+03  0.00000000000E+00 0.  1.
         13    1    5    5    0    0 -0.62275350975E+01 -0.23289390185E+03 -0.49075284691E+03  0.54324645279E+03  0.00000000000E+00 0. -1.
        -13    1    5    5    0    0 -0.78393461777E+02 -0.15036016884E+03 -0.33481478949E+03  0.37530608640E+03  0.00000000000E+00 0.  1.
          3    1    6    6  503    0  0.16825836878E+03  0.21444843597E+03 -0.14590268357E+03  0.30917083211E+03  0.00000000000E+00 0. -1.
         -3    1    6    6    0  503  0.14976323053E+03  0.85945210483E+02 -0.10945868764E+03  0.20444267833E+03  0.00000000000E+00 0.  1.
<mgrwt>
<rscale>  0 0.24494175E+04</rscale>
<asrwt>0</asrwt>
<pdfrwt beam="1">  1        2 0.19589504E+00 0.24494175E+04</pdfrwt>
<pdfrwt beam="2">  1       -1 0.18122391E+00 0.24494175E+04</pdfrwt>
<totfact> 0.35670675E+00</totfact>
</mgrwt>
</event>
<event>
12    7  0.1707730E-007  0.1163218E+04  0.7818608E-02  0.9145675E-01
          4   -1    0    0  501    0  0.00000000000E+00  0.00000000000E+00  0.39467083555E+03  0.39467083555E+03  0.00000000000E+00 0. -1.
         -1   -1    0    0    0  501 -0.00000000000E+00 -0.00000000000E+00 -0.85709226194E+03  0.85709226194E+03  0.00000000000E+00 0.  1.
         24    2    1    2    0    0  0.10087148339E+03 -0.78334403842E+02 -0.31189395880E+03  0.34580368353E+03  0.77401621544E+02 0.  0.
        254    2    1    2    0    0 -0.10087148339E+03  0.78334403842E+02 -0.15052746758E+03  0.90595941397E+03  0.88419036767E+03 0.  0.
         23    2    4    4    0    0 -0.29084850424E+03 -0.29324106330E+03  0.64879463590E+02  0.42760415622E+03  0.89737372359E+02 0.  0.
         23    2    4    4    0    0  0.18997702085E+03  0.37157546714E+03 -0.21540693117E+03  0.47835525775E+03  0.90906602515E+02 0.  0.
          4    1    3    3  502    0  0.19089150481E+02 -0.33791230069E+02 -0.30381432629E+02  0.49287669292E+02  0.00000000000E+00 0. -1.
         -3    1    3    3    0  502  0.81782332905E+02 -0.44543173772E+02 -0.28151252617E+03  0.29651601423E+03  0.00000000000E+00 0.  1.
         13    1    5    5    0    0 -0.27880579350E+03 -0.23944400110E+03  0.55348808742E+02  0.37165789482E+03  0.00000000000E+00 0. -1.
        -13    1    5    5    0    0 -0.12042710743E+02 -0.53797062199E+02  0.95306548475E+01  0.55946261404E+02  0.00000000000E+00 0.  1.
          4    1    6    6  503    0  0.18252263199E+03  0.34225671410E+03 -0.16932712038E+03  0.42323261126E+03  0.00000000000E+00 0. -1.
         -4    1    6    6    0  503  0.74543888635E+01  0.29318753045E+02 -0.46079810792E+02  0.55122646490E+02  0.00000000000E+00 0.  1.
<mgrwt>
<rscale>  0 0.11632185E+04</rscale>
<asrwt>0</asrwt>
<pdfrwt beam="1">  1        4 0.60718590E-01 0.11632185E+04</pdfrwt>
<pdfrwt beam="2">  1       -1 0.13186035E+00 0.11632185E+04</pdfrwt>
<totfact> 0.51638285E+00</totfact>
</mgrwt>
</event>
<event>
12    7  0.1707730E-007  0.2096971E+04  0.7818608E-02  0.8562579E-01
          2   -1    0    0  501    0  0.00000000000E+00  0.00000000000E+00  0.54351691202E+03  0.54351691202E+03  0.00000000000E+00 0. -1.
         -1   -1    0    0    0  501 -0.00000000000E+00 -0.00000000000E+00 -0.20226086549E+04  0.20226086549E+04  0.00000000000E+00 0.  1.
         24    2    1    2    0    0  0.22689166088E+03  0.63919363314E+03 -0.12585583977E+04  0.14319594110E+04  0.80561702778E+02 0.  0.
        254    2    1    2    0    0 -0.22689166088E+03 -0.63919363314E+03 -0.22053334517E+03  0.11341661559E+04  0.88184442304E+03 0.  0.
         23    2    4    4    0    0  0.30963711327E+02 -0.51124958550E+03  0.24842873838E+03  0.57633972678E+03  0.90087471555E+02 0.  0.
         23    2    4    4    0    0 -0.25785537221E+03 -0.12794404764E+03 -0.46896208354E+03  0.55782642912E+03  0.91574106153E+02 0.  0.
          2    1    3    3  502    0  0.18772373187E+03  0.50753727434E+03 -0.93237438209E+03  0.10780335212E+04  0.00000000000E+00 0. -1.
         -1    1    3    3    0  502  0.39167929009E+02  0.13165635880E+03 -0.32618401564E+03  0.35392588989E+03  0.00000000000E+00 0.  1.
         13    1    5    5    0    0  0.44709253428E+02 -0.11541079836E+03  0.66059209983E+02  0.14029393766E+03  0.00000000000E+00 0. -1.
        -13    1    5    5    0    0 -0.13745542101E+02 -0.39583878714E+03  0.18236952839E+03  0.43604578913E+03  0.00000000000E+00 0.  1.
          3    1    6    6  503    0 -0.25601637383E+03 -0.11060407732E+03 -0.40645964348E+03  0.49293720428E+03  0.00000000000E+00 0. -1.
         -3    1    6    6    0  503 -0.18389983800E+01 -0.17339970323E+02 -0.62502440069E+02  0.64889224840E+02  0.00000000000E+00 0.  1.
<mgrwt>
<rscale>  0 0.20969712E+04</rscale>
<asrwt>0</asrwt>
<pdfrwt beam="1">  1        2 0.83617985E-01 0.20969712E+04</pdfrwt>
<pdfrwt beam="2">  1       -1 0.31117057E+00 0.20969712E+04</pdfrwt>
<totfact> 0.16433344E+00</totfact>
</mgrwt>
</event>
<event>
12    7  0.2140978E-007  0.3582006E+04  0.7818608E-02  0.8094626E-01
          2   -1    0    0  501    0  0.00000000000E+00  0.00000000000E+00  0.24860387438E+04  0.24860387438E+04  0.00000000000E+00 0. -1.
         -1   -1    0    0    0  501 -0.00000000000E+00 -0.00000000000E+00 -0.12902825105E+04  0.12902825105E+04  0.00000000000E+00 0.  1.
         24    2    1    2    0    0  0.12003807418E+04 -0.87636865877E+03  0.13784697218E+04  0.20286827699E+04  0.80243725745E+02 0.  0.
        254    2    1    2    0    0 -0.12003807418E+04  0.87636865877E+03 -0.18271348852E+03  0.17476384844E+04  0.90106609179E+03 0.  0.
         23    2    4    4    0    0 -0.31739864715E+03  0.17346328133E+03  0.33666091037E+03  0.50193149736E+03  0.88109297432E+02 0.  0.
         23    2    4    4    0    0 -0.88298209470E+03  0.70290537744E+03 -0.51937439889E+03  0.12457069870E+04  0.91119603434E+02 0.  0.
          2    1    3    3  502    0  0.88846105066E+03 -0.67821028238E+03  0.10011638063E+04  0.15005536287E+04  0.00000000000E+00 0. -1.
         -1    1    3    3    0  502  0.31191969119E+03 -0.19815837640E+03  0.37730591547E+03  0.52812914115E+03  0.00000000000E+00 0.  1.
         13    1    5    5    0    0 -0.64853770001E+02 -0.77624277131E+00  0.69972264790E+02  0.95408237988E+02  0.00000000000E+00 0.  1.
        -13    1    5    5    0    0 -0.25254487715E+03  0.17423952410E+03  0.26668864558E+03  0.40652325938E+03  0.00000000000E+00 0. -1.
          3    1    6    6  503    0 -0.83568944761E+03  0.63545877461E+03 -0.48447057361E+03  0.11562423811E+04  0.00000000000E+00 0. -1.
         -3    1    6    6    0  503 -0.47292647082E+02  0.67446602827E+02 -0.34903825277E+02  0.89464605961E+02  0.00000000000E+00 0.  1.
<mgrwt>
<rscale>  0 0.35820063E+04</rscale>
<asrwt>0</asrwt>
<pdfrwt beam="1">  1        2 0.38246750E+00 0.35820063E+04</pdfrwt>
<pdfrwt beam="2">  1       -1 0.19850500E+00 0.35820063E+04</pdfrwt>
<totfact> 0.50701340E-01</totfact>
</mgrwt>
</event>
<event>
12    7  0.1707730E-007  0.1089207E+04  0.7818608E-02  0.9215776E-01
          2   -1    0    0  501    0  0.00000000000E+00  0.00000000000E+00  0.84202642595E+03  0.84202642595E+03  0.00000000000E+00 0. -1.
         -1   -1    0    0    0  501 -0.00000000000E+00 -0.00000000000E+00 -0.35223698228E+03  0.35223698228E+03  0.00000000000E+00 0.  1.
         24    2    1    2    0    0  0.44075850903E+02 -0.37897925890E+02  0.23695697920E+03  0.25667818434E+03  0.79725447043E+02 0.  0.
        254    2    1    2    0    0 -0.44075850903E+02  0.37897925890E+02  0.25283246447E+03  0.93758522389E+03  0.90097883635E+03 0.  0.
         23    2    4    4    0    0 -0.23016204740E+03 -0.65071172770E+02  0.52268216962E+03  0.58216976051E+03  0.92283010432E+02 0.  0.
         23    2    4    4    0    0  0.18608619650E+03  0.10296909866E+03 -0.26984970515E+03  0.35541546338E+03  0.90942731627E+02 0.  0.
          2    1    3    3  502    0  0.22707346337E+02 -0.59275415859E+02  0.19424202296E+03  0.20435058597E+03  0.00000000000E+00 0. -1.
         -1    1    3    3    0  502  0.21368504566E+02  0.21377489969E+02  0.42714956236E+02  0.52327598369E+02  0.00000000000E+00 0.  1.
         13    1    5    5    0    0 -0.20236134608E+02 -0.12593168970E+02  0.10290637141E+02  0.25961245373E+02  0.00000000000E+00 0. -1.
        -13    1    5    5    0    0 -0.20992591279E+03 -0.52478003800E+02  0.51239153248E+03  0.55620851513E+03  0.00000000000E+00 0.  1.
          3    1    6    6  503    0  0.33895097841E+02 -0.16600375347E+02 -0.45702320177E+02  0.59271849886E+02  0.00000000000E+00 0. -1.
         -3    1    6    6    0  503  0.15219109866E+03  0.11956947401E+03 -0.22414738498E+03  0.29614361350E+03  0.00000000000E+00 0.  1.
<mgrwt>
<rscale>  0 0.10892068E+04</rscale>
<asrwt>0</asrwt>
<pdfrwt beam="1">  1        2 0.12954253E+00 0.10892068E+04</pdfrwt>
<pdfrwt beam="2">  1       -1 0.54190305E-01 0.10892068E+04</pdfrwt>
<totfact> 0.12532545E+02</totfact>
</mgrwt>
</event>
<event>
12    7  0.1707730E-007  0.2601267E+04  0.7818608E-02  0.8367771E-01
          2   -1    0    0  501    0  0.00000000000E+00  0.00000000000E+00  0.96087769757E+03  0.96087769757E+03  0.00000000000E+00 0. -1.
         -1   -1    0    0    0  501 -0.00000000000E+00 -0.00000000000E+00 -0.17605231589E+04  0.17605231589E+04  0.00000000000E+00 0.  1.
         24    2    1    2    0    0  0.36492308628E+03 -0.10618852547E+04 -0.56987876200E+03  0.12616734956E+04  0.79303549465E+02 0.  0.
        254    2    1    2    0    0 -0.36492308628E+03  0.10618852547E+04 -0.22976669935E+03  0.14597273609E+04  0.90401442406E+03 0.  0.
         23    2    4    4    0    0 -0.46403655000E+03  0.63494654343E+03  0.22324278822E+03  0.82271476685E+03  0.92386212937E+02 0.  0.
         23    2    4    4    0    0  0.99113463725E+02  0.42693871130E+03 -0.45300948757E+03  0.63701259405E+03  0.92017972456E+02 0.  0.
          4    1    3    3  502    0  0.10005966607E+03 -0.19522397659E+03 -0.11492145445E+03  0.24765152635E+03  0.00000000000E+00 0. -1.
         -3    1    3    3    0  502  0.26486342021E+03 -0.86666127815E+03 -0.45495730754E+03  0.10140219692E+04  0.00000000000E+00 0.  1.
         13    1    5    5    0    0 -0.35508913365E+03  0.42331772635E+03  0.17745938310E+03  0.58032579034E+03  0.00000000000E+00 0. -1.
        -13    1    5    5    0    0 -0.10894741635E+03  0.21162881708E+03  0.45783405116E+02  0.24238897650E+03  0.00000000000E+00 0.  1.
          3    1    6    6  503    0  0.98066795371E+02  0.26736776115E+03 -0.32743054177E+03  0.43395089093E+03  0.00000000000E+00 0. -1.
         -3    1    6    6    0  503  0.10466683540E+01  0.15957095015E+03 -0.12557894580E+03  0.20306170312E+03  0.00000000000E+00 0.  1.
<mgrwt>
<rscale>  0 0.26012670E+04</rscale>
<asrwt>0</asrwt>
<pdfrwt beam="1">  1        2 0.14782734E+00 0.26012670E+04</pdfrwt>
<pdfrwt beam="2">  1       -1 0.27084971E+00 0.26012670E+04</pdfrwt>
<totfact> 0.13738339E+00</totfact>
</mgrwt>
</event>
<event>
12    7  0.1707730E-007  0.2212829E+04  0.7818608E-02  0.8513107E-01
         -1   -1    0    0    0  501 -0.00000000000E+00  0.00000000000E+00  0.87966584128E+03  0.87966584128E+03  0.00000000000E+00 0.  1.
          2   -1    0    0  501    0  0.00000000000E+00 -0.00000000000E+00 -0.13916111364E+04  0.13916111364E+04  0.00000000000E+00 0. -1.
         24    2    1    2    0    0 -0.12598502624E+03 -0.89335697170E+03 -0.23048481187E+02  0.90610736208E+03  0.80872822414E+02 0.  0.
        254    2    1    2    0    0  0.12598502624E+03  0.89335697170E+03 -0.48889681398E+03  0.13651696156E+04  0.90039384663E+03 0.  0.
         23    2    4    4    0    0  0.40772510016E+03  0.45242391160E+03 -0.55590653430E+03  0.82955436589E+03  0.90560576407E+02 0.  0.
         23    2    4    4    0    0 -0.28174007392E+03  0.44093306010E+03  0.67009720314E+02  0.53561524976E+03  0.92703615984E+02 0.  0.
          4    1    3    3  502    0 -0.13670526165E+02 -0.22414682506E+03 -0.35906922157E+02  0.22741589551E+03  0.00000000000E+00 0. -1.
         -3    1    3    3    0  502 -0.11231450008E+03 -0.66921014664E+03  0.12858440970E+02  0.67869146657E+03  0.00000000000E+00 0.  1.
         13    1    5    5    0    0  0.43416521769E+02  0.18784619347E+02 -0.62701122321E+02  0.78544809039E+02  0.00000000000E+00 0.  1.
        -13    1    5    5    0    0  0.36430857839E+03  0.43363929225E+03 -0.49320541198E+03  0.75100955685E+03  0.00000000000E+00 0. -1.
          4    1    6    6  503    0 -0.27441319870E+03  0.44009207730E+03  0.55030305538E+02  0.52154767246E+03  0.00000000000E+00 0. -1.
         -4    1    6    6    0  503 -0.73268752227E+01  0.84098279721E+00  0.11979414777E+02  0.14067577296E+02  0.00000000000E+00 0.  1.
<mgrwt>
<rscale>  0 0.22128288E+04</rscale>
<asrwt>0</asrwt>
<pdfrwt beam="1">  1        2 0.21409402E+00 0.22128288E+04</pdfrwt>
<pdfrwt beam="2">  1       -1 0.13533321E+00 0.22128288E+04</pdfrwt>
<totfact> 0.69687047E+00</totfact>
</mgrwt>
</event>
<event>
12    7  0.1707730E-007  0.2632830E+04  0.7818608E-02  0.8357134E-01
         -1   -1    0    0    0  501 -0.00000000000E+00  0.00000000000E+00  0.17465316733E+04  0.17465316733E+04  0.00000000000E+00 0.  1.
          2   -1    0    0  501    0  0.00000000000E+00 -0.00000000000E+00 -0.99222301996E+03  0.99222301996E+03  0.00000000000E+00 0. -1.
         24    2    1    2    0    0  0.81519489066E+03  0.67030654472E+03  0.84621280211E+03  0.13550819082E+04  0.79481430223E+02 0.  0.
        254    2    1    2    0    0 -0.81519489066E+03 -0.67030654472E+03 -0.91904148728E+02  0.13836727851E+04  0.89008450728E+03 0.  0.
         23    2    4    4    0    0 -0.23401291057E+03 -0.72529263692E+02 -0.41003223543E+03  0.48653541684E+03  0.92562094479E+02 0.  0.
         23    2    4    4    0    0 -0.58118198009E+03 -0.59777728102E+03  0.31812808671E+03  0.89713736829E+03  0.92411072619E+02 0.  0.
          4    1    3    3  502    0  0.42374481901E+03  0.36522250086E+03  0.40027715152E+03  0.68787276789E+03  0.00000000000E+00 0. -1.
         -3    1    3    3    0  502  0.39145007165E+03  0.30508404385E+03  0.44593565059E+03  0.66720914028E+03  0.00000000000E+00 0.  1.
         13    1    5    5    0    0  0.84626273156E+01 -0.62228273038E+01 -0.17494825152E+02  0.20406090949E+02  0.00000000000E+00 0.  1.
        -13    1    5    5    0    0 -0.24247553789E+03 -0.66306436388E+02 -0.39253741028E+03  0.46612932589E+03  0.00000000000E+00 0. -1.
          4    1    6    6  503    0 -0.47871231980E+03 -0.44159784574E+03  0.26293694802E+03  0.70236029296E+03  0.00000000000E+00 0. -1.
         -4    1    6    6    0  503 -0.10246966029E+03 -0.15617943528E+03  0.55191138688E+02  0.19477707533E+03  0.00000000000E+00 0.  1.
<mgrwt>
<rscale>  0 0.26328304E+04</rscale>
<asrwt>0</asrwt>
<pdfrwt beam="1">  1        2 0.15264970E+00 0.26328304E+04</pdfrwt>
<pdfrwt beam="2">  1       -1 0.26869718E+00 0.26328304E+04</pdfrwt>
<totfact> 0.13499790E+00</totfact>
</mgrwt>
</event>
<event>
12    7  0.1707730E-007  0.3118288E+04  0.7818608E-02  0.8210737E-01
          2   -1    0    0  501    0  0.00000000000E+00  0.00000000000E+00  0.20412534893E+04  0.20412534893E+04  0.00000000000E+00 0. -1.
         -1   -1    0    0    0  501 -0.00000000000E+00 -0.00000000000E+00 -0.11909009688E+04  0.11909009688E+04  0.00000000000E+00 0.  1.
         24    2    1    2    0    0 -0.10529715861E+04 -0.85263913781E+03 -0.80613988066E+02  0.13596711573E+04  0.80401371617E+02 0.  0.
        254    2    1    2    0    0  0.10529715861E+04  0.85263913781E+03  0.93096650855E+03  0.18724833008E+04  0.89652239872E+03 0.  0.
         23    2    4    4    0    0  0.64751147144E+03  0.72359527872E+03  0.10376591204E+04  0.14240562354E+04  0.91315269167E+02 0.  0.
         23    2    4    4    0    0  0.40546011465E+03  0.12904385909E+03 -0.10669261185E+03  0.44842706544E+03  0.93023101702E+02 0.  0.
          4    1    3    3  502    0 -0.10161007846E+04 -0.80128754730E+03 -0.75003154558E+02  0.12962052350E+04  0.00000000000E+00 0. -1.
         -3    1    3    3    0  502 -0.36870801489E+02 -0.51351590505E+02 -0.56108335079E+01  0.63465922371E+02  0.00000000000E+00 0.  1.
         13    1    5    5    0    0  0.14955483182E+03  0.22576259931E+03  0.27106323774E+03  0.38315881541E+03  0.00000000000E+00 0.  1.
        -13    1    5    5    0    0  0.49795663962E+03  0.49783267941E+03  0.76659588265E+03  0.10408974200E+04  0.00000000000E+00 0. -1.
          3    1    6    6  503    0  0.19763374345E+03  0.10080741385E+03 -0.84954057882E+02  0.23756772337E+03  0.00000000000E+00 0. -1.
         -3    1    6    6    0  503  0.20782637120E+03  0.28236445231E+02 -0.21738553965E+02  0.21085934206E+03  0.00000000000E+00 0.  1.
<mgrwt>
<rscale>  0 0.31182885E+04</rscale>
<asrwt>0</asrwt>
<pdfrwt beam="1">  1        2 0.31403900E+00 0.31182885E+04</pdfrwt>
<pdfrwt beam="2">  1       -1 0.18321553E+00 0.31182885E+04</pdfrwt>
<totfact> 0.12059025E+00</totfact>
</mgrwt>
</event>
<event>
12    7  0.1707730E-007  0.1327281E+04  0.7818608E-02  0.9008207E-01
         -1   -1    0    0    0  501 -0.00000000000E+00  0.00000000000E+00  0.43391203647E+03  0.43391203647E+03  0.00000000000E+00 0.  1.
          2   -1    0    0  501    0  0.00000000000E+00 -0.00000000000E+00 -0.10149954031E+04  0.10149954031E+04  0.00000000000E+00 0. -1.
         24    2    1    2    0    0  0.19426926364E+03 -0.55068271104E+02  0.12722354814E+03  0.25165493818E+03  0.79820520109E+02 0.  0.
        254    2    1    2    0    0 -0.19426926364E+03  0.55068271104E+02 -0.70830691481E+03  0.11972525014E+04  0.94389713706E+03 0.  0.
         23    2    4    4    0    0 -0.17506564812E+03  0.42946039561E+03 -0.10905947215E+03  0.48462559244E+03  0.88790674274E+02 0.  0.
         23    2    4    4    0    0 -0.19203615519E+02 -0.37439212451E+03 -0.59924744266E+03  0.71262690899E+03  0.90561427461E+02 0.  0.
          2    1    3    3  502    0  0.16994951456E+03 -0.18065878777E+02  0.86739671190E+02  0.19165850890E+03  0.00000000000E+00 0. -1.
         -1    1    3    3    0  502  0.24319749077E+02 -0.37002392327E+02  0.40483876950E+02  0.59996429277E+02  0.00000000000E+00 0.  1.
         13    1    5    5    0    0 -0.88951366560E+01  0.10575857706E+03 -0.53249089746E+01  0.10626549174E+03  0.00000000000E+00 0.  1.
        -13    1    5    5    0    0 -0.16617051146E+03  0.32370181855E+03 -0.10373456318E+03  0.37836010071E+03  0.00000000000E+00 0. -1.
          2    1    6    6  503    0  0.12972982310E+02 -0.24014640828E+03 -0.31202922594E+03  0.39395536996E+03  0.00000000000E+00 0. -1.
         -2    1    6    6    0  503 -0.32176597829E+02 -0.13424571622E+03 -0.28721821672E+03  0.31867153903E+03  0.00000000000E+00 0.  1.
<mgrwt>
<rscale>  0 0.13272810E+04</rscale>
<asrwt>0</asrwt>
<pdfrwt beam="1">  1        2 0.15615314E+00 0.13272810E+04</pdfrwt>
<pdfrwt beam="2">  1       -1 0.66755699E-01 0.13272810E+04</pdfrwt>
<totfact> 0.62520741E+01</totfact>
</mgrwt>
</event>
<event>
12    7  0.1707730E-007  0.1757606E+04  0.7818608E-02  0.8729175E-01
         -1   -1    0    0    0  501 -0.00000000000E+00  0.00000000000E+00  0.45385266631E+03  0.45385266631E+03  0.00000000000E+00 0.  1.
          2   -1    0    0  501    0  0.00000000000E+00 -0.00000000000E+00 -0.17016416198E+04  0.17016416198E+04  0.00000000000E+00 0. -1.
         24    2    1    2    0    0  0.19255221548E+03 -0.59905155523E+02  0.29184824418E+03  0.36413344440E+03  0.82175326926E+02 0.  0.
        254    2    1    2    0    0 -0.19255221548E+03  0.59905155523E+02 -0.15396371977E+04  0.17913608417E+04  0.89321105090E+03 0.  0.
         23    2    4    4    0    0  0.33121666439E+03 -0.59227123989E+02 -0.79608601190E+03  0.86926199258E+03  0.93011517593E+02 0.  0.
         23    2    4    4    0    0 -0.52376887987E+03  0.11913227951E+03 -0.74355118576E+03  0.92209884914E+03  0.94189076776E+02 0.  0.
          4    1    3    3  502    0 -0.38354904524E+01  0.88782625220E+01  0.12900774713E+02  0.16123415290E+02  0.00000000000E+00 0. -1.
         -3    1    3    3    0  502  0.19638770593E+03 -0.68783418045E+02  0.27894746946E+03  0.34801002911E+03  0.00000000000E+00 0.  1.
         13    1    5    5    0    0  0.22860889614E+03  0.21242947756E+01 -0.55203502083E+03  0.59750247217E+03  0.00000000000E+00 0.  1.
        -13    1    5    5    0    0  0.10260776825E+03 -0.61351418764E+02 -0.24405099107E+03  0.27175952041E+03  0.00000000000E+00 0. -1.
          1    1    6    6  503    0 -0.11431849610E+02  0.10639618712E+02 -0.54062449220E+02  0.56272880568E+02  0.00000000000E+00 0. -1.
         -1    1    6    6    0  503 -0.51233703026E+03  0.10849266080E+03 -0.68948873655E+03  0.86582596857E+03  0.00000000000E+00 0.  1.
<mgrwt>
<rscale>  0 0.17576059E+04</rscale>
<asrwt>0</asrwt>
<pdfrwt beam="1">  1        2 0.26179102E+00 0.17576059E+04</pdfrwt>
<pdfrwt beam="2">  1       -1 0.69823488E-01 0.17576059E+04</pdfrwt>
<totfact> 0.21899801E+01</totfact>
</mgrwt>
</event>
<event>
12    7  0.1707730E-007  0.2884382E+04  0.7818608E-02  0.8277539E-01
         -1   -1    0    0    0  501 -0.00000000000E+00  0.00000000000E+00  0.62841796044E+03  0.62841796044E+03  0.00000000000E+00 0.  1.
          2   -1    0    0  501    0  0.00000000000E+00 -0.00000000000E+00 -0.33097639647E+04  0.33097639647E+04  0.00000000000E+00 0. -1.
         24    2    1    2    0    0 -0.64078656788E+03  0.99888397857E+03 -0.19321556845E+04  0.22688989131E+04  0.79372921879E+02 0.  0.
        254    2    1    2    0    0  0.64078656788E+03 -0.99888397857E+03 -0.74919031977E+03  0.16692830120E+04  0.90379367704E+03 0.  0.
         23    2    4    4    0    0  0.63359070501E+03 -0.10408958076E+04 -0.87842355502E+03  0.15049070282E+04  0.90641921644E+02 0.  0.
         23    2    4    4    0    0  0.71958628700E+01  0.42011828994E+02  0.12923323525E+03  0.16437598375E+03  0.92203366113E+02 0.  0.
          2    1    3    3  502    0 -0.28274445420E+03  0.49678743154E+03 -0.97841525091E+03  0.11331542621E+04  0.00000000000E+00 0. -1.
         -1    1    3    3    0  502 -0.35804211368E+03  0.50209654703E+03 -0.95374043354E+03  0.11357446510E+04  0.00000000000E+00 0.  1.
         13    1    5    5    0    0  0.29528615811E+03 -0.40963235914E+03 -0.33714518954E+03  0.60717333906E+03  0.00000000000E+00 0.  1.
        -13    1    5    5    0    0  0.33830454689E+03 -0.63126344843E+03 -0.54127836548E+03  0.89773368919E+03  0.00000000000E+00 0. -1.
          2    1    6    6  503    0  0.32120276392E+02  0.27126629947E+02  0.12864327385E+03  0.13533904874E+03  0.00000000000E+00 0. -1.
         -2    1    6    6    0  503 -0.24924413522E+02  0.14885199048E+02  0.58996139861E+00  0.29036935006E+02  0.00000000000E+00 0.  1.
<mgrwt>
<rscale>  0 0.28843822E+04</rscale>
<asrwt>0</asrwt>
<pdfrwt beam="1">  1        2 0.50919445E+00 0.28843822E+04</pdfrwt>
<pdfrwt beam="2">  1       -1 0.96679688E-01 0.28843822E+04</pdfrwt>
<totfact> 0.11083904E+00</totfact>
</mgrwt>
</event>
<event>
12    7  0.1707730E-007  0.1435354E+04  0.7818608E-02  0.8928618E-01
          2   -1    0    0  501    0  0.00000000000E+00  0.00000000000E+00  0.20908016159E+04  0.20908016159E+04  0.00000000000E+00 0. -1.
         -1   -1    0    0    0  501 -0.00000000000E+00 -0.00000000000E+00 -0.24634572293E+03  0.24634572293E+03  0.00000000000E+00 0.  1.
         24    2    1    2    0    0  0.29388974500E+03  0.23587480560E+03  0.22327485167E+03  0.44422710415E+03  0.74013205156E+02 0.  0.
        254    2    1    2    0    0 -0.29388974500E+03 -0.23587480560E+03  0.16211810413E+04  0.18929202346E+04  0.90161573855E+03 0.  0.
         23    2    4    4    0    0  0.14679804492E+03  0.16536845514E+03  0.99755555446E+03  0.10254781638E+04  0.87132016475E+02 0.  0.
         23    2    4    4    0    0 -0.44068778991E+03 -0.40124326075E+03  0.62362548680E+03  0.86744207081E+03  0.91351606170E+02 0.  0.
          4    1    3    3  502    0  0.10051016505E+02  0.17992226628E+02 -0.30530197331E+01  0.20834204600E+02  0.00000000000E+00 0. -1.
         -3    1    3    3    0  502  0.28383872849E+03  0.21788257898E+03  0.22632787140E+03  0.42339289955E+03  0.00000000000E+00 0.  1.
         13    1    5    5    0    0 -0.42291594100E+01  0.21205933088E+02  0.40476958499E+02  0.45890756769E+02  0.00000000000E+00 0.  1.
        -13    1    5    5    0    0  0.15102720433E+03  0.14416252205E+03  0.95707859597E+03  0.97958740706E+03  0.00000000000E+00 0. -1.
          1    1    6    6  503    0 -0.37402730417E+03 -0.31903591299E+03  0.55441593077E+03  0.74098404999E+03  0.00000000000E+00 0. -1.
         -1    1    6    6    0  503 -0.66660485744E+02 -0.82207347755E+02  0.69209556029E+02  0.12645802082E+03  0.00000000000E+00 0.  1.
<mgrwt>
<rscale>  0 0.14353537E+04</rscale>
<asrwt>0</asrwt>
<pdfrwt beam="1">  1        2 0.32166178E+00 0.14353537E+04</pdfrwt>
<pdfrwt beam="2">  1       -1 0.37899343E-01 0.14353537E+04</pdfrwt>
<totfact> 0.44228930E+01</totfact>
</mgrwt>
</event>
<event>
12    7  0.1707730E-007  0.1344693E+04  0.7818608E-02  0.8994855E-01
         -1   -1    0    0    0  501 -0.00000000000E+00  0.00000000000E+00  0.12022150477E+04  0.12022150477E+04  0.00000000000E+00 0.  1.
          2   -1    0    0  501    0  0.00000000000E+00 -0.00000000000E+00 -0.37601404112E+03  0.37601404112E+03  0.00000000000E+00 0. -1.
         24    2    1    2    0    0  0.96621068233E+02  0.20787903322E+03 -0.10055333435E+03  0.26287020062E+03  0.80252389669E+02 0.  0.
        254    2    1    2    0    0 -0.96621068233E+02 -0.20787903322E+03  0.92675434091E+03  0.13153588882E+04  0.90484588357E+03 0.  0.
         23    2    4    4    0    0  0.26295636997E+03 -0.95466281619E+02  0.87686658852E+03  0.92457732053E+03  0.87683203258E+02 0.  0.
         23    2    4    4    0    0 -0.35957743821E+03 -0.11241275160E+03  0.49887752390E+02  0.39078156764E+03  0.91043313777E+02 0.  0.
          4    1    3    3  502    0  0.11715859272E+02  0.35163981651E+02  0.13158743141E+02  0.39330897334E+02  0.00000000000E+00 0. -1.
         -3    1    3    3    0  502  0.84905208961E+02  0.17271505157E+03 -0.11371207749E+03  0.22353930329E+03  0.00000000000E+00 0.  1.
         13    1    5    5    0    0  0.26295831150E+03 -0.83058298665E+02  0.86291036529E+03  0.90590289385E+03  0.00000000000E+00 0.  1.
        -13    1    5    5    0    0 -0.19415311926E-02 -0.12407982954E+02  0.13956223232E+02  0.18674426675E+02  0.00000000000E+00 0. -1.
          2    1    6    6  503    0 -0.34864759614E-01 -0.11345387964E+02 -0.64934669799E+01  0.13072266713E+02  0.00000000000E+00 0. -1.
         -2    1    6    6    0  503 -0.35954257345E+03 -0.10106736363E+03  0.56381219370E+02  0.37770930093E+03  0.00000000000E+00 0.  1.
<mgrwt>
<rscale>  0 0.13446929E+04</rscale>
<asrwt>0</asrwt>
<pdfrwt beam="1">  1        2 0.57848315E-01 0.13446929E+04</pdfrwt>
<pdfrwt beam="2">  1       -1 0.18495616E+00 0.13446929E+04</pdfrwt>
<totfact> 0.18288567E+01</totfact>
</mgrwt>
</event>
<event>
12    7  0.1707730E-007  0.1889658E+04  0.7818608E-02  0.8660022E-01
          2   -1    0    0  501    0  0.00000000000E+00  0.00000000000E+00  0.28306674394E+04  0.28306674394E+04  0.00000000000E+00 0. -1.
         -1   -1    0    0    0  501 -0.00000000000E+00 -0.00000000000E+00 -0.31536780224E+03  0.31536780224E+03  0.00000000000E+00 0.  1.
         24    2    1    2    0    0  0.25231324163E+03 -0.63526075308E+03  0.62015846004E+03  0.92668964881E+03  0.83300620360E+02 0.  0.
        254    2    1    2    0    0 -0.25231324163E+03  0.63526075308E+03  0.18951411771E+04  0.22193455928E+04  0.93097614519E+03 0.  0.
         23    2    4    4    0    0  0.12065838791E+02 -0.18221187379E+03  0.98944279218E+02  0.22665477634E+03  0.90750569316E+02 0.  0.
         23    2    4    4    0    0 -0.26437908042E+03  0.81747262687E+03  0.17961968979E+04  0.19926908165E+04  0.79596484046E+02 0.  0.
          4    1    3    3  502    0  0.40730791030E+02 -0.47404581364E+02  0.40827460607E+02  0.74653018772E+02  0.00000000000E+00 0. -1.
         -1    1    3    3    0  502  0.21158245060E+03 -0.58785617171E+03  0.57933099944E+03  0.85203663004E+03  0.00000000000E+00 0.  1.
         13    1    5    5    0    0 -0.81082993471E+01 -0.46579488106E+00  0.30240117185E+02  0.31311757704E+02  0.00000000000E+00 0.  1.
        -13    1    5    5    0    0  0.20174138138E+02 -0.18174607891E+03  0.68704162033E+02  0.19534301863E+03  0.00000000000E+00 0. -1.
          1    1    6    6  503    0 -0.24313420965E+03  0.77104717865E+03  0.17252155536E+04  0.19052550228E+04  0.00000000000E+00 0. -1.
         -1    1    6    6    0  503 -0.21244870765E+02  0.46425448217E+02  0.70981344283E+02  0.87435793656E+02  0.00000000000E+00 0.  1.
<mgrwt>
<rscale>  0 0.18896575E+04</rscale>
<asrwt>0</asrwt>
<pdfrwt beam="1">  1        2 0.43548728E+00 0.18896575E+04</pdfrwt>
<pdfrwt beam="2">  1       -1 0.48518126E-01 0.18896575E+04</pdfrwt>
<totfact> 0.10069425E+01</totfact>
</mgrwt>
</event>
<event>
12    7  0.1707730E-007  0.1135091E+04  0.7818608E-02  0.9171649E-01
          2   -1    0    0  501    0  0.00000000000E+00  0.00000000000E+00  0.10531833793E+04  0.10531833793E+04  0.00000000000E+00 0. -1.
         -1   -1    0    0    0  501 -0.00000000000E+00 -0.00000000000E+00 -0.30584235259E+03  0.30584235259E+03  0.00000000000E+00 0.  1.
         24    2    1    2    0    0 -0.82199449468E+02  0.16399583927E+03  0.51872659047E+02  0.20683359235E+03  0.80237007537E+02 0.  0.
        254    2    1    2    0    0  0.82199449468E+02 -0.16399583927E+03  0.69546836769E+03  0.11521921396E+04  0.90012170912E+03 0.  0.
         23    2    4    4    0    0  0.41049397820E+03 -0.24396881104E+03  0.15793882207E+03  0.51139585511E+03  0.92493038694E+02 0.  0.
         23    2    4    4    0    0 -0.32829452874E+03  0.79972971775E+02  0.53752954561E+03  0.64079628445E+03  0.86653862809E+02 0.  0.
          4    1    3    3  502    0  0.23516081280E+01  0.26728025186E+02  0.35910208830E+02  0.44827006250E+02  0.00000000000E+00 0. -1.
         -3    1    3    3    0  502 -0.84551057596E+02  0.13726781408E+03  0.15962450217E+02  0.16200658610E+03  0.00000000000E+00 0.  1.
         13    1    5    5    0    0  0.39470478362E+03 -0.20657406269E+03  0.13960215797E+03  0.46685487263E+03  0.00000000000E+00 0.  1.
        -13    1    5    5    0    0  0.15789194582E+02 -0.37394748355E+02  0.18336664109E+02  0.44540982485E+02  0.00000000000E+00 0. -1.
          1    1    6    6  503    0 -0.83155805177E+02  0.55318050549E+02  0.19201682274E+03  0.21643806243E+03  0.00000000000E+00 0. -1.
         -1    1    6    6    0  503 -0.24513872356E+03  0.24654921226E+02  0.34551272287E+03  0.42435822202E+03  0.00000000000E+00 0.  1.
<mgrwt>
<rscale>  0 0.11350913E+04</rscale>
<asrwt>0</asrwt>
<pdfrwt beam="1">  1        2 0.16202821E+00 0.11350913E+04</pdfrwt>
<pdfrwt beam="2">  1       -1 0.47052670E-01 0.11350913E+04</pdfrwt>
<totfact> 0.11851735E+02</totfact>
</mgrwt>
</event>
<event>
12    7  0.2629945E-007  0.2112692E+04  0.7818608E-02  0.8555673E-01
         -1   -1    0    0    0  501 -0.00000000000E+00  0.00000000000E+00  0.70028468036E+03  0.70028468036E+03  0.00000000000E+00 0.  1.
          2   -1    0    0  501    0  0.00000000000E+00 -0.00000000000E+00 -0.15934479816E+04  0.15934479816E+04  0.00000000000E+00 0. -1.
         24    2    1    2    0    0 -0.11599093308E+03 -0.14582093261E+03  0.54863893113E+03  0.58495801044E+03  0.80334029467E+02 0.  0.
        254    2    1    2    0    0  0.11599093308E+03  0.14582093261E+03 -0.14418022323E+04  0.17087746515E+04  0.89799748967E+03 0.  0.
         23    2    4    4    0    0  0.35550405427E+03 -0.14930386909E+03 -0.11612811875E+04  0.12270336069E+04  0.91447789380E+02 0.  0.
         23    2    4    4    0    0 -0.23951312120E+03  0.29512480170E+03 -0.28052104482E+03  0.48174104454E+03  0.94430893271E+02 0.  0.
          4    1    3    3  502    0 -0.83958621695E+01 -0.27093782069E+01  0.11028733953E+01  0.88908695617E+01  0.00000000000E+00 0. -1.
         -3    1    3    3    0  502 -0.10759507091E+03 -0.14311155440E+03  0.54753605773E+03  0.57606714088E+03  0.00000000000E+00 0.  1.
         13    1    5    5    0    0  0.13309289861E+02 -0.95845727583E+01 -0.13616765608E+02  0.21317071496E+02  0.00000000000E+00 0. -1.
        -13    1    5    5    0    0  0.34219476441E+03 -0.13971929633E+03 -0.11476644219E+04  0.12057165355E+04  0.00000000000E+00 0.  1.
          4    1    6    6  503    0 -0.70797783489E+01  0.11201367481E+02  0.75405140290E+01  0.15246417505E+02  0.00000000000E+00 0. -1.
         -4    1    6    6    0  503 -0.23243334285E+03  0.28392343422E+03 -0.28806155885E+03  0.46649462703E+03  0.00000000000E+00 0.  1.
<mgrwt>
<rscale>  0 0.21126923E+04</rscale>
<asrwt>0</asrwt>
<pdfrwt beam="1">  1        2 0.24514584E+00 0.21126923E+04</pdfrwt>
<pdfrwt beam="2">  1       -1 0.10773611E+00 0.21126923E+04</pdfrwt>
<totfact> 0.94532746E+00</totfact>
</mgrwt>
</event>
<event>
12    7  0.1707730E-007  0.2449608E+04  0.7818608E-02  0.8421161E-01
         -1   -1    0    0    0  501 -0.00000000000E+00  0.00000000000E+00  0.96774618334E+03  0.96774618334E+03  0.00000000000E+00 0.  1.
          2   -1    0    0  501    0  0.00000000000E+00 -0.00000000000E+00 -0.15501425350E+04  0.15501425350E+04  0.00000000000E+00 0. -1.
         24    2    1    2    0    0  0.89617596645E+03  0.17402070622E+03  0.30106374710E+03  0.96460038819E+03  0.79999750277E+02 0.  0.
        254    2    1    2    0    0 -0.89617596645E+03 -0.17402070622E+03 -0.88346009880E+03  0.15532883302E+04  0.89374958546E+03 0.  0.
         23    2    4    4    0    0 -0.98542800862E+03 -0.41799831338E+02 -0.46285240302E+03  0.10933829396E+04  0.91860326867E+02 0.  0.
         23    2    4    4    0    0  0.89252042177E+02 -0.13222087488E+03 -0.42060769578E+03  0.45990539054E+03  0.95675742553E+02 0.  0.
          4    1    3    3  502    0  0.12108127235E+03  0.35019377532E+02  0.68814984742E+02  0.14360547845E+03  0.00000000000E+00 0. -1.
         -3    1    3    3    0  502  0.77509469410E+03  0.13900132869E+03  0.23224876235E+03  0.82099490973E+03  0.00000000000E+00 0.  1.
         13    1    5    5    0    0 -0.66170376077E+03 -0.89945962705E+01 -0.35252989817E+03  0.74980670768E+03  0.00000000000E+00 0.  1.
        -13    1    5    5    0    0 -0.32372424785E+03 -0.32805235068E+02 -0.11032250485E+03  0.34357623197E+03  0.00000000000E+00 0. -1.
          2    1    6    6  503    0  0.28169829067E+02 -0.67837087828E+02 -0.30741710712E+03  0.31607070017E+03  0.00000000000E+00 0. -1.
         -2    1    6    6    0  503  0.61082213109E+02 -0.64383787053E+02 -0.11319058866E+03  0.14383469037E+03  0.00000000000E+00 0.  1.
<mgrwt>
<rscale>  0 0.24496077E+04</rscale>
<asrwt>0</asrwt>
<pdfrwt beam="1">  1        2 0.23848347E+00 0.24496077E+04</pdfrwt>
<pdfrwt beam="2">  1       -1 0.14888403E+00 0.24496077E+04</pdfrwt>
<totfact> 0.43189578E+00</totfact>
</mgrwt>
</event>
<event>
12    7  0.1707730E-007  0.2717921E+04  0.7818608E-02  0.8329214E-01
         -1   -1    0    0    0  501 -0.00000000000E+00  0.00000000000E+00  0.75922999154E+03  0.75922999154E+03  0.00000000000E+00 0.  1.
          2   -1    0    0  501    0  0.00000000000E+00 -0.00000000000E+00 -0.24324296483E+04  0.24324296483E+04  0.00000000000E+00 0. -1.
         24    2    1    2    0    0 -0.11632269150E+04  0.32143754830E+03 -0.63727777154E+03  0.13673243960E+04  0.83869498204E+02 0.  0.
        254    2    1    2    0    0  0.11632269150E+04 -0.32143754830E+03 -0.10359218852E+04  0.18243352438E+04  0.89366994822E+03 0.  0.
         23    2    4    4    0    0  0.56255758954E+03 -0.48079704606E+03 -0.18895649229E+03  0.76933485934E+03  0.92383595784E+02 0.  0.
         23    2    4    4    0    0  0.60066932544E+03  0.15935949776E+03 -0.84696539292E+03  0.10550003845E+04  0.97346527303E+02 0.  0.
          2    1    3    3  502    0 -0.44744981646E+03  0.13539379850E+03 -0.29150838442E+03  0.55092645345E+03  0.00000000000E+00 0. -1.
         -1    1    3    3    0  502 -0.71577709852E+03  0.18604374980E+03 -0.34576938712E+03  0.81639794259E+03  0.00000000000E+00 0.  1.
         13    1    5    5    0    0  0.34319667798E+03 -0.23385729114E+03 -0.97092972830E+02  0.42649764098E+03  0.00000000000E+00 0. -1.
        -13    1    5    5    0    0  0.21936091156E+03 -0.24693975492E+03 -0.91863519463E+02  0.34283721835E+03  0.00000000000E+00 0.  1.
          4    1    6    6  503    0  0.45165894055E+03  0.85924792725E+02 -0.66677185887E+03  0.80991578597E+03  0.00000000000E+00 0. -1.
         -4    1    6    6    0  503  0.14901038489E+03  0.73434705033E+02 -0.18019353405E+03  0.24508459850E+03  0.00000000000E+00 0.  1.
<mgrwt>
<rscale>  0 0.27179209E+04</rscale>
<asrwt>0</asrwt>
<pdfrwt beam="1">  1        2 0.37421995E+00 0.27179209E+04</pdfrwt>
<pdfrwt beam="2">  1       -1 0.11680461E+00 0.27179209E+04</pdfrwt>
<totfact> 0.25074932E+00</totfact>
</mgrwt>
</event>
<event>
12    7  0.1707730E-007  0.1503230E+04  0.7818608E-02  0.8882308E-01
          2   -1    0    0  501    0  0.00000000000E+00  0.00000000000E+00  0.28774332296E+04  0.28774332296E+04  0.00000000000E+00 0. -1.
         -3   -1    0    0    0  501 -0.00000000000E+00 -0.00000000000E+00 -0.19632964094E+03  0.19632964094E+03  0.00000000000E+00 0.  1.
         24    2    1    2    0    0 -0.10861684035E+03 -0.41014628727E+03  0.43303028257E+03  0.61531033320E+03  0.10523300606E+03 0.  0.
        254    2    1    2    0    0  0.10861684035E+03  0.41014628727E+03  0.22480733061E+04  0.24584525374E+04  0.90007649332E+03 0.  0.
         23    2    4    4    0    0  0.19002224502E+03  0.49971157104E+03  0.62150426485E+03  0.82519035819E+03  0.94082241687E+02 0.  0.
         23    2    4    4    0    0 -0.81405404674E+02 -0.89565283773E+02  0.16265690413E+04  0.16332621792E+04  0.84674198638E+02 0.  0.
          2    1    3    3  502    0 -0.69734068281E+02 -0.12644575369E+03  0.19679500856E+03  0.24408941865E+03  0.00000000000E+00 0. -1.
         -1    1    3    3    0  502 -0.38882772066E+02 -0.28370053357E+03  0.23623527401E+03  0.37122091455E+03  0.00000000000E+00 0.  1.
         13    1    5    5    0    0 -0.57639030814E+01  0.33895256122E+02  0.20615158541E+02  0.40088598479E+02  0.00000000000E+00 0. -1.
        -13    1    5    5    0    0  0.19578614810E+03  0.46581631492E+03  0.60088910631E+03  0.78510175972E+03  0.00000000000E+00 0.  1.
          3    1    6    6  503    0  0.50981234372E+01  0.31870035216E+01  0.96041145999E+01  0.11330793056E+02  0.00000000000E+00 0. -1.
         -3    1    6    6    0  503 -0.86503528111E+02 -0.92752287294E+02  0.16169649267E+04  0.16219313861E+04  0.00000000000E+00 0.  1.
<mgrwt>
<rscale>  0 0.15032304E+04</rscale>
<asrwt>0</asrwt>
<pdfrwt beam="1">  1        2 0.44268200E+00 0.15032304E+04</pdfrwt>
<pdfrwt beam="2">  1       -3 0.30204562E-01 0.15032304E+04</pdfrwt>
<totfact> 0.14016313E+01</totfact>
</mgrwt>
</event>
<event>
12    7  0.1707730E-007  0.1381859E+04  0.7818608E-02  0.8967055E-01
          2   -1    0    0  501    0  0.00000000000E+00  0.00000000000E+00  0.32105636384E+03  0.32105636384E+03  0.00000000000E+00 0. -1.
         -1   -1    0    0    0  501 -0.00000000000E+00 -0.00000000000E+00 -0.14869160504E+04  0.14869160504E+04  0.00000000000E+00 0.  1.
         24    2    1    2    0    0 -0.47426803841E+02 -0.14664329659E+03  0.13488404657E+03  0.21996987253E+03  0.80246374636E+02 0.  0.
        254    2    1    2    0    0  0.47426803841E+02  0.14664329659E+03 -0.13007437332E+04  0.15880025417E+04  0.89781081251E+03 0.  0.
         23    2    4    4    0    0  0.38647970003E+03  0.16565465313E+03 -0.11040304153E+04  0.11849590375E+04  0.91851728861E+02 0.  0.
         23    2    4    4    0    0 -0.33905289619E+03 -0.19011356535E+02 -0.19671331787E+03  0.40304350422E+03  0.91813064280E+02 0.  0.
          2    1    3    3  502    0 -0.35259950535E+02 -0.10921754019E+03  0.13916415886E+03  0.18038403008E+03  0.00000000000E+00 0. -1.
         -1    1    3    3    0  502 -0.12166853306E+02 -0.37425756396E+02 -0.42801122812E+01  0.39585842448E+02  0.00000000000E+00 0.  1.
         13    1    5    5    0    0  0.30073051142E+03  0.16007535992E+03 -0.93910560453E+03  0.99899063950E+03  0.00000000000E+00 0. -1.
        -13    1    5    5    0    0  0.85749188610E+02  0.55792932054E+01 -0.16492481076E+03  0.18596839802E+03  0.00000000000E+00 0.  1.
          1    1    6    6  503    0 -0.25988214943E+03 -0.44224720939E+02 -0.11884154999E+03  0.28916754925E+03  0.00000000000E+00 0. -1.
         -1    1    6    6    0  503 -0.79170746758E+02  0.25213364404E+02 -0.77871767883E+02  0.11387595497E+03  0.00000000000E+00 0.  1.
<mgrwt>
<rscale>  0 0.13818594E+04</rscale>
<asrwt>0</asrwt>
<pdfrwt beam="1">  1        2 0.49393286E-01 0.13818594E+04</pdfrwt>
<pdfrwt beam="2">  1       -1 0.22875632E+00 0.13818594E+04</pdfrwt>
<totfact> 0.10932418E+01</totfact>
</mgrwt>
</event>
<event>
12    7  0.1707730E-007  0.1771641E+04  0.7818608E-02  0.8721527E-01
          2   -1    0    0  501    0  0.00000000000E+00  0.00000000000E+00  0.89392999452E+03  0.89392999452E+03  0.00000000000E+00 0. -1.
         -1   -1    0    0    0  501 -0.00000000000E+00 -0.00000000000E+00 -0.87778495481E+03  0.87778495481E+03  0.00000000000E+00 0.  1.
         24    2    1    2    0    0 -0.49434829351E+03 -0.38311777140E+03  0.20231602403E+03  0.66218503879E+03  0.79986186062E+02 0.  0.
        254    2    1    2    0    0  0.49434829351E+03  0.38311777140E+03 -0.18617098433E+03  0.11095299105E+04  0.89735027994E+03 0.  0.
         23    2    4    4    0    0 -0.58170638088E+01 -0.34210850454E+02 -0.40467020499E+03  0.41622182558E+03  0.90985783272E+02 0.  0.
         23    2    4    4    0    0  0.50016535731E+03  0.41732862186E+03  0.21849922067E+03  0.69330808495E+03  0.92766523875E+02 0.  0.
          2    1    3    3  502    0 -0.48087789624E+03 -0.37034928839E+03  0.20976387419E+03  0.64218613300E+03  0.00000000000E+00 0. -1.
         -1    1    3    3    0  502 -0.13470397263E+02 -0.12768483015E+02 -0.74478501523E+01  0.19998905790E+02  0.00000000000E+00 0.  1.
         13    1    5    5    0    0  0.35842481845E+02 -0.96102806611E+01 -0.82792098860E+02  0.90728014598E+02  0.00000000000E+00 0. -1.
        -13    1    5    5    0    0 -0.41659545654E+02 -0.24600569793E+02 -0.32187810613E+03  0.32549381098E+03  0.00000000000E+00 0.  1.
          2    1    6    6  503    0  0.14527196870E+03  0.17714043440E+03  0.65312275010E+02  0.23821916728E+03  0.00000000000E+00 0. -1.
         -2    1    6    6    0  503  0.35489338861E+03  0.24018818746E+03  0.15318694566E+03  0.45508891768E+03  0.00000000000E+00 0.  1.
<mgrwt>
<rscale>  0 0.17716414E+04</rscale>
<asrwt>0</asrwt>
<pdfrwt beam="1">  1        2 0.13752769E+00 0.17716414E+04</pdfrwt>
<pdfrwt beam="2">  1       -1 0.13504384E+00 0.17716414E+04</pdfrwt>
<totfact> 0.14713361E+01</totfact>
</mgrwt>
</event>
<event>
12    7  0.1707730E-007  0.1249577E+04  0.7818608E-02  0.9070536E-01
          2   -1    0    0  501    0  0.00000000000E+00  0.00000000000E+00  0.15086984212E+04  0.15086984212E+04  0.00000000000E+00 0. -1.
         -1   -1    0    0    0  501 -0.00000000000E+00 -0.00000000000E+00 -0.25873982161E+03  0.25873982161E+03  0.00000000000E+00 0.  1.
         24    2    1    2    0    0 -0.84972986865E+02 -0.82289039108E+02  0.67305324850E+03  0.68789737377E+03  0.78804993932E+02 0.  0.
        254    2    1    2    0    0  0.84972986865E+02  0.82289039108E+02  0.57690535109E+03  0.10795408690E+04  0.90476339966E+03 0.  0.
         23    2    4    4    0    0  0.42847350180E+02 -0.37442666064E+03  0.78062724785E+02  0.39577861641E+03  0.92280575375E+02 0.  0.
         23    2    4    4    0    0  0.42125636685E+02  0.45671569974E+03  0.49884262630E+03  0.68376225263E+03  0.91230765907E+02 0.  0.
          4    1    3    3  502    0 -0.80344347133E+01 -0.36782987243E+02  0.37070643753E+03  0.37261347683E+03  0.00000000000E+00 0. -1.
         -3    1    3    3    0  502 -0.76938552152E+02 -0.45506051865E+02  0.30234681097E+03  0.31528389694E+03  0.00000000000E+00 0.  1.
         13    1    5    5    0    0  0.40775469804E+02 -0.32083137389E+03  0.98963692636E+02  0.33821475703E+03  0.00000000000E+00 0.  1.
        -13    1    5    5    0    0  0.20718803761E+01 -0.53595286744E+02 -0.20900967852E+02  0.57563859379E+02  0.00000000000E+00 0. -1.
          2    1    6    6  503    0  0.34432326954E+01  0.74532669169E+02  0.37734137235E+02  0.83611241695E+02  0.00000000000E+00 0. -1.
         -2    1    6    6    0  503  0.38682403990E+02  0.38218303057E+03  0.46110848907E+03  0.60015101094E+03  0.00000000000E+00 0.  1.
<mgrwt>
<rscale>  0 0.12495765E+04</rscale>
<asrwt>0</asrwt>
<pdfrwt beam="1">  1        2 0.23210744E+00 0.12495765E+04</pdfrwt>
<pdfrwt beam="2">  1       -1 0.39806127E-01 0.12495765E+04</pdfrwt>
<totfact> 0.86404676E+01</totfact>
</mgrwt>
</event>
<event>
12    7  0.1707730E-007  0.2513543E+04  0.7818608E-02  0.8398176E-01
          2   -1    0    0  501    0  0.00000000000E+00  0.00000000000E+00  0.12759047582E+04  0.12759047582E+04  0.00000000000E+00 0. -1.
         -1   -1    0    0    0  501 -0.00000000000E+00 -0.00000000000E+00 -0.12379255627E+04  0.12379255627E+04  0.00000000000E+00 0.  1.
         24    2    1    2    0    0 -0.10123743178E+04 -0.43449069210E+03 -0.19635667778E+02  0.11048001619E+04  0.80708843973E+02 0.  0.
        254    2    1    2    0    0  0.10123743178E+04  0.43449069210E+03  0.57614863331E+02  0.14090301590E+04  0.87656294439E+03 0.  0.
         23    2    4    4    0    0  0.12406975734E+03  0.27007647029E+03  0.33744912285E+03  0.45896155284E+03  0.91865074912E+02 0.  0.
         23    2    4    4    0    0  0.88830456048E+03  0.16441422181E+03 -0.27983425952E+03  0.95006860611E+03  0.90587609630E+02 0.  0.
          4    1    3    3  502    0 -0.16334797092E+02  0.12696075348E+01 -0.62273990628E+01  0.17527635277E+02  0.00000000000E+00 0. -1.
         -3    1    3    3    0  502 -0.99603952073E+03 -0.43576029964E+03 -0.13408268715E+02  0.10872725267E+04  0.00000000000E+00 0.  1.
         13    1    5    5    0    0  0.93362965610E+02  0.97133578064E+02  0.16193421076E+03  0.21065199726E+03  0.00000000000E+00 0.  1.
        -13    1    5    5    0    0  0.30706791729E+02  0.17294289223E+03  0.17551491209E+03  0.24830955559E+03  0.00000000000E+00 0. -1.
          3    1    6    6  503    0  0.74026751244E+03  0.11998592164E+03 -0.26248297324E+03  0.79453755268E+03  0.00000000000E+00 0. -1.
         -3    1    6    6    0  503  0.14803704804E+03  0.44428300171E+02 -0.17351286272E+02  0.15553105343E+03  0.00000000000E+00 0.  1.
<mgrwt>
<rscale>  0 0.25135434E+04</rscale>
<asrwt>0</asrwt>
<pdfrwt beam="1">  1        2 0.19629304E+00 0.25135434E+04</pdfrwt>
<pdfrwt beam="2">  1       -1 0.19045009E+00 0.25135434E+04</pdfrwt>
<totfact> 0.30411714E+00</totfact>
</mgrwt>
</event>
<event>
12    7  0.1707730E-007  0.1634715E+04  0.7818608E-02  0.8799501E-01
         -1   -1    0    0    0  501 -0.00000000000E+00  0.00000000000E+00  0.42231172507E+03  0.42231172507E+03  0.00000000000E+00 0.  1.
          2   -1    0    0  501    0  0.00000000000E+00 -0.00000000000E+00 -0.15819436234E+04  0.15819436234E+04  0.00000000000E+00 0. -1.
         24    2    1    2    0    0  0.10253332227E+03 -0.30724850793E+03 -0.96687639319E+03  0.10226850314E+04  0.78230339571E+02 0.  0.
        254    2    1    2    0    0 -0.10253332227E+03  0.30724850793E+03 -0.19275550514E+03  0.98157031704E+03  0.90631720425E+03 0.  0.
         23    2    4    4    0    0 -0.27686273347E+03  0.51990062676E+03 -0.30707943430E+03  0.67073337034E+03  0.92929221611E+02 0.  0.
         23    2    4    4    0    0  0.17432941120E+03 -0.21265211883E+03  0.11432392916E+03  0.31083694669E+03  0.89095338812E+02 0.  0.
          4    1    3    3  502    0  0.59280249332E+02 -0.24411066606E+03 -0.81134282131E+03  0.84934170917E+03  0.00000000000E+00 0. -1.
         -3    1    3    3    0  502  0.43253072943E+02 -0.63137841879E+02 -0.15553357189E+03  0.17334332228E+03  0.00000000000E+00 0.  1.
         13    1    5    5    0    0 -0.60270226078E+01  0.73500782353E+02 -0.29799704216E+02  0.79540633511E+02  0.00000000000E+00 0.  1.
        -13    1    5    5    0    0 -0.27083571087E+03  0.44639984441E+03 -0.27727973008E+03  0.59119273683E+03  0.00000000000E+00 0. -1.
          3    1    6    6  503    0  0.13795195332E+03 -0.20311578144E+03  0.75721929617E+02  0.25694468806E+03  0.00000000000E+00 0. -1.
         -3    1    6    6    0  503  0.36377457876E+02 -0.95363373918E+01  0.38601999539E+02  0.53892258635E+02  0.00000000000E+00 0.  1.
<mgrwt>
<rscale>  0 0.16347151E+04</rscale>
<asrwt>0</asrwt>
<pdfrwt beam="1">  1        2 0.24337594E+00 0.16347151E+04</pdfrwt>
<pdfrwt beam="2">  1       -1 0.64971035E-01 0.16347151E+04</pdfrwt>
<totfact> 0.29873792E+01</totfact>
</mgrwt>
</event>
<event>
12    7  0.1707730E-007  0.2296910E+04  0.7818608E-02  0.8479140E-01
         -1   -1    0    0    0  501 -0.00000000000E+00  0.00000000000E+00  0.36254776317E+04  0.36254776317E+04  0.00000000000E+00 0.  1.
          2   -1    0    0  501    0  0.00000000000E+00 -0.00000000000E+00 -0.36380017019E+03  0.36380017019E+03  0.00000000000E+00 0. -1.
         24    2    1    2    0    0  0.21575125557E+03 -0.62792211193E+02 -0.27175067033E+03  0.36133996613E+03  0.78909303816E+02 0.  0.
        254    2    1    2    0    0 -0.21575125557E+03  0.62792211193E+02  0.35334281319E+04  0.36279378358E+04  0.79140830879E+03 0.  0.
         23    2    4    4    0    0 -0.47973037636E+03  0.17226430012E+03  0.20667872791E+04  0.21306259686E+04  0.90228252599E+02 0.  0.
         23    2    4    4    0    0  0.26397912078E+03 -0.10947208892E+03  0.14666408527E+04  0.14973118672E+04  0.96116192272E+02 0.  0.
          4    1    3    3  502    0  0.18758504437E+03 -0.68497312625E+02 -0.26499783354E+03  0.33181905082E+03  0.00000000000E+00 0. -1.
         -3    1    3    3    0  502  0.28166211200E+02  0.57051014315E+01 -0.67528367920E+01  0.29520915305E+02  0.00000000000E+00 0.  1.
         13    1    5    5    0    0 -0.11714339096E+03  0.53363705589E+02  0.69169986625E+03  0.70357584104E+03  0.00000000000E+00 0. -1.
        -13    1    5    5    0    0 -0.36258698540E+03  0.11890059453E+03  0.13750874129E+04  0.14270501275E+04  0.00000000000E+00 0.  1.
          3    1    6    6  503    0  0.31727881512E+02 -0.49958832254E+02  0.21974923158E+03  0.22757914704E+03  0.00000000000E+00 0. -1.
         -3    1    6    6    0  503  0.23225123927E+03 -0.59513256670E+02  0.12468916211E+04  0.12697327202E+04  0.00000000000E+00 0.  1.
<mgrwt>
<rscale>  0 0.22969104E+04</rscale>
<asrwt>0</asrwt>
<pdfrwt beam="1">  1        2 0.55969260E-01 0.22969104E+04</pdfrwt>
<pdfrwt beam="2">  1       -1 0.55776576E+00 0.22969104E+04</pdfrwt>
<totfact> 0.61860910E-02</totfact>
</mgrwt>
</event>
<event>
12    7  0.1707730E-007  0.1415709E+04  0.7818608E-02  0.8942525E-01
          2   -1    0    0  501    0  0.00000000000E+00  0.00000000000E+00  0.66128298127E+03  0.66128298127E+03  0.00000000000E+00 0. -1.
         -1   -1    0    0    0  501 -0.00000000000E+00 -0.00000000000E+00 -0.75770613379E+03  0.75770613379E+03  0.00000000000E+00 0.  1.
         24    2    1    2    0    0  0.20351886598E+03 -0.39351946954E+03  0.11419888648E+03  0.46559444997E+03  0.86367264955E+02 0.  0.
        254    2    1    2    0    0 -0.20351886598E+03  0.39351946954E+03 -0.21062203900E+03  0.95339466508E+03  0.81750978122E+03 0.  0.
         23    2    4    4    0    0  0.22607587064E+03  0.40723061289E+03 -0.20594673340E+02  0.47479732502E+03  0.89784675267E+02 0.  0.
         23    2    4    4    0    0 -0.42959473662E+03 -0.13711143350E+02 -0.19002736566E+03  0.47859734007E+03  0.90583558311E+02 0.  0.
          4    1    3    3  502    0  0.19671391287E+03 -0.39594789483E+03  0.11776570539E+03  0.45753673110E+03  0.00000000000E+00 0. -1.
         -3    1    3    3    0  502  0.68049531098E+01  0.24284252970E+01 -0.35668189102E+01  0.80577188700E+01  0.00000000000E+00 0.  1.
         13    1    5    5    0    0 -0.14463022270E+01  0.33887023179E+02  0.12943770971E+02  0.36303764777E+02  0.00000000000E+00 0. -1.
        -13    1    5    5    0    0  0.22752217287E+03  0.37334358971E+03 -0.33538444312E+02  0.43849356024E+03  0.00000000000E+00 0.  1.
          3    1    6    6  503    0 -0.33205979117E+02 -0.56332477848E+01  0.91584795904E+01  0.34903413560E+02  0.00000000000E+00 0. -1.
         -3    1    6    6    0  503 -0.39638875750E+03 -0.80778955654E+01 -0.19918584525E+03  0.44369392651E+03  0.00000000000E+00 0.  1.
<mgrwt>
<rscale>  0 0.14157093E+04</rscale>
<asrwt>0</asrwt>
<pdfrwt beam="1">  1        2 0.10173584E+00 0.14157093E+04</pdfrwt>
<pdfrwt beam="2">  1       -1 0.11657017E+00 0.14157093E+04</pdfrwt>
<totfact> 0.32486144E+01</totfact>
</mgrwt>
</event>
<event>
12    7  0.1707730E-007  0.2738321E+04  0.7818608E-02  0.8322677E-01
         -1   -1    0    0    0  501 -0.00000000000E+00  0.00000000000E+00  0.14950322474E+04  0.14950322474E+04  0.00000000000E+00 0.  1.
          2   -1    0    0  501    0  0.00000000000E+00 -0.00000000000E+00 -0.12538864112E+04  0.12538864112E+04  0.00000000000E+00 0. -1.
         24    2    1    2    0    0  0.73612862997E+03 -0.65395520980E+03  0.82501138468E+03  0.12870213693E+04  0.78977489705E+02 0.  0.
        254    2    1    2    0    0 -0.73612862997E+03  0.65395520980E+03 -0.58386554847E+03  0.14618972894E+04  0.90923150500E+03 0.  0.
         23    2    4    4    0    0 -0.86625247844E+03  0.75412300380E+03 -0.49847729883E+03  0.12558318539E+04  0.97668656536E+02 0.  0.
         23    2    4    4    0    0  0.13012384848E+03 -0.10016779400E+03 -0.85388249649E+02  0.20606543550E+03  0.90587016908E+02 0.  0.
          4    1    3    3  502    0  0.28143922622E+03 -0.26618390645E+03  0.27723548282E+03  0.47636270115E+03  0.00000000000E+00 0. -1.
         -3    1    3    3    0  502  0.45468940374E+03 -0.38777130335E+03  0.54777590186E+03  0.81065866814E+03  0.00000000000E+00 0.  1.
         13    1    5    5    0    0 -0.83928146931E+03  0.71281694314E+03 -0.46038831134E+03  0.11935069235E+04  0.00000000000E+00 0. -1.
        -13    1    5    5    0    0 -0.26971009129E+02  0.41306060661E+02 -0.38088987484E+02  0.62324930392E+02  0.00000000000E+00 0.  1.
          2    1    6    6  503    0  0.11692893250E+03 -0.11749397347E+03 -0.75319849637E+02  0.18207220767E+03  0.00000000000E+00 0. -1.
         -2    1    6    6    0  503  0.13194915980E+02  0.17326179472E+02 -0.10068400012E+02  0.23993227828E+02  0.00000000000E+00 0.  1.
<mgrwt>
<rscale>  0 0.27383211E+04</rscale>
<asrwt>0</asrwt>
<pdfrwt beam="1">  1        2 0.19290560E+00 0.27383211E+04</pdfrwt>
<pdfrwt beam="2">  1       -1 0.23000496E+00 0.27383211E+04</pdfrwt>
<totfact> 0.16547039E+00</totfact>
</mgrwt>
</event>
<event>
12    7  0.1707730E-007  0.1994472E+04  0.7818608E-02  0.8609210E-01
          2   -1    0    0  501    0  0.00000000000E+00  0.00000000000E+00  0.15239570491E+04  0.15239570491E+04  0.00000000000E+00 0. -1.
         -1   -1    0    0    0  501 -0.00000000000E+00 -0.00000000000E+00 -0.65256376267E+03  0.65256376267E+03  0.00000000000E+00 0.  1.
         24    2    1    2    0    0 -0.60580480330E+03 -0.69734637993E+02  0.89874345485E+03  0.10888180447E+04  0.76958154092E+02 0.  0.
        254    2    1    2    0    0  0.60580480330E+03  0.69734637993E+02 -0.27350168387E+02  0.10877027671E+04  0.90027045842E+03 0.  0.
         23    2    4    4    0    0  0.43475207473E+03 -0.11647148175E+03  0.38235736873E+03  0.59747385834E+03  0.90569759996E+02 0.  0.
         23    2    4    4    0    0  0.17105272857E+03  0.18620611975E+03 -0.40970753712E+03  0.49022890872E+03  0.92370785335E+02 0.  0.
          4    1    3    3  502    0 -0.43456570294E+03 -0.56377541361E+02  0.70308941576E+03  0.82846877062E+03  0.00000000000E+00 0. -1.
         -3    1    3    3    0  502 -0.17123910036E+03 -0.13357096633E+02  0.19565403909E+03  0.26034927412E+03  0.00000000000E+00 0.  1.
         13    1    5    5    0    0  0.36553997899E+03 -0.73881100288E+02  0.27769217646E+03  0.46496326531E+03  0.00000000000E+00 0.  1.
        -13    1    5    5    0    0  0.69212095736E+02 -0.42590381466E+02  0.10466519228E+03  0.13251059303E+03  0.00000000000E+00 0. -1.
          2    1    6    6  503    0  0.61192326072E+02  0.84737220104E+02 -0.92663122630E+02  0.13968303955E+03  0.00000000000E+00 0. -1.
         -2    1    6    6    0  503  0.10986040250E+03  0.10146889964E+03 -0.31704441449E+03  0.35054586917E+03  0.00000000000E+00 0.  1.
<mgrwt>
<rscale>  0 0.19944715E+04</rscale>
<asrwt>0</asrwt>
<pdfrwt beam="1">  1        2 0.23445493E+00 0.19944715E+04</pdfrwt>
<pdfrwt beam="2">  1       -1 0.10039443E+00 0.19944715E+04</pdfrwt>
<totfact> 0.12307846E+01</totfact>
</mgrwt>
</event>
<event>
12    7  0.1707730E-007  0.1926072E+04  0.7818608E-02  0.8641987E-01
         -1   -1    0    0    0  501 -0.00000000000E+00  0.00000000000E+00  0.34350855232E+03  0.34350855232E+03  0.00000000000E+00 0.  1.
          2   -1    0    0  501    0  0.00000000000E+00 -0.00000000000E+00 -0.26998979130E+04  0.26998979130E+04  0.00000000000E+00 0. -1.
         24    2    1    2    0    0 -0.30011261081E+03  0.37848619689E+03 -0.23701917605E+02  0.49016731834E+03  0.79892669639E+02 0.  0.
        254    2    1    2    0    0  0.30011261081E+03 -0.37848619689E+03 -0.23326874431E+04  0.25532391470E+04  0.91884713321E+03 0.  0.
         23    2    4    4    0    0  0.39483335711E+03 -0.38531562050E+03 -0.61774460152E+03  0.83330834469E+03  0.91830808232E+02 0.  0.
         23    2    4    4    0    0 -0.94720746293E+02  0.68294236072E+01 -0.17149428416E+04  0.17199308023E+04  0.90079709456E+02 0.  0.
          4    1    3    3  502    0 -0.56978126139E+02  0.11125802122E+03  0.18754069718E+02  0.12639845440E+03  0.00000000000E+00 0. -1.
         -3    1    3    3    0  502 -0.24313448468E+03  0.26722817568E+03 -0.42455987323E+02  0.36376886394E+03  0.00000000000E+00 0.  1.
         13    1    5    5    0    0  0.28836518211E+03 -0.28233114240E+03 -0.38717723612E+03  0.55925983620E+03  0.00000000000E+00 0.  1.
        -13    1    5    5    0    0  0.10646817499E+03 -0.10298447810E+03 -0.23056736540E+03  0.27404850849E+03  0.00000000000E+00 0. -1.
          3    1    6    6  503    0 -0.10138842664E+03  0.83471326000E+01 -0.10422293968E+04  0.10471826026E+04  0.00000000000E+00 0. -1.
         -3    1    6    6    0  503  0.66676803438E+01 -0.15177089928E+01 -0.67271344475E+03  0.67274819966E+03  0.00000000000E+00 0.  1.
<mgrwt>
<rscale>  0 0.19260717E+04</rscale>
<asrwt>0</asrwt>
<pdfrwt beam="1">  1        2 0.41536891E+00 0.19260717E+04</pdfrwt>
<pdfrwt beam="2">  1       -1 0.52847469E-01 0.19260717E+04</pdfrwt>
<totfact> 0.10214092E+01</totfact>
</mgrwt>
</event>
<event>
12    7  0.1707730E-007  0.1626542E+04  0.7818608E-02  0.8804406E-01
         -1   -1    0    0    0  501 -0.00000000000E+00  0.00000000000E+00  0.79861498388E+03  0.79861498388E+03  0.00000000000E+00 0.  1.
          2   -1    0    0  501    0  0.00000000000E+00 -0.00000000000E+00 -0.82819551912E+03  0.82819551912E+03  0.00000000000E+00 0. -1.
         24    2    1    2    0    0  0.34949889894E+03 -0.15437817256E+03  0.38646904246E+03  0.55022212483E+03  0.86046297735E+02 0.  0.
        254    2    1    2    0    0 -0.34949889894E+03  0.15437817256E+03 -0.41604957770E+03  0.10765883782E+04  0.91649505420E+03 0.  0.
         23    2    4    4    0    0 -0.44064349874E+03  0.42016575039E+03 -0.47125644956E+03  0.77570374827E+03  0.94486575998E+02 0.  0.
         23    2    4    4    0    0  0.91144599801E+02 -0.26578757783E+03  0.55206871856E+02  0.30088462990E+03  0.92376334668E+02 0.  0.
          4    1    3    3  502    0 -0.21984159375E+01  0.26335508807E+01  0.14044874833E+02  0.14457770642E+02  0.00000000000E+00 0. -1.
         -3    1    3    3    0  502  0.35169731488E+03 -0.15701172344E+03  0.37242416762E+03  0.53576435419E+03  0.00000000000E+00 0.  1.
         13    1    5    5    0    0 -0.28996558661E+03  0.29999353001E+03 -0.37168288570E+03  0.55877037053E+03  0.00000000000E+00 0.  1.
        -13    1    5    5    0    0 -0.15067791214E+03  0.12017222038E+03 -0.99573563861E+02  0.21693337774E+03  0.00000000000E+00 0. -1.
          2    1    6    6  503    0  0.15056338210E+02 -0.93871759013E+02  0.60711389802E+02  0.11280280720E+03  0.00000000000E+00 0. -1.
         -2    1    6    6    0  503  0.76088261591E+02 -0.17191581882E+03 -0.55045179458E+01  0.18808182270E+03  0.00000000000E+00 0.  1.
<mgrwt>
<rscale>  0 0.16265415E+04</rscale>
<asrwt>0</asrwt>
<pdfrwt beam="1">  1        2 0.12741469E+00 0.16265415E+04</pdfrwt>
<pdfrwt beam="2">  1       -1 0.12286384E+00 0.16265415E+04</pdfrwt>
<totfact> 0.20986085E+01</totfact>
</mgrwt>
</event>
<event>
12    7  0.1707730E-007  0.2946016E+04  0.7818608E-02  0.8259316E-01
         -1   -1    0    0    0  501 -0.00000000000E+00  0.00000000000E+00  0.53558565661E+03  0.53558565661E+03  0.00000000000E+00 0.  1.
          2   -1    0    0  501    0  0.00000000000E+00 -0.00000000000E+00 -0.40511781094E+04  0.40511781094E+04  0.00000000000E+00 0. -1.
         24    2    1    2    0    0  0.39131529287E+03 -0.11676969195E+04 -0.79145491183E+03  0.14660980015E+04  0.79991988746E+02 0.  0.
        254    2    1    2    0    0 -0.39131529287E+03  0.11676969195E+04 -0.27241375410E+04  0.31206657646E+04  0.89497805441E+03 0.  0.
         23    2    4    4    0    0  0.36767273973E+02  0.10062108736E+04 -0.14862919354E+04  0.17973671270E+04  0.87479810914E+02 0.  0.
         23    2    4    4    0    0 -0.42808256685E+03  0.16148604585E+03 -0.12378456056E+04  0.13232986376E+04  0.97596690386E+02 0.  0.
          4    1    3    3  502    0  0.36037962462E+02 -0.93788819681E+02 -0.40293802272E+02  0.10825279644E+03  0.00000000000E+00 0. -1.
         -3    1    3    3    0  502  0.35527733041E+03 -0.10739080998E+04 -0.75116110956E+03  0.13578452050E+04  0.00000000000E+00 0.  1.
         13    1    5    5    0    0  0.64118623561E+02  0.78168001408E+03 -0.11393329050E+04  0.13831899041E+04  0.00000000000E+00 0.  1.
        -13    1    5    5    0    0 -0.27351349588E+02  0.22453085952E+03 -0.34695903038E+03  0.41417722289E+03  0.00000000000E+00 0. -1.
          2    1    6    6  503    0 -0.68802101781E+02  0.63999014483E+02 -0.29571029152E+03  0.31028080762E+03  0.00000000000E+00 0. -1.
         -2    1    6    6    0  503 -0.35928046506E+03  0.97487031370E+02 -0.94213531403E+03  0.10130178300E+04  0.00000000000E+00 0.  1.
<mgrwt>
<rscale>  0 0.29460162E+04</rscale>
<asrwt>0</asrwt>
<pdfrwt beam="1">  1        2 0.62325814E+00 0.29460162E+04</pdfrwt>
<pdfrwt beam="2">  1       -1 0.82397797E-01 0.29460162E+04</pdfrwt>
<totfact> 0.44436465E-01</totfact>
</mgrwt>
</event>
<event>
12    7  0.1707730E-007  0.1836377E+04  0.7818608E-02  0.8687190E-01
         -1   -1    0    0    0  501 -0.00000000000E+00  0.00000000000E+00  0.15409177747E+04  0.15409177747E+04  0.00000000000E+00 0.  1.
          2   -1    0    0  501    0  0.00000000000E+00 -0.00000000000E+00 -0.54712208820E+03  0.54712208820E+03  0.00000000000E+00 0. -1.
         24    2    1    2    0    0 -0.49302644815E+03  0.51197350768E+03  0.49771786434E+03  0.87162840925E+03  0.82589709968E+02 0.  0.
        254    2    1    2    0    0  0.49302644815E+03 -0.51197350768E+03  0.49607782216E+03  0.12164114536E+04  0.85344693319E+03 0.  0.
         23    2    4    4    0    0 -0.20992694260E+03 -0.28523599737E+03  0.14144903954E+03  0.39191243827E+03  0.90325151911E+02 0.  0.
         23    2    4    4    0    0  0.70295339074E+03 -0.22673751032E+03  0.35462878262E+03  0.82449901537E+03  0.92106920131E+02 0.  0.
          2    1    3    3  502    0 -0.22701760858E+03  0.17938486397E+03  0.21440890916E+03  0.36012095795E+03  0.00000000000E+00 0. -1.
         -1    1    3    3    0  502 -0.26600883957E+03  0.33258864371E+03  0.28330895518E+03  0.51150745131E+03  0.00000000000E+00 0.  1.
         13    1    5    5    0    0  0.47632889919E+01  0.33206708891E+01  0.28608113262E+01  0.64730223712E+01  0.00000000000E+00 0. -1.
        -13    1    5    5    0    0 -0.21469023159E+03 -0.28855666825E+03  0.13858822821E+03  0.38543941590E+03  0.00000000000E+00 0.  1.
          1    1    6    6  503    0  0.85622789790E+02 -0.54664989407E+02  0.28948239420E+02  0.10562918046E+03  0.00000000000E+00 0. -1.
         -1    1    6    6    0  503  0.61733060095E+03 -0.17207252091E+03  0.32568054320E+03  0.71886983491E+03  0.00000000000E+00 0.  1.
<mgrwt>
<rscale>  0 0.18363770E+04</rscale>
<asrwt>0</asrwt>
<pdfrwt beam="1">  1        2 0.84172629E-01 0.18363770E+04</pdfrwt>
<pdfrwt beam="2">  1       -1 0.23706427E+00 0.18363770E+04</pdfrwt>
<totfact> 0.50493972E+00</totfact>
</mgrwt>
</event>
<event>
12    7  0.1707730E-007  0.2573535E+04  0.7818608E-02  0.8377247E-01
         -1   -1    0    0    0  501 -0.00000000000E+00  0.00000000000E+00  0.55005733765E+03  0.55005733765E+03  0.00000000000E+00 0.  1.
          2   -1    0    0  501    0  0.00000000000E+00 -0.00000000000E+00 -0.30101782765E+04  0.30101782765E+04  0.00000000000E+00 0. -1.
         24    2    1    2    0    0 -0.20378970844E+03 -0.58477547766E+03 -0.24125370888E+04  0.24920174877E+04  0.79519491619E+02 0.  0.
        254    2    1    2    0    0  0.20378970844E+03  0.58477547766E+03 -0.47583850055E+02  0.10682181265E+04  0.86909903830E+03 0.  0.
         23    2    4    4    0    0  0.48844764443E+03  0.15182650655E+03 -0.12905794874E+03  0.53604985166E+03  0.95189809813E+02 0.  0.
         23    2    4    4    0    0 -0.28465793599E+03  0.43294897112E+03  0.81474098687E+02  0.53216827481E+03  0.89944937849E+02 0.  0.
          4    1    3    3  502    0 -0.14698371404E+03 -0.50422443910E+03 -0.19907716086E+04  0.20588875867E+04  0.00000000000E+00 0. -1.
         -1    1    3    3    0  502 -0.56805994397E+02 -0.80551038559E+02 -0.42176548019E+03  0.43312990095E+03  0.00000000000E+00 0.  1.
         13    1    5    5    0    0  0.27005180476E+02  0.23720426637E+01 -0.31024869526E+02  0.41200107865E+02  0.00000000000E+00 0. -1.
        -13    1    5    5    0    0  0.46144246395E+03  0.14945446388E+03 -0.98033079215E+02  0.49484974379E+03  0.00000000000E+00 0.  1.
          4    1    6    6  503    0 -0.79465281379E+02  0.20126908591E+03  0.31063638098E+02  0.21860678283E+03  0.00000000000E+00 0. -1.
         -4    1    6    6    0  503 -0.20519265461E+03  0.23167988520E+03  0.50410460589E+02  0.31356149198E+03  0.00000000000E+00 0.  1.
<mgrwt>
<rscale>  0 0.25735350E+04</rscale>
<asrwt>0</asrwt>
<pdfrwt beam="1">  1        2 0.46310434E+00 0.25735350E+04</pdfrwt>
<pdfrwt beam="2">  1       -1 0.84624208E-01 0.25735350E+04</pdfrwt>
<totfact> 0.23906119E+00</totfact>
</mgrwt>
</event>
<event>
12    7  0.1707730E-007  0.2953509E+04  0.7818608E-02  0.8257133E-01
          2   -1    0    0  501    0  0.00000000000E+00  0.00000000000E+00  0.27331036362E+04  0.27331036362E+04  0.00000000000E+00 0. -1.
         -1   -1    0    0    0  501 -0.00000000000E+00 -0.00000000000E+00 -0.79792190797E+03  0.79792190797E+03  0.00000000000E+00 0.  1.
         24    2    1    2    0    0  0.26438598809E+03 -0.67144331285E+03  0.22407770563E+04  0.23553187817E+04  0.75555768966E+02 0.  0.
        254    2    1    2    0    0 -0.26438598809E+03  0.67144331285E+03 -0.30559532807E+03  0.11757067625E+04  0.87644840909E+03 0.  0.
         23    2    4    4    0    0 -0.54418365849E+03  0.62726830137E+03 -0.27930079868E+03  0.88031101465E+03  0.85657284002E+02 0.  0.
         23    2    4    4    0    0  0.27979767040E+03  0.44175011480E+02 -0.26294529394E+02  0.29539574785E+03  0.79555499933E+02 0.  0.
          4    1    3    3  502    0  0.19892443558E+03 -0.40664780576E+03  0.13790227736E+04  0.14514259124E+04  0.00000000000E+00 0. -1.
         -3    1    3    3    0  502  0.65461552510E+02 -0.26479550709E+03  0.86175428270E+03  0.90389286930E+03  0.00000000000E+00 0.  1.
         13    1    5    5    0    0 -0.13030826021E+03  0.20844031802E+03 -0.73780344030E+02  0.25665375123E+03  0.00000000000E+00 0.  1.
        -13    1    5    5    0    0 -0.41387539828E+03  0.41882798335E+03 -0.20552045465E+03  0.62365726342E+03  0.00000000000E+00 0. -1.
          2    1    6    6  503    0  0.25241516160E+03  0.22552912759E+02 -0.29898515852E+01  0.25343832957E+03  0.00000000000E+00 0. -1.
         -2    1    6    6    0  503  0.27382508802E+02  0.21622098722E+02 -0.23304677809E+02  0.41957418285E+02  0.00000000000E+00 0.  1.
<mgrwt>
<rscale>  0 0.29535086E+04</rscale>
<asrwt>0</asrwt>
<pdfrwt beam="1">  1        2 0.42047748E+00 0.29535086E+04</pdfrwt>
<pdfrwt beam="2">  1       -1 0.12275722E+00 0.29535086E+04</pdfrwt>
<totfact> 0.14497881E+00</totfact>
</mgrwt>
</event>
<event>
12    7  0.1707730E-007  0.1909196E+04  0.7818608E-02  0.8650292E-01
         -1   -1    0    0    0  501 -0.00000000000E+00  0.00000000000E+00  0.27708525020E+03  0.27708525020E+03  0.00000000000E+00 0.  1.
          2   -1    0    0  501    0  0.00000000000E+00 -0.00000000000E+00 -0.32887265211E+04  0.32887265211E+04  0.00000000000E+00 0. -1.
         24    2    1    2    0    0 -0.43401834675E+03  0.53629883760E+03 -0.67854206448E+03  0.97079158791E+03  0.77644094227E+02 0.  0.
        254    2    1    2    0    0  0.43401834675E+03 -0.53629883760E+03 -0.23330992065E+04  0.25950201834E+04  0.90265689863E+03 0.  0.
         23    2    4    4    0    0 -0.34985033639E+02  0.90464069229E+02  0.64700923489E+00  0.13184737769E+03  0.89306281880E+02 0.  0.
         23    2    4    4    0    0  0.46900338039E+03 -0.62676290683E+03 -0.23337462157E+04  0.24631728057E+04  0.89738282852E+02 0.  0.
          2    1    3    3  502    0 -0.17575415757E+03  0.17166140845E+03 -0.20813216853E+03  0.32198782994E+03  0.00000000000E+00 0. -1.
         -1    1    3    3    0  502 -0.25826418918E+03  0.36463742915E+03 -0.47040989594E+03  0.64880375797E+03  0.00000000000E+00 0.  1.
         13    1    5    5    0    0  0.19859907106E+02  0.68896171546E+02 -0.85179242791E+01  0.72205632730E+02  0.00000000000E+00 0. -1.
        -13    1    5    5    0    0 -0.54844940745E+02  0.21567897683E+02  0.91649335140E+01  0.59641744962E+02  0.00000000000E+00 0.  1.
          3    1    6    6  503    0  0.45944813285E+01 -0.34411856177E+02 -0.85815204648E+02  0.92571780004E+02  0.00000000000E+00 0. -1.
         -3    1    6    6    0  503  0.46440889906E+03 -0.59235105065E+03 -0.22479310110E+04  0.23706010257E+04  0.00000000000E+00 0.  1.
<mgrwt>
<rscale>  0 0.19091963E+04</rscale>
<asrwt>0</asrwt>
<pdfrwt beam="1">  1        2 0.50595791E+00 0.19091963E+04</pdfrwt>
<pdfrwt beam="2">  1       -1 0.42628501E-01 0.19091963E+04</pdfrwt>
<totfact> 0.65722866E+00</totfact>
</mgrwt>
</event>
<event>
12    7  0.1707730E-007  0.2144872E+04  0.7818608E-02  0.8541730E-01
          2   -1    0    0  501    0  0.00000000000E+00  0.00000000000E+00  0.19580722720E+04  0.19580722720E+04  0.00000000000E+00 0. -1.
         -1   -1    0    0    0  501 -0.00000000000E+00 -0.00000000000E+00 -0.58737307080E+03  0.58737307080E+03  0.00000000000E+00 0.  1.
         24    2    1    2    0    0 -0.44427567657E+03  0.60952719859E+03  0.26256858923E+02  0.75862165763E+03  0.76896776063E+02 0.  0.
        254    2    1    2    0    0  0.44427567657E+03 -0.60952719859E+03  0.13444423423E+04  0.17868236852E+04  0.90349841591E+03 0.  0.
         23    2    4    4    0    0 -0.79583424895E+02  0.13694504250E+03  0.36223772619E+02  0.18935487838E+03  0.97240125871E+02 0.  0.
         23    2    4    4    0    0  0.52385910147E+03 -0.74647224109E+03  0.13082185697E+04  0.15974688068E+04  0.93923361049E+02 0.  0.
          4    1    3    3  502    0 -0.29397910599E+03  0.35781624362E+03 -0.10125129935E+02  0.46320481130E+03  0.00000000000E+00 0. -1.
         -3    1    3    3    0  502 -0.15029657058E+03  0.25171095497E+03  0.36381988858E+02  0.29541684633E+03  0.00000000000E+00 0.  1.
         13    1    5    5    0    0 -0.26233297613E+02  0.12389267856E+03  0.43607306675E+02  0.13393722000E+03  0.00000000000E+00 0.  1.
        -13    1    5    5    0    0 -0.53350127283E+02  0.13052363940E+02 -0.73835340558E+01  0.55417658383E+02  0.00000000000E+00 0. -1.
          1    1    6    6  503    0  0.11088852747E+03 -0.10328505892E+03  0.24332408581E+03  0.28665428595E+03  0.00000000000E+00 0. -1.
         -1    1    6    6    0  503  0.41297057400E+03 -0.64318718217E+03  0.10648944838E+04  0.13108145208E+04  0.00000000000E+00 0.  1.
<mgrwt>
<rscale>  0 0.21448720E+04</rscale>
<asrwt>0</asrwt>
<pdfrwt beam="1">  1        2 0.30124188E+00 0.21448720E+04</pdfrwt>
<pdfrwt beam="2">  1       -1 0.90365089E-01 0.21448720E+04</pdfrwt>
<totfact> 0.88211093E+00</totfact>
</mgrwt>
</event>
<event>
12    7  0.1707730E-007  0.1485217E+04  0.7818608E-02  0.8894344E-01
         -1   -1    0    0    0  501 -0.00000000000E+00  0.00000000000E+00  0.92508482116E+03  0.92508482116E+03  0.00000000000E+00 0.  1.
          2   -1    0    0  501    0  0.00000000000E+00 -0.00000000000E+00 -0.59612610827E+03  0.59612610827E+03  0.00000000000E+00 0. -1.
         24    2    1    2    0    0  0.52569105786E+02  0.45562734376E+03  0.62883676710E+02  0.47337260337E+03  0.98830549702E+02 0.  0.
        254    2    1    2    0    0 -0.52569105786E+02 -0.45562734376E+03  0.26607503618E+03  0.10478383261E+04  0.90377510776E+03 0.  0.
         23    2    4    4    0    0  0.25652827381E+03  0.53798191683E+00 -0.18356109562E+03  0.33084837424E+03  0.99794419786E+02 0.  0.
         23    2    4    4    0    0 -0.30909737960E+03 -0.45616532568E+03  0.44963613181E+03  0.71698995182E+03  0.90961231077E+02 0.  0.
          4    1    3    3  502    0  0.21592726066E+02  0.36623102372E+03  0.84165206873E+02  0.37639764957E+03  0.00000000000E+00 0. -1.
         -3    1    3    3    0  502  0.30976379720E+02  0.89396320039E+02 -0.21281530163E+02  0.96974953793E+02  0.00000000000E+00 0.  1.
         13    1    5    5    0    0  0.48692386633E+02 -0.33416168425E+02 -0.14545402752E+02  0.60820700172E+02  0.00000000000E+00 0. -1.
        -13    1    5    5    0    0  0.20783588718E+03  0.33954150342E+02 -0.16901569287E+03  0.27002767407E+03  0.00000000000E+00 0.  1.
          2    1    6    6  503    0 -0.19532215845E+03 -0.22561639296E+03  0.20454975380E+03  0.36179290227E+03  0.00000000000E+00 0. -1.
         -2    1    6    6    0  503 -0.11377522115E+03 -0.23054893272E+03  0.24508637800E+03  0.35519704955E+03  0.00000000000E+00 0.  1.
<mgrwt>
<rscale>  0 0.14852168E+04</rscale>
<asrwt>0</asrwt>
<pdfrwt beam="1">  1        2 0.91711709E-01 0.14852168E+04</pdfrwt>
<pdfrwt beam="2">  1       -1 0.14232074E+00 0.14852168E+04</pdfrwt>
<totfact> 0.22182363E+01</totfact>
</mgrwt>
</event>
<event>
12    7  0.1707730E-007  0.1416579E+04  0.7818608E-02  0.8941905E-01
          2   -1    0    0  501    0  0.00000000000E+00  0.00000000000E+00  0.11439314576E+04  0.11439314576E+04  0.00000000000E+00 0. -1.
         -1   -1    0    0    0  501 -0.00000000000E+00 -0.00000000000E+00 -0.43855246254E+03  0.43855246254E+03  0.00000000000E+00 0.  1.
         24    2    1    2    0    0  0.11783911564E+03 -0.33762724791E+02 -0.23430260603E+03  0.27686819693E+03  0.82050646055E+02 0.  0.
        254    2    1    2    0    0 -0.11783911564E+03  0.33762724791E+02  0.93968160112E+03  0.13056157232E+04  0.89811186750E+03 0.  0.
         23    2    4    4    0    0 -0.65723508469E+02 -0.12174928883E+02  0.11014237262E+04  0.11075651131E+04  0.95385778049E+02 0.  0.
         23    2    4    4    0    0 -0.52115607176E+02  0.45937653674E+02 -0.16174212512E+03  0.19805061011E+03  0.90759157051E+02 0.  0.
          2    1    3    3  502    0  0.56384849283E+02 -0.42632089134E+02 -0.63101129176E+02  0.94754940536E+02  0.00000000000E+00 0. -1.
         -1    1    3    3    0  502  0.61454266361E+02  0.88693643431E+01 -0.17120147685E+03  0.18211325639E+03  0.00000000000E+00 0.  1.
         13    1    5    5    0    0 -0.80418621222E+02 -0.32022095184E+02  0.69122514111E+03  0.69662383316E+03  0.00000000000E+00 0. -1.
        -13    1    5    5    0    0  0.14695112753E+02  0.19847166301E+02  0.41019858513E+03  0.41094127998E+03  0.00000000000E+00 0.  1.
          3    1    6    6  503    0 -0.55944343009E+02  0.64717366046E+02 -0.15621329157E+03  0.17810305850E+03  0.00000000000E+00 0. -1.
         -3    1    6    6    0  503  0.38287358335E+01 -0.18779712372E+02 -0.55288335519E+01  0.19947551611E+02  0.00000000000E+00 0.  1.
<mgrwt>
<rscale>  0 0.14165789E+04</rscale>
<asrwt>0</asrwt>
<pdfrwt beam="1">  1        2 0.17598945E+00 0.14165789E+04</pdfrwt>
<pdfrwt beam="2">  1       -1 0.67469610E-01 0.14165789E+04</pdfrwt>
<totfact> 0.50506778E+01</totfact>
</mgrwt>
</event>
<event>
12    7  0.1707730E-007  0.1978659E+04  0.7818608E-02  0.8616664E-01
          2   -1    0    0  501    0  0.00000000000E+00  0.00000000000E+00  0.81632287102E+03  0.81632287102E+03  0.00000000000E+00 0. -1.
         -1   -1    0    0    0  501 -0.00000000000E+00 -0.00000000000E+00 -0.11990023387E+04  0.11990023387E+04  0.00000000000E+00 0.  1.
         24    2    1    2    0    0  0.45956139129E+03  0.35701260965E+03 -0.68904794765E+03  0.90569574093E+03  0.82722579551E+02 0.  0.
        254    2    1    2    0    0 -0.45956139129E+03 -0.35701260965E+03  0.30636847997E+03  0.11096294688E+04  0.89373443296E+03 0.  0.
         23    2    4    4    0    0 -0.34387170317E+03 -0.50297397175E+02  0.57377359609E+03  0.67662366215E+03  0.88463914715E+02 0.  0.
         23    2    4    4    0    0 -0.11568968812E+03 -0.30671521248E+03 -0.26740511611E+03  0.43300580664E+03  0.92359119510E+02 0.  0.
          2    1    3    3  502    0  0.19840742685E+03  0.10492211676E+03 -0.24769166791E+03  0.33425337689E+03  0.00000000000E+00 0. -1.
         -1    1    3    3    0  502  0.26115396444E+03  0.25209049289E+03 -0.44135627975E+03  0.57144236404E+03  0.00000000000E+00 0.  1.
         13    1    5    5    0    0 -0.30663082287E+03 -0.14725087868E+02  0.48483504750E+03  0.57385042741E+03  0.00000000000E+00 0.  1.
        -13    1    5    5    0    0 -0.37240880301E+02 -0.35572309307E+02  0.88938548584E+02  0.10277323474E+03  0.00000000000E+00 0. -1.
          4    1    6    6  503    0 -0.33314266537E+02 -0.42790841878E+02 -0.97888013886E+01  0.55106416470E+02  0.00000000000E+00 0. -1.
         -4    1    6    6    0  503 -0.82375421583E+02 -0.26392437060E+03 -0.25761631472E+03  0.37789939017E+03  0.00000000000E+00 0.  1.
<mgrwt>
<rscale>  0 0.19786592E+04</rscale>
<asrwt>0</asrwt>
<pdfrwt beam="1">  1        2 0.12558813E+00 0.19786592E+04</pdfrwt>
<pdfrwt beam="2">  1       -1 0.18446190E+00 0.19786592E+04</pdfrwt>
<totfact> 0.68852710E+00</totfact>
</mgrwt>
</event>
<event>
12    7  0.1707730E-007  0.4029110E+04  0.7818608E-02  0.7998700E-01
          2   -1    0    0  501    0  0.00000000000E+00  0.00000000000E+00  0.18355090860E+04  0.18355090860E+04  0.00000000000E+00 0. -1.
         -1   -1    0    0    0  501 -0.00000000000E+00 -0.00000000000E+00 -0.22110664294E+04  0.22110664294E+04  0.00000000000E+00 0.  1.
         24    2    1    2    0    0 -0.16555052691E+04  0.86809370113E+03 -0.57313056768E+03  0.19568823012E+04  0.81396088143E+02 0.  0.
        254    2    1    2    0    0  0.16555052691E+04 -0.86809370113E+03  0.19757322422E+03  0.20896932142E+04  0.91296121537E+03 0.  0.
         23    2    4    4    0    0  0.14315916614E+04 -0.65051627001E+03  0.49256997310E+03  0.16506336876E+04  0.96645175431E+02 0.  0.
         23    2    4    4    0    0  0.22391360769E+03 -0.21757743112E+03 -0.29499674889E+03  0.43905952656E+03  0.90955724236E+02 0.  0.
          4    1    3    3  502    0 -0.41586642746E+03  0.25613732826E+03 -0.16205954338E+03  0.51460131365E+03  0.00000000000E+00 0. -1.
         -3    1    3    3    0  502 -0.12396388416E+04  0.61195637287E+03 -0.41107102430E+03  0.14422809875E+04  0.00000000000E+00 0.  1.
         13    1    5    5    0    0  0.30679423251E+03 -0.16369841431E+03  0.74159253475E+02  0.35555515300E+03  0.00000000000E+00 0. -1.
        -13    1    5    5    0    0  0.11247974289E+04 -0.48681785570E+03  0.41841071963E+03  0.12950785347E+04  0.00000000000E+00 0.  1.
          4    1    6    6  503    0  0.73711643335E+02 -0.25182136159E+02 -0.99332972331E+02  0.12623226900E+03  0.00000000000E+00 0. -1.
         -4    1    6    6    0  503  0.15020196435E+03 -0.19239529496E+03 -0.19566377656E+03  0.31282725756E+03  0.00000000000E+00 0.  1.
<mgrwt>
<rscale>  0 0.40291103E+04</rscale>
<asrwt>0</asrwt>
<pdfrwt beam="1">  1        2 0.28238601E+00 0.40291103E+04</pdfrwt>
<pdfrwt beam="2">  1       -1 0.34016406E+00 0.40291103E+04</pdfrwt>
<totfact> 0.13328354E-01</totfact>
</mgrwt>
</event>
<event>
12    7  0.1707730E-007  0.2763639E+04  0.7818608E-02  0.8314647E-01
         -1   -1    0    0    0  501 -0.00000000000E+00  0.00000000000E+00  0.17069665165E+04  0.17069665165E+04  0.00000000000E+00 0.  1.
          2   -1    0    0  501    0  0.00000000000E+00 -0.00000000000E+00 -0.11186068778E+04  0.11186068778E+04  0.00000000000E+00 0. -1.
         24    2    1    2    0    0 -0.63445347989E+03  0.10314270711E+04  0.16210207127E+02  0.12136554696E+04  0.79522366388E+02 0.  0.
        254    2    1    2    0    0  0.63445347989E+03 -0.10314270711E+04  0.57214943159E+03  0.16119179247E+04  0.89696789391E+03 0.  0.
         23    2    4    4    0    0  0.11563352468E+03 -0.81793345189E+03  0.62688521174E+03  0.10408803156E+04  0.89780392700E+02 0.  0.
         23    2    4    4    0    0  0.51881995520E+03 -0.21349361924E+03 -0.54735780145E+02  0.57103760912E+03  0.91292245187E+02 0.  0.
          4    1    3    3  502    0 -0.30708053085E+03  0.43795191553E+03 -0.15841139775E+02  0.53511800049E+03  0.00000000000E+00 0. -1.
         -3    1    3    3    0  502 -0.32737294904E+03  0.59347515560E+03  0.32051346902E+02  0.67853746906E+03  0.00000000000E+00 0.  1.
         13    1    5    5    0    0 -0.66136467556E+01 -0.61589017197E+01  0.12879452363E+02  0.15733807136E+02  0.00000000000E+00 0.  1.
        -13    1    5    5    0    0  0.12224717144E+03 -0.81177455017E+03  0.61400575937E+03  0.10251465084E+04  0.00000000000E+00 0. -1.
          3    1    6    6  503    0  0.34637703919E+03 -0.11606490796E+03  0.90878954377E+00  0.36530664111E+03  0.00000000000E+00 0. -1.
         -3    1    6    6    0  503  0.17244291601E+03 -0.97428711283E+02 -0.55644569689E+02  0.20573096801E+03  0.00000000000E+00 0.  1.
<mgrwt>
<rscale>  0 0.27636385E+04</rscale>
<asrwt>0</asrwt>
<pdfrwt beam="1">  1        2 0.17209337E+00 0.27636385E+04</pdfrwt>
<pdfrwt beam="2">  1       -1 0.26261023E+00 0.27636385E+04</pdfrwt>
<totfact> 0.12177020E+00</totfact>
</mgrwt>
</event>
<event>
12    7  0.1707730E-007  0.1286624E+04  0.7818608E-02  0.9040240E-01
         -1   -1    0    0    0  501 -0.00000000000E+00  0.00000000000E+00  0.59381239574E+03  0.59381239574E+03  0.00000000000E+00 0.  1.
          2   -1    0    0  501    0  0.00000000000E+00 -0.00000000000E+00 -0.69693782897E+03  0.69693782897E+03  0.00000000000E+00 0. -1.
         24    2    1    2    0    0  0.11873751397E+03  0.48076611276E+02 -0.33662104714E+03  0.36891893223E+03  0.79859197390E+02 0.  0.
        254    2    1    2    0    0 -0.11873751397E+03 -0.48076611276E+02  0.23349561392E+03  0.92183129248E+03  0.88252069227E+03 0.  0.
         23    2    4    4    0    0 -0.45076042333E+03  0.67800644846E+02  0.29738239048E+03  0.55209593644E+03  0.92691694279E+02 0.  0.
         23    2    4    4    0    0  0.33202290935E+03 -0.11587725612E+03 -0.63886776562E+02  0.36973535603E+03  0.94635946971E+02 0.  0.
          4    1    3    3  502    0  0.12159719538E+03  0.24161102211E+02 -0.25059237777E+03  0.27958214640E+03  0.00000000000E+00 0. -1.
         -3    1    3    3    0  502 -0.28596814053E+01  0.23915509065E+02 -0.86028669364E+02  0.89336785839E+02  0.00000000000E+00 0.  1.
         13    1    5    5    0    0 -0.37042072566E+03  0.21060667430E+02  0.22150426443E+03  0.43211017678E+03  0.00000000000E+00 0.  1.
        -13    1    5    5    0    0 -0.80339697666E+02  0.46739977417E+02  0.75878126049E+02  0.11998575967E+03  0.00000000000E+00 0. -1.
          2    1    6    6  503    0  0.12245652742E+02  0.14094224588E+02  0.11261085705E+00  0.18671257564E+02  0.00000000000E+00 0. -1.
         -2    1    6    6    0  503  0.31977725661E+03 -0.12997148071E+03 -0.63999387419E+02  0.35106409847E+03  0.00000000000E+00 0.  1.
<mgrwt>
<rscale>  0 0.12866240E+04</rscale>
<asrwt>0</asrwt>
<pdfrwt beam="1">  1        2 0.10722120E+00 0.12866240E+04</pdfrwt>
<pdfrwt beam="2">  1       -1 0.91355753E-01 0.12866240E+04</pdfrwt>
<totfact> 0.53981972E+01</totfact>
</mgrwt>
</event>
<event>
12    7  0.1707730E-007  0.1253735E+04  0.7818608E-02  0.9067081E-01
          2   -1    0    0  501    0  0.00000000000E+00  0.00000000000E+00  0.11457916522E+04  0.11457916522E+04  0.00000000000E+00 0. -1.
         -1   -1    0    0    0  501 -0.00000000000E+00 -0.00000000000E+00 -0.34296170908E+03  0.34296170908E+03  0.00000000000E+00 0.  1.
         24    2    1    2    0    0 -0.64026001027E+02 -0.11599966966E+03 -0.11503489948E+03  0.19273561679E+03  0.79741693682E+02 0.  0.
        254    2    1    2    0    0  0.64026001027E+02  0.11599966966E+03  0.91786484259E+03  0.12960177445E+04  0.90533467434E+03 0.  0.
         23    2    4    4    0    0 -0.22908234336E+03 -0.65579513858E+01 -0.68141241084E+02  0.25563788302E+03  0.90475254810E+02 0.  0.
         23    2    4    4    0    0  0.29310834439E+03  0.12255762105E+03  0.98600608367E+03  0.10403798614E+04  0.96173733657E+02 0.  0.
          4    1    3    3  502    0  0.17614343634E+02 -0.36269472817E+02 -0.25728706711E+02  0.47829970825E+02  0.00000000000E+00 0. -1.
         -1    1    3    3    0  502 -0.81640344661E+02 -0.79730196843E+02 -0.89306192768E+02  0.14490564596E+03  0.00000000000E+00 0.  1.
         13    1    5    5    0    0 -0.21726855930E+03 -0.13623322723E+02 -0.85150910654E+02  0.23375606809E+03  0.00000000000E+00 0. -1.
        -13    1    5    5    0    0 -0.11813784063E+02  0.70653713372E+01  0.17009669570E+02  0.21881814936E+02  0.00000000000E+00 0.  1.
          3    1    6    6  503    0  0.21244588580E+03  0.43066868203E+02  0.59275884662E+03  0.63115058408E+03  0.00000000000E+00 0. -1.
         -3    1    6    6    0  503  0.80662458591E+02  0.79490752843E+02  0.39324723705E+03  0.40922927737E+03  0.00000000000E+00 0.  1.
<mgrwt>
<rscale>  0 0.12537347E+04</rscale>
<asrwt>0</asrwt>
<pdfrwt beam="1">  1        2 0.17627564E+00 0.12537347E+04</pdfrwt>
<pdfrwt beam="2">  1       -1 0.52763340E-01 0.12537347E+04</pdfrwt>
<totfact> 0.82882121E+01</totfact>
</mgrwt>
</event>
<event>
12    7  0.1707730E-007  0.1504637E+04  0.7818608E-02  0.8881376E-01
          2   -1    0    0  501    0  0.00000000000E+00  0.00000000000E+00  0.75564185947E+03  0.75564185947E+03  0.00000000000E+00 0. -1.
         -1   -1    0    0    0  501 -0.00000000000E+00 -0.00000000000E+00 -0.74900927703E+03  0.74900927703E+03  0.00000000000E+00 0.  1.
         24    2    1    2    0    0 -0.87705314588E+01 -0.18412031744E+03 -0.44895925501E+03  0.49198088670E+03  0.80644694210E+02 0.  0.
        254    2    1    2    0    0  0.87705314588E+01  0.18412031744E+03  0.45559183745E+03  0.10126702498E+04  0.88541509980E+03 0.  0.
         23    2    4    4    0    0  0.16041145983E+03  0.12476592858E+03  0.68324866190E+03  0.71863085606E+03  0.91121895950E+02 0.  0.
         23    2    4    4    0    0 -0.15164092837E+03  0.59354388859E+02 -0.22765682445E+03  0.29403939374E+03  0.90075638873E+02 0.  0.
          2    1    3    3  502    0 -0.48137219257E+00  0.63979997320E+01 -0.32558896308E+01  0.71949243948E+01  0.00000000000E+00 0. -1.
         -1    1    3    3    0  502 -0.82891592663E+01 -0.19051831717E+03 -0.44570336538E+03  0.48478596231E+03  0.00000000000E+00 0.  1.
         13    1    5    5    0    0  0.21459134336E+02 -0.15510924544E+01  0.20231525766E+02  0.29533285782E+02  0.00000000000E+00 0.  1.
        -13    1    5    5    0    0  0.13895232549E+03  0.12631702104E+03  0.66301713613E+03  0.68909757028E+03  0.00000000000E+00 0. -1.
          2    1    6    6  503    0 -0.14892195625E+03  0.24281799706E+02 -0.18663080884E+03  0.23999669510E+03  0.00000000000E+00 0. -1.
         -2    1    6    6    0  503 -0.27189721157E+01  0.35072589153E+02 -0.41026015608E+02  0.54042698636E+02  0.00000000000E+00 0.  1.
<mgrwt>
<rscale>  0 0.15046365E+04</rscale>
<asrwt>0</asrwt>
<pdfrwt beam="1">  1        2 0.11625259E+00 0.15046365E+04</pdfrwt>
<pdfrwt beam="2">  1       -1 0.11523220E+00 0.15046365E+04</pdfrwt>
<totfact> 0.27986650E+01</totfact>
</mgrwt>
</event>
<event>
12    7  0.1707730E-007  0.1616114E+04  0.7818608E-02  0.8810709E-01
          2   -1    0    0  501    0  0.00000000000E+00  0.00000000000E+00  0.19346796242E+04  0.19346796242E+04  0.00000000000E+00 0. -1.
         -1   -1    0    0    0  501 -0.00000000000E+00 -0.00000000000E+00 -0.33750098114E+03  0.33750098114E+03  0.00000000000E+00 0.  1.
         24    2    1    2    0    0 -0.24874720245E+03 -0.43623118563E+03  0.86659894291E+03  0.10053244166E+04  0.86663929992E+02 0.  0.
        254    2    1    2    0    0  0.24874720245E+03  0.43623118563E+03  0.73057970019E+03  0.12668561888E+04  0.90498899807E+03 0.  0.
         23    2    4    4    0    0  0.57235842914E+03  0.37918770353E+03  0.50695846603E+03  0.85840969385E+03  0.92102281718E+02 0.  0.
         23    2    4    4    0    0 -0.32361122669E+03  0.57043482101E+02  0.22362123416E+03  0.40844649491E+03  0.94042000977E+02 0.  0.
          4    1    3    3  502    0 -0.12323083750E+03 -0.26591954917E+03  0.57086087410E+03  0.64170178706E+03  0.00000000000E+00 0. -1.
         -3    1    3    3    0  502 -0.12551636495E+03 -0.17031163646E+03  0.29573806881E+03  0.36362262956E+03  0.00000000000E+00 0.  1.
         13    1    5    5    0    0  0.28036641518E+03  0.22567128599E+03  0.22506016662E+03  0.42448196037E+03  0.00000000000E+00 0.  1.
        -13    1    5    5    0    0  0.29199201397E+03  0.15351641754E+03  0.28189829940E+03  0.43392773348E+03  0.00000000000E+00 0. -1.
          2    1    6    6  503    0 -0.32106243695E+03  0.66057589632E+02  0.20237708235E+03  0.38522873339E+03  0.00000000000E+00 0. -1.
         -2    1    6    6    0  503 -0.25487897339E+01 -0.90141075313E+01  0.21244151811E+02  0.23217761517E+02  0.00000000000E+00 0.  1.
<mgrwt>
<rscale>  0 0.16161142E+04</rscale>
<asrwt>0</asrwt>
<pdfrwt beam="1">  1        2 0.29764301E+00 0.16161142E+04</pdfrwt>
<pdfrwt beam="2">  1       -1 0.51923229E-01 0.16161142E+04</pdfrwt>
<totfact> 0.29594714E+01</totfact>
</mgrwt>
</event>
<event>
12    7  0.1707730E-007  0.2280185E+04  0.7818608E-02  0.8485775E-01
          2   -1    0    0  501    0  0.00000000000E+00  0.00000000000E+00  0.15897508311E+04  0.15897508311E+04  0.00000000000E+00 0. -1.
         -1   -1    0    0    0  501 -0.00000000000E+00 -0.00000000000E+00 -0.81761912248E+03  0.81761912248E+03  0.00000000000E+00 0.  1.
         24    2    1    2    0    0  0.75981972913E+02  0.94393948758E+03  0.48467787981E+03  0.10666385168E+04  0.77524589268E+02 0.  0.
        254    2    1    2    0    0 -0.75981972913E+02 -0.94393948758E+03  0.28745382885E+03  0.13407314368E+04  0.90450874264E+03 0.  0.
         23    2    4    4    0    0  0.13283181118E+03  0.56333220722E+02  0.26578774251E+03  0.31488357581E+03  0.87697322808E+02 0.  0.
         23    2    4    4    0    0 -0.20881378410E+03 -0.10002727083E+04  0.21666086344E+02  0.10258478610E+04  0.88009813200E+02 0.  0.
          2    1    3    3  502    0  0.73030242254E+02  0.78617021651E+03  0.43359980184E+03  0.90078066906E+03  0.00000000000E+00 0. -1.
         -3    1    3    3    0  502  0.29517306595E+01  0.15776927108E+03  0.51078077972E+02  0.16585784775E+03  0.00000000000E+00 0.  1.
         13    1    5    5    0    0  0.50357101923E+02  0.60579749446E+02  0.83686622698E+02  0.11493126022E+03  0.00000000000E+00 0. -1.
        -13    1    5    5    0    0  0.82474709262E+02 -0.42465287238E+01  0.18210111981E+03  0.19995231559E+03  0.00000000000E+00 0.  1.
          3    1    6    6  503    0 -0.10873366543E+03 -0.71557279465E+03  0.10493636461E+02  0.72386293651E+03  0.00000000000E+00 0. -1.
         -3    1    6    6    0  503 -0.10008011867E+03 -0.28469991366E+03  0.11172449884E+02  0.30198492450E+03  0.00000000000E+00 0.  1.
<mgrwt>
<rscale>  0 0.22801848E+04</rscale>
<asrwt>0</asrwt>
<pdfrwt beam="1">  1        2 0.24457705E+00 0.22801848E+04</pdfrwt>
<pdfrwt beam="2">  1       -1 0.12578756E+00 0.22801848E+04</pdfrwt>
<totfact> 0.64390062E+00</totfact>
</mgrwt>
</event>
<event>
12    7  0.1707730E-007  0.1248412E+04  0.7818608E-02  0.9071506E-01
         -1   -1    0    0    0  501 -0.00000000000E+00  0.00000000000E+00  0.66894349128E+03  0.66894349128E+03  0.00000000000E+00 0.  1.
          2   -1    0    0  501    0  0.00000000000E+00 -0.00000000000E+00 -0.58246023853E+03  0.58246023853E+03  0.00000000000E+00 0. -1.
         24    2    1    2    0    0 -0.17448467086E+03 -0.23004544102E+03  0.57955836524E+02  0.30515912389E+03  0.79983789637E+02 0.  0.
        254    2    1    2    0    0  0.17448467086E+03  0.23004544102E+03  0.28527416225E+02  0.94624460592E+03  0.90066599551E+03 0.  0.
         23    2    4    4    0    0  0.18288226717E+03  0.40759977186E+03 -0.31130970674E+03  0.55206802690E+03  0.91004808368E+02 0.  0.
         23    2    4    4    0    0 -0.83975963073E+01 -0.17755433085E+03  0.33983712296E+03  0.39417657902E+03  0.91048587460E+02 0.  0.
          2    1    3    3  502    0 -0.12891729252E+02  0.44766775761E+01  0.85452270359E+01  0.16101497766E+02  0.00000000000E+00 0. -1.
         -1    1    3    3    0  502 -0.16159294161E+03 -0.23452211859E+03  0.49410609488E+02  0.28905762612E+03  0.00000000000E+00 0.  1.
         13    1    5    5    0    0  0.13367323266E+03  0.36155405683E+03 -0.28638251106E+03  0.48021329821E+03  0.00000000000E+00 0.  1.
        -13    1    5    5    0    0  0.49209034508E+02  0.46045715037E+02 -0.24927195682E+02  0.71854728689E+02  0.00000000000E+00 0. -1.
          4    1    6    6  503    0 -0.76760840577E+00 -0.11050260410E+02 -0.42343608984E+01  0.11858637780E+02  0.00000000000E+00 0. -1.
         -4    1    6    6    0  503 -0.76299879015E+01 -0.16650407044E+03  0.34407148386E+03  0.38231794124E+03  0.00000000000E+00 0.  1.
<mgrwt>
<rscale>  0 0.12484118E+04</rscale>
<asrwt>0</asrwt>
<pdfrwt beam="1">  1        2 0.89609268E-01 0.12484118E+04</pdfrwt>
<pdfrwt beam="2">  1       -1 0.10291438E+00 0.12484118E+04</pdfrwt>
<totfact> 0.51577880E+01</totfact>
</mgrwt>
</event>
<event>
12    7  0.1902794E-007  0.2956545E+04  0.7818608E-02  0.8256250E-01
          2   -1    0    0  501    0  0.00000000000E+00  0.00000000000E+00  0.18136087592E+04  0.18136087592E+04  0.00000000000E+00 0. -1.
         -1   -1    0    0    0  501 -0.00000000000E+00 -0.00000000000E+00 -0.12049401216E+04  0.12049401216E+04  0.00000000000E+00 0.  1.
         24    2    1    2    0    0 -0.90352410179E+03 -0.63193298261E+03 -0.49241581033E+03  0.12102162983E+04  0.80343397175E+02 0.  0.
        254    2    1    2    0    0  0.90352410179E+03  0.63193298261E+03  0.11010844479E+04  0.18083325824E+04  0.91759722658E+03 0.  0.
         23    2    4    4    0    0  0.90958657091E+03  0.75967685317E+03  0.11381578564E+04  0.16456718559E+04  0.91519943552E+02 0.  0.
         23    2    4    4    0    0 -0.60624691179E+01 -0.12774387055E+03 -0.37073408435E+02  0.16266072655E+03  0.93428177514E+02 0.  0.
          4    1    3    3  502    0 -0.53225525622E+02 -0.50362521892E+02 -0.52044975884E+02  0.89877804290E+02  0.00000000000E+00 0. -1.
         -3    1    3    3    0  502 -0.85029857617E+03 -0.58157046072E+03 -0.44037083445E+03  0.11203384941E+04  0.00000000000E+00 0.  1.
         13    1    5    5    0    0  0.63239068126E+03  0.56990507006E+03  0.77962408905E+03  0.11543498096E+04  0.00000000000E+00 0.  1.
        -13    1    5    5    0    0  0.27719588965E+03  0.18977178310E+03  0.35853376731E+03  0.49132204632E+03  0.00000000000E+00 0. -1.
          3    1    6    6  503    0  0.28862041578E+01 -0.37988844874E+02 -0.58629543835E+02  0.69920711664E+02  0.00000000000E+00 0. -1.
         -3    1    6    6    0  503 -0.89486732757E+01 -0.89755025677E+02  0.21556135400E+02  0.92740014886E+02  0.00000000000E+00 0.  1.
<mgrwt>
<rscale>  0 0.29565453E+04</rscale>
<asrwt>0</asrwt>
<pdfrwt beam="1">  1        2 0.27901673E+00 0.29565453E+04</pdfrwt>
<pdfrwt beam="2">  1       -1 0.18537540E+00 0.29565453E+04</pdfrwt>
<totfact> 0.15792919E+00</totfact>
</mgrwt>
</event>
<event>
12    7  0.1707730E-007  0.1278377E+04  0.7818608E-02  0.9046891E-01
          2   -1    0    0  501    0  0.00000000000E+00  0.00000000000E+00  0.11026971301E+04  0.11026971301E+04  0.00000000000E+00 0. -1.
         -1   -1    0    0    0  501 -0.00000000000E+00 -0.00000000000E+00 -0.37051127691E+03  0.37051127691E+03  0.00000000000E+00 0.  1.
         24    2    1    2    0    0  0.15127031062E+03 -0.21917093006E+03 -0.28196109875E+02  0.27959008149E+03  0.80355395572E+02 0.  0.
        254    2    1    2    0    0 -0.15127031062E+03  0.21917093006E+03  0.76038196304E+03  0.11936183255E+04  0.88069595991E+03 0.  0.
         23    2    4    4    0    0 -0.46786331258E+03 -0.50986633964E+02  0.50665313211E+03  0.69793574850E+03  0.94452086557E+02 0.  0.
         23    2    4    4    0    0  0.31659300196E+03  0.27015756402E+03  0.25372883093E+03  0.49568257700E+03  0.90036988021E+02 0.  0.
          4    1    3    3  502    0  0.10171242984E+03 -0.17399345768E+03  0.11131666362E+02  0.20184909139E+03  0.00000000000E+00 0. -1.
         -3    1    3    3    0  502  0.49557880783E+02 -0.45177472383E+02 -0.39327776237E+02  0.77740990104E+02  0.00000000000E+00 0.  1.
         13    1    5    5    0    0 -0.31311526213E+03 -0.27869517003E+02  0.39926299266E+03  0.50816219326E+03  0.00000000000E+00 0. -1.
        -13    1    5    5    0    0 -0.15474805045E+03 -0.23117116961E+02  0.10739013945E+03  0.18977355523E+03  0.00000000000E+00 0.  1.
          2    1    6    6  503    0  0.30303774103E+02  0.54910095377E+02  0.12795032190E+02  0.64008984900E+02  0.00000000000E+00 0. -1.
         -2    1    6    6    0  503  0.28628922785E+03  0.21524746865E+03  0.24093379874E+03  0.43167359210E+03  0.00000000000E+00 0.  1.
<mgrwt>
<rscale>  0 0.12783767E+04</rscale>
<asrwt>0</asrwt>
<pdfrwt beam="1">  1        2 0.16964571E+00 0.12783767E+04</pdfrwt>
<pdfrwt beam="2">  1       -1 0.57001735E-01 0.12783767E+04</pdfrwt>
<totfact> 0.75697586E+01</totfact>
</mgrwt>
</event>
<event>
12    7  0.1707730E-007  0.1742199E+04  0.7818608E-02  0.8737656E-01
          2   -1    0    0  501    0  0.00000000000E+00  0.00000000000E+00  0.14953693674E+04  0.14953693674E+04  0.00000000000E+00 0. -1.
         -1   -1    0    0    0  501 -0.00000000000E+00 -0.00000000000E+00 -0.50744258937E+03  0.50744258937E+03  0.00000000000E+00 0.  1.
         24    2    1    2    0    0 -0.18348543923E+03 -0.60117782589E+03  0.26344096894E+03  0.68510951633E+03  0.69944410056E+02 0.  0.
        254    2    1    2    0    0  0.18348543923E+03  0.60117782589E+03  0.72448580912E+03  0.13177024405E+04  0.90353657883E+03 0.  0.
         23    2    4    4    0    0 -0.13169765451E+02  0.80062432239E+03  0.51716789854E+03  0.95738704356E+03  0.89188382448E+02 0.  0.
         23    2    4    4    0    0  0.19665520468E+03 -0.19944649650E+03  0.20731791058E+03  0.36031539692E+03  0.91620383733E+02 0.  0.
          4    1    3    3  502    0 -0.15436074590E+02 -0.14091313503E+03  0.45871132275E+02  0.14899310320E+03  0.00000000000E+00 0. -1.
         -3    1    3    3    0  502 -0.16804936464E+03 -0.46026469086E+03  0.21756983666E+03  0.53611641313E+03  0.00000000000E+00 0.  1.
         13    1    5    5    0    0 -0.86419963489E+01  0.74605197472E+03  0.50599690379E+03  0.90149936203E+03  0.00000000000E+00 0. -1.
        -13    1    5    5    0    0 -0.45277691020E+01  0.54572347672E+02  0.11170994750E+02  0.55887681534E+02  0.00000000000E+00 0.  1.
          1    1    6    6  503    0  0.17836501446E+03 -0.13291770634E+03  0.17983889528E+03  0.28604758922E+03  0.00000000000E+00 0. -1.
         -1    1    6    6    0  503  0.18290190218E+02 -0.66528790166E+02  0.27479015305E+02  0.74267807705E+02  0.00000000000E+00 0.  1.
<mgrwt>
<rscale>  0 0.17421987E+04</rscale>
<asrwt>0</asrwt>
<pdfrwt beam="1">  1        2 0.23005682E+00 0.17421987E+04</pdfrwt>
<pdfrwt beam="2">  1       -1 0.78068091E-01 0.17421987E+04</pdfrwt>
<totfact> 0.22676663E+01</totfact>
</mgrwt>
</event>
<event>
12    7  0.1707730E-007  0.2224217E+04  0.7818608E-02  0.8508415E-01
          2   -1    0    0  501    0  0.00000000000E+00  0.00000000000E+00  0.10035068128E+04  0.10035068128E+04  0.00000000000E+00 0. -1.
         -1   -1    0    0    0  501 -0.00000000000E+00 -0.00000000000E+00 -0.12324636608E+04  0.12324636608E+04  0.00000000000E+00 0.  1.
         24    2    1    2    0    0 -0.90560192034E+03 -0.11318838769E+03  0.32822612703E+02  0.91678028125E+03  0.80512799947E+02 0.  0.
        254    2    1    2    0    0  0.90560192034E+03  0.11318838769E+03 -0.26177946072E+03  0.13191901924E+04  0.91586452515E+03 0.  0.
         23    2    4    4    0    0  0.91166137200E+03  0.90473711713E+02  0.11903047109E+03  0.92867416183E+03  0.94633482873E+02 0.  0.
         23    2    4    4    0    0 -0.60594516643E+01  0.22714675974E+02 -0.38080993182E+03  0.39051603057E+03  0.83269997605E+02 0.  0.
          2    1    3    3  502    0 -0.76395606417E+03 -0.90684512293E+02  0.56606356569E+02  0.77139926650E+03  0.00000000000E+00 0. -1.
         -1    1    3    3    0  502 -0.14164585617E+03 -0.22503875394E+02 -0.23783743866E+02  0.14538101475E+03  0.00000000000E+00 0.  1.
         13    1    5    5    0    0  0.18931392839E+03 -0.18030941936E+02  0.13641394135E+02  0.19065929294E+03  0.00000000000E+00 0.  1.
        -13    1    5    5    0    0  0.72234744361E+03  0.10850465365E+03  0.10538907696E+03  0.73801486889E+03  0.00000000000E+00 0. -1.
          4    1    6    6  503    0 -0.33204299198E+02  0.22599772597E+02 -0.33398733934E+03  0.33639384365E+03  0.00000000000E+00 0. -1.
         -4    1    6    6    0  503  0.27144847534E+02  0.11490337772E+00 -0.46822592474E+02  0.54122186915E+02  0.00000000000E+00 0.  1.
<mgrwt>
<rscale>  0 0.22242173E+04</rscale>
<asrwt>0</asrwt>
<pdfrwt beam="1">  1        2 0.15438566E+00 0.22242173E+04</pdfrwt>
<pdfrwt beam="2">  1       -1 0.18960979E+00 0.22242173E+04</pdfrwt>
<totfact> 0.46353518E+00</totfact>
</mgrwt>
</event>
<event>
12    7  0.2636564E-007  0.1912447E+04  0.7818608E-02  0.8648685E-01
         -1   -1    0    0    0  501 -0.00000000000E+00  0.00000000000E+00  0.48494661746E+03  0.48494661746E+03  0.00000000000E+00 0.  1.
          2   -1    0    0  501    0  0.00000000000E+00 -0.00000000000E+00 -0.18854934652E+04  0.18854934652E+04  0.00000000000E+00 0. -1.
         24    2    1    2    0    0 -0.38380331033E+03  0.74519116541E+02  0.23842744746E+03  0.46471419870E+03  0.79079447505E+02 0.  0.
        254    2    1    2    0    0  0.38380331033E+03 -0.74519116541E+02 -0.16389742952E+04  0.19057258839E+04  0.89033495085E+03 0.  0.
         23    2    4    4    0    0  0.47402346142E+03  0.57585847786E+01 -0.16800979530E+04  0.17479928940E+04  0.89546762012E+02 0.  0.
         23    2    4    4    0    0 -0.90220151093E+02 -0.80277701320E+02  0.41123657802E+02  0.15773298994E+03  0.92759667374E+02 0.  0.
          4    1    3    3  502    0 -0.45701984442E+02  0.36469199225E+02  0.30061934838E+02  0.65744914634E+02  0.00000000000E+00 0. -1.
         -3    1    3    3    0  502 -0.33810132589E+03  0.38049917316E+02  0.20836551262E+03  0.39896928406E+03  0.00000000000E+00 0.  1.
         13    1    5    5    0    0  0.42638713572E+03 -0.22627216351E+02 -0.14886607284E+04  0.15486861350E+04  0.00000000000E+00 0. -1.
        -13    1    5    5    0    0  0.47636325699E+02  0.28385801129E+02 -0.19143722462E+03  0.19930675905E+03  0.00000000000E+00 0.  1.
          2    1    6    6  503    0 -0.79695363575E+02 -0.77905556353E+02  0.66763784981E+02  0.12991547125E+03  0.00000000000E+00 0. -1.
         -2    1    6    6    0  503 -0.10524787517E+02 -0.23721449672E+01 -0.25640127178E+02  0.27817518684E+02  0.00000000000E+00 0.  1.
<mgrwt>
<rscale>  0 0.19124473E+04</rscale>
<asrwt>0</asrwt>
<pdfrwt beam="1">  1        2 0.29007591E+00 0.19124473E+04</pdfrwt>
<pdfrwt beam="2">  1       -1 0.74607174E-01 0.19124473E+04</pdfrwt>
<totfact> 0.14898128E+01</totfact>
</mgrwt>
</event>
<event>
12    7  0.1707730E-007  0.2261299E+04  0.7818608E-02  0.8493339E-01
         -1   -1    0    0    0  501 -0.00000000000E+00  0.00000000000E+00  0.84625541149E+03  0.84625541149E+03  0.00000000000E+00 0.  1.
          2   -1    0    0  501    0  0.00000000000E+00 -0.00000000000E+00 -0.15106170823E+04  0.15106170823E+04  0.00000000000E+00 0. -1.
         24    2    1    2    0    0  0.25330009908E+03  0.91042607286E+03 -0.35822530451E+03  0.10137271749E+04  0.79251763853E+02 0.  0.
        254    2    1    2    0    0 -0.25330009908E+03 -0.91042607286E+03 -0.30613636633E+03  0.13431453189E+04  0.90403722184E+03 0.  0.
         23    2    4    4    0    0 -0.19714751108E+03 -0.73931419196E+03  0.20234390036E+03  0.79695303895E+03  0.93479819844E+02 0.  0.
         23    2    4    4    0    0 -0.56152587999E+02 -0.17111188090E+03 -0.50848026669E+03  0.54619227992E+03  0.85682180823E+02 0.  0.
          2    1    3    3  502    0  0.11233382024E+02  0.12251177303E+03 -0.30857169708E+02  0.12683646291E+03  0.00000000000E+00 0. -1.
         -1    1    3    3    0  502  0.24206671706E+03  0.78791429984E+03 -0.32736813480E+03  0.88689071203E+03  0.00000000000E+00 0.  1.
         13    1    5    5    0    0 -0.18027494572E+03 -0.51623207303E+03  0.13322334384E+03  0.56279931470E+03  0.00000000000E+00 0. -1.
        -13    1    5    5    0    0 -0.16872565367E+02 -0.22308211893E+03  0.69120556520E+02  0.23415372425E+03  0.00000000000E+00 0.  1.
          3    1    6    6  503    0  0.21346398692E+02 -0.44493697000E+02 -0.98683375877E+02  0.11033479272E+03  0.00000000000E+00 0. -1.
         -3    1    6    6    0  503 -0.77498986691E+02 -0.12661818390E+03 -0.40979689081E+03  0.43585748721E+03  0.00000000000E+00 0.  1.
<mgrwt>
<rscale>  0 0.22612986E+04</rscale>
<asrwt>0</asrwt>
<pdfrwt beam="1">  1        2 0.23240263E+00 0.22612986E+04</pdfrwt>
<pdfrwt beam="2">  1       -1 0.13019314E+00 0.22612986E+04</pdfrwt>
<totfact> 0.65536319E+00</totfact>
</mgrwt>
</event>
<event>
12    7  0.1707730E-007  0.1591617E+04  0.7818608E-02  0.8825714E-01
          2   -1    0    0  501    0  0.00000000000E+00  0.00000000000E+00  0.18348993370E+04  0.18348993370E+04  0.00000000000E+00 0. -1.
         -1   -1    0    0    0  501 -0.00000000000E+00 -0.00000000000E+00 -0.34514783296E+03  0.34514783296E+03  0.00000000000E+00 0.  1.
         24    2    1    2    0    0  0.30234234290E+03 -0.72587496195E+02 -0.91571030347E+02  0.33358188083E+03  0.78814850790E+02 0.  0.
        254    2    1    2    0    0 -0.30234234290E+03  0.72587496195E+02  0.15813225344E+04  0.18464652892E+04  0.90120656305E+03 0.  0.
         23    2    4    4    0    0  0.28072337926E+02 -0.35701476018E+03  0.40684420355E+03  0.54973452317E+03  0.91859919787E+02 0.  0.
         23    2    4    4    0    0 -0.33041468083E+03  0.42960225637E+03  0.11744783309E+04  0.12967307660E+04  0.91538897699E+02 0.  0.
          4    1    3    3  502    0  0.17618897731E+02  0.14415087985E+01  0.12363363954E+02  0.21572117957E+02  0.00000000000E+00 0. -1.
         -3    1    3    3    0  502  0.28472344517E+03 -0.74029004994E+02 -0.10393439430E+03  0.31200976288E+03  0.00000000000E+00 0.  1.
         13    1    5    5    0    0  0.62040310839E+02 -0.23351660458E+03  0.26410572541E+03  0.35795368273E+03  0.00000000000E+00 0. -1.
        -13    1    5    5    0    0 -0.33967972913E+02 -0.12349815560E+03  0.14273847815E+03  0.19178084045E+03  0.00000000000E+00 0.  1.
          1    1    6    6  503    0 -0.15452700082E+03  0.26221484747E+03  0.59157573133E+03  0.66527969015E+03  0.00000000000E+00 0. -1.
         -1    1    6    6    0  503 -0.17588768001E+03  0.16738740890E+03  0.58290259953E+03  0.63145107584E+03  0.00000000000E+00 0.  1.
<mgrwt>
<rscale>  0 0.15916175E+04</rscale>
<asrwt>0</asrwt>
<pdfrwt beam="1">  1        2 0.28229220E+00 0.15916175E+04</pdfrwt>
<pdfrwt beam="2">  1       -1 0.53099668E-01 0.15916175E+04</pdfrwt>
<totfact> 0.32261166E+01</totfact>
</mgrwt>
</event>
<event>
12    7  0.1707730E-007  0.1887538E+04  0.7818608E-02  0.8661085E-01
          2   -1    0    0  501    0  0.00000000000E+00  0.00000000000E+00  0.12039427413E+04  0.12039427413E+04  0.00000000000E+00 0. -1.
         -1   -1    0    0    0  501 -0.00000000000E+00 -0.00000000000E+00 -0.73981887311E+03  0.73981887311E+03  0.00000000000E+00 0.  1.
         24    2    1    2    0    0 -0.24493763405E+02  0.35883986357E+03 -0.46978646753E+03  0.59725016013E+03  0.81501144586E+02 0.  0.
        254    2    1    2    0    0  0.24493763405E+02 -0.35883986357E+03  0.93391033573E+03  0.13465114543E+04  0.90085436625E+03 0.  0.
         23    2    4    4    0    0 -0.17261065339E+03  0.22748580425E+03  0.12839008861E+03  0.32654978925E+03  0.92771338291E+02 0.  0.
         23    2    4    4    0    0  0.19710441679E+03 -0.58632566782E+03  0.80552024712E+03  0.10199616650E+04  0.93973345984E+02 0.  0.
          2    1    3    3  502    0 -0.16422997006E+02  0.19697962230E+03 -0.19150154614E+03  0.27521542218E+03  0.00000000000E+00 0. -1.
         -1    1    3    3    0  502 -0.80707663982E+01  0.16186024128E+03 -0.27828492139E+03  0.32203473795E+03  0.00000000000E+00 0.  1.
         13    1    5    5    0    0  0.72529156331E+01  0.31846282352E+02  0.33041485317E+01  0.32828461468E+02  0.00000000000E+00 0. -1.
        -13    1    5    5    0    0 -0.17986356902E+03  0.19563952189E+03  0.12508594008E+03  0.29372132778E+03  0.00000000000E+00 0.  1.
          3    1    6    6  503    0  0.69433138184E+02 -0.28304035284E+03  0.44405759950E+03  0.53114965282E+03  0.00000000000E+00 0. -1.
         -3    1    6    6    0  503  0.12767127861E+03 -0.30328531498E+03  0.36146264763E+03  0.48881201222E+03  0.00000000000E+00 0.  1.
<mgrwt>
<rscale>  0 0.18875376E+04</rscale>
<asrwt>0</asrwt>
<pdfrwt beam="1">  1        2 0.18522196E+00 0.18875376E+04</pdfrwt>
<pdfrwt beam="2">  1       -1 0.11381829E+00 0.18875376E+04</pdfrwt>
<totfact> 0.14170249E+01</totfact>
</mgrwt>
</event>
<event>
12    7  0.1707730E-007  0.1222329E+04  0.7818608E-02  0.9093533E-01
          2   -1    0    0  501    0  0.00000000000E+00  0.00000000000E+00  0.11084163896E+04  0.11084163896E+04  0.00000000000E+00 0. -1.
         -1   -1    0    0    0  501 -0.00000000000E+00 -0.00000000000E+00 -0.33698725218E+03  0.33698725218E+03  0.00000000000E+00 0.  1.
         24    2    1    2    0    0  0.12064348452E+03  0.14848169966E+03  0.40894888027E+03  0.45875934117E+03  0.81358963508E+02 0.  0.
        254    2    1    2    0    0 -0.12064348452E+03 -0.14848169966E+03  0.36248025719E+03  0.98664430064E+03  0.89748168430E+03 0.  0.
         23    2    4    4    0    0 -0.23316030192E+03  0.19947091526E+03 -0.14697891126E+03  0.35295869199E+03  0.93939690571E+02 0.  0.
         23    2    4    4    0    0  0.11251681740E+03 -0.34795261492E+03  0.50945916845E+03  0.63368560866E+03  0.90982140449E+02 0.  0.
          2    1    3    3  502    0  0.12173896898E+03  0.95526172888E+02  0.31294260028E+03  0.34911129650E+03  0.00000000000E+00 0. -1.
         -1    1    3    3    0  502 -0.10954844569E+01  0.52955526767E+02  0.96006279993E+02  0.10964804467E+03  0.00000000000E+00 0.  1.
         13    1    5    5    0    0 -0.17127402466E+03  0.18868438850E+03 -0.96927634078E+02  0.27263814156E+03  0.00000000000E+00 0.  1.
        -13    1    5    5    0    0 -0.61886277262E+02  0.10786526766E+02 -0.50051277182E+02  0.80320550425E+02  0.00000000000E+00 0. -1.
          4    1    6    6  503    0 -0.69008000542E+01 -0.72923278392E+02  0.13874426302E+03  0.15689294469E+03  0.00000000000E+00 0. -1.
         -4    1    6    6    0  503  0.11941761746E+03 -0.27502933653E+03  0.37071490543E+03  0.47679266397E+03  0.00000000000E+00 0.  1.
<mgrwt>
<rscale>  0 0.12223292E+04</rscale>
<asrwt>0</asrwt>
<pdfrwt beam="1">  1        2 0.17052560E+00 0.12223292E+04</pdfrwt>
<pdfrwt beam="2">  1       -1 0.51844193E-01 0.12223292E+04</pdfrwt>
<totfact> 0.90562149E+01</totfact>
</mgrwt>
</event>
<event>
12    7  0.1707730E-007  0.2735515E+04  0.7818608E-02  0.8323573E-01
          2   -1    0    0  501    0  0.00000000000E+00  0.00000000000E+00  0.23725525269E+04  0.23725525269E+04  0.00000000000E+00 0. -1.
         -1   -1    0    0    0  501 -0.00000000000E+00 -0.00000000000E+00 -0.78850139479E+03  0.78850139479E+03  0.00000000000E+00 0.  1.
         24    2    1    2    0    0  0.54637597092E+03  0.12067562158E+03  0.19650272343E+04  0.20447143568E+04  0.80221331363E+02 0.  0.
        254    2    1    2    0    0 -0.54637597092E+03 -0.12067562158E+03 -0.38097610220E+03  0.11163395649E+04  0.88768346075E+03 0.  0.
         23    2    4    4    0    0 -0.22336854136E+03  0.35008443481E+03 -0.21274654448E+01  0.42533009529E+03  0.91915978407E+02 0.  0.
         23    2    4    4    0    0 -0.32300742955E+03 -0.47076005639E+03 -0.37884863676E+03  0.69100946962E+03  0.89548686700E+02 0.  0.
          4    1    3    3  502    0  0.52186065264E+03  0.96267682750E+02  0.18469207061E+04  0.19216456755E+04  0.00000000000E+00 0. -1.
         -3    1    3    3    0  502  0.24515318274E+02  0.24407938834E+02  0.11810652826E+03  0.12306868134E+03  0.00000000000E+00 0.  1.
         13    1    5    5    0    0 -0.15434071801E+02  0.86896448786E+01 -0.18037344161E+02  0.25279760380E+02  0.00000000000E+00 0. -1.
        -13    1    5    5    0    0 -0.20793446956E+03  0.34139478993E+03  0.15909878716E+02  0.40005033491E+03  0.00000000000E+00 0.  1.
          3    1    6    6  503    0 -0.53325654695E+02 -0.61131222697E+02 -0.92779008649E+02  0.12324202320E+03  0.00000000000E+00 0. -1.
         -3    1    6    6    0  503 -0.26968177486E+03 -0.40962883369E+03 -0.28606962811E+03  0.56776744642E+03  0.00000000000E+00 0.  1.
<mgrwt>
<rscale>  0 0.27355153E+04</rscale>
<asrwt>0</asrwt>
<pdfrwt beam="1">  1        2 0.36500808E+00 0.27355153E+04</pdfrwt>
<pdfrwt beam="2">  1       -1 0.12130791E+00 0.27355153E+04</pdfrwt>
<totfact> 0.24710100E+00</totfact>
</mgrwt>
</event>
<event>
12    7  0.1707730E-007  0.1614286E+04  0.7818608E-02  0.8811819E-01
          2   -1    0    0  501    0  0.00000000000E+00  0.00000000000E+00  0.20334101363E+04  0.20334101363E+04  0.00000000000E+00 0. -1.
         -1   -1    0    0    0  501 -0.00000000000E+00 -0.00000000000E+00 -0.32038793767E+03  0.32038793767E+03  0.00000000000E+00 0.  1.
         24    2    1    2    0    0 -0.41122951407E+03 -0.24611484684E+03  0.18830077960E+03  0.52104055717E+03  0.79648273914E+02 0.  0.
        254    2    1    2    0    0  0.41122951407E+03  0.24611484684E+03  0.15247214190E+04  0.18327575168E+04  0.89696291932E+03 0.  0.
         23    2    4    4    0    0  0.12560140038E+03 -0.36647484947E+02  0.13907291772E+04  0.13995172014E+04  0.86034892705E+02 0.  0.
         23    2    4    4    0    0  0.28562811369E+03  0.28276233179E+03  0.13399224179E+03  0.43324031536E+03  0.90583079979E+02 0.  0.
          4    1    3    3  502    0 -0.92836523044E+02 -0.39112456870E+02  0.92008605449E+01  0.10115858900E+03  0.00000000000E+00 0. -1.
         -3    1    3    3    0  502 -0.31839299103E+03 -0.20700238997E+03  0.17909991906E+03  0.41988196817E+03  0.00000000000E+00 0.  1.
         13    1    5    5    0    0  0.11720361336E+02 -0.25018492058E+01  0.57934786668E+03  0.57947180842E+03  0.00000000000E+00 0.  1.
        -13    1    5    5    0    0  0.11388103904E+03 -0.34145635742E+02  0.81138131055E+03  0.82004539301E+03  0.00000000000E+00 0. -1.
          2    1    6    6  503    0  0.14965512986E+03  0.16637680504E+03  0.28775700094E+02  0.22562344751E+03  0.00000000000E+00 0. -1.
         -2    1    6    6    0  503  0.13597298383E+03  0.11638552675E+03  0.10521654169E+03  0.20761686785E+03  0.00000000000E+00 0.  1.
<mgrwt>
<rscale>  0 0.16142863E+04</rscale>
<asrwt>0</asrwt>
<pdfrwt beam="1">  1        2 0.31283232E+00 0.16142863E+04</pdfrwt>
<pdfrwt beam="2">  1       -1 0.49290453E-01 0.16142863E+04</pdfrwt>
<totfact> 0.28813078E+01</totfact>
</mgrwt>
</event>
<event>
12    7  0.1707730E-007  0.1689444E+04  0.7818608E-02  0.8767408E-01
          2   -1    0    0  501    0  0.00000000000E+00  0.00000000000E+00  0.31668073494E+04  0.31668073494E+04  0.00000000000E+00 0. -1.
         -1   -1    0    0    0  501 -0.00000000000E+00 -0.00000000000E+00 -0.22532310597E+03  0.22532310597E+03  0.00000000000E+00 0.  1.
         24    2    1    2    0    0 -0.26309920818E+03  0.40157749306E+03  0.16385221635E+04  0.17092938736E+04  0.80280693310E+02 0.  0.
        254    2    1    2    0    0  0.26309920818E+03 -0.40157749306E+03  0.13029620800E+04  0.16828365818E+04  0.95065403959E+03 0.  0.
         23    2    4    4    0    0 -0.21897785999E+03 -0.19090882316E+03  0.34554121099E+02  0.30663026318E+03  0.91818566163E+02 0.  0.
         23    2    4    4    0    0  0.48207706817E+03 -0.21066866991E+03  0.12684079589E+04  0.13762063186E+04  0.91134478612E+02 0.  0.
          4    1    3    3  502    0 -0.52291309038E+02  0.72443565844E+02  0.20888710012E+03  0.22719214737E+03  0.00000000000E+00 0. -1.
         -3    1    3    3    0  502 -0.21080789914E+03  0.32913392722E+03  0.14296350634E+04  0.14821017262E+04  0.00000000000E+00 0.  1.
         13    1    5    5    0    0 -0.32978899320E+02 -0.16947971988E+02  0.36388184518E+02  0.51951338072E+02  0.00000000000E+00 0.  1.
        -13    1    5    5    0    0 -0.18599896067E+03 -0.17396085117E+03 -0.18340634189E+01  0.25467892511E+03  0.00000000000E+00 0. -1.
          1    1    6    6  503    0  0.38806639777E+03 -0.19707249456E+03  0.97317826716E+03  0.10660717785E+04  0.00000000000E+00 0. -1.
         -1    1    6    6    0  503  0.94010670393E+02 -0.13596175352E+02  0.29522969170E+03  0.31013454015E+03  0.00000000000E+00 0.  1.
<mgrwt>
<rscale>  0 0.16894435E+04</rscale>
<asrwt>0</asrwt>
<pdfrwt beam="1">  1        2 0.48720110E+00 0.16894435E+04</pdfrwt>
<pdfrwt beam="2">  1       -1 0.34665096E-01 0.16894435E+04</pdfrwt>
<totfact> 0.11742649E+01</totfact>
</mgrwt>
</event>
<event>
12    7  0.1707730E-007  0.2667385E+04  0.7818608E-02  0.8345666E-01
          2   -1    0    0  501    0  0.00000000000E+00  0.00000000000E+00  0.78235247170E+03  0.78235247170E+03  0.00000000000E+00 0. -1.
         -1   -1    0    0    0  501 -0.00000000000E+00 -0.00000000000E+00 -0.22735725908E+04  0.22735725908E+04  0.00000000000E+00 0.  1.
         24    2    1    2    0    0 -0.31929040363E+03 -0.10120333679E+04 -0.12475862617E+04  0.16397357545E+04  0.78127874614E+02 0.  0.
        254    2    1    2    0    0  0.31929040363E+03  0.10120333679E+04 -0.24363385743E+03  0.14161893080E+04  0.90558091850E+03 0.  0.
         23    2    4    4    0    0  0.43633250648E+03  0.68884827845E+03 -0.51537989795E+03  0.96893914868E+03  0.91261315438E+02 0.  0.
         23    2    4    4    0    0 -0.11704210286E+03  0.32318508944E+03  0.27174604052E+03  0.44725015929E+03  0.89662358683E+02 0.  0.
          4    1    3    3  502    0 -0.23241488541E+03 -0.65143035683E+03 -0.85316099150E+03  0.10982995339E+04  0.00000000000E+00 0. -1.
         -1    1    3    3    0  502 -0.86875518219E+02 -0.36060301106E+03 -0.39442527016E+03  0.54143622061E+03  0.00000000000E+00 0.  1.
         13    1    5    5    0    0  0.52940953639E+02  0.61331501300E+02 -0.82452394900E+02  0.11559712388E+03  0.00000000000E+00 0. -1.
        -13    1    5    5    0    0  0.38339155284E+03  0.62751677715E+03 -0.43292750305E+03  0.85334202480E+03  0.00000000000E+00 0.  1.
          2    1    6    6  503    0 -0.38981526883E+00  0.52603768499E+02  0.79835905290E+02  0.95608996384E+02  0.00000000000E+00 0. -1.
         -2    1    6    6    0  503 -0.11665228759E+03  0.27058132094E+03  0.19191013523E+03  0.35164116290E+03  0.00000000000E+00 0.  1.
<mgrwt>
<rscale>  0 0.26673846E+04</rscale>
<asrwt>0</asrwt>
<pdfrwt beam="1">  1        2 0.12036192E+00 0.26673846E+04</pdfrwt>
<pdfrwt beam="2">  1       -1 0.34978040E+00 0.26673846E+04</pdfrwt>
<totfact> 0.55488848E-01</totfact>
</mgrwt>
</event>
<event>
12    7  0.1707730E-007  0.1530270E+04  0.7818608E-02  0.8864569E-01
         -1   -1    0    0    0  501 -0.00000000000E+00  0.00000000000E+00  0.33805013865E+03  0.33805013865E+03  0.00000000000E+00 0.  1.
          2   -1    0    0  501    0  0.00000000000E+00 -0.00000000000E+00 -0.17317897614E+04  0.17317897614E+04  0.00000000000E+00 0. -1.
         24    2    1    2    0    0 -0.19898652102E+03 -0.16175193316E+03  0.11743324713E+03  0.29375982520E+03  0.82127607674E+02 0.  0.
        254    2    1    2    0    0  0.19898652102E+03  0.16175193316E+03 -0.15111728699E+04  0.17760800749E+04  0.89725005780E+03 0.  0.
         23    2    4    4    0    0 -0.26181040645E+03  0.32826028617E+03 -0.79375843354E+03  0.90262356937E+03  0.91527879691E+02 0.  0.
         23    2    4    4    0    0  0.46079692746E+03 -0.16650835301E+03 -0.71741443634E+03  0.87345650549E+03  0.90465206189E+02 0.  0.
          2    1    3    3  502    0 -0.14226318443E+02 -0.37141244246E+02 -0.39912788497E+01  0.39972371301E+02  0.00000000000E+00 0. -1.
         -1    1    3    3    0  502 -0.18476020257E+03 -0.12461068891E+03  0.12142452598E+03  0.25378745390E+03  0.00000000000E+00 0.  1.
         13    1    5    5    0    0 -0.80799664675E+02  0.79718829066E+02 -0.30232046371E+03  0.32292621495E+03  0.00000000000E+00 0. -1.
        -13    1    5    5    0    0 -0.18101074177E+03  0.24854145710E+03 -0.49143796983E+03  0.57969735443E+03  0.00000000000E+00 0.  1.
          3    1    6    6  503    0  0.30660664716E+03 -0.64992234427E+02 -0.46371973241E+03  0.55970315064E+03  0.00000000000E+00 0. -1.
         -3    1    6    6    0  503  0.15419028030E+03 -0.10151611858E+03 -0.25369470393E+03  0.31375335484E+03  0.00000000000E+00 0.  1.
<mgrwt>
<rscale>  0 0.15302703E+04</rscale>
<asrwt>0</asrwt>
<pdfrwt beam="1">  1        2 0.26642920E+00 0.15302703E+04</pdfrwt>
<pdfrwt beam="2">  1       -1 0.52007713E-01 0.15302703E+04</pdfrwt>
<totfact> 0.38490061E+01</totfact>
</mgrwt>
</event>
<event>
12    7  0.1707730E-007  0.1276226E+04  0.7818608E-02  0.9048634E-01
          2   -1    0    0  501    0  0.00000000000E+00  0.00000000000E+00  0.13476265705E+04  0.13476265705E+04  0.00000000000E+00 0. -1.
         -1   -1    0    0    0  501 -0.00000000000E+00 -0.00000000000E+00 -0.30215207227E+03  0.30215207227E+03  0.00000000000E+00 0.  1.
         24    2    1    2    0    0  0.14617219205E+02  0.10991742850E+03 -0.11603286063E+03  0.17906746442E+03  0.79410502345E+02 0.  0.
        254    2    1    2    0    0 -0.14617219205E+02 -0.10991742850E+03  0.11615073589E+04  0.14707111784E+04  0.89531922867E+03 0.  0.
         23    2    4    4    0    0  0.13947742297E+03  0.27974943462E+03  0.92652292944E+03  0.98162413041E+03  0.86182927116E+02 0.  0.
         23    2    4    4    0    0 -0.15409464218E+03 -0.38966686312E+03  0.23498442942E+03  0.48908704794E+03  0.91668072041E+02 0.  0.
          4    1    3    3  502    0  0.16037637709E+02 -0.41950458145E+00  0.34665119462E+01  0.16413363837E+02  0.00000000000E+00 0. -1.
         -3    1    3    3    0  502 -0.14204185033E+01  0.11033693308E+03 -0.11949937258E+03  0.16265410058E+03  0.00000000000E+00 0.  1.
         13    1    5    5    0    0  0.99453252870E+00 -0.62869078873E+01  0.21736076410E+02  0.22648870247E+02  0.00000000000E+00 0.  1.
        -13    1    5    5    0    0  0.13848289044E+03  0.28603634251E+03  0.90478685303E+03  0.95897526016E+03  0.00000000000E+00 0. -1.
          4    1    6    6  503    0 -0.15183011891E+03 -0.39436771245E+03  0.22740945620E+03  0.47988888130E+03  0.00000000000E+00 0. -1.
         -4    1    6    6    0  503 -0.22645232650E+01  0.47008493324E+01  0.75749732282E+01  0.91981666365E+01  0.00000000000E+00 0.  1.
<mgrwt>
<rscale>  0 0.12762259E+04</rscale>
<asrwt>0</asrwt>
<pdfrwt beam="1">  1        2 0.20732716E+00 0.12762259E+04</pdfrwt>
<pdfrwt beam="2">  1       -1 0.46484935E-01 0.12762259E+04</pdfrwt>
<totfact> 0.79950281E+01</totfact>
</mgrwt>
</event>
<event>
12    7  0.1707730E-007  0.1138461E+04  0.7818608E-02  0.9168495E-01
         -1   -1    0    0    0  501 -0.00000000000E+00  0.00000000000E+00  0.22266858654E+03  0.22266858654E+03  0.00000000000E+00 0.  1.
          2   -1    0    0  501    0  0.00000000000E+00 -0.00000000000E+00 -0.14551822536E+04  0.14551822536E+04  0.00000000000E+00 0. -1.
         24    2    1    2    0    0  0.73438284485E+02  0.89276135744E+02 -0.52678690415E+03  0.54502348026E+03  0.78630411488E+02 0.  0.
        254    2    1    2    0    0 -0.73438284485E+02 -0.89276135744E+02 -0.70572676294E+03  0.11328273599E+04  0.87856937881E+03 0.  0.
         23    2    4    4    0    0 -0.45996477511E+03 -0.52256853824E+01 -0.29931875213E+03  0.55693487757E+03  0.94814768598E+02 0.  0.
         23    2    4    4    0    0  0.38652649063E+03 -0.84050450361E+02 -0.40640801082E+03  0.57589248234E+03  0.10008733087E+03 0.  0.
          4    1    3    3  502    0  0.40925267585E+02  0.82363529781E+02 -0.47250658212E+03  0.48137417745E+03  0.00000000000E+00 0. -1.
         -3    1    3    3    0  502  0.32513016901E+02  0.69126059629E+01 -0.54280322026E+02  0.63649302812E+02  0.00000000000E+00 0.  1.
         13    1    5    5    0    0 -0.43916815059E+03 -0.43953736377E+00 -0.30519340536E+03  0.53480077820E+03  0.00000000000E+00 0. -1.
        -13    1    5    5    0    0 -0.20796624522E+02 -0.47861480186E+01  0.58746532308E+01  0.22134099370E+02  0.00000000000E+00 0.  1.
          4    1    6    6  503    0  0.34684360407E+03 -0.10456805493E+03 -0.34775262099E+03  0.50216217420E+03  0.00000000000E+00 0. -1.
         -4    1    6    6    0  503  0.39682886556E+02  0.20517604565E+02 -0.58655389828E+02  0.73730308140E+02  0.00000000000E+00 0.  1.
<mgrwt>
<rscale>  0 0.11384610E+04</rscale>
<asrwt>0</asrwt>
<pdfrwt beam="1">  1        2 0.22387420E+00 0.11384610E+04</pdfrwt>
<pdfrwt beam="2">  1       -1 0.34256705E-01 0.11384610E+04</pdfrwt>
<totfact> 0.12241636E+02</totfact>
</mgrwt>
</event>
<event>
12    7  0.1707730E-007  0.1977464E+04  0.7818608E-02  0.8617230E-01
          2   -1    0    0  501    0  0.00000000000E+00  0.00000000000E+00  0.64543928514E+03  0.64543928514E+03  0.00000000000E+00 0. -1.
         -1   -1    0    0    0  501 -0.00000000000E+00 -0.00000000000E+00 -0.15146135314E+04  0.15146135314E+04  0.00000000000E+00 0.  1.
         24    2    1    2    0    0 -0.78016742074E+03  0.12136624558E+02 -0.37088695804E+03  0.86764205805E+03  0.80231559894E+02 0.  0.
        254    2    1    2    0    0  0.78016742074E+03 -0.12136624558E+02 -0.49828728826E+03  0.12924107585E+04  0.90179090986E+03 0.  0.
         23    2    4    4    0    0  0.78217658699E+03  0.17644950030E+03 -0.63019929876E+02  0.80940827012E+03  0.90750188844E+02 0.  0.
         23    2    4    4    0    0 -0.20091662510E+01 -0.18858612485E+03 -0.43526735839E+03  0.48300248842E+03  0.90911865609E+02 0.  0.
          4    1    3    3  502    0 -0.61684805069E+03  0.33911753116E+02 -0.26810614326E+03  0.67344816333E+03  0.00000000000E+00 0. -1.
         -3    1    3    3    0  502 -0.16331937006E+03 -0.21775128558E+02 -0.10278081478E+03  0.19419389472E+03  0.00000000000E+00 0.  1.
         13    1    5    5    0    0  0.36863547136E+03  0.47147312005E+02 -0.51409269356E+00  0.37163859335E+03  0.00000000000E+00 0. -1.
        -13    1    5    5    0    0  0.41354111564E+03  0.12930218829E+03 -0.62505837182E+02  0.43776967677E+03  0.00000000000E+00 0.  1.
          1    1    6    6  503    0  0.36682036059E+02 -0.57996973967E+02 -0.10156415535E+03  0.12257446068E+03  0.00000000000E+00 0. -1.
         -1    1    6    6    0  503 -0.38691202310E+02 -0.13058915089E+03 -0.33370320304E+03  0.36042802775E+03  0.00000000000E+00 0.  1.
<mgrwt>
<rscale>  0 0.19774641E+04</rscale>
<asrwt>0</asrwt>
<pdfrwt beam="1">  1        2 0.99298353E-01 0.19774641E+04</pdfrwt>
<pdfrwt beam="2">  1       -1 0.23301746E+00 0.19774641E+04</pdfrwt>
<totfact> 0.43446960E+00</totfact>
</mgrwt>
</event>
<event>
12    7  0.1707730E-007  0.1526765E+04  0.7818608E-02  0.8866847E-01
          2   -1    0    0  501    0  0.00000000000E+00  0.00000000000E+00  0.86028808874E+03  0.86028808874E+03  0.00000000000E+00 0. -1.
         -1   -1    0    0    0  501 -0.00000000000E+00 -0.00000000000E+00 -0.67739260561E+03  0.67739260561E+03  0.00000000000E+00 0.  1.
         24    2    1    2    0    0 -0.11368822168E+03  0.32703648227E+03  0.42238262190E+03  0.55207830298E+03  0.80656685129E+02 0.  0.
        254    2    1    2    0    0  0.11368822168E+03 -0.32703648227E+03 -0.23948713877E+03  0.98560239137E+03  0.89116783591E+03 0.  0.
         23    2    4    4    0    0 -0.45938859927E+02  0.43659318690E+02 -0.49005677023E+03  0.50158740883E+03  0.86126509778E+02 0.  0.
         23    2    4    4    0    0  0.15962708161E+03 -0.37069580096E+03  0.25056963146E+03  0.48401498254E+03  0.92677834920E+02 0.  0.
          4    1    3    3  502    0 -0.11703512339E+03  0.28753777223E+03  0.40072337088E+03  0.50690670791E+03  0.00000000000E+00 0. -1.
         -3    1    3    3    0  502  0.33469017052E+01  0.39498710041E+02  0.21659251027E+02  0.45171595068E+02  0.00000000000E+00 0.  1.
         13    1    5    5    0    0 -0.51613105859E+02  0.20911106124E+02 -0.46052883201E+03  0.46388359765E+03  0.00000000000E+00 0.  1.
        -13    1    5    5    0    0  0.56742459323E+01  0.22748212566E+02 -0.29527938221E+02  0.37703811179E+02  0.00000000000E+00 0. -1.
          1    1    6    6  503    0  0.77296999853E+02 -0.27746028723E+03  0.15447382945E+03  0.32683512841E+03  0.00000000000E+00 0. -1.
         -1    1    6    6    0  503  0.82330081754E+02 -0.93235513724E+02  0.96095802012E+02  0.15717985413E+03  0.00000000000E+00 0.  1.
<mgrwt>
<rscale>  0 0.15267649E+04</rscale>
<asrwt>0</asrwt>
<pdfrwt beam="1">  1        2 0.13235201E+00 0.15267649E+04</pdfrwt>
<pdfrwt beam="2">  1       -1 0.10421425E+00 0.15267649E+04</pdfrwt>
<totfact> 0.29779892E+01</totfact>
</mgrwt>
</event>
<event>
12    7  0.1707730E-007  0.2111302E+04  0.7818608E-02  0.8556281E-01
          2   -1    0    0  501    0  0.00000000000E+00  0.00000000000E+00  0.11642518421E+04  0.11642518421E+04  0.00000000000E+00 0. -1.
         -1   -1    0    0    0  501 -0.00000000000E+00 -0.00000000000E+00 -0.95718055009E+03  0.95718055009E+03  0.00000000000E+00 0.  1.
         24    2    1    2    0    0 -0.28392077979E+03 -0.70224537237E+03 -0.32944517797E+03  0.82747932522E+03  0.49278151089E+02 0.  0.
        254    2    1    2    0    0  0.28392077979E+03  0.70224537237E+03  0.53651646995E+03  0.12939530669E+04  0.90150155003E+03 0.  0.
         23    2    4    4    0    0 -0.13071534280E+03 -0.50872200928E+02  0.37844156839E+03  0.41391591258E+03  0.91836160255E+02 0.  0.
         23    2    4    4    0    0  0.41463612258E+03  0.75311757330E+03  0.15807490156E+03  0.88003715436E+03  0.10182595538E+03 0.  0.
          4    1    3    3  502    0 -0.71749077295E+02 -0.23053304253E+03 -0.92428806131E+02  0.25852755751E+03  0.00000000000E+00 0. -1.
         -3    1    3    3    0  502 -0.21217170249E+03 -0.47171232984E+03 -0.23701637184E+03  0.56895176771E+03  0.00000000000E+00 0.  1.
         13    1    5    5    0    0 -0.61848462936E+01  0.81599075381E+01 -0.93676527211E+00  0.10281728643E+02  0.00000000000E+00 0.  1.
        -13    1    5    5    0    0 -0.12453049651E+03 -0.59032108466E+02  0.37937833366E+03  0.40363418393E+03  0.00000000000E+00 0. -1.
          2    1    6    6  503    0  0.26782045762E+03  0.41498776315E+03  0.12777631775E+03  0.51016607930E+03  0.00000000000E+00 0. -1.
         -2    1    6    6    0  503  0.14681566496E+03  0.33812981015E+03  0.30298583810E+02  0.36987107507E+03  0.00000000000E+00 0.  1.
<mgrwt>
<rscale>  0 0.21113022E+04</rscale>
<asrwt>0</asrwt>
<pdfrwt beam="1">  1        2 0.17911567E+00 0.21113022E+04</pdfrwt>
<pdfrwt beam="2">  1       -1 0.14725855E+00 0.21113022E+04</pdfrwt>
<totfact> 0.76605979E+00</totfact>
</mgrwt>
</event>
<event>
12    7  0.1707730E-007  0.1355011E+04  0.7818608E-02  0.8987043E-01
         -1   -1    0    0    0  501 -0.00000000000E+00  0.00000000000E+00  0.55015667718E+03  0.55015667718E+03  0.00000000000E+00 0.  1.
          2   -1    0    0  501    0  0.00000000000E+00 -0.00000000000E+00 -0.83433283332E+03  0.83433283332E+03  0.00000000000E+00 0. -1.
         24    2    1    2    0    0  0.21582091102E+03 -0.25566404259E+03 -0.24221856186E+03  0.42076557300E+03  0.80193936227E+02 0.  0.
        254    2    1    2    0    0 -0.21582091102E+03  0.25566404259E+03 -0.41957594280E+02  0.96372393749E+03  0.90280707777E+03 0.  0.
         23    2    4    4    0    0 -0.28241982451E+03  0.47589910442E+03 -0.27360592102E+03  0.62417769110E+03  0.92177411482E+02 0.  0.
         23    2    4    4    0    0  0.66598913497E+02 -0.22023506183E+03  0.23164832674E+03  0.33954624639E+03  0.93229868700E+02 0.  0.
          4    1    3    3  502    0  0.18284968275E+03 -0.24825313084E+03 -0.23063927795E+03  0.38504298459E+03  0.00000000000E+00 0. -1.
         -3    1    3    3    0  502  0.32971228269E+02 -0.74109117468E+01 -0.11579283915E+02  0.35722588406E+02  0.00000000000E+00 0.  1.
         13    1    5    5    0    0 -0.32264528842E+02  0.16734034924E+02 -0.30913431048E+02  0.47714441895E+02  0.00000000000E+00 0. -1.
        -13    1    5    5    0    0 -0.25015529567E+03  0.45916506950E+03 -0.24269248997E+03  0.57646324921E+03  0.00000000000E+00 0.  1.
          1    1    6    6  503    0  0.23909673514E+02 -0.13215764041E+03  0.19116582165E+03  0.23362723680E+03  0.00000000000E+00 0. -1.
         -1    1    6    6    0  503  0.42689239983E+02 -0.88077421425E+02  0.40482505086E+02  0.10591900959E+03  0.00000000000E+00 0.  1.
<mgrwt>
<rscale>  0 0.13550111E+04</rscale>
<asrwt>0</asrwt>
<pdfrwt beam="1">  1        2 0.12835890E+00 0.13550111E+04</pdfrwt>
<pdfrwt beam="2">  1       -1 0.84639490E-01 0.13550111E+04</pdfrwt>
<totfact> 0.50158622E+01</totfact>
</mgrwt>
</event>
<event>
12    7  0.1707730E-007  0.1780578E+04  0.7818608E-02  0.8716696E-01
         -3   -1    0    0    0  501 -0.00000000000E+00  0.00000000000E+00  0.98025213289E+03  0.98025213289E+03  0.00000000000E+00 0.  1.
          2   -1    0    0  501    0  0.00000000000E+00 -0.00000000000E+00 -0.80858246932E+03  0.80858246932E+03  0.00000000000E+00 0. -1.
         24    2    1    2    0    0  0.44856102526E+03  0.47062133079E+03  0.15936184647E+03  0.67416353988E+03  0.80055293464E+02 0.  0.
        254    2    1    2    0    0 -0.44856102526E+03 -0.47062133079E+03  0.12307817093E+02  0.11146710623E+04  0.90534450043E+03 0.  0.
         23    2    4    4    0    0 -0.40319728993E+03 -0.61660188763E+03  0.27992412857E+03  0.79368998250E+03  0.93916601986E+02 0.  0.
         23    2    4    4    0    0 -0.45363735335E+02  0.14598055684E+03 -0.26761631148E+03  0.32098107984E+03  0.89678157797E+02 0.  0.
          2    1    3    3  502    0  0.90288994042E+02  0.14065098979E+03  0.55778694298E+02  0.17619893902E+03  0.00000000000E+00 0. -1.
         -1    1    3    3    0  502  0.35827203122E+03  0.32997034100E+03  0.10358315218E+03  0.49796460086E+03  0.00000000000E+00 0.  1.
         13    1    5    5    0    0 -0.35242663119E+03 -0.46959190170E+03  0.22414745544E+03  0.62846095049E+03  0.00000000000E+00 0.  1.
        -13    1    5    5    0    0 -0.50770658738E+02 -0.14700998594E+03  0.55776673130E+02  0.16522903201E+03  0.00000000000E+00 0. -1.
          3    1    6    6  503    0 -0.63209204014E+02  0.79117480291E+02 -0.20026833581E+03  0.22441565339E+03  0.00000000000E+00 0. -1.
         -3    1    6    6    0  503  0.17845468680E+02  0.66863076549E+02 -0.67347975670E+02  0.96565426446E+02  0.00000000000E+00 0.  1.
<mgrwt>
<rscale>  0 0.17805782E+04</rscale>
<asrwt>0</asrwt>
<pdfrwt beam="1">  1        2 0.12439730E+00 0.17805782E+04</pdfrwt>
<pdfrwt beam="2">  1       -3 0.15080802E+00 0.17805782E+04</pdfrwt>
<totfact> 0.64357132E+00</totfact>
</mgrwt>
</event>
<event>
12    7  0.1707730E-007  0.1554285E+04  0.7818608E-02  0.8849135E-01
         -1   -1    0    0    0  501 -0.00000000000E+00  0.00000000000E+00  0.17226390710E+03  0.17226390710E+03  0.00000000000E+00 0.  1.
          2   -1    0    0  501    0  0.00000000000E+00 -0.00000000000E+00 -0.35059621139E+04  0.35059621139E+04  0.00000000000E+00 0. -1.
         24    2    1    2    0    0  0.40252408401E+03  0.18622429122E+03 -0.17136666949E+04  0.17720041605E+04  0.81486678564E+02 0.  0.
        254    2    1    2    0    0 -0.40252408401E+03 -0.18622429122E+03 -0.16200315119E+04  0.19062218605E+04  0.90137370555E+03 0.  0.
         23    2    4    4    0    0  0.12316929776E+03 -0.38335747021E+03 -0.88807113799E+03  0.97928690839E+03  0.90547650112E+02 0.  0.
         23    2    4    4    0    0 -0.52569338177E+03  0.19713317899E+03 -0.73196037390E+03  0.92693495210E+03  0.90704986480E+02 0.  0.
          4    1    3    3  502    0  0.38102516412E+03  0.17890896559E+03 -0.15268309619E+04  0.15837933514E+04  0.00000000000E+00 0. -1.
         -3    1    3    3    0  502  0.21498919891E+02  0.73153256346E+01 -0.18683573296E+03  0.18821080909E+03  0.00000000000E+00 0.  1.
         13    1    5    5    0    0  0.22034657028E+02 -0.19738433609E+03 -0.48284679551E+03  0.52209877435E+03  0.00000000000E+00 0. -1.
        -13    1    5    5    0    0  0.10113464073E+03 -0.18597313412E+03 -0.40522434248E+03  0.45718813404E+03  0.00000000000E+00 0.  1.
          4    1    6    6  503    0 -0.28088877198E+03  0.13085942207E+03 -0.33946118525E+03  0.45962657328E+03  0.00000000000E+00 0. -1.
         -4    1    6    6    0  503 -0.24480460979E+03  0.66273756920E+02 -0.39249918865E+03  0.46730837882E+03  0.00000000000E+00 0.  1.
<mgrwt>
<rscale>  0 0.15542853E+04</rscale>
<asrwt>0</asrwt>
<pdfrwt beam="1">  1        2 0.53937873E+00 0.15542853E+04</pdfrwt>
<pdfrwt beam="2">  1       -1 0.26502142E-01 0.15542853E+04</pdfrwt>
<totfact> 0.11320986E+01</totfact>
</mgrwt>
</event>
<event>
12    7  0.1707730E-007  0.2695896E+04  0.7818608E-02  0.8336338E-01
         -1   -1    0    0    0  501 -0.00000000000E+00  0.00000000000E+00  0.13342066577E+04  0.13342066577E+04  0.00000000000E+00 0.  1.
          2   -1    0    0  501    0  0.00000000000E+00 -0.00000000000E+00 -0.13618308640E+04  0.13618308640E+04  0.00000000000E+00 0. -1.
         24    2    1    2    0    0 -0.36831591479E+03 -0.67467104325E+03 -0.92900887549E+03  0.12084435313E+04  0.80253647805E+02 0.  0.
        254    2    1    2    0    0  0.36831591479E+03  0.67467104325E+03  0.90138466912E+03  0.14875939903E+04  0.89977993347E+03 0.  0.
         23    2    4    4    0    0 -0.15325489730E+03  0.60685813890E+03  0.36168455673E+03  0.72839313074E+03  0.89313884935E+02 0.  0.
         23    2    4    4    0    0  0.52157081208E+03  0.67812904355E+02  0.53970011239E+03  0.75920085960E+03  0.92059936375E+02 0.  0.
          2    1    3    3  502    0 -0.24628872731E+03 -0.51852392483E+03 -0.71141009291E+03  0.91412773621E+03  0.00000000000E+00 0. -1.
         -1    1    3    3    0  502 -0.12202718747E+03 -0.15614711842E+03 -0.21759878259E+03  0.29431579512E+03  0.00000000000E+00 0.  1.
         13    1    5    5    0    0 -0.15057877425E+03  0.60485713262E+03  0.34713042723E+03  0.71346033642E+03  0.00000000000E+00 0. -1.
        -13    1    5    5    0    0 -0.26761230497E+01  0.20010062769E+01  0.14554129502E+02  0.14932794322E+02  0.00000000000E+00 0.  1.
          3    1    6    6  503    0  0.48826985764E+03  0.53962390325E+02  0.52823945732E+03  0.72135727467E+03  0.00000000000E+00 0. -1.
         -3    1    6    6    0  503  0.33300954442E+02  0.13850514030E+02  0.11460655075E+02  0.37843584930E+02  0.00000000000E+00 0.  1.
<mgrwt>
<rscale>  0 0.26958960E+04</rscale>
<asrwt>0</asrwt>
<pdfrwt beam="1">  1        2 0.20951244E+00 0.26958960E+04</pdfrwt>
<pdfrwt beam="2">  1       -1 0.20526256E+00 0.26958960E+04</pdfrwt>
<totfact> 0.21071683E+00</totfact>
</mgrwt>
</event>
<event>
12    7  0.1707730E-007  0.1871499E+04  0.7818608E-02  0.8669175E-01
          2   -1    0    0  501    0  0.00000000000E+00  0.00000000000E+00  0.22390340468E+04  0.22390340468E+04  0.00000000000E+00 0. -1.
         -1   -1    0    0    0  501 -0.00000000000E+00 -0.00000000000E+00 -0.39107367734E+03  0.39107367734E+03  0.00000000000E+00 0.  1.
         24    2    1    2    0    0 -0.43651694399E+03  0.46419980911E+03  0.25696905263E+03  0.69118046491E+03  0.75291672192E+02 0.  0.
        254    2    1    2    0    0  0.43651694399E+03 -0.46419980911E+03  0.15909913169E+04  0.19389272593E+04  0.90672875836E+03 0.  0.
         23    2    4    4    0    0  0.45354512134E+03 -0.49746793757E+03  0.50013645537E+03  0.84367426669E+03  0.92044925378E+02 0.  0.
         23    2    4    4    0    0 -0.17028177348E+02  0.33268128459E+02  0.10908548615E+04  0.10952529926E+04  0.90653525698E+02 0.  0.
          2    1    3    3  502    0 -0.35562354786E+03  0.36976567006E+03  0.17414039124E+03  0.54177452359E+03  0.00000000000E+00 0. -1.
         -1    1    3    3    0  502 -0.80893396125E+02  0.94434139049E+02  0.82828661395E+02  0.14940594132E+03  0.00000000000E+00 0.  1.
         13    1    5    5    0    0  0.11402632393E+02 -0.17115836282E+02 -0.10928999656E+01  0.20595298188E+02  0.00000000000E+00 0. -1.
        -13    1    5    5    0    0  0.44214248894E+03 -0.48035210128E+03  0.50122935534E+03  0.82307896850E+03  0.00000000000E+00 0.  1.
          4    1    6    6  503    0 -0.39321932336E+02  0.32414427803E+02  0.31645816632E+03  0.32053499110E+03  0.00000000000E+00 0. -1.
         -4    1    6    6    0  503  0.22293754988E+02  0.85370065565E+00  0.77439669517E+03  0.77471800148E+03  0.00000000000E+00 0.  1.
<mgrwt>
<rscale>  0 0.18714992E+04</rscale>
<asrwt>0</asrwt>
<pdfrwt beam="1">  1        2 0.34446677E+00 0.18714992E+04</pdfrwt>
<pdfrwt beam="2">  1       -1 0.60165183E-01 0.18714992E+04</pdfrwt>
<totfact> 0.14700002E+01</totfact>
</mgrwt>
</event>
<event>
12    7  0.1707730E-007  0.1284077E+04  0.7818608E-02  0.9042288E-01
          2   -1    0    0  501    0  0.00000000000E+00  0.00000000000E+00  0.20426262948E+04  0.20426262948E+04  0.00000000000E+00 0. -1.
         -1   -1    0    0    0  501 -0.00000000000E+00 -0.00000000000E+00 -0.20180557804E+03  0.20180557804E+03  0.00000000000E+00 0.  1.
         24    2    1    2    0    0  0.20810754427E+03  0.11692939060E+03  0.11044498911E+03  0.27622134095E+03  0.84373581213E+02 0.  0.
        254    2    1    2    0    0 -0.20810754427E+03 -0.11692939060E+03  0.17303757277E+04  0.19682105319E+04  0.90701229685E+03 0.  0.
         23    2    4    4    0    0 -0.18791397267E+03 -0.19039291967E+03  0.53969517081E+02  0.28784269413E+03  0.91540061187E+02 0.  0.
         23    2    4    4    0    0 -0.20193571595E+02  0.73463529066E+02  0.16764062106E+04  0.16803678378E+04  0.86565679786E+02 0.  0.
          2    1    3    3  502    0  0.31841746023E+01  0.58191925103E+01 -0.11400720504E+02  0.13190087087E+02  0.00000000000E+00 0. -1.
         -1    1    3    3    0  502  0.20492336967E+03  0.11111019809E+03  0.12184570962E+03  0.26303125386E+03  0.00000000000E+00 0.  1.
         13    1    5    5    0    0  0.96911804413E+01 -0.94098147054E+01  0.87485901468E+01  0.16093521078E+02  0.00000000000E+00 0. -1.
        -13    1    5    5    0    0 -0.19760515312E+03 -0.18098310496E+03  0.45220926934E+02  0.27174917305E+03  0.00000000000E+00 0.  1.
          2    1    6    6  503    0 -0.33684521916E+00  0.43558411655E+02  0.14841479265E+04  0.14847870273E+04  0.00000000000E+00 0.  1.
         -2    1    6    6    0  503 -0.19856726376E+02  0.29905117411E+02  0.19225828404E+03  0.19558081044E+03  0.00000000000E+00 0. -1.
<mgrwt>
<rscale>  0 0.12840769E+04</rscale>
<asrwt>0</asrwt>
<pdfrwt beam="1">  1        2 0.31425019E+00 0.12840769E+04</pdfrwt>
<pdfrwt beam="2">  1       -1 0.31047013E-01 0.12840769E+04</pdfrwt>
<totfact> 0.67995231E+01</totfact>
</mgrwt>
</event>
<event>
12    7  0.1707730E-007  0.1306953E+04  0.7818608E-02  0.9024070E-01
          2   -1    0    0  501    0  0.00000000000E+00  0.00000000000E+00  0.96292087152E+03  0.96292087152E+03  0.00000000000E+00 0. -1.
         -1   -1    0    0    0  501 -0.00000000000E+00 -0.00000000000E+00 -0.44347513114E+03  0.44347513114E+03  0.00000000000E+00 0.  1.
         24    2    1    2    0    0  0.26162680442E+03 -0.10584869590E+03  0.27413143021E+03  0.40153180552E+03  0.80169935749E+02 0.  0.
        254    2    1    2    0    0 -0.26162680442E+03  0.10584869590E+03  0.24531431017E+03  0.10048641971E+04  0.93269524107E+03 0.  0.
         23    2    4    4    0    0  0.68830954235E+02  0.25169228510E+03  0.48732790657E+03  0.56037293358E+03  0.91883782752E+02 0.  0.
         23    2    4    4    0    0 -0.33045775866E+03 -0.14584358921E+03 -0.24201359640E+03  0.44449126356E+03  0.92353775053E+02 0.  0.
          2    1    3    3  502    0  0.70630388715E+02 -0.67596371076E+01  0.11004057452E+03  0.13093232048E+03  0.00000000000E+00 0. -1.
         -1    1    3    3    0  502  0.19099641571E+03 -0.99089058789E+02  0.16409085569E+03  0.27059948504E+03  0.00000000000E+00 0.  1.
         13    1    5    5    0    0  0.86535798648E+02  0.23616545359E+03  0.42643548820E+03  0.49508564058E+03  0.00000000000E+00 0.  1.
        -13    1    5    5    0    0 -0.17704844412E+02  0.15526831513E+02  0.60892418369E+02  0.65287293001E+02  0.00000000000E+00 0. -1.
          3    1    6    6  503    0 -0.59223598831E+02 -0.65272944251E+02 -0.76387929728E+02  0.11663236137E+03  0.00000000000E+00 0. -1.
         -3    1    6    6    0  503 -0.27123415983E+03 -0.80570644956E+02 -0.16562566667E+03  0.32785890219E+03  0.00000000000E+00 0.  1.
<mgrwt>
<rscale>  0 0.13069529E+04</rscale>
<asrwt>0</asrwt>
<pdfrwt beam="1">  1        2 0.14814167E+00 0.13069529E+04</pdfrwt>
<pdfrwt beam="2">  1       -1 0.68226943E-01 0.13069529E+04</pdfrwt>
<totfact> 0.64732298E+01</totfact>
</mgrwt>
</event>
<event>
12    7  0.1707730E-007  0.1278248E+04  0.7818608E-02  0.9046995E-01
          2   -1    0    0  501    0  0.00000000000E+00  0.00000000000E+00  0.12922702882E+04  0.12922702882E+04  0.00000000000E+00 0. -1.
         -1   -1    0    0    0  501 -0.00000000000E+00 -0.00000000000E+00 -0.31609430081E+03  0.31609430081E+03  0.00000000000E+00 0.  1.
         24    2    1    2    0    0  0.11100668667E+03 -0.73188783033E+02 -0.11384076401E+03  0.19280733475E+03  0.80844705064E+02 0.  0.
        254    2    1    2    0    0 -0.11100668667E+03  0.73188783033E+02  0.10900167514E+04  0.14155572542E+04  0.89330103507E+03 0.  0.
         23    2    4    4    0    0 -0.33947932043E+03  0.34197295441E+02  0.62361291451E+02  0.35820288964E+03  0.89469075464E+02 0.  0.
         23    2    4    4    0    0  0.22847263376E+03  0.38991487592E+02  0.10276554599E+04  0.10573543646E+04  0.90567254038E+02 0.  0.
          2    1    3    3  502    0  0.39895153421E+02 -0.52264156797E+02 -0.11985298015E+02  0.66834218187E+02  0.00000000000E+00 0. -1.
         -1    1    3    3    0  502  0.71111533244E+02 -0.20924626236E+02 -0.10185546600E+03  0.12597311657E+03  0.00000000000E+00 0.  1.
         13    1    5    5    0    0 -0.29850014519E+03  0.56343959773E+02  0.39545434787E+02  0.30633449021E+03  0.00000000000E+00 0. -1.
        -13    1    5    5    0    0 -0.40979175235E+02 -0.22146664332E+02  0.22815856664E+02  0.51868399428E+02  0.00000000000E+00 0.  1.
          1    1    6    6  503    0  0.21257183912E+03  0.48073766092E+02  0.80605266320E+03  0.83499626923E+03  0.00000000000E+00 0. -1.
         -1    1    6    6    0  503  0.15900794642E+02 -0.90822785002E+01  0.22160279673E+03  0.22235809536E+03  0.00000000000E+00 0.  1.
<mgrwt>
<rscale>  0 0.12782477E+04</rscale>
<asrwt>0</asrwt>
<pdfrwt beam="1">  1        2 0.19881081E+00 0.12782477E+04</pdfrwt>
<pdfrwt beam="2">  1       -1 0.48629893E-01 0.12782477E+04</pdfrwt>
<totfact> 0.79069974E+01</totfact>
</mgrwt>
</event>
<event>
12    7  0.1707730E-007  0.1909754E+04  0.7818608E-02  0.8650016E-01
         -1   -1    0    0    0  501 -0.00000000000E+00  0.00000000000E+00  0.51157300994E+03  0.51157300994E+03  0.00000000000E+00 0.  1.
          2   -1    0    0  501    0  0.00000000000E+00 -0.00000000000E+00 -0.17823270162E+04  0.17823270162E+04  0.00000000000E+00 0. -1.
         24    2    1    2    0    0 -0.54307418337E+03 -0.49571902544E+03 -0.53074459002E+03  0.91033813165E+03  0.79741916658E+02 0.  0.
        254    2    1    2    0    0  0.54307418337E+03  0.49571902544E+03 -0.74000941619E+03  0.13835618945E+04  0.90882487802E+03 0.  0.
         23    2    4    4    0    0  0.31303033664E+03 -0.22379258991E+03 -0.16018453203E+03  0.42685689406E+03  0.92068500291E+02 0.  0.
         23    2    4    4    0    0  0.23004384672E+03  0.71951161534E+03 -0.57982488416E+03  0.95670500040E+03  0.92034914366E+02 0.  0.
          4    1    3    3  502    0 -0.16343442341E+03 -0.15746045107E+03 -0.20968389423E+03  0.30898533930E+03  0.00000000000E+00 0. -1.
         -3    1    3    3    0  502 -0.37963975996E+03 -0.33825857437E+03 -0.32106069580E+03  0.60135279235E+03  0.00000000000E+00 0.  1.
         13    1    5    5    0    0  0.34229248304E+02 -0.15920090076E+00  0.21734447981E+01  0.34298551670E+02  0.00000000000E+00 0.  1.
        -13    1    5    5    0    0  0.27880108834E+03 -0.22363338901E+03 -0.16235797683E+03  0.39255834239E+03  0.00000000000E+00 0. -1.
          4    1    6    6  503    0  0.19195337837E+03  0.45675032356E+03 -0.38113395204E+03  0.62508403190E+03  0.00000000000E+00 0. -1.
         -4    1    6    6    0  503  0.38090468353E+02  0.26276129178E+03 -0.19869093212E+03  0.33162096849E+03  0.00000000000E+00 0.  1.
<mgrwt>
<rscale>  0 0.19097543E+04</rscale>
<asrwt>0</asrwt>
<pdfrwt beam="1">  1        2 0.27420415E+00 0.19097543E+04</pdfrwt>
<pdfrwt beam="2">  1       -1 0.78703541E-01 0.19097543E+04</pdfrwt>
<totfact> 0.15192211E+01</totfact>
</mgrwt>
</event>
<event>
12    7  0.1707730E-007  0.1722589E+04  0.7818608E-02  0.8748585E-01
         -1   -1    0    0    0  501 -0.00000000000E+00  0.00000000000E+00  0.44036390325E+03  0.44036390325E+03  0.00000000000E+00 0.  1.
          2   -1    0    0  501    0  0.00000000000E+00 -0.00000000000E+00 -0.16845797868E+04  0.16845797868E+04  0.00000000000E+00 0. -1.
         24    2    1    2    0    0 -0.33240431801E+03  0.22849971593E+03  0.13176381050E+03  0.43208033128E+03  0.81406142967E+02 0.  0.
        254    2    1    2    0    0  0.33240431801E+03 -0.22849971593E+03 -0.13759796941E+04  0.16928633588E+04  0.89986748036E+03 0.  0.
         23    2    4    4    0    0  0.14538236048E+03  0.18912852090E+03 -0.11428823306E+04  0.11708723092E+04  0.88635855522E+02 0.  0.
         23    2    4    4    0    0  0.18702195753E+03 -0.41762823683E+03 -0.23309736351E+03  0.52199104954E+03  0.93539927978E+02 0.  0.
          2    1    3    3  502    0 -0.11181998492E+03  0.91421934696E+02  0.87169305827E+01  0.14469852815E+03  0.00000000000E+00 0. -1.
         -1    1    3    3    0  502 -0.22058433309E+03  0.13707778124E+03  0.12304687992E+03  0.28738180313E+03  0.00000000000E+00 0.  1.
         13    1    5    5    0    0  0.13230460661E+03  0.11916897925E+03 -0.91388129616E+03  0.93106647347E+03  0.00000000000E+00 0. -1.
        -13    1    5    5    0    0  0.13077753869E+02  0.69959541651E+02 -0.22900103440E+03  0.23980583578E+03  0.00000000000E+00 0.  1.
          1    1    6    6  503    0  0.11756934401E+03 -0.32437536391E+03 -0.13731356613E+03  0.37134477619E+03  0.00000000000E+00 0. -1.
         -1    1    6    6    0  503  0.69452613517E+02 -0.93252872925E+02 -0.95783797378E+02  0.15064627335E+03  0.00000000000E+00 0.  1.
<mgrwt>
<rscale>  0 0.17225889E+04</rscale>
<asrwt>0</asrwt>
<pdfrwt beam="1">  1        2 0.25916612E+00 0.17225889E+04</pdfrwt>
<pdfrwt beam="2">  1       -1 0.67748292E-01 0.17225889E+04</pdfrwt>
<totfact> 0.23877959E+01</totfact>
</mgrwt>
</event>
<event>
12    7  0.1707730E-007  0.2375660E+04  0.7818608E-02  0.8448673E-01
         -1   -1    0    0    0  501 -0.00000000000E+00  0.00000000000E+00  0.18004171694E+04  0.18004171694E+04  0.00000000000E+00 0.  1.
          2   -1    0    0  501    0  0.00000000000E+00 -0.00000000000E+00 -0.78367389854E+03  0.78367389854E+03  0.00000000000E+00 0. -1.
         24    2    1    2    0    0  0.80542883377E+03  0.21044960994E+03 -0.19225981106E+03  0.85938220896E+03  0.92570521996E+02 0.  0.
        254    2    1    2    0    0 -0.80542883377E+03 -0.21044960994E+03  0.12090030819E+04  0.17247088590E+04  0.90549850999E+03 0.  0.
         23    2    4    4    0    0 -0.30878803837E+03  0.26752386958E+02 -0.69374272235E+02  0.32989975796E+03  0.89192588320E+02 0.  0.
         23    2    4    4    0    0 -0.49664079541E+03 -0.23720199690E+03  0.12783773542E+04  0.13948091010E+04  0.91251858501E+02 0.  0.
          4    1    3    3  502    0  0.46634235812E+03  0.15058307343E+03 -0.14984493916E+03  0.51244898553E+03  0.00000000000E+00 0. -1.
         -3    1    3    3    0  502  0.33908647565E+03  0.59866536507E+02 -0.42414871902E+02  0.34693322344E+03  0.00000000000E+00 0.  1.
         13    1    5    5    0    0 -0.33740375271E+02  0.21939260917E+02  0.13742362513E+02  0.42527598339E+02  0.00000000000E+00 0. -1.
        -13    1    5    5    0    0 -0.27504766309E+03  0.48131260407E+01 -0.83116634748E+02  0.28737215963E+03  0.00000000000E+00 0.  1.
          1    1    6    6  503    0 -0.10745266487E+03 -0.91012179486E+02  0.36694386936E+03  0.39303574298E+03  0.00000000000E+00 0. -1.
         -1    1    6    6    0  503 -0.38918813054E+03 -0.14618981741E+03  0.91143348482E+03  0.10017733581E+04  0.00000000000E+00 0.  1.
<mgrwt>
<rscale>  0 0.23756599E+04</rscale>
<asrwt>0</asrwt>
<pdfrwt beam="1">  1        2 0.12056522E+00 0.23756599E+04</pdfrwt>
<pdfrwt beam="2">  1       -1 0.27698726E+00 0.23756599E+04</pdfrwt>
<totfact> 0.16940335E+00</totfact>
</mgrwt>
</event>
<event>
12    7  0.1707730E-007  0.1254659E+04  0.7818608E-02  0.9066315E-01
          2   -1    0    0  501    0  0.00000000000E+00  0.00000000000E+00  0.19332083498E+04  0.19332083498E+04  0.00000000000E+00 0. -1.
         -1   -1    0    0    0  501 -0.00000000000E+00 -0.00000000000E+00 -0.20356947092E+03  0.20356947092E+03  0.00000000000E+00 0.  1.
         24    2    1    2    0    0  0.19026580650E+03  0.13241226969E+03  0.71661452919E+03  0.75743640735E+03  0.80246130402E+02 0.  0.
        254    2    1    2    0    0 -0.19026580650E+03 -0.13241226969E+03  0.10130243497E+04  0.13793414133E+04  0.90698969965E+03 0.  0.
         23    2    4    4    0    0 -0.32468469135E+03  0.30609719907E+03  0.60861854063E+03  0.76116113042E+03  0.99167002591E+02 0.  0.
         23    2    4    4    0    0  0.13441888485E+03 -0.43850946876E+03  0.40440580903E+03  0.61818028292E+03  0.90795445969E+02 0.  0.
          4    1    3    3  502    0  0.19822079791E+03  0.12831207946E+03  0.69598151812E+03  0.73494608512E+03  0.00000000000E+00 0. -1.
         -3    1    3    3    0  502 -0.79549914169E+01  0.41001902318E+01  0.20633011071E+02  0.22490322235E+02  0.00000000000E+00 0.  1.
         13    1    5    5    0    0 -0.13140694865E+03  0.88328129999E+02  0.15119160956E+03  0.21892589501E+03  0.00000000000E+00 0. -1.
        -13    1    5    5    0    0 -0.19327774270E+03  0.21776906907E+03  0.45742693107E+03  0.54223523542E+03  0.00000000000E+00 0.  1.
          1    1    6    6  503    0  0.70513618050E+02 -0.17989854980E+03  0.22710508517E+03  0.29818178727E+03  0.00000000000E+00 0. -1.
         -1    1    6    6    0  503  0.63905266800E+02 -0.25861091897E+03  0.17730072386E+03  0.31999849564E+03  0.00000000000E+00 0.  1.
<mgrwt>
<rscale>  0 0.12546588E+04</rscale>
<asrwt>0</asrwt>
<pdfrwt beam="1">  1        2 0.29741666E+00 0.12546588E+04</pdfrwt>
<pdfrwt beam="2">  1       -1 0.31318381E-01 0.12546588E+04</pdfrwt>
<totfact> 0.77155089E+01</totfact>
</mgrwt>
</event>
<event>
12    7  0.1707730E-007  0.2001217E+04  0.7818608E-02  0.8606052E-01
         -1   -1    0    0    0  501 -0.00000000000E+00  0.00000000000E+00  0.10161384441E+04  0.10161384441E+04  0.00000000000E+00 0.  1.
          2   -1    0    0  501    0  0.00000000000E+00 -0.00000000000E+00 -0.98531626051E+03  0.98531626051E+03  0.00000000000E+00 0. -1.
         24    2    1    2    0    0 -0.39857622534E+03 -0.68666689211E+03 -0.10174242562E+03  0.80439222290E+03  0.79504081384E+02 0.  0.
        254    2    1    2    0    0  0.39857622534E+03  0.68666689211E+03  0.13256460915E+03  0.11970624817E+04  0.88600834154E+03 0.  0.
         23    2    4    4    0    0 -0.44170018673E+02  0.60220448714E+03  0.33368554376E+03  0.69575323844E+03  0.90140400526E+02 0.  0.
         23    2    4    4    0    0  0.44274624401E+03  0.84462404979E+02 -0.20112093460E+03  0.50130924323E+03  0.87767833328E+02 0.  0.
          2    1    3    3  502    0 -0.35719672448E+03 -0.56184112554E+03 -0.96981837485E+02  0.67280043634E+03  0.00000000000E+00 0. -1.
         -1    1    3    3    0  502 -0.41379500859E+02 -0.12482576657E+03 -0.47605881326E+01  0.13159178656E+03  0.00000000000E+00 0.  1.
         13    1    5    5    0    0 -0.36584392738E+02  0.52802385474E+03  0.32393913614E+03  0.62055150704E+03  0.00000000000E+00 0.  1.
        -13    1    5    5    0    0 -0.75856259353E+01  0.74180632397E+02  0.97464076142E+01  0.75201731397E+02  0.00000000000E+00 0. -1.
          3    1    6    6  503    0  0.23748141548E+03  0.10277962177E+02 -0.75120935786E+02  0.24929142424E+03  0.00000000000E+00 0. -1.
         -3    1    6    6    0  503  0.20526482853E+03  0.74184442802E+02 -0.12599999882E+03  0.25201781899E+03  0.00000000000E+00 0.  1.
<mgrwt>
<rscale>  0 0.20012174E+04</rscale>
<asrwt>0</asrwt>
<pdfrwt beam="1">  1        2 0.15158712E+00 0.20012174E+04</pdfrwt>
<pdfrwt beam="2">  1       -1 0.15632899E+00 0.20012174E+04</pdfrwt>
<totfact> 0.85042310E+00</totfact>
</mgrwt>
</event>
<event>
12    7  0.1707730E-007  0.9797854E+03  0.7818608E-02  0.9330998E-01
         -1   -1    0    0    0  501 -0.00000000000E+00  0.00000000000E+00  0.14137421234E+03  0.14137421234E+03  0.00000000000E+00 0.  1.
          2   -1    0    0  501    0  0.00000000000E+00 -0.00000000000E+00 -0.16975858040E+04  0.16975858040E+04  0.00000000000E+00 0. -1.
         24    2    1    2    0    0  0.19209862460E+02 -0.48086432170E+02 -0.33060811110E+03  0.34424428081E+03  0.80753191714E+02 0.  0.
        254    2    1    2    0    0 -0.19209862460E+02  0.48086432170E+02 -0.12256034806E+04  0.14947157356E+04  0.85404327449E+03 0.  0.
         23    2    4    4    0    0  0.21907925958E+03 -0.36695374912E+02  0.10845316348E+00  0.23985373540E+03  0.90484971708E+02 0.  0.
         23    2    4    4    0    0 -0.23828912204E+03  0.84781807081E+02 -0.12257119338E+04  0.12548620002E+04  0.91319408580E+02 0.  0.
          4    1    3    3  502    0  0.72675411782E+00 -0.80357561035E+01 -0.26537478089E+03  0.26549741219E+03  0.00000000000E+00 0. -1.
         -3    1    3    3    0  502  0.18483108343E+02 -0.40050676066E+02 -0.65233330212E+02  0.78746868623E+02  0.00000000000E+00 0.  1.
         13    1    5    5    0    0  0.50196914985E+01 -0.10962935168E+02  0.19983062890E+02  0.23338938551E+02  0.00000000000E+00 0. -1.
        -13    1    5    5    0    0  0.21405956808E+03 -0.25732439744E+02 -0.19874609727E+02  0.21651479685E+03  0.00000000000E+00 0.  1.
          2    1    6    6  503    0 -0.23385255331E+03  0.86767833310E+02 -0.12247698511E+04  0.12499107415E+04  0.00000000000E+00 0.  1.
         -2    1    6    6    0  503 -0.44365687261E+01 -0.19860262285E+01 -0.94208263749E+00  0.49512586215E+01  0.00000000000E+00 0. -1.
<mgrwt>
<rscale>  0 0.97978540E+03</rscale>
<asrwt>0</asrwt>
<pdfrwt beam="1">  1        2 0.26116705E+00 0.97978540E+03</pdfrwt>
<pdfrwt beam="2">  1       -1 0.21749878E-01 0.97978540E+03</pdfrwt>
<totfact> 0.19905168E+02</totfact>
</mgrwt>
</event>
<event>
12    7  0.1780892E-007  0.3108198E+04  0.7818608E-02  0.8213492E-01
          2   -1    0    0  501    0  0.00000000000E+00  0.00000000000E+00  0.12892769272E+04  0.12892769272E+04  0.00000000000E+00 0. -1.
         -1   -1    0    0    0  501 -0.00000000000E+00 -0.00000000000E+00 -0.18733164125E+04  0.18733164125E+04  0.00000000000E+00 0.  1.
         24    2    1    2    0    0 -0.11452691699E+04  0.49464523132E+03 -0.84522884240E+03  0.15090290548E+04  0.80259054630E+02 0.  0.
        254    2    1    2    0    0  0.11452691699E+04 -0.49464523132E+03  0.26118935709E+03  0.16535642849E+04  0.10534417817E+04 0.  0.
         23    2    4    4    0    0  0.96081868475E+03 -0.29291677480E+03 -0.27306417490E+03  0.10450003278E+04  0.92135007439E+02 0.  0.
         23    2    4    4    0    0  0.18445048514E+03 -0.20172845653E+03  0.53425353199E+03  0.60856395704E+03  0.10102921223E+03 0.  0.
          2    1    3    3  502    0 -0.87039328939E+03  0.35142894160E+03 -0.66676604978E+03  0.11513747193E+04  0.00000000000E+00 0. -1.
         -1    1    3    3    0  502 -0.27487588050E+03  0.14321628973E+03 -0.17846279261E+03  0.35765433546E+03  0.00000000000E+00 0.  1.
         13    1    5    5    0    0  0.56380242656E+02 -0.36124685678E+01  0.15172244191E+01  0.56516224760E+02  0.00000000000E+00 0. -1.
        -13    1    5    5    0    0  0.90443844210E+03 -0.28930430623E+03 -0.27458139932E+03  0.98848410306E+03  0.00000000000E+00 0.  1.
          1    1    6    6  503    0 -0.65553931088E+01  0.59191504598E+01  0.22837588224E+02  0.24486015536E+02  0.00000000000E+00 0. -1.
         -1    1    6    6    0  503  0.19100587825E+03 -0.20764760699E+03  0.51141594377E+03  0.58407794151E+03  0.00000000000E+00 0.  1.
<mgrwt>
<rscale>  0 0.31081980E+04</rscale>
<asrwt>0</asrwt>
<pdfrwt beam="1">  1        2 0.19835030E+00 0.31081980E+04</pdfrwt>
<pdfrwt beam="2">  1       -1 0.28820252E+00 0.31081980E+04</pdfrwt>
<totfact> 0.63826031E-01</totfact>
</mgrwt>
</event>
<event>
12    7  0.1707730E-007  0.1287556E+04  0.7818608E-02  0.9039492E-01
         -1   -1    0    0    0  501 -0.00000000000E+00  0.00000000000E+00  0.56765827513E+03  0.56765827513E+03  0.00000000000E+00 0.  1.
          2   -1    0    0  501    0  0.00000000000E+00 -0.00000000000E+00 -0.73010467183E+03  0.73010467183E+03  0.00000000000E+00 0. -1.
         24    2    1    2    0    0  0.10166930264E+03 -0.29865653399E+03 -0.11931479088E+03  0.34679739070E+03  0.80622816129E+02 0.  0.
        254    2    1    2    0    0 -0.10166930264E+03  0.29865653399E+03 -0.43131605822E+02  0.95096555626E+03  0.89607074574E+03 0.  0.
         23    2    4    4    0    0 -0.10889456170E+03 -0.10042484100E+03  0.34530731985E+03  0.38702436244E+03  0.92776816705E+02 0.  0.
         23    2    4    4    0    0  0.72252590621E+01  0.39908137499E+03 -0.38843892568E+03  0.56394119382E+03  0.88468767749E+02 0.  0.
          2    1    3    3  502    0  0.38969857871E+02 -0.76606630900E+02  0.22934267008E+01  0.85979564586E+02  0.00000000000E+00 0. -1.
         -1    1    3    3    0  502  0.62699444769E+02 -0.22204990309E+03 -0.12160821758E+03  0.26081782611E+03  0.00000000000E+00 0.  1.
         13    1    5    5    0    0 -0.11497789813E+03 -0.60374707515E+02  0.22155546721E+03  0.25681091764E+03  0.00000000000E+00 0.  1.
        -13    1    5    5    0    0  0.60833364317E+01 -0.40050133489E+02  0.12375185264E+03  0.13021344480E+03  0.00000000000E+00 0. -1.
          1    1    6    6  503    0 -0.29541514109E+02  0.23079233235E+03 -0.26107350170E+03  0.34971012999E+03  0.00000000000E+00 0. -1.
         -1    1    6    6    0  503  0.36766773171E+02  0.16828904265E+03 -0.12736542397E+03  0.21423106383E+03  0.00000000000E+00 0.  1.
<mgrwt>
<rscale>  0 0.12875558E+04</rscale>
<asrwt>0</asrwt>
<pdfrwt beam="1">  1        2 0.11232379E+00 0.12875558E+04</pdfrwt>
<pdfrwt beam="2">  1       -1 0.87332043E-01 0.12875558E+04</pdfrwt>
<totfact> 0.56169475E+01</totfact>
</mgrwt>
</event>
<event>
12    7  0.1707730E-007  0.1660990E+04  0.7818608E-02  0.8783931E-01
          2   -1    0    0  501    0  0.00000000000E+00  0.00000000000E+00  0.29212901117E+04  0.29212901117E+04  0.00000000000E+00 0. -1.
         -1   -1    0    0    0  501 -0.00000000000E+00 -0.00000000000E+00 -0.23610196834E+03  0.23610196834E+03  0.00000000000E+00 0.  1.
         24    2    1    2    0    0 -0.31165526652E+03 -0.54386983494E+03  0.10779265844E+04  0.12496698915E+04  0.82617879333E+02 0.  0.
        254    2    1    2    0    0  0.31165526652E+03  0.54386983494E+03  0.16072615589E+04  0.19077221885E+04  0.81436529091E+03 0.  0.
         23    2    4    4    0    0  0.40842874356E+03  0.35697642221E+03  0.40169089450E+03  0.68117822824E+03  0.91662420473E+02 0.  0.
         23    2    4    4    0    0 -0.96773477033E+02  0.18689341273E+03  0.12055706644E+04  0.12265439602E+04  0.81946359579E+02 0.  0.
          2    1    3    3  502    0 -0.19310773293E+03 -0.34439004745E+03  0.75511103500E+03  0.85210784322E+03  0.00000000000E+00 0. -1.
         -1    1    3    3    0  502 -0.11854753359E+03 -0.19947978748E+03  0.32281554938E+03  0.39756204831E+03  0.00000000000E+00 0.  1.
         13    1    5    5    0    0  0.44020205568E+02  0.75610381815E+02  0.87896454939E+02  0.12401812419E+03  0.00000000000E+00 0.  1.
        -13    1    5    5    0    0  0.36440853799E+03  0.28136604039E+03  0.31379443956E+03  0.55716010405E+03  0.00000000000E+00 0. -1.
          1    1    6    6  503    0 -0.94096786384E+02  0.16218198607E+03  0.86606677673E+03  0.88613140311E+03  0.00000000000E+00 0. -1.
         -1    1    6    6    0  503 -0.26766906489E+01  0.24711426657E+02  0.33950388770E+03  0.34041255712E+03  0.00000000000E+00 0.  1.
<mgrwt>
<rscale>  0 0.16609905E+04</rscale>
<asrwt>0</asrwt>
<pdfrwt beam="1">  1        2 0.44942922E+00 0.16609905E+04</pdfrwt>
<pdfrwt beam="2">  1       -1 0.36323382E-01 0.16609905E+04</pdfrwt>
<totfact> 0.15446348E+01</totfact>
</mgrwt>
</event>
<event>
12    7  0.1707730E-007  0.1957782E+04  0.7818608E-02  0.8626617E-01
          2   -1    0    0  501    0  0.00000000000E+00  0.00000000000E+00  0.12330000650E+04  0.12330000650E+04  0.00000000000E+00 0. -1.
         -1   -1    0    0    0  501 -0.00000000000E+00 -0.00000000000E+00 -0.77715117371E+03  0.77715117371E+03  0.00000000000E+00 0.  1.
         24    2    1    2    0    0  0.76089304708E+03  0.32505514743E+02  0.65061014342E+02  0.76850989054E+03  0.79747593653E+02 0.  0.
        254    2    1    2    0    0 -0.76089304708E+03 -0.32505514743E+02  0.39078787696E+03  0.12416413482E+04  0.89941271681E+03 0.  0.
         23    2    4    4    0    0 -0.74599033042E+03  0.25024234700E+03  0.48563154586E+03  0.92915076216E+03  0.91434868435E+02 0.  0.
         23    2    4    4    0    0 -0.14902716657E+02 -0.28274786175E+03 -0.94843668897E+02  0.31249058603E+03  0.92122747153E+02 0.  0.
          2    1    3    3  502    0  0.67543577787E+03  0.16228977259E+02  0.79621945751E+02  0.68030619869E+03  0.00000000000E+00 0. -1.
         -1    1    3    3    0  502  0.85457269205E+02  0.16276537483E+02 -0.14560931410E+02  0.88203691849E+02  0.00000000000E+00 0.  1.
         13    1    5    5    0    0 -0.67362463098E+03  0.24886180923E+03  0.45762957341E+03  0.85154399182E+03  0.00000000000E+00 0.  1.
        -13    1    5    5    0    0 -0.72365699445E+02  0.13805377782E+01  0.28001972453E+02  0.77606770336E+02  0.00000000000E+00 0. -1.
          3    1    6    6  503    0  0.39128443399E+02 -0.11922459423E+03 -0.37145891627E+02  0.13086388431E+03  0.00000000000E+00 0. -1.
         -3    1    6    6    0  503 -0.54031160057E+02 -0.16352326752E+03 -0.57697777270E+02  0.18162670173E+03  0.00000000000E+00 0.  1.
<mgrwt>
<rscale>  0 0.19577819E+04</rscale>
<asrwt>0</asrwt>
<pdfrwt beam="1">  1        2 0.18969232E+00 0.19577819E+04</pdfrwt>
<pdfrwt beam="2">  1       -1 0.11956172E+00 0.19577819E+04</pdfrwt>
<totfact> 0.12019397E+01</totfact>
</mgrwt>
</event>
<event>
12    7  0.1707730E-007  0.1072764E+04  0.7818608E-02  0.9232152E-01
          2   -1    0    0  501    0  0.00000000000E+00  0.00000000000E+00  0.38081847624E+04  0.38081847624E+04  0.00000000000E+00 0. -1.
         -1   -1    0    0    0  501 -0.00000000000E+00 -0.00000000000E+00 -0.75549266563E+02  0.75549266563E+02  0.00000000000E+00 0.  1.
         24    2    1    2    0    0 -0.67996612320E+01  0.28220351718E+02  0.66249127441E+02  0.10713613641E+03  0.79035316126E+02 0.  0.
        254    2    1    2    0    0  0.67996612320E+01 -0.28220351718E+02  0.36663863684E+04  0.37765978926E+04  0.90524030843E+03 0.  0.
         23    2    4    4    0    0  0.14405991408E+03 -0.41860718388E+03  0.14051715139E+04  0.14761536995E+04  0.92398744387E+02 0.  0.
         23    2    4    4    0    0 -0.13726025285E+03  0.39038683216E+03  0.22612148545E+04  0.23004441930E+04  0.87798696945E+02 0.  0.
          2    1    3    3  502    0 -0.33624630476E+02 -0.12810701210E+01  0.57019984038E+02  0.66208273614E+02  0.00000000000E+00 0. -1.
         -1    1    3    3    0  502  0.26824969244E+02  0.29501421839E+02  0.92291434032E+01  0.40927862800E+02  0.00000000000E+00 0.  1.
         13    1    5    5    0    0  0.56895711152E+02 -0.29153902530E+03  0.97320203184E+03  0.10175236213E+04  0.00000000000E+00 0. -1.
        -13    1    5    5    0    0  0.87164202932E+02 -0.12706815858E+03  0.43196948204E+03  0.45863007819E+03  0.00000000000E+00 0.  1.
          3    1    6    6  503    0 -0.56609772555E+02  0.19584213957E+03  0.88268130820E+03  0.90591671903E+03  0.00000000000E+00 0. -1.
         -3    1    6    6    0  503 -0.80650480297E+02  0.19454469260E+03  0.13785335463E+04  0.13945274740E+04  0.00000000000E+00 0.  1.
<mgrwt>
<rscale>  0 0.10727638E+04</rscale>
<asrwt>0</asrwt>
<pdfrwt beam="1">  1        2 0.58587443E+00 0.10727638E+04</pdfrwt>
<pdfrwt beam="2">  1       -1 0.11622967E-01 0.10727638E+04</pdfrwt>
<totfact> 0.28443853E+01</totfact>
</mgrwt>
</event>
<event>
12    7  0.1707730E-007  0.1517457E+04  0.7818608E-02  0.8872927E-01
          2   -1    0    0  501    0  0.00000000000E+00  0.00000000000E+00  0.36897543655E+03  0.36897543655E+03  0.00000000000E+00 0. -1.
         -1   -1    0    0    0  501 -0.00000000000E+00 -0.00000000000E+00 -0.15601812490E+04  0.15601812490E+04  0.00000000000E+00 0.  1.
         24    2    1    2    0    0  0.11093003183E+03 -0.25730546079E+03 -0.89922242420E+03  0.94528142970E+03  0.80277275954E+02 0.  0.
        254    2    1    2    0    0 -0.11093003183E+03  0.25730546079E+03 -0.29198338823E+03  0.98387525584E+03  0.89679688221E+03 0.  0.
         23    2    4    4    0    0  0.97932423982E+02  0.46563125251E+03  0.88732376478E+02  0.49263074634E+03  0.91697298868E+02 0.  0.
         23    2    4    4    0    0 -0.20886245581E+03 -0.20832579173E+03 -0.38071576471E+03  0.49124450950E+03  0.96713565083E+02 0.  0.
          2    1    3    3  502    0  0.46631924249E+02 -0.48201938979E+02 -0.14113025162E+03  0.15625527576E+03  0.00000000000E+00 0. -1.
         -1    1    3    3    0  502  0.64298107580E+02 -0.20910352181E+03 -0.75809217258E+03  0.78902615394E+03  0.00000000000E+00 0.  1.
         13    1    5    5    0    0  0.84885142247E+02  0.37416077205E+03  0.33839193644E+02  0.38515822949E+03  0.00000000000E+00 0. -1.
        -13    1    5    5    0    0  0.13047281735E+02  0.91470480461E+02  0.54893182834E+02  0.10747251685E+03  0.00000000000E+00 0.  1.
          4    1    6    6  503    0 -0.60679286956E+02 -0.27867624741E+02 -0.14407287717E+03  0.15879412556E+03  0.00000000000E+00 0.  1.
         -4    1    6    6    0  503 -0.14818316885E+03 -0.18045816699E+03 -0.23664288754E+03  0.33245038394E+03  0.00000000000E+00 0. -1.
<mgrwt>
<rscale>  0 0.15174565E+04</rscale>
<asrwt>0</asrwt>
<pdfrwt beam="1">  1        2 0.56765452E-01 0.15174565E+04</pdfrwt>
<pdfrwt beam="2">  1       -1 0.24002788E+00 0.15174565E+04</pdfrwt>
<totfact> 0.77955855E+00</totfact>
</mgrwt>
</event>
<event>
12    7  0.1707730E-007  0.2613401E+04  0.7818608E-02  0.8363663E-01
         -1   -1    0    0    0  501 -0.00000000000E+00  0.00000000000E+00  0.14096933403E+04  0.14096933403E+04  0.00000000000E+00 0.  1.
          2   -1    0    0  501    0  0.00000000000E+00 -0.00000000000E+00 -0.12112325175E+04  0.12112325175E+04  0.00000000000E+00 0. -1.
         24    2    1    2    0    0  0.43383330785E+02  0.10830677055E+04  0.47882737041E+03  0.11876636482E+04  0.79696439408E+02 0.  0.
        254    2    1    2    0    0 -0.43383330785E+02 -0.10830677055E+04 -0.28036654765E+03  0.14332622096E+04  0.89482813556E+03 0.  0.
         23    2    4    4    0    0 -0.29029700047E+02 -0.71242044725E+03 -0.59890044206E+03  0.93589481881E+03  0.93977418687E+02 0.  0.
         23    2    4    4    0    0 -0.14353630738E+02 -0.37064725828E+03  0.31853389440E+03  0.49736739077E+03  0.91241781718E+02 0.  0.
          2    1    3    3  502    0  0.13783314217E+02  0.62623124904E+03  0.23524960841E+03  0.66910233544E+03  0.00000000000E+00 0. -1.
         -1    1    3    3    0  502  0.29600016568E+02  0.45683645649E+03  0.24357776200E+03  0.51856131277E+03  0.00000000000E+00 0.  1.
         13    1    5    5    0    0  0.78142644065E+01 -0.43001359143E+01 -0.22743184662E+01  0.92046956268E+01  0.00000000000E+00 0.  1.
        -13    1    5    5    0    0 -0.36843964454E+02 -0.70812031134E+03 -0.59662612359E+03  0.92669012318E+03  0.00000000000E+00 0. -1.
          2    1    6    6  503    0 -0.15703280781E+02 -0.23006057875E+03  0.25277899344E+03  0.34215739426E+03  0.00000000000E+00 0. -1.
         -2    1    6    6    0  503  0.13496500423E+01 -0.14058667953E+03  0.65754900968E+02  0.15520999651E+03  0.00000000000E+00 0.  1.
<mgrwt>
<rscale>  0 0.26134012E+04</rscale>
<asrwt>0</asrwt>
<pdfrwt beam="1">  1        2 0.18634346E+00 0.26134012E+04</pdfrwt>
<pdfrwt beam="2">  1       -1 0.21687590E+00 0.26134012E+04</pdfrwt>
<totfact> 0.21689434E+00</totfact>
</mgrwt>
</event>
<event>
12    7  0.1707730E-007  0.2968663E+04  0.7818608E-02  0.8252736E-01
         -1   -1    0    0    0  501 -0.00000000000E+00  0.00000000000E+00  0.12711163625E+04  0.12711163625E+04  0.00000000000E+00 0.  1.
          2   -1    0    0  501    0  0.00000000000E+00 -0.00000000000E+00 -0.17333112738E+04  0.17333112738E+04  0.00000000000E+00 0. -1.
         24    2    1    2    0    0  0.30527349462E+03  0.91239196388E+03 -0.11639154762E+04  0.15120662721E+04  0.77422046459E+02 0.  0.
        254    2    1    2    0    0 -0.30527349462E+03 -0.91239196388E+03  0.70172056491E+03  0.14923613641E+04  0.89948857004E+03 0.  0.
         23    2    4    4    0    0  0.13707600255E+03 -0.22747277858E+03  0.60535584439E+03  0.66718993421E+03  0.90294044631E+02 0.  0.
         23    2    4    4    0    0 -0.44234949717E+03 -0.68491918530E+03  0.96364720514E+02  0.82517142991E+03  0.82670196237E+02 0.  0.
          2    1    3    3  502    0  0.13117008163E+03  0.40282695994E+03 -0.57291021602E+03  0.71253158918E+03  0.00000000000E+00 0. -1.
         -1    1    3    3    0  502  0.17410341300E+03  0.50956500395E+03 -0.59100526022E+03  0.79953468297E+03  0.00000000000E+00 0.  1.
         13    1    5    5    0    0  0.96371871502E+02 -0.20422774289E+03  0.55060170138E+03  0.59511237774E+03  0.00000000000E+00 0.  1.
        -13    1    5    5    0    0  0.40704131044E+02 -0.23245035692E+02  0.54754143014E+02  0.72077556462E+02  0.00000000000E+00 0. -1.
          1    1    6    6  503    0 -0.17203468635E+03 -0.19563335249E+03  0.28020172065E+02  0.26201807563E+03  0.00000000000E+00 0. -1.
         -1    1    6    6    0  503 -0.27031481082E+03 -0.48928583281E+03  0.68344548450E+02  0.56315335428E+03  0.00000000000E+00 0.  1.
<mgrwt>
<rscale>  0 0.29686632E+04</rscale>
<asrwt>0</asrwt>
<pdfrwt beam="1">  1        2 0.26666327E+00 0.29686632E+04</pdfrwt>
<pdfrwt beam="2">  1       -1 0.19555636E+00 0.29686632E+04</pdfrwt>
<totfact> 0.14831025E+00</totfact>
</mgrwt>
</event>
<event>
12    7  0.1707730E-007  0.1273866E+04  0.7818608E-02  0.9050550E-01
          2   -1    0    0  501    0  0.00000000000E+00  0.00000000000E+00  0.10887580533E+04  0.10887580533E+04  0.00000000000E+00 0. -1.
         -1   -1    0    0    0  501 -0.00000000000E+00 -0.00000000000E+00 -0.37261148845E+03  0.37261148845E+03  0.00000000000E+00 0.  1.
         24    2    1    2    0    0  0.28549560127E+03 -0.12112731166E+02  0.30434098564E+03  0.42534925351E+03  0.81511320184E+02 0.  0.
        254    2    1    2    0    0 -0.28549560127E+03  0.12112731166E+02  0.41180557920E+03  0.10360202882E+04  0.90669716332E+03 0.  0.
         23    2    4    4    0    0  0.30369643713E+03 -0.11364723442E+03  0.98528428292E+02  0.35102340251E+03  0.91445929976E+02 0.  0.
         23    2    4    4    0    0 -0.58919203841E+03  0.12575996559E+03  0.31327715091E+03  0.68499688573E+03  0.90085143642E+02 0.  0.
          2    1    3    3  502    0  0.24481092878E+03  0.17195966884E+02  0.26821640628E+03  0.36354935390E+03  0.00000000000E+00 0. -1.
         -1    1    3    3    0  502  0.40684672499E+02 -0.29308698050E+02  0.36124579365E+02  0.61799899612E+02  0.00000000000E+00 0.  1.
         13    1    5    5    0    0  0.33301927369E+02  0.15912047223E+02  0.14348832398E+02  0.39599250050E+02  0.00000000000E+00 0. -1.
        -13    1    5    5    0    0  0.27039450976E+03 -0.12955928164E+03  0.84179595894E+02  0.31142415246E+03  0.00000000000E+00 0.  1.
          2    1    6    6  503    0 -0.23732420895E+03  0.19596987074E+02  0.87752956673E+02  0.25378613725E+03  0.00000000000E+00 0. -1.
         -2    1    6    6    0  503 -0.35186782946E+03  0.10616297851E+03  0.22552419424E+03  0.43121074847E+03  0.00000000000E+00 0.  1.
<mgrwt>
<rscale>  0 0.12738662E+04</rscale>
<asrwt>0</asrwt>
<pdfrwt beam="1">  1        2 0.16750124E+00 0.12738662E+04</pdfrwt>
<pdfrwt beam="2">  1       -1 0.57324845E-01 0.12738662E+04</pdfrwt>
<totfact> 0.76392521E+01</totfact>
</mgrwt>
</event>
<event>
12    7  0.1707730E-007  0.1407697E+04  0.7818608E-02  0.8948266E-01
         -1   -1    0    0    0  501 -0.00000000000E+00  0.00000000000E+00  0.11710258889E+04  0.11710258889E+04  0.00000000000E+00 0.  1.
          2   -1    0    0  501    0  0.00000000000E+00 -0.00000000000E+00 -0.42305041941E+03  0.42305041941E+03  0.00000000000E+00 0. -1.
         24    2    1    2    0    0  0.99796414785E+02  0.30092847159E+03  0.44704555135E+03  0.55373586611E+03  0.79097503226E+02 0.  0.
        254    2    1    2    0    0 -0.99796414785E+02 -0.30092847159E+03  0.30092991817E+03  0.10403404422E+04  0.94405092588E+03 0.  0.
         23    2    4    4    0    0 -0.48257251555E+02 -0.46504607124E+03  0.54772814831E+03  0.72581385883E+03  0.90570538911E+02 0.  0.
         23    2    4    4    0    0 -0.51539163230E+02  0.16411759965E+03 -0.24679823015E+03  0.31452658339E+03  0.91797240666E+02 0.  0.
          2    1    3    3  502    0  0.35084945057E+02  0.60609229524E+02  0.53631318913E+02  0.88208562177E+02  0.00000000000E+00 0. -1.
         -3    1    3    3    0  502  0.64711469728E+02  0.24031924207E+03  0.39341423244E+03  0.46552730393E+03  0.00000000000E+00 0.  1.
         13    1    5    5    0    0 -0.27981137939E+02 -0.44497635975E+03  0.52831679204E+03  0.69130712247E+03  0.00000000000E+00 0.  1.
        -13    1    5    5    0    0 -0.20276113615E+02 -0.20069711484E+02  0.19411356273E+02  0.34506736368E+02  0.00000000000E+00 0. -1.
          4    1    6    6  503    0  0.40345227226E+00  0.21317631392E+02  0.36054028642E+01  0.21624132624E+02  0.00000000000E+00 0. -1.
         -4    1    6    6    0  503 -0.51942615503E+02  0.14279996825E+03 -0.25040363301E+03  0.29290245076E+03  0.00000000000E+00 0.  1.
<mgrwt>
<rscale>  0 0.14076974E+04</rscale>
<asrwt>0</asrwt>
<pdfrwt beam="1">  1        2 0.65084680E-01 0.14076974E+04</pdfrwt>
<pdfrwt beam="2">  1       -1 0.18015783E+00 0.14076974E+04</pdfrwt>
<totfact> 0.17236305E+01</totfact>
</mgrwt>
</event>
<event>
12    7  0.1707730E-007  0.1397700E+04  0.7818608E-02  0.8955485E-01
          2   -1    0    0  501    0  0.00000000000E+00  0.00000000000E+00  0.12262277322E+04  0.12262277322E+04  0.00000000000E+00 0. -1.
         -1   -1    0    0    0  501 -0.00000000000E+00 -0.00000000000E+00 -0.39828779478E+03  0.39828779478E+03  0.00000000000E+00 0.  1.
         24    2    1    2    0    0  0.21215529955E+03 -0.90541421908E+02 -0.14086846734E+03  0.28205675742E+03  0.80650288933E+02 0.  0.
        254    2    1    2    0    0 -0.21215529955E+03  0.90541421908E+02  0.96880840479E+03  0.13424587696E+04  0.90022119652E+03 0.  0.
         23    2    4    4    0    0  0.12176230718E+03  0.40395638279E+03  0.29685209846E+03  0.52378806122E+03  0.90697001391E+02 0.  0.
         23    2    4    4    0    0 -0.33391760673E+03 -0.31341496088E+03  0.67195630633E+03  0.81867070838E+03  0.94691844189E+02 0.  0.
          4    1    3    3  502    0  0.38471554008E+02  0.14719851954E+02 -0.21113322621E+02  0.46287221795E+02  0.00000000000E+00 0. -1.
         -3    1    3    3    0  502  0.17368374554E+03 -0.10526127386E+03 -0.11975514472E+03  0.23576953562E+03  0.00000000000E+00 0.  1.
         13    1    5    5    0    0  0.75437013647E+02  0.28569638646E+03  0.25427469534E+03  0.38983174442E+03  0.00000000000E+00 0. -1.
        -13    1    5    5    0    0  0.46325293532E+02  0.11825999633E+03  0.42577403119E+02  0.13395631679E+03  0.00000000000E+00 0.  1.
          4    1    6    6  503    0 -0.31715771027E+03 -0.28369824740E+03  0.57109908742E+03  0.71219932351E+03  0.00000000000E+00 0. -1.
         -4    1    6    6    0  503 -0.16759896461E+02 -0.29716713480E+02  0.10085721891E+03  0.10647138486E+03  0.00000000000E+00 0.  1.
<mgrwt>
<rscale>  0 0.13977003E+04</rscale>
<asrwt>0</asrwt>
<pdfrwt beam="1">  1        2 0.18865042E+00 0.13977003E+04</pdfrwt>
<pdfrwt beam="2">  1       -1 0.61275046E-01 0.13977003E+04</pdfrwt>
<totfact> 0.54775830E+01</totfact>
</mgrwt>
</event>
<event>
12    7  0.1707730E-007  0.1232235E+04  0.7818608E-02  0.9085100E-01
          4   -1    0    0  501    0  0.00000000000E+00  0.00000000000E+00  0.21932868459E+04  0.21932868459E+04  0.00000000000E+00 0. -1.
         -3   -1    0    0    0  501 -0.00000000000E+00 -0.00000000000E+00 -0.17307383339E+03  0.17307383339E+03  0.00000000000E+00 0.  1.
         24    2    1    2    0    0 -0.27032195270E+03  0.54582131876E+02  0.48114113448E+03  0.56009951883E+03  0.78495302249E+02 0.  0.
        254    2    1    2    0    0  0.27032195270E+03 -0.54582131876E+02  0.15390718780E+04  0.18062611604E+04  0.90431408637E+03 0.  0.
         23    2    4    4    0    0  0.53887086074E+03 -0.24075195851E+03  0.10945981978E+04  0.12470045240E+04  0.92367516059E+02 0.  0.
         23    2    4    4    0    0 -0.26854890805E+03  0.18616982663E+03  0.44447368017E+03  0.55925663646E+03  0.91833614216E+02 0.  0.
          4    1    3    3  502    0 -0.62814992198E+02  0.73757020406E+01  0.18434928418E+03  0.19489685170E+03  0.00000000000E+00 0. -1.
         -3    1    3    3    0  502 -0.20750696050E+03  0.47206429835E+02  0.29679185030E+03  0.36520266712E+03  0.00000000000E+00 0.  1.
         13    1    5    5    0    0  0.16791549670E+03 -0.73939770377E+02  0.25582058188E+03  0.31481244224E+03  0.00000000000E+00 0. -1.
        -13    1    5    5    0    0  0.37095536405E+03 -0.16681218813E+03  0.83877761596E+03  0.93219208174E+03  0.00000000000E+00 0.  1.
          3    1    6    6  503    0 -0.18084915277E+03  0.11139838323E+03  0.21368543511E+03  0.30129301523E+03  0.00000000000E+00 0. -1.
         -3    1    6    6    0  503 -0.87699755275E+02  0.74771443401E+02  0.23078824506E+03  0.25796362123E+03  0.00000000000E+00 0.  1.
<mgrwt>
<rscale>  0 0.12322347E+04</rscale>
<asrwt>0</asrwt>
<pdfrwt beam="1">  1        4 0.33742873E+00 0.12322347E+04</pdfrwt>
<pdfrwt beam="2">  1       -3 0.26626745E-01 0.12322347E+04</pdfrwt>
<totfact> 0.55590994E-01</totfact>
</mgrwt>
</event>
<event>
12    7  0.1707730E-007  0.1789351E+04  0.7818608E-02  0.8711983E-01
         -1   -1    0    0    0  501 -0.00000000000E+00  0.00000000000E+00  0.95645970413E+03  0.95645970413E+03  0.00000000000E+00 0.  1.
          2   -1    0    0  501    0  0.00000000000E+00 -0.00000000000E+00 -0.83688202315E+03  0.83688202315E+03  0.00000000000E+00 0. -1.
         24    2    1    2    0    0  0.17869961606E+03 -0.56956684884E+03  0.33349027975E+03  0.69052898033E+03  0.96304506201E+02 0.  0.
        254    2    1    2    0    0 -0.17869961606E+03  0.56956684884E+03 -0.21391259877E+03  0.11028127469E+04  0.90227346566E+03 0.  0.
         23    2    4    4    0    0 -0.51539878938E+03  0.17244352527E+03 -0.81864574986E+02  0.55715832127E+03  0.91383285245E+02 0.  0.
         23    2    4    4    0    0  0.33669917332E+03  0.39712332357E+03 -0.13204802378E+03  0.54565442567E+03  0.96066665562E+02 0.  0.
          4    1    3    3  502    0  0.24482112554E+02 -0.54761983860E+02  0.39196403011E+01  0.60113328734E+02  0.00000000000E+00 0. -1.
         -3    1    3    3    0  502  0.15421750351E+03 -0.51480486498E+03  0.32957063945E+03  0.63041565160E+03  0.00000000000E+00 0.  1.
         13    1    5    5    0    0 -0.36598159749E+03  0.14828598707E+03 -0.92017088915E+02  0.40546073585E+03  0.00000000000E+00 0. -1.
        -13    1    5    5    0    0 -0.14941719189E+03  0.24157538205E+02  0.10152513929E+02  0.15169758543E+03  0.00000000000E+00 0.  1.
          2    1    6    6  503    0  0.35248474580E+02  0.71845668571E+01 -0.26122402437E+01  0.36067946438E+02  0.00000000000E+00 0. -1.
         -2    1    6    6    0  503  0.30145069874E+03  0.38993875671E+03 -0.12943578354E+03  0.50958647923E+03  0.00000000000E+00 0.  1.
<mgrwt>
<rscale>  0 0.17893506E+04</rscale>
<asrwt>0</asrwt>
<pdfrwt beam="1">  1        2 0.12875108E+00 0.17893506E+04</pdfrwt>
<pdfrwt beam="2">  1       -1 0.14714765E+00 0.17893506E+04</pdfrwt>
<totfact> 0.12845531E+01</totfact>
</mgrwt>
</event>
<event>
12    7  0.1707730E-007  0.1460157E+04  0.7818608E-02  0.8911389E-01
          2   -1    0    0  501    0  0.00000000000E+00  0.00000000000E+00  0.15109211221E+04  0.15109211221E+04  0.00000000000E+00 0. -1.
         -1   -1    0    0    0  501 -0.00000000000E+00 -0.00000000000E+00 -0.35277468856E+03  0.35277468856E+03  0.00000000000E+00 0.  1.
         24    2    1    2    0    0 -0.25873383769E+03  0.36426811347E+02  0.81208122767E+03  0.85660292874E+03  0.77605063245E+02 0.  0.
        254    2    1    2    0    0  0.25873383769E+03 -0.36426811347E+02  0.34606520584E+03  0.10070928819E+04  0.90895810394E+03 0.  0.
         23    2    4    4    0    0  0.13481410806E+03  0.23838499873E+03 -0.21708492208E+03  0.36185628512E+03  0.93871488398E+02 0.  0.
         23    2    4    4    0    0  0.12391972962E+03 -0.27481181008E+03  0.56315012792E+03  0.64523659677E+03  0.91184257953E+02 0.  0.
          2    1    3    3  502    0 -0.17525651249E+03 -0.12576199212E+02  0.53231694550E+03  0.56056608569E+03  0.00000000000E+00 0. -1.
         -1    1    3    3    0  502 -0.83477325200E+02  0.49003010558E+02  0.27976428217E+03  0.29603684305E+03  0.00000000000E+00 0.  1.
         13    1    5    5    0    0  0.57326081583E+02  0.17595763959E+03 -0.17186434281E+03  0.25255637567E+03  0.00000000000E+00 0.  1.
        -13    1    5    5    0    0  0.77488026480E+02  0.62427359143E+02 -0.45220579262E+02  0.10929990945E+03  0.00000000000E+00 0. -1.
          2    1    6    6  503    0  0.10531955689E+03 -0.27640362464E+03  0.53749941229E+03  0.61351185073E+03  0.00000000000E+00 0.  1.
         -2    1    6    6    0  503  0.18600172732E+02  0.15918145651E+01  0.25650715630E+02  0.31724746045E+02  0.00000000000E+00 0. -1.
<mgrwt>
<rscale>  0 0.14601572E+04</rscale>
<asrwt>0</asrwt>
<pdfrwt beam="1">  1        2 0.23244940E+00 0.14601572E+04</pdfrwt>
<pdfrwt beam="2">  1       -1 0.54273030E-01 0.14601572E+04</pdfrwt>
<totfact> 0.47374438E+01</totfact>
</mgrwt>
</event>
<event>
12    7  0.1707730E-007  0.1622531E+04  0.7818608E-02  0.8806824E-01
         -1   -1    0    0    0  501 -0.00000000000E+00  0.00000000000E+00  0.36835245840E+03  0.36835245840E+03  0.00000000000E+00 0.  1.
          2   -1    0    0  501    0  0.00000000000E+00 -0.00000000000E+00 -0.17867453080E+04  0.17867453080E+04  0.00000000000E+00 0. -1.
         24    2    1    2    0    0  0.16232553233E+03  0.18657001854E+03 -0.11722284023E+04  0.12005448395E+04  0.77656513362E+02 0.  0.
        254    2    1    2    0    0 -0.16232553233E+03 -0.18657001854E+03 -0.24616444721E+03  0.95455292689E+03  0.88849108318E+03 0.  0.
         23    2    4    4    0    0  0.24186360119E+03 -0.37945658505E+03 -0.75416573291E+02  0.46622560320E+03  0.95881969303E+02 0.  0.
         23    2    4    4    0    0 -0.40418913352E+03  0.19288656651E+03 -0.17074787392E+03  0.48832732368E+03  0.93459378414E+02 0.  0.
          4    1    3    3  502    0  0.11633504828E+03  0.13037764418E+03 -0.97143879463E+03  0.98702862434E+03  0.00000000000E+00 0. -1.
         -3    1    3    3    0  502  0.45990484044E+02  0.56192374358E+02 -0.20078960772E+03  0.21351621513E+03  0.00000000000E+00 0.  1.
         13    1    5    5    0    0  0.22625653553E+03 -0.29111765637E+03 -0.44683905963E+02  0.37140027083E+03  0.00000000000E+00 0.  1.
        -13    1    5    5    0    0  0.15607065662E+02 -0.88338928681E+02 -0.30732667328E+02  0.94825332376E+02  0.00000000000E+00 0. -1.
          3    1    6    6  503    0 -0.44212195270E+02  0.54099870738E+02 -0.10872469647E+02  0.70708732280E+02  0.00000000000E+00 0. -1.
         -3    1    6    6    0  503 -0.35997693825E+03  0.13878669577E+03 -0.15987540427E+03  0.41761859140E+03  0.00000000000E+00 0.  1.
<mgrwt>
<rscale>  0 0.16225314E+04</rscale>
<asrwt>0</asrwt>
<pdfrwt beam="1">  1        2 0.27488389E+00 0.16225314E+04</pdfrwt>
<pdfrwt beam="2">  1       -1 0.56669609E-01 0.16225314E+04</pdfrwt>
<totfact> 0.30163484E+01</totfact>
</mgrwt>
</event>
<event>
12    7  0.1707730E-007  0.1351063E+04  0.7818608E-02  0.8990024E-01
          2   -1    0    0  501    0  0.00000000000E+00  0.00000000000E+00  0.31903312477E+03  0.31903312477E+03  0.00000000000E+00 0. -1.
         -1   -1    0    0    0  501 -0.00000000000E+00 -0.00000000000E+00 -0.14303935023E+04  0.14303935023E+04  0.00000000000E+00 0.  1.
         24    2    1    2    0    0 -0.52017212737E+02  0.24255631406E+03 -0.68833189953E+03  0.73606776554E+03  0.80346721503E+02 0.  0.
        254    2    1    2    0    0  0.52017212737E+02 -0.24255631406E+03 -0.42302847801E+03  0.10133588615E+04  0.88679407595E+03 0.  0.
         23    2    4    4    0    0  0.13344211222E+03 -0.26810574790E+03 -0.66865271670E+03  0.73831239181E+03  0.91220847256E+02 0.  0.
         23    2    4    4    0    0 -0.81424899479E+02  0.25549433843E+02  0.24562423870E+03  0.27504646973E+03  0.89646561852E+02 0.  0.
          2    1    3    3  502    0 -0.48841123255E+02  0.58351992422E+02 -0.18240754191E+03  0.19764342054E+03  0.00000000000E+00 0. -1.
         -1    1    3    3    0  502 -0.31760894824E+01  0.18420432164E+03 -0.50592435762E+03  0.53842434500E+03  0.00000000000E+00 0.  1.
         13    1    5    5    0    0  0.33236468955E+02 -0.14245488362E+03 -0.39146169973E+03  0.41789989123E+03  0.00000000000E+00 0.  1.
        -13    1    5    5    0    0  0.10020564326E+03 -0.12565086428E+03 -0.27719101697E+03  0.32041250058E+03  0.00000000000E+00 0. -1.
          2    1    6    6  503    0 -0.35119006275E+02 -0.32156240047E+02  0.72073279008E+02  0.86382439898E+02  0.00000000000E+00 0. -1.
         -2    1    6    6    0  503 -0.46305893204E+02  0.57705673890E+02  0.17355095969E+03  0.18866402983E+03  0.00000000000E+00 0.  1.
<mgrwt>
<rscale>  0 0.13510631E+04</rscale>
<asrwt>0</asrwt>
<pdfrwt beam="1">  1        2 0.49082019E-01 0.13510631E+04</pdfrwt>
<pdfrwt beam="2">  1       -1 0.22006054E+00 0.13510631E+04</pdfrwt>
<totfact> 0.12609706E+01</totfact>
</mgrwt>
</event>
<event>
12    7  0.1707730E-007  0.1403471E+04  0.7818608E-02  0.8951310E-01
         -1   -1    0    0    0  501 -0.00000000000E+00  0.00000000000E+00  0.54229986447E+03  0.54229986447E+03  0.00000000000E+00 0.  1.
          2   -1    0    0  501    0  0.00000000000E+00 -0.00000000000E+00 -0.90804448590E+03  0.90804448590E+03  0.00000000000E+00 0. -1.
         24    2    1    2    0    0 -0.19409962597E+03  0.34762711432E+02  0.26360408268E+03  0.33841302012E+03  0.78442009582E+02 0.  0.
        254    2    1    2    0    0  0.19409962597E+03 -0.34762711432E+02 -0.62934870410E+03  0.11119313303E+04  0.89522532411E+03 0.  0.
         23    2    4    4    0    0  0.48378478696E+03 -0.13405961718E+03 -0.60560288085E+03  0.79186685976E+03  0.90986665167E+02 0.  0.
         23    2    4    4    0    0 -0.28968516098E+03  0.99296905744E+02 -0.23745823257E+02  0.32006447050E+03  0.90000184265E+02 0.  0.
          4    1    3    3  502    0 -0.16174517156E+02  0.30116272853E+02  0.45125868786E+02  0.56612268365E+02  0.00000000000E+00 0. -1.
         -3    1    3    3    0  502 -0.17792510882E+03  0.46464385792E+01  0.21847821390E+03  0.28180075175E+03  0.00000000000E+00 0.  1.
         13    1    5    5    0    0  0.43745514374E+03 -0.10064512442E+03 -0.50097011135E+03  0.67265704213E+03  0.00000000000E+00 0.  1.
        -13    1    5    5    0    0  0.46329643216E+02 -0.33414492751E+02 -0.10463276949E+03  0.11920981763E+03  0.00000000000E+00 0. -1.
          1    1    6    6  503    0 -0.17875386979E+03  0.84853493801E+02  0.22233031146E+02  0.19911647107E+03  0.00000000000E+00 0. -1.
         -1    1    6    6    0  503 -0.11093129119E+03  0.14443411942E+02 -0.45978854403E+02  0.12094799943E+03  0.00000000000E+00 0.  1.
<mgrwt>
<rscale>  0 0.14034706E+04</rscale>
<asrwt>0</asrwt>
<pdfrwt beam="1">  1        2 0.13969915E+00 0.14034706E+04</pdfrwt>
<pdfrwt beam="2">  1       -1 0.83430748E-01 0.14034706E+04</pdfrwt>
<totfact> 0.45853330E+01</totfact>
</mgrwt>
</event>
<event>
12    7  0.1707730E-007  0.3017327E+04  0.7818608E-02  0.8238800E-01
          2   -1    0    0  501    0  0.00000000000E+00  0.00000000000E+00  0.27925301872E+04  0.27925301872E+04  0.00000000000E+00 0. -1.
         -1   -1    0    0    0  501 -0.00000000000E+00 -0.00000000000E+00 -0.81505491886E+03  0.81505491886E+03  0.00000000000E+00 0.  1.
         24    2    1    2    0    0 -0.86462070246E+03  0.57225405015E+03  0.19782545973E+04  0.22348829220E+04  0.78528761996E+02 0.  0.
        254    2    1    2    0    0  0.86462070246E+03 -0.57225405015E+03 -0.77932888395E+00  0.13727021841E+04  0.89959269774E+03 0.  0.
         23    2    4    4    0    0  0.32144503113E+03 -0.29832643071E+03 -0.43109315373E+03  0.62190490823E+03  0.92729932527E+02 0.  0.
         23    2    4    4    0    0  0.54317567132E+03 -0.27392761944E+03  0.43031382485E+03  0.75079727586E+03  0.91926116925E+02 0.  0.
          2    1    3    3  502    0 -0.85474961590E+03  0.57322895293E+03  0.19662731639E+04  0.22193283879E+04  0.00000000000E+00 0. -1.
         -1    1    3    3    0  502 -0.98710865542E+01 -0.97490278282E+00  0.11981433368E+02  0.15554534090E+02  0.00000000000E+00 0.  1.
         13    1    5    5    0    0  0.30445643330E+03 -0.29760053797E+03 -0.38976146860E+03  0.57721209480E+03  0.00000000000E+00 0. -1.
        -13    1    5    5    0    0  0.16988597834E+02 -0.72589274298E+00 -0.41331685135E+02  0.44692813435E+02  0.00000000000E+00 0.  1.
          2    1    6    6  503    0  0.72924991124E+02 -0.75018144712E+02  0.76181581693E+02  0.12941951072E+03  0.00000000000E+00 0. -1.
         -2    1    6    6    0  503  0.47025068020E+03 -0.19890947473E+03  0.35413224316E+03  0.62137776514E+03  0.00000000000E+00 0.  1.
<mgrwt>
<rscale>  0 0.30173269E+04</rscale>
<asrwt>0</asrwt>
<pdfrwt beam="1">  1        2 0.42962002E+00 0.30173269E+04</pdfrwt>
<pdfrwt beam="2">  1       -1 0.12539307E+00 0.30173269E+04</pdfrwt>
<totfact> 0.12596332E+00</totfact>
</mgrwt>
</event>
<event>
12    7  0.1707730E-007  0.1627246E+04  0.7818608E-02  0.8803983E-01
          2   -1    0    0  501    0  0.00000000000E+00  0.00000000000E+00  0.75740090349E+03  0.75740090349E+03  0.00000000000E+00 0. -1.
         -1   -1    0    0    0  501 -0.00000000000E+00 -0.00000000000E+00 -0.87401810602E+03  0.87401810602E+03  0.00000000000E+00 0.  1.
         24    2    1    2    0    0  0.47617770481E+03  0.29667430066E+03  0.27617538422E+01  0.56657713569E+03  0.79001114991E+02 0.  0.
        254    2    1    2    0    0 -0.47617770481E+03 -0.29667430066E+03 -0.11937895638E+03  0.10648418738E+04  0.89714883591E+03 0.  0.
         23    2    4    4    0    0 -0.46862319046E+03 -0.33077290851E+03  0.28710372032E+03  0.64781591457E+03  0.90655950220E+02 0.  0.
         23    2    4    4    0    0 -0.75545143489E+01  0.34098607843E+02 -0.40648267670E+03  0.41702595925E+03  0.86386911539E+02 0.  0.
          2    1    3    3  502    0  0.17184329336E+03  0.13172409904E+03  0.33317227923E+02  0.21906938038E+03  0.00000000000E+00 0. -1.
         -1    1    3    3    0  502  0.30433441145E+03  0.16495020162E+03 -0.30555474080E+02  0.34750775532E+03  0.00000000000E+00 0.  1.
         13    1    5    5    0    0 -0.18402355857E+02 -0.41673437833E+02  0.26065396829E+02  0.52485493555E+02  0.00000000000E+00 0. -1.
        -13    1    5    5    0    0 -0.45022083461E+03 -0.28909947067E+03  0.26103832349E+03  0.59533042102E+03  0.00000000000E+00 0.  1.
          1    1    6    6  503    0 -0.45730386875E+02  0.15649528222E+02 -0.16848099781E+03  0.17527698834E+03  0.00000000000E+00 0. -1.
         -1    1    6    6    0  503  0.38175872526E+02  0.18449079620E+02 -0.23800167889E+03  0.24174897091E+03  0.00000000000E+00 0.  1.
<mgrwt>
<rscale>  0 0.16272457E+04</rscale>
<asrwt>0</asrwt>
<pdfrwt beam="1">  1        2 0.11652322E+00 0.16272457E+04</pdfrwt>
<pdfrwt beam="2">  1       -1 0.13446432E+00 0.16272457E+04</pdfrwt>
<totfact> 0.18828826E+01</totfact>
</mgrwt>
</event>
<event>
12    7  0.2001697E-007  0.1868131E+04  0.7818608E-02  0.8670884E-01
          2   -1    0    0  501    0  0.00000000000E+00  0.00000000000E+00  0.24100984373E+04  0.24100984373E+04  0.00000000000E+00 0. -1.
         -1   -1    0    0    0  501 -0.00000000000E+00 -0.00000000000E+00 -0.36200939878E+03  0.36200939878E+03  0.00000000000E+00 0.  1.
         24    2    1    2    0    0 -0.12856414188E+03 -0.45198800968E+03 -0.95354009110E+01  0.47667985641E+03  0.79440935054E+02 0.  0.
        254    2    1    2    0    0  0.12856414188E+03  0.45198800968E+03  0.20576244394E+04  0.22954279796E+04  0.90241308539E+03 0.  0.
         23    2    4    4    0    0  0.32654056255E+03  0.56718584608E+03  0.18766173373E+04  0.19897321685E+04  0.94936549891E+02 0.  0.
         23    2    4    4    0    0 -0.19797642067E+03 -0.11519783640E+03  0.18100710207E+03  0.30569581118E+03  0.90670575815E+02 0.  0.
          4    1    3    3  502    0  0.35932398720E+01 -0.52996021869E+02  0.16341022369E+02  0.55574443036E+02  0.00000000000E+00 0. -1.
         -3    1    3    3    0  502 -0.13215738175E+03 -0.39899198781E+03 -0.25876423280E+02  0.42110541337E+03  0.00000000000E+00 0.  1.
         13    1    5    5    0    0  0.31117432790E+02  0.24908467445E+02  0.70824676623E+02  0.81270297111E+02  0.00000000000E+00 0. -1.
        -13    1    5    5    0    0  0.29542312976E+03  0.54227737863E+03  0.18057926607E+04  0.19084618714E+04  0.00000000000E+00 0.  1.
          1    1    6    6  503    0 -0.28334883398E+00 -0.29950310858E+01  0.35874951414E+02  0.36000869944E+02  0.00000000000E+00 0. -1.
         -1    1    6    6    0  503 -0.19769307184E+03 -0.11220280531E+03  0.14513215065E+03  0.26969494123E+03  0.00000000000E+00 0.  1.
<mgrwt>
<rscale>  0 0.18681309E+04</rscale>
<asrwt>0</asrwt>
<pdfrwt beam="1">  1        2 0.37078437E+00 0.18681309E+04</pdfrwt>
<pdfrwt beam="2">  1       -1 0.55693755E-01 0.18681309E+04</pdfrwt>
<totfact> 0.13682468E+01</totfact>
</mgrwt>
</event>
<event>
12    7  0.1707730E-007  0.1339893E+04  0.7818608E-02  0.8998514E-01
         -1   -1    0    0    0  501 -0.00000000000E+00  0.00000000000E+00  0.21269787017E+03  0.21269787017E+03  0.00000000000E+00 0.  1.
          2   -1    0    0  501    0  0.00000000000E+00 -0.00000000000E+00 -0.21101694830E+04  0.21101694830E+04  0.00000000000E+00 0. -1.
         24    2    1    2    0    0 -0.40743614697E+02  0.18069824872E+03 -0.10679329708E+04  0.10867822768E+04  0.79391358806E+02 0.  0.
        254    2    1    2    0    0  0.40743614697E+02 -0.18069824872E+03 -0.82953864200E+03  0.12360850763E+04  0.89747426599E+03 0.  0.
         23    2    4    4    0    0  0.23320073135E+03  0.11834878319E+02  0.94437579709E+02  0.26833815295E+03  0.92543300248E+02 0.  0.
         23    2    4    4    0    0 -0.19245711665E+03 -0.19253312704E+03 -0.92397622171E+03  0.96774692338E+03  0.93237882146E+02 0.  0.
          2    1    3    3  502    0  0.32203643717E+01  0.96720226602E+02 -0.70773156119E+03  0.71431725143E+03  0.00000000000E+00 0. -1.
         -1    1    3    3    0  502 -0.43963979068E+02  0.83978022119E+02 -0.36020140961E+03  0.37246502539E+03  0.00000000000E+00 0.  1.
         13    1    5    5    0    0  0.23750820209E+03 -0.23109866526E+00  0.84386138211E+02  0.25205400173E+03  0.00000000000E+00 0.  1.
        -13    1    5    5    0    0 -0.43074707399E+01  0.12065976984E+02  0.10051441498E+02  0.16284151220E+02  0.00000000000E+00 0. -1.
          3    1    6    6  503    0 -0.48941916698E+02 -0.11406948018E+03 -0.38857869451E+03  0.40792224670E+03  0.00000000000E+00 0. -1.
         -3    1    6    6    0  503 -0.14351519995E+03 -0.78463646855E+02 -0.53539752720E+03  0.55982467668E+03  0.00000000000E+00 0.  1.
<mgrwt>
<rscale>  0 0.13398934E+04</rscale>
<asrwt>0</asrwt>
<pdfrwt beam="1">  1        2 0.32464146E+00 0.13398934E+04</pdfrwt>
<pdfrwt beam="2">  1       -1 0.32722749E-01 0.13398934E+04</pdfrwt>
<totfact> 0.56580908E+01</totfact>
</mgrwt>
</event>
<event>
12    7  0.1707730E-007  0.1354882E+04  0.7818608E-02  0.8987141E-01
          2   -1    0    0  501    0  0.00000000000E+00  0.00000000000E+00  0.11866335976E+04  0.11866335976E+04  0.00000000000E+00 0. -1.
         -1   -1    0    0    0  501 -0.00000000000E+00 -0.00000000000E+00 -0.38674630431E+03  0.38674630431E+03  0.00000000000E+00 0.  1.
         24    2    1    2    0    0  0.16687059172E+03  0.33040052629E+03  0.30605839106E+03  0.48684534109E+03  0.79601163590E+02 0.  0.
        254    2    1    2    0    0 -0.16687059172E+03 -0.33040052629E+03  0.49382890225E+03  0.10865345608E+04  0.89424832403E+03 0.  0.
         23    2    4    4    0    0  0.44882022062E+02 -0.25445466794E+03  0.71000380674E+03  0.76168411883E+03  0.96414300603E+02 0.  0.
         23    2    4    4    0    0 -0.21175261378E+03 -0.75945858357E+02 -0.21617490449E+03  0.32485044200E+03  0.90494626873E+02 0.  0.
          2    1    3    3  502    0  0.15565977570E+03  0.33151753768E+03  0.28963249034E+03  0.46692699967E+03  0.00000000000E+00 0. -1.
         -1    1    3    3    0  502  0.11210816024E+02 -0.11170113893E+01  0.16425900718E+02  0.19918341416E+02  0.00000000000E+00 0.  1.
         13    1    5    5    0    0  0.11934936953E+02 -0.69082234523E+01  0.66455800407E+01  0.15307841305E+02  0.00000000000E+00 0. -1.
        -13    1    5    5    0    0  0.32947085109E+02 -0.24754644449E+03  0.70335822670E+03  0.74637627753E+03  0.00000000000E+00 0.  1.
          4    1    6    6  503    0 -0.11628595662E+02  0.98196531033E+01  0.34353737051E+01  0.15602936154E+02  0.00000000000E+00 0. -1.
         -4    1    6    6    0  503 -0.20012401812E+03 -0.85765511460E+02 -0.21961027819E+03  0.30924750585E+03  0.00000000000E+00 0.  1.
<mgrwt>
<rscale>  0 0.13548818E+04</rscale>
<asrwt>0</asrwt>
<pdfrwt beam="1">  1        2 0.18255901E+00 0.13548818E+04</pdfrwt>
<pdfrwt beam="2">  1       -1 0.59499432E-01 0.13548818E+04</pdfrwt>
<totfact> 0.61510820E+01</totfact>
</mgrwt>
</event>
<event>
12    7  0.1707730E-007  0.1544963E+04  0.7818608E-02  0.8855091E-01
          2   -1    0    0  501    0  0.00000000000E+00  0.00000000000E+00  0.46110988240E+03  0.46110988240E+03  0.00000000000E+00 0. -1.
         -1   -1    0    0    0  501 -0.00000000000E+00 -0.00000000000E+00 -0.12941121725E+04  0.12941121725E+04  0.00000000000E+00 0.  1.
         24    2    1    2    0    0  0.22044978008E+03  0.27611366314E+03 -0.72077442241E+03  0.80642137589E+03  0.77219213805E+02 0.  0.
        254    2    1    2    0    0 -0.22044978008E+03 -0.27611366314E+03 -0.11222786771E+03  0.94880067903E+03  0.87337894051E+03 0.  0.
         23    2    4    4    0    0 -0.28767027528E+03  0.25720275784E+03 -0.57747745903E+02  0.40091415399E+03  0.92140711913E+02 0.  0.
         23    2    4    4    0    0  0.67220495199E+02 -0.53331642098E+03 -0.54480121811E+02  0.54788652504E+03  0.90920629052E+02 0.  0.
          4    1    3    3  502    0  0.88167649454E+02  0.10169596905E+03 -0.36109731031E+03  0.38536589372E+03  0.00000000000E+00 0. -1.
         -3    1    3    3    0  502  0.13228213063E+03  0.17441769409E+03 -0.35967711210E+03  0.42105548217E+03  0.00000000000E+00 0.  1.
         13    1    5    5    0    0 -0.22095925400E+03  0.18809330666E+03 -0.82587450353E+02  0.30169980262E+03  0.00000000000E+00 0.  1.
        -13    1    5    5    0    0 -0.66711021275E+02  0.69109451175E+02  0.24839704450E+02  0.99214351374E+02  0.00000000000E+00 0. -1.
          4    1    6    6  503    0 -0.16550498430E+02 -0.25429150299E+02 -0.87485287341E+00  0.30353353204E+02  0.00000000000E+00 0. -1.
         -4    1    6    6    0  503  0.83770993629E+02 -0.50788727069E+03 -0.53605268938E+02  0.51753317184E+03  0.00000000000E+00 0.  1.
<mgrwt>
<rscale>  0 0.15449633E+04</rscale>
<asrwt>0</asrwt>
<pdfrwt beam="1">  1        2 0.70939982E-01 0.15449633E+04</pdfrwt>
<pdfrwt beam="2">  1       -1 0.19909418E+00 0.15449633E+04</pdfrwt>
<totfact> 0.11368115E+01</totfact>
</mgrwt>
</event>
<event>
12    7  0.1707730E-007  0.1562565E+04  0.7818608E-02  0.8843881E-01
          2   -1    0    0  501    0  0.00000000000E+00  0.00000000000E+00  0.31579479733E+04  0.31579479733E+04  0.00000000000E+00 0. -1.
         -1   -1    0    0    0  501 -0.00000000000E+00 -0.00000000000E+00 -0.19329093781E+03  0.19329093781E+03  0.00000000000E+00 0.  1.
         24    2    1    2    0    0 -0.18662075366E+03 -0.33192471090E+03  0.17788384268E+04  0.18210281445E+04  0.82921859669E+02 0.  0.
        254    2    1    2    0    0  0.18662075366E+03  0.33192471090E+03  0.11858186087E+04  0.15302107666E+04  0.88903200071E+03 0.  0.
         23    2    4    4    0    0 -0.13620084955E+03  0.40285020545E+03  0.10913230569E+04  0.11749035819E+04  0.92592941926E+02 0.  0.
         23    2    4    4    0    0  0.32282160320E+03 -0.70925494547E+02  0.94495551787E+02  0.35530718472E+03  0.89830801697E+02 0.  0.
          2    1    3    3  502    0 -0.94217264615E+02 -0.11435690712E+03  0.54683645314E+03  0.56655494141E+03  0.00000000000E+00 0. -1.
         -1    1    3    3    0  502 -0.92403489044E+02 -0.21756780378E+03  0.12320019737E+04  0.12544732031E+04  0.00000000000E+00 0.  1.
         13    1    5    5    0    0 -0.13428084344E+03  0.31380920252E+03  0.92950541505E+03  0.99019587815E+03  0.00000000000E+00 0.  1.
        -13    1    5    5    0    0 -0.19200061109E+01  0.89041002928E+02  0.16181764183E+03  0.18470770378E+03  0.00000000000E+00 0. -1.
          2    1    6    6  503    0  0.11436377285E+03 -0.69376759554E+02  0.29872071151E+02  0.13705673257E+03  0.00000000000E+00 0. -1.
         -2    1    6    6    0  503  0.20845783035E+03 -0.15487349932E+01  0.64623480635E+02  0.21825045215E+03  0.00000000000E+00 0.  1.
<mgrwt>
<rscale>  0 0.15625655E+04</rscale>
<asrwt>0</asrwt>
<pdfrwt beam="1">  1        2 0.48583811E+00 0.15625655E+04</pdfrwt>
<pdfrwt beam="2">  1       -1 0.29737070E-01 0.15625655E+04</pdfrwt>
<totfact> 0.15800111E+01</totfact>
</mgrwt>
</event>
<event>
12    7  0.1707730E-007  0.2262751E+04  0.7818608E-02  0.8492754E-01
         -1   -1    0    0    0  501 -0.00000000000E+00  0.00000000000E+00  0.56523354671E+03  0.56523354671E+03  0.00000000000E+00 0.  1.
          2   -1    0    0  501    0  0.00000000000E+00 -0.00000000000E+00 -0.22645688620E+04  0.22645688620E+04  0.00000000000E+00 0. -1.
         24    2    1    2    0    0 -0.77051263259E+03 -0.50569269966E+03 -0.41515890740E+03  0.10141767844E+04  0.82357806220E+02 0.  0.
        254    2    1    2    0    0  0.77051263259E+03  0.50569269966E+03 -0.12841764079E+04  0.18156256242E+04  0.89329308594E+03 0.  0.
         23    2    4    4    0    0  0.33772132315E+02  0.35135420876E+03 -0.88801113559E+03  0.95954553025E+03  0.87025920029E+02 0.  0.
         23    2    4    4    0    0  0.73674050027E+03  0.15433849091E+03 -0.39616527228E+03  0.85608009398E+03  0.96536365363E+02 0.  0.
          4    1    3    3  502    0 -0.21410774747E+03 -0.14176978210E+03 -0.15689167112E+03  0.30092489945E+03  0.00000000000E+00 0. -1.
         -3    1    3    3    0  502 -0.55640488512E+03 -0.36392291757E+03 -0.25826723628E+03  0.71325188500E+03  0.00000000000E+00 0.  1.
         13    1    5    5    0    0  0.45819705217E+02  0.33257253729E+03 -0.86315655381E+03  0.92614425137E+03  0.00000000000E+00 0. -1.
        -13    1    5    5    0    0 -0.12047572902E+02  0.18781671462E+02 -0.24854581782E+02  0.33401278887E+02  0.00000000000E+00 0.  1.
          1    1    6    6  503    0  0.54860915847E+03  0.13161906418E+03 -0.25160981367E+03  0.61774030559E+03  0.00000000000E+00 0. -1.
         -1    1    6    6    0  503  0.18813134180E+03  0.22719426733E+02 -0.14455545861E+03  0.23833978839E+03  0.00000000000E+00 0.  1.
<mgrwt>
<rscale>  0 0.22627508E+04</rscale>
<asrwt>0</asrwt>
<pdfrwt beam="1">  1        2 0.34839521E+00 0.22627508E+04</pdfrwt>
<pdfrwt beam="2">  1       -1 0.86959008E-01 0.22627508E+04</pdfrwt>
<totfact> 0.64003724E+00</totfact>
</mgrwt>
</event>
<event>
12    7  0.1707730E-007  0.2855636E+04  0.7818608E-02  0.8286201E-01
         -1   -1    0    0    0  501 -0.00000000000E+00  0.00000000000E+00  0.68548645130E+03  0.68548645130E+03  0.00000000000E+00 0.  1.
          2   -1    0    0  501    0  0.00000000000E+00 -0.00000000000E+00 -0.29740398197E+04  0.29740398197E+04  0.00000000000E+00 0. -1.
         24    2    1    2    0    0 -0.12372871934E+04 -0.17714894165E+02 -0.14633319968E+04  0.19180132241E+04  0.78998598647E+02 0.  0.
        254    2    1    2    0    0  0.12372871934E+04  0.17714894165E+02 -0.82522137160E+03  0.17415130469E+04  0.90591609105E+03 0.  0.
         23    2    4    4    0    0  0.12372982655E+04  0.15672786313E+03 -0.44700954763E+03  0.13283784594E+04  0.96442599052E+02 0.  0.
         23    2    4    4    0    0 -0.11072137031E-01 -0.13901296897E+03 -0.37821182397E+03  0.41313458746E+03  0.91166868446E+02 0.  0.
          4    1    3    3  502    0 -0.55979308761E+03 -0.41780128011E+02 -0.69410354523E+03  0.89268897805E+03  0.00000000000E+00 0. -1.
         -3    1    3    3    0  502 -0.67749410577E+03  0.24065233847E+02 -0.76922845160E+03  0.10253242461E+04  0.00000000000E+00 0.  1.
         13    1    5    5    0    0  0.11945167562E+04  0.16897245126E+03 -0.43130022983E+03  0.12811876750E+04  0.00000000000E+00 0.  1.
        -13    1    5    5    0    0  0.42781509286E+02 -0.12244588127E+02 -0.15709317803E+02  0.47190784493E+02  0.00000000000E+00 0. -1.
          3    1    6    6  503    0  0.32855489525E+02 -0.13991652019E+02 -0.62495914628E+02  0.71979086291E+02  0.00000000000E+00 0. -1.
         -3    1    6    6    0  503 -0.32866561662E+02 -0.12502131695E+03 -0.31571590934E+03  0.34115550117E+03  0.00000000000E+00 0.  1.
<mgrwt>
<rscale>  0 0.28556358E+04</rscale>
<asrwt>0</asrwt>
<pdfrwt beam="1">  1        2 0.45754458E+00 0.28556358E+04</pdfrwt>
<pdfrwt beam="2">  1       -1 0.10545946E+00 0.28556358E+04</pdfrwt>
<totfact> 0.14987763E+00</totfact>
</mgrwt>
</event>
<event>
12    7  0.1707730E-007  0.1339605E+04  0.7818608E-02  0.8998734E-01
          2   -1    0    0  501    0  0.00000000000E+00  0.00000000000E+00  0.20683906478E+04  0.20683906478E+04  0.00000000000E+00 0. -1.
         -1   -1    0    0    0  501 -0.00000000000E+00 -0.00000000000E+00 -0.21690076421E+03  0.21690076421E+03  0.00000000000E+00 0.  1.
         24    2    1    2    0    0  0.34171679651E+03  0.12334254123E+03  0.53085481249E+03  0.64824196405E+03  0.80168949862E+02 0.  0.
        254    2    1    2    0    0 -0.34171679651E+03 -0.12334254123E+03  0.13206350711E+04  0.16370494480E+04  0.89658806179E+03 0.  0.
         23    2    4    4    0    0 -0.40118041167E+03 -0.14644357914E+03  0.14216623434E+04  0.14874010287E+04  0.94056136789E+02 0.  0.
         23    2    4    4    0    0  0.59463615161E+02  0.23101037909E+02 -0.10102727228E+03  0.14964841930E+03  0.90103053087E+02 0.  0.
          4    1    3    3  502    0  0.89625467937E+02  0.24680039188E+02  0.20149969497E+03  0.22190979228E+03  0.00000000000E+00 0. -1.
         -3    1    3    3    0  502  0.25209132858E+03  0.98662502042E+02  0.32935511751E+03  0.42633217177E+03  0.00000000000E+00 0.  1.
         13    1    5    5    0    0 -0.12955565115E+03 -0.38150862706E+02  0.31446572583E+03  0.34224092069E+03  0.00000000000E+00 0. -1.
        -13    1    5    5    0    0 -0.27162476052E+03 -0.10829271643E+03  0.11071966175E+04  0.11451601080E+04  0.00000000000E+00 0.  1.
          4    1    6    6  503    0  0.19969246331E+02  0.45406484220E+02 -0.90318631899E+02  0.10304355815E+03  0.00000000000E+00 0.  1.
         -4    1    6    6    0  503  0.39494368830E+02 -0.22305446311E+02 -0.10708640380E+02  0.46604861154E+02  0.00000000000E+00 0. -1.
<mgrwt>
<rscale>  0 0.13396052E+04</rscale>
<asrwt>0</asrwt>
<pdfrwt beam="1">  1        2 0.31821393E+00 0.13396052E+04</pdfrwt>
<pdfrwt beam="2">  1       -1 0.33369350E-01 0.13396052E+04</pdfrwt>
<totfact> 0.57650958E+01</totfact>
</mgrwt>
</event>
<event>
12    7  0.1707730E-007  0.1213111E+04  0.7818608E-02  0.9101457E-01
          2   -1    0    0  501    0  0.00000000000E+00  0.00000000000E+00  0.23365481466E+04  0.23365481466E+04  0.00000000000E+00 0. -1.
         -1   -1    0    0    0  501 -0.00000000000E+00 -0.00000000000E+00 -0.15745853330E+03  0.15745853330E+03  0.00000000000E+00 0.  1.
         24    2    1    2    0    0 -0.22203975605E+03  0.11076896989E+03  0.32309246563E+03  0.41525908715E+03  0.80498137601E+02 0.  0.
        254    2    1    2    0    0  0.22203975605E+03 -0.11076896989E+03  0.18559971477E+04  0.20787475928E+04  0.90271519555E+03 0.  0.
         23    2    4    4    0    0  0.51063763976E+03  0.14019786571E+03  0.95728067267E+03  0.10977297724E+04  0.90653881600E+02 0.  0.
         23    2    4    4    0    0 -0.28859788371E+03 -0.25096683560E+03  0.89871647503E+03  0.98101782038E+03  0.91823582885E+02 0.  0.
          4    1    3    3  502    0 -0.11218725395E+02 -0.11963391363E+02  0.14498923264E+02  0.21890667148E+02  0.00000000000E+00 0. -1.
         -3    1    3    3    0  502 -0.21082103066E+03  0.12273236126E+03  0.30859354237E+03  0.39336842001E+03  0.00000000000E+00 0.  1.
         13    1    5    5    0    0  0.48003465096E+03  0.14789572925E+03  0.92502503086E+03  0.10526052064E+04  0.00000000000E+00 0.  1.
        -13    1    5    5    0    0  0.30602988797E+02 -0.76978635387E+01  0.32255641806E+02  0.45124565977E+02  0.00000000000E+00 0. -1.
          1    1    6    6  503    0 -0.20514550289E+03 -0.15094030217E+03  0.68394747927E+03  0.72982998471E+03  0.00000000000E+00 0.  1.
         -1    1    6    6    0  503 -0.83452380819E+02 -0.10002653343E+03  0.21476899575E+03  0.25118783568E+03  0.00000000000E+00 0. -1.
<mgrwt>
<rscale>  0 0.12131108E+04</rscale>
<asrwt>0</asrwt>
<pdfrwt beam="1">  1        2 0.35946892E+00 0.12131108E+04</pdfrwt>
<pdfrwt beam="2">  1       -1 0.24224391E-01 0.12131108E+04</pdfrwt>
<totfact> 0.72058549E+01</totfact>
</mgrwt>
</event>
<event>
12    7  0.1707730E-007  0.2440782E+04  0.7818608E-02  0.8424391E-01
          2   -1    0    0  501    0  0.00000000000E+00  0.00000000000E+00  0.83187653858E+03  0.83187653858E+03  0.00000000000E+00 0. -1.
         -1   -1    0    0    0  501 -0.00000000000E+00 -0.00000000000E+00 -0.17903555194E+04  0.17903555194E+04  0.00000000000E+00 0.  1.
         24    2    1    2    0    0  0.27172991465E+03  0.45920757960E+03  0.55797061398E+03  0.77610025069E+03  0.79319892748E+02 0.  0.
        254    2    1    2    0    0 -0.27172991465E+03 -0.45920757960E+03 -0.15164495948E+04  0.18461318073E+04  0.90767534323E+03 0.  0.
         23    2    4    4    0    0 -0.22158360877E+03 -0.67619705413E+03 -0.14149505021E+04  0.15863901836E+04  0.90593265541E+02 0.  0.
         23    2    4    4    0    0 -0.50146305878E+02  0.21698947453E+03 -0.10149909278E+03  0.25974162370E+03  0.86974485911E+02 0.  0.
          2    1    3    3  502    0  0.23722203441E+03  0.41269823068E+03  0.52797248143E+03  0.71087907858E+03  0.00000000000E+00 0. -1.
         -3    1    3    3    0  502  0.34507880240E+02  0.46509348914E+02  0.29998132551E+02  0.65221172112E+02  0.00000000000E+00 0.  1.
         13    1    5    5    0    0 -0.18107824243E+03 -0.52318650271E+03 -0.11755466370E+04  0.12993934517E+04  0.00000000000E+00 0.  1.
        -13    1    5    5    0    0 -0.40505366343E+02 -0.15301055141E+03 -0.23940386505E+03  0.28699673194E+03  0.00000000000E+00 0. -1.
          4    1    6    6  503    0  0.17362262316E+02  0.27269036511E+02 -0.35064807385E+02  0.47692653752E+02  0.00000000000E+00 0. -1.
         -4    1    6    6    0  503 -0.67508568194E+02  0.18972043802E+03 -0.66434285391E+02  0.21204896995E+03  0.00000000000E+00 0.  1.
<mgrwt>
<rscale>  0 0.24407825E+04</rscale>
<asrwt>0</asrwt>
<pdfrwt beam="1">  1        2 0.12798101E+00 0.24407825E+04</pdfrwt>
<pdfrwt beam="2">  1       -1 0.27543931E+00 0.24407825E+04</pdfrwt>
<totfact> 0.15916377E+00</totfact>
</mgrwt>
</event>
<event>
12    7  0.1707730E-007  0.1248309E+04  0.7818608E-02  0.9071592E-01
         -1   -1    0    0    0  501 -0.00000000000E+00  0.00000000000E+00  0.48231254840E+03  0.48231254840E+03  0.00000000000E+00 0.  1.
          2   -1    0    0  501    0  0.00000000000E+00 -0.00000000000E+00 -0.80771038254E+03  0.80771038254E+03  0.00000000000E+00 0. -1.
         24    2    1    2    0    0 -0.21166469373E+03 -0.14821124532E+03  0.67763345231E+02  0.28125399641E+03  0.87996725673E+02 0.  0.
        254    2    1    2    0    0  0.21166469373E+03  0.14821124532E+03 -0.39316117937E+03  0.10087689345E+04  0.89233992092E+03 0.  0.
         23    2    4    4    0    0  0.23188724035E+03  0.37208354614E+03  0.98717347098E+02  0.45884802822E+03  0.92620412609E+02 0.  0.
         23    2    4    4    0    0 -0.20222546618E+02 -0.22387230082E+03 -0.49187852647E+03  0.54992090631E+03  0.99703359622E+02 0.  0.
          4    1    3    3  502    0 -0.31545891983E+01 -0.47613553642E+01 -0.14133380224E+02  0.15243830702E+02  0.00000000000E+00 0. -1.
         -3    1    3    3    0  502 -0.20851010453E+03 -0.14344988996E+03  0.81896725455E+02  0.26601016571E+03  0.00000000000E+00 0.  1.
         13    1    5    5    0    0  0.11141498184E+03  0.16138142032E+03 -0.18812896247E+01  0.19611425306E+03  0.00000000000E+00 0.  1.
        -13    1    5    5    0    0  0.12047225851E+03  0.21070212582E+03  0.10059863672E+03  0.26273377515E+03  0.00000000000E+00 0. -1.
          4    1    6    6  503    0 -0.16742617295E+02 -0.28889522043E+02 -0.17257081660E+03  0.17577146088E+03  0.00000000000E+00 0. -1.
         -4    1    6    6    0  503 -0.34799293230E+01 -0.19498277878E+03 -0.31930770987E+03  0.37414944543E+03  0.00000000000E+00 0.  1.
<mgrwt>
<rscale>  0 0.12483090E+04</rscale>
<asrwt>0</asrwt>
<pdfrwt beam="1">  1        2 0.12426313E+00 0.12483090E+04</pdfrwt>
<pdfrwt beam="2">  1       -1 0.74201931E-01 0.12483090E+04</pdfrwt>
<totfact> 0.69846329E+01</totfact>
</mgrwt>
</event>
<event>
12    7  0.1707730E-007  0.1492693E+04  0.7818608E-02  0.8889326E-01
          2   -1    0    0  501    0  0.00000000000E+00  0.00000000000E+00  0.68333795404E+03  0.68333795404E+03  0.00000000000E+00 0. -1.
         -1   -1    0    0    0  501 -0.00000000000E+00 -0.00000000000E+00 -0.81516527139E+03  0.81516527139E+03  0.00000000000E+00 0.  1.
         24    2    1    2    0    0  0.13640544642E+03 -0.26109291336E+03 -0.43250531245E+03  0.52919278681E+03  0.78792163920E+02 0.  0.
        254    2    1    2    0    0 -0.13640544642E+03  0.26109291336E+03  0.30067799510E+03  0.96931043862E+03  0.87314346728E+03 0.  0.
         23    2    4    4    0    0  0.80108433131E+02 -0.39456449143E+02  0.51684263232E+03  0.53093416821E+03  0.82405169470E+02 0.  0.
         23    2    4    4    0    0 -0.21651387955E+03  0.30054936250E+03 -0.21616463722E+03  0.43837627040E+03  0.90765768487E+02 0.  0.
          4    1    3    3  502    0  0.19715975378E+02 -0.54116731050E+02 -0.14619842289E+03  0.15713471647E+03  0.00000000000E+00 0. -1.
         -3    1    3    3    0  502  0.11668947104E+03 -0.20697618231E+03 -0.28630688955E+03  0.37205807033E+03  0.00000000000E+00 0.  1.
         13    1    5    5    0    0  0.60646623536E+02 -0.64929512172E+02  0.40201213289E+03  0.41171301836E+03  0.00000000000E+00 0.  1.
        -13    1    5    5    0    0  0.19461809596E+02  0.25473063029E+02  0.11483049943E+03  0.11922114985E+03  0.00000000000E+00 0. -1.
          1    1    6    6  503    0 -0.33197085192E+02  0.21838136171E+02 -0.55103704157E+02  0.67936506155E+02  0.00000000000E+00 0. -1.
         -1    1    6    6    0  503 -0.18331679436E+03  0.27871122633E+03 -0.16106093307E+03  0.37043976425E+03  0.00000000000E+00 0.  1.
<mgrwt>
<rscale>  0 0.14926934E+04</rscale>
<asrwt>0</asrwt>
<pdfrwt beam="1">  1        2 0.10512892E+00 0.14926934E+04</pdfrwt>
<pdfrwt beam="2">  1       -1 0.12541004E+00 0.14926934E+04</pdfrwt>
<totfact> 0.25897270E+01</totfact>
</mgrwt>
</event>
<event>
12    7  0.1707730E-007  0.2320104E+04  0.7818608E-02  0.8470036E-01
          2   -1    0    0  501    0  0.00000000000E+00  0.00000000000E+00  0.16343680534E+04  0.16343680534E+04  0.00000000000E+00 0. -1.
         -1   -1    0    0    0  501 -0.00000000000E+00 -0.00000000000E+00 -0.82338916071E+03  0.82338916071E+03  0.00000000000E+00 0.  1.
         24    2    1    2    0    0 -0.72089077418E+03 -0.64877925757E+03  0.51486628689E+03  0.11009828408E+04  0.80485333661E+02 0.  0.
        254    2    1    2    0    0  0.72089077418E+03  0.64877925757E+03  0.29611260581E+03  0.13567743733E+04  0.90141887682E+03 0.  0.
         23    2    4    4    0    0  0.44863386915E+03 -0.12024945419E+03  0.24659841203E+03  0.53413394976E+03  0.93573605719E+02 0.  0.
         23    2    4    4    0    0  0.27225690503E+03  0.76902871176E+03  0.49514193780E+02  0.82264042358E+03  0.93576862915E+02 0.  0.
          4    1    3    3  502    0 -0.68782907561E+03 -0.63654202769E+03  0.48771185448E+03  0.10564835272E+04  0.00000000000E+00 0. -1.
         -1    1    3    3    0  502 -0.33061698571E+02 -0.12237229883E+02  0.27154432400E+02  0.44499313552E+02  0.00000000000E+00 0.  1.
         13    1    5    5    0    0  0.39225566775E+03 -0.11324232581E+03  0.17888525105E+03  0.44574462003E+03  0.00000000000E+00 0. -1.
        -13    1    5    5    0    0  0.56378201398E+02 -0.70071283785E+01  0.67713160974E+02  0.88389329729E+02  0.00000000000E+00 0.  1.
          1    1    6    6  503    0  0.20544631794E+03  0.61157355637E+03  0.21589517818E+01  0.64516282090E+03  0.00000000000E+00 0. -1.
         -1    1    6    6    0  503  0.66810587086E+02  0.15745515540E+03  0.47355241999E+02  0.17747760268E+03  0.00000000000E+00 0.  1.
<mgrwt>
<rscale>  0 0.23201043E+04</rscale>
<asrwt>0</asrwt>
<pdfrwt beam="1">  1        2 0.25144124E+00 0.23201043E+04</pdfrwt>
<pdfrwt beam="2">  1       -1 0.12667526E+00 0.23201043E+04</pdfrwt>
<totfact> 0.59531656E+00</totfact>
</mgrwt>
</event>
<event>
12    7  0.1707730E-007  0.2480219E+04  0.7818608E-02  0.8410067E-01
         -1   -1    0    0    0  501 -0.00000000000E+00  0.00000000000E+00  0.45826730708E+03  0.45826730708E+03  0.00000000000E+00 0.  1.
          2   -1    0    0  501    0  0.00000000000E+00 -0.00000000000E+00 -0.33558405500E+04  0.33558405500E+04  0.00000000000E+00 0. -1.
         24    2    1    2    0    0  0.51158325582E+03 -0.64258289724E+02  0.18932630523E+03  0.55502531373E+03  0.79762733133E+02 0.  0.
        254    2    1    2    0    0 -0.51158325582E+03  0.64258289724E+02 -0.30868995481E+04  0.32590825433E+04  0.90929843757E+03 0.  0.
         23    2    4    4    0    0 -0.21907953370E+03 -0.38540394807E+03 -0.93727830010E+03  0.10416591847E+04  0.10015587840E+03 0.  0.
         23    2    4    4    0    0 -0.29250372212E+03  0.44966223779E+03 -0.21496212480E+04  0.22174233586E+04  0.91325165332E+02 0.  0.
          4    1    3    3  502    0  0.11690852772E+03  0.18812507315E+02  0.43505553841E+02  0.12615168449E+03  0.00000000000E+00 0. -1.
         -3    1    3    3    0  502  0.39467472810E+03 -0.83070797038E+02  0.14582075139E+03  0.42887362924E+03  0.00000000000E+00 0.  1.
         13    1    5    5    0    0  0.74812434878E+01 -0.44196751683E+02 -0.86384024837E+02  0.97321742743E+02  0.00000000000E+00 0. -1.
        -13    1    5    5    0    0 -0.22656077719E+03 -0.34120719639E+03 -0.85089427526E+03  0.94433744197E+03  0.00000000000E+00 0.  1.
          2    1    6    6  503    0 -0.20378416835E+03  0.23956433537E+03 -0.13281708742E+04  0.13649018020E+04  0.00000000000E+00 0. -1.
         -2    1    6    6    0  503 -0.88719553771E+02  0.21009790243E+03 -0.82145037385E+03  0.85252155663E+03  0.00000000000E+00 0.  1.
<mgrwt>
<rscale>  0 0.24802194E+04</rscale>
<asrwt>0</asrwt>
<pdfrwt beam="1">  1        2 0.51628317E+00 0.24802194E+04</pdfrwt>
<pdfrwt beam="2">  1       -1 0.70502661E-01 0.24802194E+04</pdfrwt>
<totfact> 0.21122917E+00</totfact>
</mgrwt>
</event>
<event>
12    7  0.1707730E-007  0.1182304E+04  0.7818608E-02  0.9128489E-01
          2   -1    0    0  501    0  0.00000000000E+00  0.00000000000E+00  0.42861078519E+04  0.42861078519E+04  0.00000000000E+00 0. -1.
         -1   -1    0    0    0  501 -0.00000000000E+00 -0.00000000000E+00 -0.81533280927E+02  0.81533280927E+02  0.00000000000E+00 0.  1.
         24    2    1    2    0    0  0.14829329532E+03  0.76395345526E+02  0.15723471518E+04  0.15831544345E+04  0.79216460823E+02 0.  0.
        254    2    1    2    0    0 -0.14829329532E+03 -0.76395345526E+02  0.26322274192E+04  0.27844866983E+04  0.89270254636E+03 0.  0.
         23    2    4    4    0    0 -0.15900054439E+03 -0.83428510481E+02  0.26669630231E+04  0.26745953400E+04  0.92341632018E+02 0.  0.
         23    2    4    4    0    0  0.10707249069E+02  0.70331649553E+01 -0.34735603869E+02  0.10989135826E+03  0.10346708584E+03 0.  0.
          2    1    3    3  502    0  0.11164874083E+03  0.92164400749E+02  0.12317367458E+04  0.12402157590E+04  0.00000000000E+00 0. -1.
         -1    1    3    3    0  502  0.36644554490E+02 -0.15769055223E+02  0.34061040601E+03  0.34293867551E+03  0.00000000000E+00 0.  1.
         13    1    5    5    0    0 -0.12637130815E+03 -0.32627304115E+02  0.21800214443E+04  0.21839248490E+04  0.00000000000E+00 0.  1.
        -13    1    5    5    0    0 -0.32629236238E+02 -0.50801206366E+02  0.48694157880E+03  0.49067049105E+03  0.00000000000E+00 0. -1.
          2    1    6    6  503    0  0.12385067341E+02 -0.15788634685E+02  0.32873767576E+02  0.38514354115E+02  0.00000000000E+00 0. -1.
         -2    1    6    6    0  503 -0.16778182720E+01  0.22821799640E+02 -0.67609371446E+02  0.71377004142E+02  0.00000000000E+00 0.  1.
<mgrwt>
<rscale>  0 0.11823036E+04</rscale>
<asrwt>0</asrwt>
<pdfrwt beam="1">  1        2 0.65940103E+00 0.11823036E+04</pdfrwt>
<pdfrwt beam="2">  1       -1 0.12543585E-01 0.11823036E+04</pdfrwt>
<totfact> 0.10160296E+01</totfact>
</mgrwt>
</event>
<event>
12    7  0.1707730E-007  0.1413803E+04  0.7818608E-02  0.8943888E-01
         -1   -1    0    0    0  501 -0.00000000000E+00  0.00000000000E+00  0.31581365013E+03  0.31581365013E+03  0.00000000000E+00 0.  1.
          2   -1    0    0  501    0  0.00000000000E+00 -0.00000000000E+00 -0.15822922389E+04  0.15822922389E+04  0.00000000000E+00 0. -1.
         24    2    1    2    0    0  0.11686846616E+03 -0.24191457031E+03 -0.80346523180E+03  0.85088165449E+03  0.79134780711E+02 0.  0.
        254    2    1    2    0    0 -0.11686846616E+03  0.24191457031E+03 -0.46301335698E+03  0.10472242346E+04  0.90006462600E+03 0.  0.
         23    2    4    4    0    0 -0.18661277454E+03  0.41045078880E+03  0.80222281190E+02  0.46695007422E+03  0.91173350058E+02 0.  0.
         23    2    4    4    0    0  0.69744308375E+02 -0.16853621849E+03 -0.54323563817E+03  0.58027416034E+03  0.91347780906E+02 0.  0.
          2    1    3    3  502    0  0.36863984792E+02 -0.11882257048E+03 -0.47644670665E+03  0.49242179167E+03  0.00000000000E+00 0. -1.
         -1    1    3    3    0  502  0.80004481373E+02 -0.12309199983E+03 -0.32701852515E+03  0.35845986282E+03  0.00000000000E+00 0.  1.
         13    1    5    5    0    0 -0.11668137792E+03  0.20062058986E+03  0.12205825569E+01  0.23208760167E+03  0.00000000000E+00 0.  1.
        -13    1    5    5    0    0 -0.69931396619E+02  0.20983019895E+03  0.79001698633E+02  0.23486247255E+03  0.00000000000E+00 0. -1.
          1    1    6    6  503    0  0.54825676793E+02 -0.10592900850E+03 -0.45912033148E+03  0.47436092636E+03  0.00000000000E+00 0. -1.
         -1    1    6    6    0  503  0.14918631581E+02 -0.62607209990E+02 -0.84115306691E+02  0.10591323397E+03  0.00000000000E+00 0.  1.
<mgrwt>
<rscale>  0 0.14138027E+04</rscale>
<asrwt>0</asrwt>
<pdfrwt beam="1">  1        2 0.24342958E+00 0.14138027E+04</pdfrwt>
<pdfrwt beam="2">  1       -1 0.48586715E-01 0.14138027E+04</pdfrwt>
<totfact> 0.53574008E+01</totfact>
</mgrwt>
</event>
<event>
12    7  0.1707730E-007  0.1674342E+04  0.7818608E-02  0.8776135E-01
          2   -1    0    0  501    0  0.00000000000E+00  0.00000000000E+00  0.23199621125E+04  0.23199621125E+04  0.00000000000E+00 0. -1.
         -1   -1    0    0    0  501 -0.00000000000E+00 -0.00000000000E+00 -0.30209774897E+03  0.30209774897E+03  0.00000000000E+00 0.  1.
         24    2    1    2    0    0 -0.88564685323E+01 -0.53420231367E+03  0.32314840472E+03  0.62959355794E+03  0.80700729563E+02 0.  0.
        254    2    1    2    0    0  0.88564685323E+01  0.53420231367E+03  0.16947159588E+04  0.19924663036E+04  0.90133747327E+03 0.  0.
         23    2    4    4    0    0  0.50969006550E+02  0.75830284846E+03  0.10152690001E+04  0.12714368543E+04  0.90329853510E+02 0.  0.
         23    2    4    4    0    0 -0.42112538018E+02 -0.22410053478E+03  0.67944695875E+03  0.72102944922E+03  0.78998616036E+02 0.  0.
          2    1    3    3  502    0 -0.28517724577E+02 -0.21880922691E+03  0.16931509257E+03  0.27813367105E+03  0.00000000000E+00 0. -1.
         -1    1    3    3    0  502  0.19661256045E+02 -0.31539308676E+03  0.15383331215E+03  0.35145988689E+03  0.00000000000E+00 0.  1.
         13    1    5    5    0    0  0.60354056665E+02  0.25799883567E+03  0.34893506819E+03  0.43813433234E+03  0.00000000000E+00 0. -1.
        -13    1    5    5    0    0 -0.93850501152E+01  0.50030401279E+03  0.66633393190E+03  0.83330252200E+03  0.00000000000E+00 0.  1.
          4    1    6    6  503    0 -0.25565695591E+02 -0.19123632008E+03  0.63313643438E+03  0.66188116716E+03  0.00000000000E+00 0. -1.
         -4    1    6    6    0  503 -0.16546842427E+02 -0.32864214705E+02  0.46310524377E+02  0.59148282059E+02  0.00000000000E+00 0.  1.
<mgrwt>
<rscale>  0 0.16743421E+04</rscale>
<asrwt>0</asrwt>
<pdfrwt beam="1">  1        2 0.35691724E+00 0.16743421E+04</pdfrwt>
<pdfrwt beam="2">  1       -1 0.46476578E-01 0.16743421E+04</pdfrwt>
<totfact> 0.22127835E+01</totfact>
</mgrwt>
</event>
<event>
12    7  0.1707730E-007  0.1889120E+04  0.7818608E-02  0.8660291E-01
          2   -1    0    0  501    0  0.00000000000E+00  0.00000000000E+00  0.12824408859E+04  0.12824408859E+04  0.00000000000E+00 0. -1.
         -1   -1    0    0    0  501 -0.00000000000E+00 -0.00000000000E+00 -0.69569970337E+03  0.69569970337E+03  0.00000000000E+00 0.  1.
         24    2    1    2    0    0  0.41011344118E+03 -0.24096879365E+03  0.76134910247E+03  0.90100293774E+03  0.76777886429E+02 0.  0.
        254    2    1    2    0    0 -0.41011344118E+03  0.24096879365E+03 -0.17460791994E+03  0.10771376515E+04  0.95051491333E+03 0.  0.
         23    2    4    4    0    0  0.29390281096E+03  0.12942917194E+02 -0.11624600238E+03  0.32904604538E+03  0.90618902652E+02 0.  0.
         23    2    4    4    0    0 -0.70401625214E+03  0.22802587646E+03 -0.58361917563E+02  0.74809160614E+03  0.92737555166E+02 0.  0.
          2    1    3    3  502    0  0.26849895530E+03 -0.17729040564E+03  0.45136907243E+03  0.55430823237E+03  0.00000000000E+00 0. -1.
         -1    1    3    3    0  502  0.14161448588E+03 -0.63678388014E+02  0.30998003004E+03  0.34669470537E+03  0.00000000000E+00 0.  1.
         13    1    5    5    0    0  0.18291160960E+03  0.27342354143E+02 -0.29146066444E+02  0.18722647902E+03  0.00000000000E+00 0. -1.
        -13    1    5    5    0    0  0.11099120135E+03 -0.14399436949E+02 -0.87099935935E+02  0.14181956636E+03  0.00000000000E+00 0.  1.
          3    1    6    6  503    0 -0.77652273296E+02  0.55979621863E+02  0.18464122714E+01  0.95744466421E+02  0.00000000000E+00 0. -1.
         -3    1    6    6    0  503 -0.62636397884E+03  0.17204625460E+03 -0.60208329834E+02  0.65234713972E+03  0.00000000000E+00 0.  1.
<mgrwt>
<rscale>  0 0.18891202E+04</rscale>
<asrwt>0</asrwt>
<pdfrwt beam="1">  1        2 0.19729860E+00 0.18891202E+04</pdfrwt>
<pdfrwt beam="2">  1       -1 0.10703072E+00 0.18891202E+04</pdfrwt>
<totfact> 0.14725787E+01</totfact>
</mgrwt>
</event>
<event>
12    7  0.1707730E-007  0.1418391E+04  0.7818608E-02  0.8940613E-01
         -1   -1    0    0    0  501 -0.00000000000E+00  0.00000000000E+00  0.16560879216E+04  0.16560879216E+04  0.00000000000E+00 0.  1.
          2   -1    0    0  501    0  0.00000000000E+00 -0.00000000000E+00 -0.30370243018E+03  0.30370243018E+03  0.00000000000E+00 0. -1.
         24    2    1    2    0    0 -0.14338096207E+03 -0.37798454283E+03  0.56251799464E+03  0.70098866367E+03  0.10736944353E+03 0.  0.
        254    2    1    2    0    0  0.14338096207E+03  0.37798454283E+03  0.78986749682E+03  0.12588016881E+04  0.89289451373E+03 0.  0.
         23    2    4    4    0    0  0.51163890776E+03  0.17273302039E+03  0.47641216634E+03  0.72555324471E+03  0.88588319792E+02 0.  0.
         23    2    4    4    0    0 -0.36825794569E+03  0.20525152244E+03  0.31345533048E+03  0.53324844344E+03  0.91419670730E+02 0.  0.
          4    1    3    3  502    0 -0.10994929188E+03 -0.25760371608E+03  0.30098070111E+03  0.41114219410E+03  0.00000000000E+00 0. -1.
         -3    1    3    3    0  502 -0.33431670183E+02 -0.12038082675E+03  0.26153729353E+03  0.28984646958E+03  0.00000000000E+00 0.  1.
         13    1    5    5    0    0  0.11577014469E+02  0.20146763626E+02  0.30872917648E+02  0.38640087898E+02  0.00000000000E+00 0.  1.
        -13    1    5    5    0    0  0.50006189329E+03  0.15258625676E+03  0.44553924869E+03  0.68691315681E+03  0.00000000000E+00 0. -1.
          3    1    6    6  503    0 -0.31172530671E+03  0.15710956178E+03  0.29425017102E+03  0.45655146960E+03  0.00000000000E+00 0. -1.
         -3    1    6    6    0  503 -0.56532638980E+02  0.48141960663E+02  0.19205159454E+02  0.76696973840E+02  0.00000000000E+00 0.  1.
<mgrwt>
<rscale>  0 0.14183905E+04</rscale>
<asrwt>0</asrwt>
<pdfrwt beam="1">  1        2 0.46723452E-01 0.14183905E+04</pdfrwt>
<pdfrwt beam="2">  1       -1 0.25478275E+00 0.14183905E+04</pdfrwt>
<totfact> 0.78307469E+00</totfact>
</mgrwt>
</event>
<event>
12    7  0.1707730E-007  0.1520002E+04  0.7818608E-02  0.8871260E-01
         -1   -1    0    0    0  501 -0.00000000000E+00  0.00000000000E+00  0.58797969394E+03  0.58797969394E+03  0.00000000000E+00 0.  1.
          2   -1    0    0  501    0  0.00000000000E+00 -0.00000000000E+00 -0.98234975402E+03  0.98234975402E+03  0.00000000000E+00 0. -1.
         24    2    1    2    0    0 -0.14697862534E+03 -0.44169820229E+03 -0.42553767445E+03  0.63572335778E+03  0.79761250231E+02 0.  0.
        254    2    1    2    0    0  0.14697862534E+03  0.44169820229E+03  0.31167614375E+02  0.93460609019E+03  0.80982535488E+03 0.  0.
         23    2    4    4    0    0  0.39760605304E+03  0.35125976990E+03  0.23455983709E+03  0.58742454389E+03  0.92602798156E+02 0.  0.
         23    2    4    4    0    0 -0.25062742770E+03  0.90438432392E+02 -0.20339222272E+03  0.34718154629E+03  0.90406925915E+02 0.  0.
          2    1    3    3  502    0 -0.10818017288E+03 -0.37846996191E+03 -0.38749720606E+03  0.55235545311E+03  0.00000000000E+00 0. -1.
         -1    1    3    3    0  502 -0.38798452457E+02 -0.63228240376E+02 -0.38040468398E+02  0.83367904676E+02  0.00000000000E+00 0.  1.
         13    1    5    5    0    0  0.83130574645E+02  0.12350647182E+03  0.84225936343E+02  0.17105130626E+03  0.00000000000E+00 0. -1.
        -13    1    5    5    0    0  0.31447547840E+03  0.22775329808E+03  0.15033390075E+03  0.41637323763E+03  0.00000000000E+00 0.  1.
          3    1    6    6  503    0 -0.26438287867E+02  0.21320939328E+02  0.38119738509E+01  0.34177429157E+02  0.00000000000E+00 0. -1.
         -3    1    6    6    0  503 -0.22418913983E+03  0.69117493064E+02 -0.20720419657E+03  0.31300411714E+03  0.00000000000E+00 0.  1.
<mgrwt>
<rscale>  0 0.15200022E+04</rscale>
<asrwt>0</asrwt>
<pdfrwt beam="1">  1        2 0.15113073E+00 0.15200022E+04</pdfrwt>
<pdfrwt beam="2">  1       -1 0.90458415E-01 0.15200022E+04</pdfrwt>
<totfact> 0.34007713E+01</totfact>
</mgrwt>
</event>
<event>
12    7  0.1707730E-007  0.1186945E+04  0.7818608E-02  0.9124361E-01
         -1   -1    0    0    0  501 -0.00000000000E+00  0.00000000000E+00  0.43911489479E+03  0.43911489479E+03  0.00000000000E+00 0.  1.
          2   -1    0    0  501    0  0.00000000000E+00 -0.00000000000E+00 -0.80208996729E+03  0.80208996729E+03  0.00000000000E+00 0. -1.
         24    2    1    2    0    0 -0.18426061343E+03 -0.68047537092E+02  0.61802998693E+02  0.22115100470E+03  0.80658014263E+02 0.  0.
        254    2    1    2    0    0  0.18426061343E+03  0.68047537092E+02 -0.42477807119E+03  0.10200538574E+04  0.90636141866E+03 0.  0.
         23    2    4    4    0    0  0.27017946303E+03  0.54541836681E+02  0.21884980350E+03  0.36416116736E+03  0.93522003456E+02 0.  0.
         23    2    4    4    0    0 -0.85918849595E+02  0.13505700411E+02 -0.64362787469E+03  0.65589269003E+03  0.91509163984E+02 0.  0.
          2    1    3    3  502    0 -0.57504566166E+02 -0.45386803423E+02 -0.96467694206E+01  0.73890440620E+02  0.00000000000E+00 0. -1.
         -1    1    3    3    0  502 -0.12675604726E+03 -0.22660733669E+02  0.71449768113E+02  0.14726056408E+03  0.00000000000E+00 0.  1.
         13    1    5    5    0    0  0.14453271865E+03  0.10208869821E+02  0.59982952395E+02  0.15681799119E+03  0.00000000000E+00 0. -1.
        -13    1    5    5    0    0  0.12564674437E+03  0.44332966860E+02  0.15886685110E+03  0.20734317616E+03  0.00000000000E+00 0.  1.
          1    1    6    6  503    0 -0.43591517273E+02  0.52210660619E+02 -0.38721902599E+03  0.39314723394E+03  0.00000000000E+00 0. -1.
         -1    1    6    6    0  503 -0.42327332321E+02 -0.38704960208E+02 -0.25640884870E+03  0.26274545609E+03  0.00000000000E+00 0.  1.
<mgrwt>
<rscale>  0 0.11869451E+04</rscale>
<asrwt>0</asrwt>
<pdfrwt beam="1">  1        2 0.12339846E+00 0.11869451E+04</pdfrwt>
<pdfrwt beam="2">  1       -1 0.67556138E-01 0.11869451E+04</pdfrwt>
<totfact> 0.85898505E+01</totfact>
</mgrwt>
</event>
<event>
12    7  0.1707730E-007  0.1553613E+04  0.7818608E-02  0.8849563E-01
         -1   -1    0    0    0  501 -0.00000000000E+00  0.00000000000E+00  0.44550188388E+03  0.44550188388E+03  0.00000000000E+00 0.  1.
          2   -1    0    0  501    0  0.00000000000E+00 -0.00000000000E+00 -0.13544917334E+04  0.13544917334E+04  0.00000000000E+00 0. -1.
         24    2    1    2    0    0 -0.22259572200E+03 -0.46256845640E+02 -0.83674466582E+03  0.87059952433E+03  0.78187881127E+02 0.  0.
        254    2    1    2    0    0  0.22259572200E+03  0.46256845640E+02 -0.72245183683E+02  0.92939409294E+03  0.89825690212E+03 0.  0.
         23    2    4    4    0    0  0.42199091881E+03 -0.29296769915E+03 -0.24219994558E+02  0.52254549891E+03  0.92524494008E+02 0.  0.
         23    2    4    4    0    0 -0.19939519681E+03  0.33922454479E+03 -0.48025189125E+02  0.40684859403E+03  0.91583968998E+02 0.  0.
          4    1    3    3  502    0 -0.15011362288E+03 -0.42923367010E+02 -0.68264631273E+03  0.70027316348E+03  0.00000000000E+00 0. -1.
         -3    1    3    3    0  502 -0.72482099123E+02 -0.33334786294E+01 -0.15409835309E+03  0.17032636084E+03  0.00000000000E+00 0.  1.
         13    1    5    5    0    0  0.20125442804E+02  0.13957579857E+01  0.11327678315E+02  0.23136505450E+02  0.00000000000E+00 0. -1.
        -13    1    5    5    0    0  0.40186547601E+03 -0.29436345713E+03 -0.35547672873E+02  0.49940899346E+03  0.00000000000E+00 0.  1.
          2    1    6    6  503    0 -0.20980616974E+02  0.38633186121E+00 -0.70620692411E+00  0.20996053657E+02  0.00000000000E+00 0. -1.
         -2    1    6    6    0  503 -0.17841457984E+03  0.33883821292E+03 -0.47318982201E+02  0.38585254037E+03  0.00000000000E+00 0.  1.
<mgrwt>
<rscale>  0 0.15536134E+04</rscale>
<asrwt>0</asrwt>
<pdfrwt beam="1">  1        2 0.20838334E+00 0.15536134E+04</pdfrwt>
<pdfrwt beam="2">  1       -1 0.68538752E-01 0.15536134E+04</pdfrwt>
<totfact> 0.36322609E+01</totfact>
</mgrwt>
</event>
<event>
12    7  0.1707730E-007  0.1533749E+04  0.7818608E-02  0.8862315E-01
          2   -1    0    0  501    0  0.00000000000E+00  0.00000000000E+00  0.63609989839E+03  0.63609989839E+03  0.00000000000E+00 0. -1.
         -1   -1    0    0    0  501 -0.00000000000E+00 -0.00000000000E+00 -0.92453442635E+03  0.92453442635E+03  0.00000000000E+00 0.  1.
         24    2    1    2    0    0 -0.28474817561E+03 -0.36591114134E+03  0.10343701681E+03  0.48191437977E+03  0.81054093738E+02 0.  0.
        254    2    1    2    0    0  0.28474817561E+03  0.36591114134E+03 -0.39187154478E+03  0.10787199450E+04  0.89168431925E+03 0.  0.
         23    2    4    4    0    0  0.43027852196E+03  0.36863639404E+03  0.77219496180E+02  0.57902561679E+03  0.90969318090E+02 0.  0.
         23    2    4    4    0    0 -0.14553034635E+03 -0.27252526997E+01 -0.46909104096E+03  0.49969432818E+03  0.91986456598E+02 0.  0.
          4    1    3    3  502    0  0.26896844184E+00 -0.27694715338E+01 -0.67591278376E+01  0.73094545435E+01  0.00000000000E+00 0. -1.
         -3    1    3    3    0  502 -0.28501714405E+03 -0.36314166981E+03  0.11019614465E+03  0.47460492523E+03  0.00000000000E+00 0.  1.
         13    1    5    5    0    0  0.89769407841E+02  0.98205224493E+02  0.53940752064E+02  0.14357025261E+03  0.00000000000E+00 0. -1.
        -13    1    5    5    0    0  0.34050911412E+03  0.27043116955E+03  0.23278744116E+02  0.43545536417E+03  0.00000000000E+00 0.  1.
          2    1    6    6  503    0 -0.14362387080E+02  0.28557792220E+02 -0.14843689936E+03  0.15183984573E+03  0.00000000000E+00 0. -1.
         -2    1    6    6    0  503 -0.13116795927E+03 -0.31283044920E+02 -0.32065414160E+03  0.34785448246E+03  0.00000000000E+00 0.  1.
<mgrwt>
<rscale>  0 0.15337487E+04</rscale>
<asrwt>0</asrwt>
<pdfrwt beam="1">  1        2 0.97861523E-01 0.15337487E+04</pdfrwt>
<pdfrwt beam="2">  1       -1 0.14223607E+00 0.15337487E+04</pdfrwt>
<totfact> 0.20445616E+01</totfact>
</mgrwt>
</event>
<event>
12    7  0.1707730E-007  0.1421519E+04  0.7818608E-02  0.8938388E-01
         -1   -1    0    0    0  501 -0.00000000000E+00  0.00000000000E+00  0.15980600583E+04  0.15980600583E+04  0.00000000000E+00 0.  1.
          2   -1    0    0  501    0  0.00000000000E+00 -0.00000000000E+00 -0.31611999137E+03  0.31611999137E+03  0.00000000000E+00 0. -1.
         24    2    1    2    0    0 -0.30026737791E+03 -0.11503265369E+03  0.33570367881E+02  0.33295761378E+03  0.79629098488E+02 0.  0.
        254    2    1    2    0    0  0.30026737791E+03  0.11503265369E+03  0.12483696991E+04  0.15812224359E+04  0.91566613820E+03 0.  0.
         23    2    4    4    0    0  0.43121650771E+03  0.25942368202E+03  0.12654786912E+04  0.13647152616E+04  0.88108478823E+02 0.  0.
         23    2    4    4    0    0 -0.13094912980E+03 -0.14439102832E+03 -0.17108992174E+02  0.21650717428E+03  0.92661724815E+02 0.  0.
          2    1    3    3  502    0 -0.30263102719E+03 -0.10455894354E+03  0.29760501643E+02  0.32156461054E+03  0.00000000000E+00 0. -1.
         -1    1    3    3    0  502  0.23636492796E+01 -0.10473710153E+02  0.38098662379E+01  0.11393003249E+02  0.00000000000E+00 0.  1.
         13    1    5    5    0    0  0.16968578542E+03  0.58628308988E+02  0.39508428009E+03  0.43396098069E+03  0.00000000000E+00 0. -1.
        -13    1    5    5    0    0  0.26153072229E+03  0.20079537303E+03  0.87039441116E+03  0.93075428095E+03  0.00000000000E+00 0.  1.
          1    1    6    6  503    0  0.94158132353E+01 -0.30971369278E+02 -0.15845884684E+02  0.36041300133E+02  0.00000000000E+00 0. -1.
         -1    1    6    6    0  503 -0.14036494303E+03 -0.11341965905E+03 -0.12631074899E+01  0.18046587415E+03  0.00000000000E+00 0.  1.
<mgrwt>
<rscale>  0 0.14215185E+04</rscale>
<asrwt>0</asrwt>
<pdfrwt beam="1">  1        2 0.48633846E-01 0.14215185E+04</pdfrwt>
<pdfrwt beam="2">  1       -1 0.24585539E+00 0.14215185E+04</pdfrwt>
<totfact> 0.85587749E+00</totfact>
</mgrwt>
</event>
<event>
12    7  0.1707730E-007  0.1651960E+04  0.7818608E-02  0.8789248E-01
          2   -1    0    0  501    0  0.00000000000E+00  0.00000000000E+00  0.20942673898E+04  0.20942673898E+04  0.00000000000E+00 0. -1.
         -1   -1    0    0    0  501 -0.00000000000E+00 -0.00000000000E+00 -0.32576691655E+03  0.32576691655E+03  0.00000000000E+00 0.  1.
         24    2    1    2    0    0  0.14289918301E+02 -0.38113918138E+03  0.11824351829E+04  0.12437150628E+04  0.56594331300E+02 0.  0.
        254    2    1    2    0    0 -0.14289918301E+02  0.38113918138E+03  0.58606529038E+03  0.11763192436E+04  0.94592978643E+03 0.  0.
         23    2    4    4    0    0  0.21791174636E+02  0.37042925949E+03  0.83047688076E+03  0.91373666473E+03  0.86776445036E+02 0.  0.
         23    2    4    4    0    0 -0.36081092937E+02  0.10709921889E+02 -0.24441159039E+03  0.26258257883E+03  0.88295172554E+02 0.  0.
          2    1    3    3  502    0 -0.67986331251E+01 -0.23292467728E+03  0.64431425537E+03  0.68515763615E+03  0.00000000000E+00 0. -1.
         -1    1    3    3    0  502  0.21088551426E+02 -0.14821450410E+03  0.53812092749E+03  0.55855742661E+03  0.00000000000E+00 0.  1.
         13    1    5    5    0    0 -0.25775167994E+02  0.10343676431E+03  0.18344881182E+03  0.21217207652E+03  0.00000000000E+00 0. -1.
        -13    1    5    5    0    0  0.47566342630E+02  0.26699249518E+03  0.64702806894E+03  0.70156458821E+03  0.00000000000E+00 0.  1.
          3    1    6    6  503    0 -0.93572546838E+01 -0.14128120520E+02 -0.21514280821E+03  0.21580915164E+03  0.00000000000E+00 0. -1.
         -3    1    6    6    0  503 -0.26723838253E+02  0.24838042409E+02 -0.29268782177E+02  0.46773427197E+02  0.00000000000E+00 0.  1.
<mgrwt>
<rscale>  0 0.16519601E+04</rscale>
<asrwt>0</asrwt>
<pdfrwt beam="1">  1        2 0.32219498E+00 0.16519601E+04</pdfrwt>
<pdfrwt beam="2">  1       -1 0.50117988E-01 0.16519601E+04</pdfrwt>
<totfact> 0.25739206E+01</totfact>
</mgrwt>
</event>
<event>
12    7  0.1707730E-007  0.1867190E+04  0.7818608E-02  0.8671362E-01
         -1   -1    0    0    0  501 -0.00000000000E+00  0.00000000000E+00  0.51489582124E+03  0.51489582124E+03  0.00000000000E+00 0.  1.
          2   -1    0    0  501    0  0.00000000000E+00 -0.00000000000E+00 -0.16927696152E+04  0.16927696152E+04  0.00000000000E+00 0. -1.
         24    2    1    2    0    0 -0.64966480787E+03  0.23469840034E+03 -0.19606802338E+03  0.72248565335E+03  0.79969668006E+02 0.  0.
        254    2    1    2    0    0  0.64966480787E+03 -0.23469840034E+03 -0.98180577056E+03  0.14851797831E+04  0.87445338082E+03 0.  0.
         23    2    4    4    0    0  0.27227765094E+03  0.29544523475E+03 -0.18506106757E+03  0.45202648875E+03  0.93044837884E+02 0.  0.
         23    2    4    4    0    0  0.37738715693E+03 -0.53014363510E+03 -0.79674470299E+03  0.10331532943E+04  0.95552434701E+02 0.  0.
          2    1    3    3  502    0 -0.95780291047E+02  0.65402653204E+02 -0.26087941048E+02  0.11887788637E+03  0.00000000000E+00 0. -1.
         -1    1    3    3    0  502 -0.55388451682E+03  0.16929574714E+03 -0.16998008233E+03  0.60360776698E+03  0.00000000000E+00 0.  1.
         13    1    5    5    0    0  0.21156024844E+03  0.16673392946E+03 -0.13376054940E+03  0.30074877644E+03  0.00000000000E+00 0. -1.
        -13    1    5    5    0    0  0.60717402504E+02  0.12871130529E+03 -0.51300518171E+02  0.15127771231E+03  0.00000000000E+00 0.  1.
          1    1    6    6  503    0  0.19638524017E+03 -0.23294779929E+03 -0.30849239151E+03  0.43358897054E+03  0.00000000000E+00 0.  1.
         -1    1    6    6    0  503  0.18100191675E+03 -0.29719583580E+03 -0.48825231147E+03  0.59956432378E+03  0.00000000000E+00 0. -1.
<mgrwt>
<rscale>  0 0.18671904E+04</rscale>
<asrwt>0</asrwt>
<pdfrwt beam="1">  1        2 0.26042609E+00 0.18671904E+04</pdfrwt>
<pdfrwt beam="2">  1       -1 0.79214742E-01 0.18671904E+04</pdfrwt>
<totfact> 0.16864865E+01</totfact>
</mgrwt>
</event>
<event>
12    7  0.1707730E-007  0.1882963E+04  0.7818608E-02  0.8663384E-01
         -1   -1    0    0    0  501 -0.00000000000E+00  0.00000000000E+00  0.14955062238E+04  0.14955062238E+04  0.00000000000E+00 0.  1.
          2   -1    0    0  501    0  0.00000000000E+00 -0.00000000000E+00 -0.59270057321E+03  0.59270057321E+03  0.00000000000E+00 0. -1.
         24    2    1    2    0    0  0.44566040575E+03  0.39432212344E+03  0.79291627491E+03  0.99452264472E+03  0.79094484940E+02 0.  0.
        254    2    1    2    0    0 -0.44566040575E+03 -0.39432212344E+03  0.10988937568E+03  0.10936841523E+04  0.91102481625E+03 0.  0.
         23    2    4    4    0    0 -0.47907580648E+02  0.18156035716E+03  0.29783081001E+03  0.36353100981E+03  0.90511348070E+02 0.  0.
         23    2    4    4    0    0 -0.39775282510E+03 -0.57588248061E+03 -0.18794143432E+03  0.73015314249E+03  0.89183448096E+02 0.  0.
          4    1    3    3  502    0  0.50690608329E+02  0.80940782689E+02  0.14315380814E+03  0.17208707348E+03  0.00000000000E+00 0. -1.
         -3    1    3    3    0  502  0.39496979742E+03  0.31338134075E+03  0.64976246678E+03  0.82243557124E+03  0.00000000000E+00 0.  1.
         13    1    5    5    0    0  0.20765641933E+02  0.10748579427E+02  0.23489636784E+02  0.33143730641E+02  0.00000000000E+00 0. -1.
        -13    1    5    5    0    0 -0.68673222581E+02  0.17081177774E+03  0.27434117322E+03  0.33038727917E+03  0.00000000000E+00 0.  1.
          3    1    6    6  503    0 -0.36970387297E+03 -0.48424090700E+03 -0.15311392515E+03  0.62818316101E+03  0.00000000000E+00 0. -1.
         -3    1    6    6    0  503 -0.28048952132E+02 -0.91641573610E+02 -0.34827509176E+02  0.10196998149E+03  0.00000000000E+00 0.  1.
<mgrwt>
<rscale>  0 0.18829630E+04</rscale>
<asrwt>0</asrwt>
<pdfrwt beam="1">  1        2 0.91184704E-01 0.18829630E+04</pdfrwt>
<pdfrwt beam="2">  1       -1 0.23007788E+00 0.18829630E+04</pdfrwt>
<totfact> 0.50829163E+00</totfact>
</mgrwt>
</event>
<event>
12    7  0.1707730E-007  0.1112105E+04  0.7818608E-02  0.9193473E-01
          2   -1    0    0  501    0  0.00000000000E+00  0.00000000000E+00  0.40521500669E+03  0.40521500669E+03  0.00000000000E+00 0. -1.
         -1   -1    0    0    0  501 -0.00000000000E+00 -0.00000000000E+00 -0.76303757387E+03  0.76303757387E+03  0.00000000000E+00 0.  1.
         24    2    1    2    0    0 -0.13509727324E+03 -0.10016103093E+03  0.59631120433E+01  0.18611765573E+03  0.79502941561E+02 0.  0.
        254    2    1    2    0    0  0.13509727324E+03  0.10016103093E+03 -0.36378567922E+03  0.98213492483E+03  0.89664122413E+03 0.  0.
         23    2    4    4    0    0 -0.14563728118E+03  0.34120305951E+03  0.87437995964E+02  0.39159308387E+03  0.89833149260E+02 0.  0.
         23    2    4    4    0    0  0.28073455441E+03 -0.24104202858E+03 -0.45122367518E+03  0.59054184096E+03  0.90684680624E+02 0.  0.
          2    1    3    3  502    0 -0.12603398100E+03 -0.11169062863E+03  0.14707058255E+02  0.16904336264E+03  0.00000000000E+00 0. -1.
         -1    1    3    3    0  502 -0.90632922323E+01  0.11529597697E+02 -0.87439462114E+01  0.17074293089E+02  0.00000000000E+00 0.  1.
         13    1    5    5    0    0 -0.10168039004E+03  0.12563191689E+03  0.40878175580E+02  0.16671324332E+03  0.00000000000E+00 0. -1.
        -13    1    5    5    0    0 -0.43956891136E+02  0.21557114262E+03  0.46559820384E+02  0.22487984054E+03  0.00000000000E+00 0.  1.
          1    1    6    6  503    0  0.17291439896E+02  0.71258564247E+01 -0.17112276853E+02  0.25349590579E+02  0.00000000000E+00 0. -1.
         -1    1    6    6    0  503  0.26344311452E+03 -0.24816788501E+03 -0.43411139833E+03  0.56519225038E+03  0.00000000000E+00 0.  1.
<mgrwt>
<rscale>  0 0.11121048E+04</rscale>
<asrwt>0</asrwt>
<pdfrwt beam="1">  1        2 0.62340771E-01 0.11121048E+04</pdfrwt>
<pdfrwt beam="2">  1       -1 0.11739040E+00 0.11121048E+04</pdfrwt>
<totfact> 0.58149375E+01</totfact>
</mgrwt>
</event>
<event>
12    7  0.1707730E-007  0.1395370E+04  0.7818608E-02  0.8957176E-01
         -1   -1    0    0    0  501 -0.00000000000E+00  0.00000000000E+00  0.11988842034E+04  0.11988842034E+04  0.00000000000E+00 0.  1.
          2   -1    0    0  501    0  0.00000000000E+00 -0.00000000000E+00 -0.40601476157E+03  0.40601476157E+03  0.00000000000E+00 0. -1.
         24    2    1    2    0    0  0.20395407596E+01  0.62825070402E+02 -0.23195869100E+03  0.25361582020E+03  0.81024692096E+02 0.  0.
        254    2    1    2    0    0 -0.20395407596E+01 -0.62825070402E+02  0.10248281329E+04  0.13512831448E+04  0.87848863756E+03 0.  0.
         23    2    4    4    0    0  0.35883284361E+03  0.19645050294E+03  0.40417734156E+03  0.58248070630E+03  0.92577751233E+02 0.  0.
         23    2    4    4    0    0 -0.36087238437E+03 -0.25927557335E+03  0.62065079132E+03  0.76880243851E+03  0.91635604269E+02 0.  0.
          4    1    3    3  502    0  0.38765602161E+02  0.50462337482E+02 -0.13712561087E+03  0.15117093825E+03  0.00000000000E+00 0. -1.
         -1    1    3    3    0  502 -0.36726061401E+02  0.12362732920E+02 -0.94833080132E+02  0.10244488195E+03  0.00000000000E+00 0.  1.
         13    1    5    5    0    0  0.12802702647E+03  0.12172293173E+03  0.17865391094E+03  0.25124611740E+03  0.00000000000E+00 0.  1.
        -13    1    5    5    0    0  0.23080581714E+03  0.74727571217E+02  0.22552343062E+03  0.33123458890E+03  0.00000000000E+00 0. -1.
          3    1    6    6  503    0 -0.10800390399E+03 -0.38243122004E+02  0.20033617515E+03  0.23078553406E+03  0.00000000000E+00 0. -1.
         -3    1    6    6    0  503 -0.25286848038E+03 -0.22103245134E+03  0.42031461617E+03  0.53801690445E+03  0.00000000000E+00 0.  1.
<mgrwt>
<rscale>  0 0.13953705E+04</rscale>
<asrwt>0</asrwt>
<pdfrwt beam="1">  1        2 0.62463810E-01 0.13953705E+04</pdfrwt>
<pdfrwt beam="2">  1       -1 0.18444372E+00 0.13953705E+04</pdfrwt>
<totfact> 0.16846037E+01</totfact>
</mgrwt>
</event>
<event>
12    7  0.1707730E-007  0.1112332E+04  0.7818608E-02  0.9193255E-01
         -1   -1    0    0    0  501 -0.00000000000E+00  0.00000000000E+00  0.25398237522E+03  0.25398237522E+03  0.00000000000E+00 0.  1.
          2   -1    0    0  501    0  0.00000000000E+00 -0.00000000000E+00 -0.12178823066E+04  0.12178823066E+04  0.00000000000E+00 0. -1.
         24    2    1    2    0    0 -0.16250501239E+03 -0.22113405254E+02 -0.79983906302E+02  0.20019299634E+03  0.82358537938E+02 0.  0.
        254    2    1    2    0    0  0.16250501239E+03  0.22113405254E+02 -0.88391602505E+03  0.12716716855E+04  0.89941339467E+03 0.  0.
         23    2    4    4    0    0  0.31512505467E+03 -0.99936382566E+01  0.40155485342E+02  0.33016971738E+03  0.89419832139E+02 0.  0.
         23    2    4    4    0    0 -0.15262004228E+03  0.32107043510E+02 -0.92407151039E+03  0.94150196809E+03  0.90521047492E+02 0.  0.
          2    1    3    3  502    0 -0.13322455314E+03 -0.96980960153E+01 -0.96085359143E+02  0.16454552825E+03  0.00000000000E+00 0. -1.
         -1    1    3    3    0  502 -0.29280459256E+02 -0.12415309239E+02  0.16101452841E+02  0.35647468091E+02  0.00000000000E+00 0.  1.
         13    1    5    5    0    0  0.22733740722E+02  0.24174193558E+02  0.71321442606E+01  0.33942334674E+02  0.00000000000E+00 0.  1.
        -13    1    5    5    0    0  0.29239131395E+03 -0.34167831815E+02  0.33023341082E+02  0.29622738270E+03  0.00000000000E+00 0. -1.
          1    1    6    6  503    0 -0.12998071056E+03  0.26110615214E+02 -0.89194983600E+03  0.90174900016E+03  0.00000000000E+00 0. -1.
         -1    1    6    6    0  503 -0.22639331725E+02  0.59964282960E+01 -0.32121674391E+02  0.39752967926E+02  0.00000000000E+00 0.  1.
<mgrwt>
<rscale>  0 0.11123320E+04</rscale>
<asrwt>0</asrwt>
<pdfrwt beam="1">  1        2 0.18736650E+00 0.11123320E+04</pdfrwt>
<pdfrwt beam="2">  1       -1 0.39074212E-01 0.11123320E+04</pdfrwt>
<totfact> 0.13276222E+02</totfact>
</mgrwt>
</event>
<event>
12    7  0.1707730E-007  0.1263080E+04  0.7818608E-02  0.9059366E-01
         -1   -1    0    0    0  501 -0.00000000000E+00  0.00000000000E+00  0.55536532010E+03  0.55536532010E+03  0.00000000000E+00 0.  1.
          2   -1    0    0  501    0  0.00000000000E+00 -0.00000000000E+00 -0.71816325391E+03  0.71816325391E+03  0.00000000000E+00 0. -1.
         24    2    1    2    0    0  0.25458334475E+03  0.16431690610E+03 -0.10477392687E+03  0.33009032732E+03  0.78545040475E+02 0.  0.
        254    2    1    2    0    0 -0.25458334475E+03 -0.16431690610E+03 -0.58024006936E+02  0.94343824670E+03  0.89156952331E+03 0.  0.
         23    2    4    4    0    0  0.13824309584E+03 -0.38539672543E+03  0.14048710164E+03  0.44251344365E+03  0.91868017136E+02 0.  0.
         23    2    4    4    0    0 -0.39282644059E+03  0.22107981933E+03 -0.19851110858E+03  0.50092480304E+03  0.91269376773E+02 0.  0.
          2    1    3    3  502    0  0.17742406303E+03  0.10366162804E+03 -0.10749727390E+03  0.23190665184E+03  0.00000000000E+00 0. -1.
         -1    1    3    3    0  502  0.77159281716E+02  0.60655278056E+02  0.27233470328E+01  0.98183675476E+02  0.00000000000E+00 0.  1.
         13    1    5    5    0    0  0.75926821161E+02 -0.23182669054E+03  0.35979833992E+02  0.24658273474E+03  0.00000000000E+00 0.  1.
        -13    1    5    5    0    0  0.62316274674E+02 -0.15357003489E+03  0.10450726765E+03  0.19593070892E+03  0.00000000000E+00 0. -1.
          2    1    6    6  503    0 -0.21011144305E+03  0.10853639318E+03 -0.15267423997E+03  0.28148959251E+03  0.00000000000E+00 0. -1.
         -2    1    6    6    0  503 -0.18271499754E+03  0.11254342615E+03 -0.45836868604E+02  0.21943521053E+03  0.00000000000E+00 0.  1.
<mgrwt>
<rscale>  0 0.12630803E+04</rscale>
<asrwt>0</asrwt>
<pdfrwt beam="1">  1        2 0.11048665E+00 0.12630803E+04</pdfrwt>
<pdfrwt beam="2">  1       -1 0.85440819E-01 0.12630803E+04</pdfrwt>
<totfact> 0.60281970E+01</totfact>
</mgrwt>
</event>
<event>
12    7  0.1707730E-007  0.1258389E+04  0.7818608E-02  0.9063230E-01
         -1   -1    0    0    0  501 -0.00000000000E+00  0.00000000000E+00  0.11371363288E+04  0.11371363288E+04  0.00000000000E+00 0.  1.
          2   -1    0    0  501    0  0.00000000000E+00 -0.00000000000E+00 -0.34814292492E+03  0.34814292492E+03  0.00000000000E+00 0. -1.
         24    2    1    2    0    0 -0.27444259598E+03  0.10111526095E+03  0.28084375748E+03  0.41326213658E+03  0.79808163329E+02 0.  0.
        254    2    1    2    0    0  0.27444259598E+03 -0.10111526095E+03  0.50814964641E+03  0.10720171171E+04  0.89747512602E+03 0.  0.
         23    2    4    4    0    0  0.14332396893E+03  0.34079746310E+03  0.46385980065E+03  0.59977945747E+03  0.88796464019E+02 0.  0.
         23    2    4    4    0    0  0.13111862705E+03 -0.44191272405E+03  0.44289845767E+02  0.47223765968E+03  0.92562771921E+02 0.  0.
          4    1    3    3  502    0 -0.20333363903E+03  0.63064333194E+02  0.15322947631E+03  0.26229935435E+03  0.00000000000E+00 0. -1.
         -3    1    3    3    0  502 -0.71108956951E+02  0.38050927760E+02  0.12761428117E+03  0.15096278224E+03  0.00000000000E+00 0.  1.
         13    1    5    5    0    0  0.61543704050E+02  0.17809840278E+03  0.30297497435E+03  0.35679196131E+03  0.00000000000E+00 0.  1.
        -13    1    5    5    0    0  0.81780264877E+02  0.16269906032E+03  0.16088482630E+03  0.24298749615E+03  0.00000000000E+00 0. -1.
          3    1    6    6  503    0  0.11273233422E+03 -0.24025075606E+03  0.48074731960E+02  0.26970388358E+03  0.00000000000E+00 0. -1.
         -3    1    6    6    0  503  0.18386292833E+02 -0.20166196799E+03 -0.37848861932E+01  0.20253377610E+03  0.00000000000E+00 0.  1.
<mgrwt>
<rscale>  0 0.12583894E+04</rscale>
<asrwt>0</asrwt>
<pdfrwt beam="1">  1        2 0.53560451E-01 0.12583894E+04</pdfrwt>
<pdfrwt beam="2">  1       -1 0.17494405E+00 0.12583894E+04</pdfrwt>
<totfact> 0.23687172E+01</totfact>
</mgrwt>
</event>
<event>
12    7  0.1707730E-007  0.1921152E+04  0.7818608E-02  0.8644399E-01
         -1   -1    0    0    0  501 -0.00000000000E+00  0.00000000000E+00  0.64087275210E+03  0.64087275210E+03  0.00000000000E+00 0.  1.
          2   -1    0    0  501    0  0.00000000000E+00 -0.00000000000E+00 -0.14397645420E+04  0.14397645420E+04  0.00000000000E+00 0. -1.
         24    2    1    2    0    0  0.26537896229E+03 -0.43282572177E+03 -0.89499929521E+03  0.10323555450E+04  0.83487326798E+02 0.  0.
        254    2    1    2    0    0 -0.26537896229E+03  0.43282572177E+03  0.96107505335E+02  0.10482817491E+04  0.91208216400E+03 0.  0.
         23    2    4    4    0    0 -0.19330912828E+03 -0.19067893886E+03  0.26798930118E+03  0.39107481606E+03  0.85990519270E+02 0.  0.
         23    2    4    4    0    0 -0.72069834007E+02  0.62350466063E+03 -0.17188179585E+03  0.65720693306E+03  0.91790404234E+02 0.  0.
          4    1    3    3  502    0  0.26272017259E+03 -0.42296531041E+03 -0.84055537332E+03  0.97696206605E+03  0.00000000000E+00 0. -1.
         -3    1    3    3    0  502  0.26587897029E+01 -0.98604113672E+01 -0.54443921885E+02  0.55393478905E+02  0.00000000000E+00 0.  1.
         13    1    5    5    0    0 -0.10156523784E+03 -0.49788547615E+02  0.78124246654E+02  0.13746925084E+03  0.00000000000E+00 0.  1.
        -13    1    5    5    0    0 -0.91743890442E+02 -0.14089039124E+03  0.18986505453E+03  0.25360556522E+03  0.00000000000E+00 0. -1.
          3    1    6    6  503    0 -0.76604854982E+02  0.27540996670E+03 -0.66759388859E+02  0.29355709763E+03  0.00000000000E+00 0. -1.
         -3    1    6    6    0  503  0.45350209747E+01  0.34809469393E+03 -0.10512240699E+03  0.36364983543E+03  0.00000000000E+00 0.  1.
<mgrwt>
<rscale>  0 0.19211516E+04</rscale>
<asrwt>0</asrwt>
<pdfrwt beam="1">  1        2 0.22150224E+00 0.19211516E+04</pdfrwt>
<pdfrwt beam="2">  1       -1 0.98595808E-01 0.19211516E+04</pdfrwt>
<totfact> 0.14404402E+01</totfact>
</mgrwt>
</event>
<event>
12    7  0.1707730E-007  0.1778598E+04  0.7818608E-02  0.8717764E-01
          2   -1    0    0  501    0  0.00000000000E+00  0.00000000000E+00  0.13935009420E+04  0.13935009420E+04  0.00000000000E+00 0. -1.
         -1   -1    0    0    0  501 -0.00000000000E+00 -0.00000000000E+00 -0.56752961169E+03  0.56752961169E+03  0.00000000000E+00 0.  1.
         24    2    1    2    0    0 -0.72146333706E+02  0.37311900214E+03 -0.28850494914E+03  0.48344364972E+03  0.77844547343E+02 0.  0.
        254    2    1    2    0    0  0.72146333706E+02 -0.37311900214E+03  0.11144762795E+04  0.14775869040E+04  0.89262690869E+03 0.  0.
         23    2    4    4    0    0  0.20932878502E+03 -0.12454589821E+03  0.11487816371E+04  0.11776126527E+04  0.87989142883E+02 0.  0.
         23    2    4    4    0    0 -0.13718245132E+03 -0.24857310393E+03 -0.34305357572E+02  0.29997425126E+03  0.90554298152E+02 0.  0.
          2    1    3    3  502    0 -0.24901091322E+02  0.37042061561E+02 -0.57994987750E+02  0.73181946393E+02  0.00000000000E+00 0. -1.
         -1    1    3    3    0  502 -0.47245242384E+02  0.33607694058E+03 -0.23050996139E+03  0.41026170332E+03  0.00000000000E+00 0.  1.
         13    1    5    5    0    0  0.16347791988E+03 -0.49135597656E+02  0.76503841890E+03  0.78385146529E+03  0.00000000000E+00 0. -1.
        -13    1    5    5    0    0  0.45850865146E+02 -0.75410300554E+02  0.38374321815E+03  0.39376118745E+03  0.00000000000E+00 0.  1.
          3    1    6    6  503    0 -0.13860893521E+03 -0.25523743299E+03 -0.36690216256E+02  0.29275374649E+03  0.00000000000E+00 0. -1.
         -3    1    6    6    0  503  0.14264838937E+01  0.66643290581E+01  0.23848586845E+01  0.72205047634E+01  0.00000000000E+00 0.  1.
<mgrwt>
<rscale>  0 0.17785984E+04</rscale>
<asrwt>0</asrwt>
<pdfrwt beam="1">  1        2 0.21438476E+00 0.17785984E+04</pdfrwt>
<pdfrwt beam="2">  1       -1 0.87312249E-01 0.17785984E+04</pdfrwt>
<totfact> 0.20313617E+01</totfact>
</mgrwt>
</event>
<event>
12    7  0.1707730E-007  0.1714067E+04  0.7818608E-02  0.8753382E-01
          2   -1    0    0  501    0  0.00000000000E+00  0.00000000000E+00  0.21209762152E+04  0.21209762152E+04  0.00000000000E+00 0. -1.
         -1   -1    0    0    0  501 -0.00000000000E+00 -0.00000000000E+00 -0.34630593064E+03  0.34630593064E+03  0.00000000000E+00 0.  1.
         24    2    1    2    0    0 -0.54967996844E+03  0.14119155181E+03  0.29471125979E+03  0.64438007427E+03  0.79295847715E+02 0.  0.
        254    2    1    2    0    0  0.54967996844E+03 -0.14119155181E+03  0.14799590247E+04  0.18229020715E+04  0.90033889482E+03 0.  0.
         23    2    4    4    0    0  0.18030643794E+03 -0.26834057708E+03  0.53376395926E+02  0.34064780108E+03  0.93138648646E+02 0.  0.
         23    2    4    4    0    0  0.36937353050E+03  0.12714902526E+03  0.14265826288E+04  0.14822542704E+04  0.96623215745E+02 0.  0.
          4    1    3    3  502    0 -0.66237649272E+02 -0.28985031539E+01  0.53624201386E+02  0.85272401608E+02  0.00000000000E+00 0. -1.
         -3    1    3    3    0  502 -0.48344231917E+03  0.14409005497E+03  0.24108705840E+03  0.55910767266E+03  0.00000000000E+00 0.  1.
         13    1    5    5    0    0  0.69032729108E+02 -0.13374822050E+03  0.68486200417E+02  0.16536161532E+03  0.00000000000E+00 0.  1.
        -13    1    5    5    0    0  0.11127370883E+03 -0.13459235658E+03 -0.15109804491E+02  0.17528618576E+03  0.00000000000E+00 0. -1.
          2    1    6    6  503    0  0.36849196104E+03  0.12325097896E+03  0.13301863469E+04  0.13857751790E+04  0.00000000000E+00 0. -1.
         -2    1    6    6    0  503  0.88156946318E+00  0.38980463014E+01  0.96396281884E+02  0.96479091469E+02  0.00000000000E+00 0.  1.
<mgrwt>
<rscale>  0 0.17140673E+04</rscale>
<asrwt>0</asrwt>
<pdfrwt beam="1">  1        2 0.32630402E+00 0.17140673E+04</pdfrwt>
<pdfrwt beam="2">  1       -1 0.53277837E-01 0.17140673E+04</pdfrwt>
<totfact> 0.22006020E+01</totfact>
</mgrwt>
</event>
<event>
12    7  0.1707730E-007  0.1756181E+04  0.7818608E-02  0.8729955E-01
         -1   -1    0    0    0  501 -0.00000000000E+00  0.00000000000E+00  0.65795913514E+03  0.65795913514E+03  0.00000000000E+00 0.  1.
          2   -1    0    0  501    0  0.00000000000E+00 -0.00000000000E+00 -0.11718711667E+04  0.11718711667E+04  0.00000000000E+00 0. -1.
         24    2    1    2    0    0 -0.28369058810E+02  0.79321108112E+02  0.47354102222E+03  0.48759017220E+03  0.80040206226E+02 0.  0.
        254    2    1    2    0    0  0.28369058810E+02 -0.79321108112E+02 -0.98745305376E+03  0.13422401296E+04  0.90523388718E+03 0.  0.
         23    2    4    4    0    0 -0.30058468163E+03 -0.19607555180E+03 -0.89674551809E+03  0.97019572772E+03  0.91271315445E+02 0.  0.
         23    2    4    4    0    0  0.32895374044E+03  0.11675444369E+03 -0.90707535671E+02  0.37204440190E+03  0.91362007915E+02 0.  0.
          4    1    3    3  502    0  0.18195928892E+02  0.58821976216E+02  0.31905799426E+03  0.32494479595E+03  0.00000000000E+00 0. -1.
         -3    1    3    3    0  502 -0.46564987702E+02  0.20499131897E+02  0.15448302796E+03  0.16264537625E+03  0.00000000000E+00 0.  1.
         13    1    5    5    0    0 -0.19287686746E+03 -0.72517658815E+02 -0.51984673389E+03  0.55919667701E+03  0.00000000000E+00 0.  1.
        -13    1    5    5    0    0 -0.10770781417E+03 -0.12355789299E+03 -0.37689878420E+03  0.41099905071E+03  0.00000000000E+00 0. -1.
          1    1    6    6  503    0  0.35941209833E+02  0.37971231393E+02  0.81755349728E+01  0.52919035798E+02  0.00000000000E+00 0. -1.
         -1    1    6    6    0  503  0.29301253061E+03  0.78783212297E+02 -0.98883070644E+02  0.31912536611E+03  0.00000000000E+00 0.  1.
<mgrwt>
<rscale>  0 0.17561815E+04</rscale>
<asrwt>0</asrwt>
<pdfrwt beam="1">  1        2 0.18028787E+00 0.17561815E+04</pdfrwt>
<pdfrwt beam="2">  1       -1 0.10122448E+00 0.17561815E+04</pdfrwt>
<totfact> 0.19719867E+01</totfact>
</mgrwt>
</event>
<event>
12    7  0.1707730E-007  0.1582740E+04  0.7818608E-02  0.8831222E-01
          2   -1    0    0  501    0  0.00000000000E+00  0.00000000000E+00  0.19471911365E+04  0.19471911365E+04  0.00000000000E+00 0. -1.
         -1   -1    0    0    0  501 -0.00000000000E+00 -0.00000000000E+00 -0.32162551792E+03  0.32162551792E+03  0.00000000000E+00 0.  1.
         24    2    1    2    0    0  0.47376378601E+01 -0.44479835069E+02  0.13272777576E+04  0.13299335843E+04  0.71106905237E+02 0.  0.
        254    2    1    2    0    0 -0.47376378601E+01  0.44479835069E+02  0.29828786093E+03  0.93888307004E+03  0.88911465532E+03 0.  0.
         23    2    4    4    0    0 -0.36552886072E+03 -0.15535956641E+03 -0.22669798784E+02  0.40859632741E+03  0.93215321166E+02 0.  0.
         23    2    4    4    0    0  0.36079122286E+03  0.19983940148E+03  0.32095765971E+03  0.53028674264E+03  0.89911718969E+02 0.  0.
          2    1    3    3  502    0  0.19168043901E+02 -0.46520129658E+02  0.12639270772E+04  0.12649281374E+04  0.00000000000E+00 0. -1.
         -1    1    3    3    0  502 -0.14430406041E+02  0.20402945889E+01  0.63350680454E+02  0.65005446960E+02  0.00000000000E+00 0.  1.
         13    1    5    5    0    0 -0.92160663083E+02 -0.84072823153E+02 -0.18068030034E+02  0.12604872519E+03  0.00000000000E+00 0. -1.
        -13    1    5    5    0    0 -0.27336819764E+03 -0.71286743260E+02 -0.46017687504E+01  0.28254760222E+03  0.00000000000E+00 0.  1.
          2    1    6    6  503    0  0.57994115012E+01  0.24640641751E+02  0.11444165348E+02  0.27780628506E+02  0.00000000000E+00 0. -1.
         -2    1    6    6    0  503  0.35499181136E+03  0.17519875973E+03  0.30951349436E+03  0.50250611413E+03  0.00000000000E+00 0.  1.
<mgrwt>
<rscale>  0 0.15827398E+04</rscale>
<asrwt>0</asrwt>
<pdfrwt beam="1">  1        2 0.29956786E+00 0.15827398E+04</pdfrwt>
<pdfrwt beam="2">  1       -1 0.49480850E-01 0.15827398E+04</pdfrwt>
<totfact> 0.32018532E+01</totfact>
</mgrwt>
</event>
<event>
12    7  0.1707730E-007  0.1350113E+04  0.7818608E-02  0.8990742E-01
         -1   -1    0    0    0  501 -0.00000000000E+00  0.00000000000E+00  0.36890987131E+03  0.36890987131E+03  0.00000000000E+00 0.  1.
          2   -1    0    0  501    0  0.00000000000E+00 -0.00000000000E+00 -0.12352648551E+04  0.12352648551E+04  0.00000000000E+00 0. -1.
         24    2    1    2    0    0 -0.60321345050E+02 -0.30733589116E+03 -0.29139479960E+02  0.32456998644E+03  0.80015949309E+02 0.  0.
        254    2    1    2    0    0  0.60321345050E+02  0.30733589116E+03 -0.83721550380E+03  0.12796047399E+04  0.91562245277E+03 0.  0.
         23    2    4    4    0    0  0.31592200981E+03  0.38004984208E+03 -0.13104135482E+03  0.51936277966E+03  0.91220948698E+02 0.  0.
         23    2    4    4    0    0 -0.25560066476E+03 -0.72713950923E+02 -0.70617414898E+03  0.76024196028E+03  0.93096138476E+02 0.  0.
          4    1    3    3  502    0  0.95602372853E+01 -0.60231250385E+02 -0.29564778582E+02  0.67773724942E+02  0.00000000000E+00 0. -1.
         -3    1    3    3    0  502 -0.69881582335E+02 -0.24710464077E+03  0.42529862258E+00  0.25679626150E+03  0.00000000000E+00 0.  1.
         13    1    5    5    0    0  0.57617615679E+02  0.96028691984E+02  0.48926653702E+01  0.11209477015E+03  0.00000000000E+00 0. -1.
        -13    1    5    5    0    0  0.25830439413E+03  0.28402115010E+03 -0.13593402019E+03  0.40726800951E+03  0.00000000000E+00 0.  1.
          2    1    6    6  503    0 -0.10604402087E+03 -0.25052669135E+02 -0.41935652593E+03  0.43328150945E+03  0.00000000000E+00 0. -1.
         -2    1    6    6    0  503 -0.14955664389E+03 -0.47661281788E+02 -0.28681762305E+03  0.32696045083E+03  0.00000000000E+00 0.  1.
<mgrwt>
<rscale>  0 0.13501132E+04</rscale>
<asrwt>0</asrwt>
<pdfrwt beam="1">  1        2 0.19004075E+00 0.13501132E+04</pdfrwt>
<pdfrwt beam="2">  1       -1 0.56755364E-01 0.13501132E+04</pdfrwt>
<totfact> 0.63147266E+01</totfact>
</mgrwt>
</event>
<event>
12    7  0.1707730E-007  0.1685173E+04  0.7818608E-02  0.8769866E-01
         -1   -1    0    0    0  501 -0.00000000000E+00  0.00000000000E+00  0.45597118122E+03  0.45597118122E+03  0.00000000000E+00 0.  1.
          2   -1    0    0  501    0  0.00000000000E+00 -0.00000000000E+00 -0.15570109397E+04  0.15570109397E+04  0.00000000000E+00 0. -1.
         24    2    1    2    0    0  0.12323423826E+03 -0.56143825555E+03 -0.60030190281E+03  0.83509156223E+03  0.81338493404E+02 0.  0.
        254    2    1    2    0    0 -0.12323423826E+03  0.56143825555E+03 -0.50073785563E+03  0.11778905586E+04  0.89793550760E+03 0.  0.
         23    2    4    4    0    0 -0.24742554802E+03  0.65827178520E+03 -0.63451366664E+03  0.95159825284E+03  0.91599654211E+02 0.  0.
         23    2    4    4    0    0  0.12419130976E+03 -0.96833529651E+02  0.13377581101E+03  0.22629230580E+03  0.92260642577E+02 0.  0.
          4    1    3    3  502    0  0.13152577390E+03 -0.45700077064E+03 -0.50049570587E+03  0.69039458656E+03  0.00000000000E+00 0. -1.
         -3    1    3    3    0  502 -0.82915356366E+01 -0.10443748492E+03 -0.99806196938E+02  0.14469697566E+03  0.00000000000E+00 0.  1.
         13    1    5    5    0    0 -0.81668787212E+02  0.31474664400E+03 -0.25174224852E+03  0.41122913370E+03  0.00000000000E+00 0.  1.
        -13    1    5    5    0    0 -0.16575676081E+03  0.34352514120E+03 -0.38277141812E+03  0.54036911915E+03  0.00000000000E+00 0. -1.
          2    1    6    6  503    0  0.11944764161E+03 -0.43316792947E+02  0.10774171958E+03  0.16659040121E+03  0.00000000000E+00 0. -1.
         -2    1    6    6    0  503  0.47436681461E+01 -0.53516736704E+02  0.26034091435E+02  0.59701904591E+02  0.00000000000E+00 0.  1.
<mgrwt>
<rscale>  0 0.16851731E+04</rscale>
<asrwt>0</asrwt>
<pdfrwt beam="1">  1        2 0.23954014E+00 0.16851731E+04</pdfrwt>
<pdfrwt beam="2">  1       -1 0.70149413E-01 0.16851731E+04</pdfrwt>
<totfact> 0.26284660E+01</totfact>
</mgrwt>
</event>
<event>
12    7  0.1707730E-007  0.1497851E+04  0.7818608E-02  0.8885883E-01
         -1   -1    0    0    0  501 -0.00000000000E+00  0.00000000000E+00  0.27953017821E+03  0.27953017821E+03  0.00000000000E+00 0.  1.
          2   -1    0    0  501    0  0.00000000000E+00 -0.00000000000E+00 -0.20065437380E+04  0.20065437380E+04  0.00000000000E+00 0. -1.
         24    2    1    2    0    0 -0.13970540825E+03 -0.80441746897E+02 -0.12405472066E+04  0.12536454869E+04  0.81738359119E+02 0.  0.
        254    2    1    2    0    0  0.13970540825E+03  0.80441746897E+02 -0.48646635315E+03  0.10324284292E+04  0.89625357630E+03 0.  0.
         23    2    4    4    0    0  0.19783169051E+02  0.54293030309E+02  0.25405731090E+03  0.27633128092E+03  0.92058419892E+02 0.  0.
         23    2    4    4    0    0  0.11992223920E+03  0.26148716588E+02 -0.74052366405E+03  0.75609714833E+03  0.90788225375E+02 0.  0.
          2    1    3    3  502    0 -0.79321069923E+02 -0.54665576904E+02 -0.98865652783E+03  0.99333875765E+03  0.00000000000E+00 0. -1.
         -1    1    3    3    0  502 -0.60384338332E+02 -0.25776169993E+02 -0.25189067878E+03  0.26030672929E+03  0.00000000000E+00 0.  1.
         13    1    5    5    0    0 -0.28968084560E+02 -0.32848257141E+01  0.40982529973E+02  0.50294212053E+02  0.00000000000E+00 0. -1.
        -13    1    5    5    0    0  0.48751253612E+02  0.57577856023E+02  0.21307478093E+03  0.22603706886E+03  0.00000000000E+00 0.  1.
          1    1    6    6  503    0  0.58749633009E+02  0.47117111568E+02 -0.24337938042E+03  0.25476472361E+03  0.00000000000E+00 0. -1.
         -1    1    6    6    0  503  0.61172606195E+02 -0.20968394980E+02 -0.49714428363E+03  0.50133242472E+03  0.00000000000E+00 0.  1.
<mgrwt>
<rscale>  0 0.14978512E+04</rscale>
<asrwt>0</asrwt>
<pdfrwt beam="1">  1        2 0.30869903E+00 0.14978512E+04</pdfrwt>
<pdfrwt beam="2">  1       -1 0.43004644E-01 0.14978512E+04</pdfrwt>
<totfact> 0.38881213E+01</totfact>
</mgrwt>
</event>
<event>
12    7  0.1707730E-007  0.1488684E+04  0.7818608E-02  0.8892013E-01
         -1   -1    0    0    0  501 -0.00000000000E+00  0.00000000000E+00  0.36495181922E+03  0.36495181922E+03  0.00000000000E+00 0.  1.
          2   -1    0    0  501    0  0.00000000000E+00 -0.00000000000E+00 -0.15181324602E+04  0.15181324602E+04  0.00000000000E+00 0. -1.
         24    2    1    2    0    0  0.26798837428E+03 -0.38024147478E+03 -0.28648591056E+03  0.55192082994E+03  0.78365028423E+02 0.  0.
        254    2    1    2    0    0 -0.26798837428E+03  0.38024147478E+03 -0.86669473041E+03  0.13311634495E+04  0.89690301906E+03 0.  0.
         23    2    4    4    0    0 -0.54824552092E+03  0.43634062364E+03 -0.66256914693E+03  0.96849065681E+03  0.89498529663E+02 0.  0.
         23    2    4    4    0    0  0.28025714664E+03 -0.56099148864E+02 -0.20412558348E+03  0.36267279266E+03  0.90405298323E+02 0.  0.
          4    1    3    3  502    0  0.11024357140E+03 -0.14265336522E+03 -0.15553285863E+03  0.23810522413E+03  0.00000000000E+00 0. -1.
         -3    1    3    3    0  502  0.15774480289E+03 -0.23758810956E+03 -0.13095305193E+03  0.31381560581E+03  0.00000000000E+00 0.  1.
         13    1    5    5    0    0 -0.23222776072E+03  0.19419424005E+03 -0.22693860174E+03  0.37834146572E+03  0.00000000000E+00 0.  1.
        -13    1    5    5    0    0 -0.31601776020E+03  0.24214638359E+03 -0.43563054519E+03  0.59014919109E+03  0.00000000000E+00 0. -1.
          1    1    6    6  503    0  0.88168619459E+02 -0.37081358729E+02 -0.11636721980E+03  0.15063220926E+03  0.00000000000E+00 0.  1.
         -1    1    6    6    0  503  0.19208852718E+03 -0.19017790135E+02 -0.87758363675E+02  0.21204058340E+03  0.00000000000E+00 0. -1.
<mgrwt>
<rscale>  0 0.14886843E+04</rscale>
<asrwt>0</asrwt>
<pdfrwt beam="1">  1        2 0.23355884E+00 0.14886843E+04</pdfrwt>
<pdfrwt beam="2">  1       -1 0.56146433E-01 0.14886843E+04</pdfrwt>
<totfact> 0.43842194E+01</totfact>
</mgrwt>
</event>
<event>
12    7  0.1707730E-007  0.1726521E+04  0.7818608E-02  0.8746381E-01
          2   -1    0    0  501    0  0.00000000000E+00  0.00000000000E+00  0.15604180886E+04  0.15604180886E+04  0.00000000000E+00 0. -1.
         -1   -1    0    0    0  501 -0.00000000000E+00 -0.00000000000E+00 -0.47757620438E+03  0.47757620438E+03  0.00000000000E+00 0.  1.
         24    2    1    2    0    0  0.28572597551E+03 -0.37877243793E+03 -0.10164540956E+03  0.49186555935E+03  0.80573236068E+02 0.  0.
        254    2    1    2    0    0 -0.28572597551E+03  0.37877243793E+03  0.11844872938E+04  0.15461287336E+04  0.87315291847E+03 0.  0.
         23    2    4    4    0    0  0.27687666074E+03  0.22824516205E+03  0.27144905945E+03  0.45943322452E+03  0.92939532265E+02 0.  0.
         23    2    4    4    0    0 -0.56260263625E+03  0.15052727589E+03  0.91303823433E+03  0.10866955091E+04  0.89934004109E+02 0.  0.
          4    1    3    3  502    0  0.41416380533E+02 -0.11215991249E+03 -0.28767320746E+02  0.12297447413E+03  0.00000000000E+00 0. -1.
         -3    1    3    3    0  502  0.24430959498E+03 -0.26661252545E+03 -0.72878088812E+02  0.36889108521E+03  0.00000000000E+00 0.  1.
         13    1    5    5    0    0  0.12793055714E+03  0.48239561748E+02  0.10926682134E+03  0.17502148729E+03  0.00000000000E+00 0. -1.
        -13    1    5    5    0    0  0.14894610360E+03  0.18000560030E+03  0.16218223812E+03  0.28441173724E+03  0.00000000000E+00 0.  1.
          3    1    6    6  503    0 -0.12692617330E+03  0.69308537383E+02  0.19245239488E+03  0.24073190715E+03  0.00000000000E+00 0. -1.
         -3    1    6    6    0  503 -0.43567646294E+03  0.81218738502E+02  0.72058583945E+03  0.84596360197E+03  0.00000000000E+00 0.  1.
<mgrwt>
<rscale>  0 0.17265208E+04</rscale>
<asrwt>0</asrwt>
<pdfrwt beam="1">  1        2 0.24006432E+00 0.17265208E+04</pdfrwt>
<pdfrwt beam="2">  1       -1 0.73473263E-01 0.17265208E+04</pdfrwt>
<totfact> 0.23699527E+01</totfact>
</mgrwt>
</event>
<event>
12    7  0.1707730E-007  0.3111342E+04  0.7818608E-02  0.8212632E-01
          2   -1    0    0  501    0  0.00000000000E+00  0.00000000000E+00  0.20530520597E+04  0.20530520597E+04  0.00000000000E+00 0. -1.
         -1   -1    0    0    0  501 -0.00000000000E+00 -0.00000000000E+00 -0.11787876483E+04  0.11787876483E+04  0.00000000000E+00 0.  1.
         24    2    1    2    0    0  0.28569945359E+03  0.46742316468E+03 -0.96597539129E+03  0.11133552531E+04  0.79642139126E+02 0.  0.
        254    2    1    2    0    0 -0.28569945359E+03 -0.46742316468E+03  0.18402398027E+04  0.21184844549E+04  0.89520124070E+03 0.  0.
         23    2    4    4    0    0 -0.38302045241E+03 -0.51945050571E+03  0.18679366870E+04  0.19784349511E+04  0.92108057442E+02 0.  0.
         23    2    4    4    0    0  0.97320998820E+02  0.52027341030E+02 -0.27696884220E+02  0.14004950383E+03  0.81661037838E+02 0.  0.
          4    1    3    3  502    0  0.57449940479E+02  0.58361918240E+02 -0.19086911864E+03  0.20769600288E+03  0.00000000000E+00 0. -1.
         -3    1    3    3    0  502  0.22824951311E+03  0.40906124644E+03 -0.77510627265E+03  0.90565925020E+03  0.00000000000E+00 0.  1.
         13    1    5    5    0    0 -0.25837651273E+02 -0.88417386114E+02  0.25801312890E+03  0.27396348858E+03  0.00000000000E+00 0. -1.
        -13    1    5    5    0    0 -0.35718280114E+03 -0.43103311960E+03  0.16099235581E+04  0.17044714625E+04  0.00000000000E+00 0.  1.
          3    1    6    6  503    0 -0.94800950633E+01  0.19797956973E+02  0.72968895767E+01  0.23131707680E+02  0.00000000000E+00 0. -1.
         -3    1    6    6    0  503  0.10680109388E+03  0.32229384057E+02 -0.34993773796E+02  0.11691779615E+03  0.00000000000E+00 0.  1.
<mgrwt>
<rscale>  0 0.31113421E+04</rscale>
<asrwt>0</asrwt>
<pdfrwt beam="1">  1        2 0.31585416E+00 0.31113421E+04</pdfrwt>
<pdfrwt beam="2">  1       -1 0.18135195E+00 0.31113421E+04</pdfrwt>
<totfact> 0.12254482E+00</totfact>
</mgrwt>
</event>
<event>
12    7  0.1707730E-007  0.1776495E+04  0.7818608E-02  0.8718900E-01
          2   -1    0    0  501    0  0.00000000000E+00  0.00000000000E+00  0.14872949521E+04  0.14872949521E+04  0.00000000000E+00 0. -1.
         -1   -1    0    0    0  501 -0.00000000000E+00 -0.00000000000E+00 -0.53048202470E+03  0.53048202470E+03  0.00000000000E+00 0.  1.
         24    2    1    2    0    0  0.17905143249E+03 -0.28166457809E+03 -0.28564015221E+03  0.44662445894E+03  0.80552844374E+02 0.  0.
        254    2    1    2    0    0 -0.17905143249E+03  0.28166457809E+03  0.12424530797E+04  0.15711525179E+04  0.90190699596E+03 0.  0.
         23    2    4    4    0    0  0.16818386478E+03 -0.50382046240E+02 -0.36490519057E+02  0.20202998616E+03  0.93061239886E+02 0.  0.
         23    2    4    4    0    0 -0.34723529727E+03  0.33204662433E+03  0.12789435987E+04  0.13691225318E+04  0.89288665938E+02 0.  0.
          2    1    3    3  502    0  0.80127267055E+02 -0.16009315739E+03 -0.19845800545E+03  0.26727472364E+03  0.00000000000E+00 0. -1.
         -1    1    3    3    0  502  0.98924165431E+02 -0.12157142070E+03 -0.87182146769E+02  0.17934973530E+03  0.00000000000E+00 0.  1.
         13    1    5    5    0    0  0.11358088296E+03  0.88112190964E+01 -0.41738881996E+02  0.12132760950E+03  0.00000000000E+00 0.  1.
        -13    1    5    5    0    0  0.54602981823E+02 -0.59193265336E+02  0.52483629398E+01  0.80702376660E+02  0.00000000000E+00 0. -1.
          4    1    6    6  503    0 -0.12308357655E+03  0.11621587478E+03  0.33726452457E+03  0.37736329432E+03  0.00000000000E+00 0. -1.
         -4    1    6    6    0  503 -0.22415172072E+03  0.21583074955E+03  0.94167907414E+03  0.99175923743E+03  0.00000000000E+00 0.  1.
<mgrwt>
<rscale>  0 0.17764946E+04</rscale>
<asrwt>0</asrwt>
<pdfrwt beam="1">  1        2 0.22881461E+00 0.17764946E+04</pdfrwt>
<pdfrwt beam="2">  1       -1 0.81612620E-01 0.17764946E+04</pdfrwt>
<totfact> 0.20790582E+01</totfact>
</mgrwt>
</event>
<event>
12    7  0.1707730E-007  0.1414087E+04  0.7818608E-02  0.8943685E-01
          2   -1    0    0  501    0  0.00000000000E+00  0.00000000000E+00  0.15698721158E+04  0.15698721158E+04  0.00000000000E+00 0. -1.
         -1   -1    0    0    0  501 -0.00000000000E+00 -0.00000000000E+00 -0.31844007000E+03  0.31844007000E+03  0.00000000000E+00 0.  1.
         24    2    1    2    0    0 -0.45403941053E+02  0.33370727221E+03  0.59655304546E+02  0.35415795376E+03  0.91907776941E+02 0.  0.
        254    2    1    2    0    0  0.45403941053E+02 -0.33370727221E+03  0.11917767413E+04  0.15341542320E+04  0.90546968213E+03 0.  0.
         23    2    4    4    0    0  0.37326804402E+03  0.10874467814E+03  0.40005630966E+03  0.56523221544E+03  0.91038281849E+02 0.  0.
         23    2    4    4    0    0 -0.32786410297E+03 -0.44245195036E+03  0.79172043159E+03  0.96892201658E+03  0.93434651115E+02 0.  0.
          2    1    3    3  502    0 -0.34683032546E+02  0.17645851174E+03  0.76933756832E+02  0.19559990300E+03  0.00000000000E+00 0. -1.
         -1    1    3    3    0  502 -0.10720908507E+02  0.15724876047E+03 -0.17278452286E+02  0.15855805076E+03  0.00000000000E+00 0.  1.
         13    1    5    5    0    0  0.82238717039E+02  0.91555299423E+01  0.40724242188E+02  0.92225236300E+02  0.00000000000E+00 0. -1.
        -13    1    5    5    0    0  0.29102932698E+03  0.99589148201E+02  0.35933206747E+03  0.47300697914E+03  0.00000000000E+00 0.  1.
          4    1    6    6  503    0 -0.31626235337E+03 -0.39983937596E+03  0.75740928042E+03  0.91299628740E+03  0.00000000000E+00 0. -1.
         -4    1    6    6    0  503 -0.11601749599E+02 -0.42612574399E+02  0.34311151166E+02  0.55925729186E+02  0.00000000000E+00 0.  1.
<mgrwt>
<rscale>  0 0.14140865E+04</rscale>
<asrwt>0</asrwt>
<pdfrwt beam="1">  1        2 0.24151878E+00 0.14140865E+04</pdfrwt>
<pdfrwt beam="2">  1       -1 0.48990781E-01 0.14140865E+04</pdfrwt>
<totfact> 0.53590923E+01</totfact>
</mgrwt>
</event>
<event>
12    7  0.1707730E-007  0.1377030E+04  0.7818608E-02  0.8970615E-01
         -1   -1    0    0    0  501 -0.00000000000E+00  0.00000000000E+00  0.14101179732E+03  0.14101179732E+03  0.00000000000E+00 0.  1.
          2   -1    0    0  501    0  0.00000000000E+00 -0.00000000000E+00 -0.33617956150E+04  0.33617956150E+04  0.00000000000E+00 0. -1.
         24    2    1    2    0    0  0.22839875380E+03 -0.26715028804E+03 -0.51026252070E+03  0.62868883573E+03  0.10652016241E+03 0.  0.
        254    2    1    2    0    0 -0.22839875380E+03  0.26715028804E+03 -0.27105212969E+04  0.28741185766E+04  0.88887379519E+03 0.  0.
         23    2    4    4    0    0  0.28369755421E+03  0.27899505010E+03 -0.85581673205E+03  0.94789049392E+03  0.88042997233E+02 0.  0.
         23    2    4    4    0    0 -0.51209630800E+03 -0.11844762052E+02 -0.18547045649E+04  0.19262280826E+04  0.89680969211E+02 0.  0.
          4    1    3    3  502    0  0.97202499872E+02 -0.99226130821E+02 -0.29355459455E+03  0.32475906608E+03  0.00000000000E+00 0. -1.
         -3    1    3    3    0  502  0.13119625392E+03 -0.16792415722E+03 -0.21670792616E+03  0.30392976965E+03  0.00000000000E+00 0.  1.
         13    1    5    5    0    0  0.23918017939E+03  0.18323364526E+03 -0.65598060966E+03  0.72186722270E+03  0.00000000000E+00 0. -1.
        -13    1    5    5    0    0  0.44517374819E+02  0.95761404842E+02 -0.19983612239E+03  0.22602327122E+03  0.00000000000E+00 0.  1.
          1    1    6    6  503    0 -0.49734249644E+03 -0.12624653101E+02 -0.18369642652E+04  0.19031412591E+04  0.00000000000E+00 0. -1.
         -1    1    6    6    0  503 -0.14753811568E+02  0.77989104908E+00 -0.17740299696E+02  0.23086823496E+02  0.00000000000E+00 0.  1.
<mgrwt>
<rscale>  0 0.13770299E+04</rscale>
<asrwt>0</asrwt>
<pdfrwt beam="1">  1        2 0.51719935E+00 0.13770299E+04</pdfrwt>
<pdfrwt beam="2">  1       -1 0.21694122E-01 0.13770299E+04</pdfrwt>
<totfact> 0.20357478E+01</totfact>
</mgrwt>
</event>
<event>
12    7  0.1707730E-007  0.1143276E+04  0.7818608E-02  0.9164009E-01
          2   -1    0    0  501    0  0.00000000000E+00  0.00000000000E+00  0.57783668179E+03  0.57783668179E+03  0.00000000000E+00 0. -1.
         -1   -1    0    0    0  501 -0.00000000000E+00 -0.00000000000E+00 -0.56550553157E+03  0.56550553157E+03  0.00000000000E+00 0.  1.
         24    2    1    2    0    0  0.11315070617E+03 -0.15468936172E+03 -0.65296329324E+02  0.21766488899E+03  0.79890627376E+02 0.  0.
        254    2    1    2    0    0 -0.11315070617E+03  0.15468936172E+03  0.77627479540E+02  0.92567732436E+03  0.90228631948E+03 0.  0.
         23    2    4    4    0    0  0.19494653033E+03  0.42681795242E+03 -0.61185833217E+02  0.48242556036E+03  0.93877584687E+02 0.  0.
         23    2    4    4    0    0 -0.30809723650E+03 -0.27212859071E+03  0.13881331276E+03  0.44325176400E+03  0.90692411324E+02 0.  0.
          4    1    3    3  502    0  0.36489291045E+02 -0.42875367095E+01 -0.21336007108E+00  0.36740942483E+02  0.00000000000E+00 0. -1.
         -3    1    3    3    0  502  0.76661415126E+02 -0.15040182501E+03 -0.65082969253E+02  0.18092394651E+03  0.00000000000E+00 0.  1.
         13    1    5    5    0    0  0.13344532048E+03  0.17948380748E+03 -0.27227752819E+02  0.22530743714E+03  0.00000000000E+00 0.  1.
        -13    1    5    5    0    0  0.61501209851E+02  0.24733414494E+03 -0.33958080398E+02  0.25711812322E+03  0.00000000000E+00 0. -1.
          2    1    6    6  503    0 -0.22322670305E+03 -0.13979514875E+03  0.78066571762E+02  0.27471300333E+03  0.00000000000E+00 0.  1.
         -2    1    6    6    0  503 -0.84870533445E+02 -0.13233344196E+03  0.60746740995E+02  0.16853876067E+03  0.00000000000E+00 0. -1.
<mgrwt>
<rscale>  0 0.11432757E+04</rscale>
<asrwt>0</asrwt>
<pdfrwt beam="1">  1        2 0.88897951E-01 0.11432757E+04</pdfrwt>
<pdfrwt beam="2">  1       -1 0.87000851E-01 0.11432757E+04</pdfrwt>
<totfact> 0.76494587E+01</totfact>
</mgrwt>
</event>
<event>
12    7  0.1707730E-007  0.3936192E+04  0.7818608E-02  0.8017544E-01
         -1   -1    0    0    0  501 -0.00000000000E+00  0.00000000000E+00  0.19772277165E+04  0.19772277165E+04  0.00000000000E+00 0.  1.
          2   -1    0    0  501    0  0.00000000000E+00 -0.00000000000E+00 -0.19590064397E+04  0.19590064397E+04  0.00000000000E+00 0. -1.
         24    2    1    2    0    0 -0.12225991264E+04 -0.52146537642E+03  0.13173667015E+04  0.18735017413E+04  0.88763651051E+02 0.  0.
        254    2    1    2    0    0  0.12225991264E+04  0.52146537642E+03 -0.12991454247E+04  0.20627324149E+04  0.89465715113E+03 0.  0.
         23    2    4    4    0    0 -0.11095318817E+03  0.16567993259E+03 -0.19188431422E+03  0.29096330960E+03  0.89886636724E+02 0.  0.
         23    2    4    4    0    0  0.13335523146E+04  0.35578544383E+03 -0.11072611105E+04  0.17717691053E+04  0.90518162751E+02 0.  0.
          4    1    3    3  502    0 -0.45306379467E+02 -0.22076446904E+02  0.28718306554E+02  0.58006712195E+02  0.00000000000E+00 0. -1.
         -3    1    3    3    0  502 -0.11772927470E+04 -0.49938892951E+03  0.12886483949E+04  0.18154950291E+04  0.00000000000E+00 0.  1.
         13    1    5    5    0    0 -0.56356520459E+02  0.19321651458E+02 -0.75440105868E+02  0.96128004176E+02  0.00000000000E+00 0. -1.
        -13    1    5    5    0    0 -0.54596667709E+02  0.14635828113E+03 -0.11644420835E+03  0.19483530542E+03  0.00000000000E+00 0.  1.
          2    1    6    6  503    0  0.32280803271E+03  0.11314815560E+03 -0.31205105691E+03  0.46301554316E+03  0.00000000000E+00 0. -1.
         -2    1    6    6    0  503  0.10107442819E+04  0.24263728823E+03 -0.79521005363E+03  0.13087535621E+04  0.00000000000E+00 0.  1.
<mgrwt>
<rscale>  0 0.39361920E+04</rscale>
<asrwt>0</asrwt>
<pdfrwt beam="1">  1        2 0.30138561E+00 0.39361920E+04</pdfrwt>
<pdfrwt beam="2">  1       -1 0.30418888E+00 0.39361920E+04</pdfrwt>
<totfact> 0.19705890E-01</totfact>
</mgrwt>
</event>
<event>
12    7  0.1707730E-007  0.1549247E+04  0.7818608E-02  0.8852349E-01
         -3   -1    0    0    0  501 -0.00000000000E+00  0.00000000000E+00  0.40224879367E+03  0.40224879367E+03  0.00000000000E+00 0.  1.
          2   -1    0    0  501    0  0.00000000000E+00 -0.00000000000E+00 -0.14917166486E+04  0.14917166486E+04  0.00000000000E+00 0. -1.
         24    2    1    2    0    0  0.34482016900E+03 -0.23884706448E+03 -0.71956624725E+03  0.83666156200E+03  0.79234563059E+02 0.  0.
        254    2    1    2    0    0 -0.34482016900E+03  0.23884706448E+03 -0.36990160766E+03  0.10573038802E+04  0.89728224471E+03 0.  0.
         23    2    4    4    0    0 -0.13668173330E+02 -0.20514501310E+03  0.16757545323E+03  0.28003962973E+03  0.89829651744E+02 0.  0.
         23    2    4    4    0    0 -0.33115199567E+03  0.44399207758E+03 -0.53747706089E+03  0.77726425051E+03  0.92019101024E+02 0.  0.
          4    1    3    3  502    0  0.19908276262E+03 -0.16254261127E+03 -0.50131855064E+03  0.56335986374E+03  0.00000000000E+00 0. -1.
         -3    1    3    3    0  502  0.14573740638E+03 -0.76304453214E+02 -0.21824769661E+03  0.27330169826E+03  0.00000000000E+00 0.  1.
         13    1    5    5    0    0 -0.45921207667E+02 -0.67496349509E+02  0.46808260262E+02  0.94103813629E+02  0.00000000000E+00 0.  1.
        -13    1    5    5    0    0  0.32253034337E+02 -0.13764866359E+03  0.12076719297E+03  0.18593581610E+03  0.00000000000E+00 0. -1.
          2    1    6    6  503    0 -0.30386172750E+03  0.42645544693E+03 -0.52762962953E+03  0.74336345324E+03  0.00000000000E+00 0. -1.
         -2    1    6    6    0  503 -0.27290268169E+02  0.17536630648E+02 -0.98474313588E+01  0.33900797271E+02  0.00000000000E+00 0.  1.
<mgrwt>
<rscale>  0 0.15492466E+04</rscale>
<asrwt>0</asrwt>
<pdfrwt beam="1">  1        2 0.22949487E+00 0.15492466E+04</pdfrwt>
<pdfrwt beam="2">  1       -3 0.61884430E-01 0.15492466E+04</pdfrwt>
<totfact> 0.20072411E+01</totfact>
</mgrwt>
</event>
<event>
12    7  0.1707730E-007  0.1242671E+04  0.7818608E-02  0.9076305E-01
          2   -1    0    0  501    0  0.00000000000E+00  0.00000000000E+00  0.21114062570E+04  0.21114062570E+04  0.00000000000E+00 0. -1.
         -1   -1    0    0    0  501 -0.00000000000E+00 -0.00000000000E+00 -0.18284405921E+03  0.18284405921E+03  0.00000000000E+00 0.  1.
         24    2    1    2    0    0  0.10931524802E+03  0.40440139686E+02 -0.21516079939E+02  0.14410504582E+03  0.81963981026E+02 0.  0.
        254    2    1    2    0    0 -0.10931524802E+03 -0.40440139686E+02  0.19500782777E+04  0.21501452704E+04  0.89818381537E+03 0.  0.
         23    2    4    4    0    0 -0.40995718234E+03  0.13384527754E+03  0.15531252445E+04  0.16144464629E+04  0.90884028695E+02 0.  0.
         23    2    4    4    0    0  0.30064193432E+03 -0.17428541722E+03  0.39695303324E+03  0.53569880754E+03  0.92954410770E+02 0.  0.
          4    1    3    3  502    0  0.33968436091E+02  0.55918999248E+02 -0.66896002913E+01  0.65768836689E+02  0.00000000000E+00 0. -1.
         -3    1    3    3    0  502  0.75346811932E+02 -0.15478859562E+02 -0.14826479647E+02  0.78336209127E+02  0.00000000000E+00 0.  1.
         13    1    5    5    0    0 -0.37116239972E+03  0.93934607394E+02  0.12962213826E+04  0.13515824467E+04  0.00000000000E+00 0.  1.
        -13    1    5    5    0    0 -0.38794782616E+02  0.39910670144E+02  0.25690386190E+03  0.26286401620E+03  0.00000000000E+00 0. -1.
          2    1    6    6  503    0  0.25805927513E+02  0.10558490097E+02  0.39916582485E+02  0.48690462775E+02  0.00000000000E+00 0. -1.
         -2    1    6    6    0  503  0.27483600680E+03 -0.18484390732E+03  0.35703645075E+03  0.48700834477E+03  0.00000000000E+00 0.  1.
<mgrwt>
<rscale>  0 0.12426715E+04</rscale>
<asrwt>0</asrwt>
<pdfrwt beam="1">  1        2 0.32483172E+00 0.12426715E+04</pdfrwt>
<pdfrwt beam="2">  1       -1 0.28129857E-01 0.12426715E+04</pdfrwt>
<totfact> 0.74259155E+01</totfact>
</mgrwt>
</event>
<event>
12    7  0.2242463E-007  0.1647348E+04  0.7818608E-02  0.8791977E-01
         -1   -1    0    0    0  501 -0.00000000000E+00  0.00000000000E+00  0.36276569471E+03  0.36276569471E+03  0.00000000000E+00 0.  1.
          2   -1    0    0  501    0  0.00000000000E+00 -0.00000000000E+00 -0.18701854665E+04  0.18701854665E+04  0.00000000000E+00 0. -1.
         24    2    1    2    0    0 -0.54111548052E+03  0.21231953435E+03 -0.39346568091E+03  0.70649222509E+03  0.80190237191E+02 0.  0.
        254    2    1    2    0    0  0.54111548052E+03 -0.21231953435E+03 -0.11139540909E+04  0.15264589361E+04  0.86677426079E+03 0.  0.
         23    2    4    4    0    0  0.70967867927E+03 -0.62339995823E+02 -0.52533625917E+03  0.88994426673E+03  0.92154814273E+02 0.  0.
         23    2    4    4    0    0 -0.16856319875E+03 -0.14997953853E+03 -0.58861783172E+03  0.63651466940E+03  0.88162115436E+02 0.  0.
          4    1    3    3  502    0 -0.16792031032E+03  0.72214743373E+02 -0.80705267523E+02  0.19981376325E+03  0.00000000000E+00 0. -1.
         -3    1    3    3    0  502 -0.37319517020E+03  0.14010479098E+03 -0.31276041338E+03  0.50667846184E+03  0.00000000000E+00 0.  1.
         13    1    5    5    0    0  0.72403961724E+01 -0.67927236132E+01  0.16272309442E+01  0.10060432961E+02  0.00000000000E+00 0. -1.
        -13    1    5    5    0    0  0.70243828310E+03 -0.55547272209E+02 -0.52696349012E+03  0.87988383377E+03  0.00000000000E+00 0.  1.
          3    1    6    6  503    0 -0.12857810755E+01 -0.39788254957E+02 -0.13249233194E+03  0.13834368973E+03  0.00000000000E+00 0. -1.
         -3    1    6    6    0  503 -0.16727741768E+03 -0.11019128357E+03 -0.45612549978E+03  0.49817097967E+03  0.00000000000E+00 0.  1.
<mgrwt>
<rscale>  0 0.16473483E+04</rscale>
<asrwt>0</asrwt>
<pdfrwt beam="1">  1        2 0.28772083E+00 0.16473483E+04</pdfrwt>
<pdfrwt beam="2">  1       -1 0.55810108E-01 0.16473483E+04</pdfrwt>
<totfact> 0.27879403E+01</totfact>
</mgrwt>
</event>
<event>
12    7  0.1707730E-007  0.1856693E+04  0.7818608E-02  0.8676719E-01
         -1   -1    0    0    0  501 -0.00000000000E+00  0.00000000000E+00  0.58303006282E+03  0.58303006282E+03  0.00000000000E+00 0.  1.
          2   -1    0    0  501    0  0.00000000000E+00 -0.00000000000E+00 -0.14781859960E+04  0.14781859960E+04  0.00000000000E+00 0. -1.
         24    2    1    2    0    0  0.67363723370E+03 -0.14626115583E+03 -0.49065486995E+03  0.85150305532E+03  0.95581397145E+02 0.  0.
        254    2    1    2    0    0 -0.67363723370E+03  0.14626115583E+03 -0.40450106322E+03  0.12097130035E+04  0.90807763561E+03 0.  0.
         23    2    4    4    0    0 -0.75388229107E+01  0.11068800440E+03 -0.50745088676E+03  0.52836515941E+03  0.96719548322E+02 0.  0.
         23    2    4    4    0    0 -0.66609841079E+03  0.35573151426E+02  0.10294982354E+03  0.68134784407E+03  0.93186246261E+02 0.  0.
          4    1    3    3  502    0  0.48882015534E+03 -0.86204869892E+02 -0.39795505024E+03  0.63619544629E+03  0.00000000000E+00 0. -1.
         -3    1    3    3    0  502  0.18481707836E+03 -0.60056285938E+02 -0.92699819705E+02  0.21530760903E+03  0.00000000000E+00 0.  1.
         13    1    5    5    0    0  0.19412902411E+02  0.11223062956E+03 -0.33545322762E+03  0.35426182819E+03  0.00000000000E+00 0. -1.
        -13    1    5    5    0    0 -0.26951725321E+02 -0.15426251545E+01 -0.17199765914E+03  0.17410333122E+03  0.00000000000E+00 0.  1.
          1    1    6    6  503    0 -0.59284085512E+03  0.54642630561E+02  0.10959812648E+03  0.60535761819E+03  0.00000000000E+00 0. -1.
         -1    1    6    6    0  503 -0.73257555675E+02 -0.19069479135E+02 -0.66483029379E+01  0.75990225884E+02  0.00000000000E+00 0.  1.
<mgrwt>
<rscale>  0 0.18566926E+04</rscale>
<asrwt>0</asrwt>
<pdfrwt beam="1">  1        2 0.22741323E+00 0.18566926E+04</pdfrwt>
<pdfrwt beam="2">  1       -1 0.89696934E-01 0.18566926E+04</pdfrwt>
<totfact> 0.17020644E+01</totfact>
</mgrwt>
</event>
<event>
12    7  0.1707730E-007  0.1980568E+04  0.7818608E-02  0.8615760E-01
          2   -1    0    0  501    0  0.00000000000E+00  0.00000000000E+00  0.33364272369E+04  0.33364272369E+04  0.00000000000E+00 0. -1.
         -1   -1    0    0    0  501 -0.00000000000E+00 -0.00000000000E+00 -0.29392591571E+03  0.29392591571E+03  0.00000000000E+00 0.  1.
         24    2    1    2    0    0  0.35135933561E+03  0.26875659875E+03  0.24707306029E+02  0.45044305844E+03  0.81271187026E+02 0.  0.
        254    2    1    2    0    0 -0.35135933561E+03 -0.26875659875E+03  0.30177940151E+04  0.31799100941E+04  0.89947984797E+03 0.  0.
         23    2    4    4    0    0 -0.49327673821E+03 -0.41323694429E+03  0.13602127935E+04  0.15073966329E+04  0.89325542442E+02 0.  0.
         23    2    4    4    0    0  0.14191740260E+03  0.14448034554E+03  0.16575812216E+04  0.16725134612E+04  0.93330876291E+02 0.  0.
          4    1    3    3  502    0  0.32078752710E+02  0.45883046801E+02 -0.17820726322E+02  0.58752690541E+02  0.00000000000E+00 0. -1.
         -3    1    3    3    0  502  0.31928058290E+03  0.22287355195E+03  0.42528032351E+02  0.39169036790E+03  0.00000000000E+00 0.  1.
         13    1    5    5    0    0 -0.17421193377E+03 -0.20228226113E+03  0.54042693925E+03  0.60276793851E+03  0.00000000000E+00 0.  1.
        -13    1    5    5    0    0 -0.31906480444E+03 -0.21095468317E+03  0.81978585430E+03  0.90462869438E+03  0.00000000000E+00 0. -1.
          2    1    6    6  503    0  0.13684184133E+03  0.83015326210E+02  0.11125473067E+04  0.11240012204E+04  0.00000000000E+00 0. -1.
         -2    1    6    6    0  503  0.50755612764E+01  0.61465019335E+02  0.54503391491E+03  0.54851224082E+03  0.00000000000E+00 0.  1.
<mgrwt>
<rscale>  0 0.19805680E+04</rscale>
<asrwt>0</asrwt>
<pdfrwt beam="1">  1        2 0.51329647E+00 0.19805680E+04</pdfrwt>
<pdfrwt beam="2">  1       -1 0.45219374E-01 0.19805680E+04</pdfrwt>
<totfact> 0.54371278E+00</totfact>
</mgrwt>
</event>
<event>
12    7  0.1707730E-007  0.2195743E+04  0.7818608E-02  0.8520202E-01
          2   -1    0    0  501    0  0.00000000000E+00  0.00000000000E+00  0.15715768442E+04  0.15715768442E+04  0.00000000000E+00 0. -1.
         -1   -1    0    0    0  501 -0.00000000000E+00 -0.00000000000E+00 -0.76695066445E+03  0.76695066445E+03  0.00000000000E+00 0.  1.
         24    2    1    2    0    0 -0.11126225220E+03  0.54216243336E+03 -0.42372835968E+03  0.70173440691E+03  0.81031241758E+02 0.  0.
        254    2    1    2    0    0  0.11126225220E+03 -0.54216243336E+03  0.12283545395E+04  0.16367931018E+04  0.92947156518E+03 0.  0.
         23    2    4    4    0    0 -0.18168125292E+03 -0.27911400415E+03  0.21179229632E+01  0.34555151809E+03  0.92133930115E+02 0.  0.
         23    2    4    4    0    0  0.29294350512E+03 -0.26304842920E+03  0.12262366165E+04  0.12912415837E+04  0.92941995300E+02 0.  0.
          4    1    3    3  502    0  0.81605027449E+01  0.14002154265E+02 -0.22785418892E+02  0.27961213192E+02  0.00000000000E+00 0. -1.
         -1    1    3    3    0  502 -0.11942275494E+03  0.52816027909E+03 -0.40094294079E+03  0.67377319372E+03  0.00000000000E+00 0.  1.
         13    1    5    5    0    0 -0.16401149924E+03 -0.23842634471E+03 -0.29774020687E+02  0.29091817757E+03  0.00000000000E+00 0. -1.
        -13    1    5    5    0    0 -0.17669753681E+02 -0.40687659445E+02  0.31891943650E+02  0.54633340517E+02  0.00000000000E+00 0.  1.
          2    1    6    6  503    0  0.28903742593E+03 -0.26648586776E+03  0.12239842670E+04  0.12855717938E+04  0.00000000000E+00 0. -1.
         -2    1    6    6    0  503  0.39060791924E+01  0.34374385555E+01  0.22523495147E+01  0.56697898389E+01  0.00000000000E+00 0.  1.
<mgrwt>
<rscale>  0 0.21957431E+04</rscale>
<asrwt>0</asrwt>
<pdfrwt beam="1">  1        2 0.24178105E+00 0.21957431E+04</pdfrwt>
<pdfrwt beam="2">  1       -1 0.11799241E+00 0.21957431E+04</pdfrwt>
<totfact> 0.77733160E+00</totfact>
</mgrwt>
</event>
<event>
12    7  0.1707730E-007  0.1035758E+04  0.7818608E-02  0.9270173E-01
          2   -1    0    0  501    0  0.00000000000E+00  0.00000000000E+00  0.28940798655E+03  0.28940798655E+03  0.00000000000E+00 0. -1.
         -1   -1    0    0    0  501 -0.00000000000E+00 -0.00000000000E+00 -0.92671510457E+03  0.92671510457E+03  0.00000000000E+00 0.  1.
         24    2    1    2    0    0  0.14773968338E+02 -0.72633609896E+02 -0.90018896733E+02  0.13979236929E+03  0.77101188802E+02 0.  0.
        254    2    1    2    0    0 -0.14773968338E+02  0.72633609896E+02 -0.54728822129E+03  0.10763307218E+04  0.92383413781E+03 0.  0.
         23    2    4    4    0    0 -0.41762845551E+03 -0.11748648061E+03 -0.40609509662E+03  0.60020282523E+03  0.84342183644E+02 0.  0.
         23    2    4    4    0    0  0.40285448717E+03  0.19012009050E+03 -0.14119312466E+03  0.47612789660E+03  0.91240828734E+02 0.  0.
          2    1    3    3  502    0 -0.19449723284E+02 -0.22041137963E+02  0.18694630365E+01  0.29455023181E+02  0.00000000000E+00 0. -1.
         -1    1    3    3    0  502  0.34223691622E+02 -0.50592471933E+02 -0.91888359770E+02  0.11033734611E+03  0.00000000000E+00 0.  1.
         13    1    5    5    0    0 -0.46376928024E+01 -0.11437798506E+02 -0.15475255349E+01  0.12438901257E+02  0.00000000000E+00 0. -1.
        -13    1    5    5    0    0 -0.41299076270E+03 -0.10604868210E+03 -0.40454757109E+03  0.58776392398E+03  0.00000000000E+00 0.  1.
          4    1    6    6  503    0  0.60757501038E+02  0.12803850363E+02 -0.51100870739E+02  0.80415866014E+02  0.00000000000E+00 0. -1.
         -4    1    6    6    0  503  0.34209698613E+03  0.17731624014E+03 -0.90092253924E+02  0.39571203059E+03  0.00000000000E+00 0.  1.
<mgrwt>
<rscale>  0 0.10357582E+04</rscale>
<asrwt>0</asrwt>
<pdfrwt beam="1">  1        2 0.44524306E-01 0.10357582E+04</pdfrwt>
<pdfrwt beam="2">  1       -1 0.14257155E+00 0.10357582E+04</pdfrwt>
<totfact> 0.52170218E+01</totfact>
</mgrwt>
</event>
<event>
12    7  0.1707730E-007  0.1757693E+04  0.7818608E-02  0.8729127E-01
          2   -1    0    0  501    0  0.00000000000E+00  0.00000000000E+00  0.18674470156E+04  0.18674470156E+04  0.00000000000E+00 0. -1.
         -1   -1    0    0    0  501 -0.00000000000E+00 -0.00000000000E+00 -0.41359732943E+03  0.41359732943E+03  0.00000000000E+00 0.  1.
         24    2    1    2    0    0 -0.62029362613E+03  0.16050418261E+03  0.45818551951E+03  0.79172787867E+03  0.79832877394E+02 0.  0.
        254    2    1    2    0    0  0.62029362613E+03 -0.16050418261E+03  0.99566416670E+03  0.14893164664E+04  0.90343269201E+03 0.  0.
         23    2    4    4    0    0  0.21091281108E+03  0.16095292636E+02  0.10083649286E+04  0.10344147944E+04  0.92037303855E+02 0.  0.
         23    2    4    4    0    0  0.40938081506E+03 -0.17659947525E+03 -0.12700761872E+02  0.45490167204E+03  0.89410264939E+02 0.  0.
          4    1    3    3  502    0 -0.61399055573E+03  0.15585320370E+03  0.46094936677E+03  0.78342130578E+03  0.00000000000E+00 0. -1.
         -3    1    3    3    0  502 -0.63030704012E+01  0.46509789154E+01 -0.27638472623E+01  0.83065728820E+01  0.00000000000E+00 0.  1.
         13    1    5    5    0    0  0.17037870164E+03  0.13234277865E+02  0.59492843151E+03  0.61898617651E+03  0.00000000000E+00 0.  1.
        -13    1    5    5    0    0  0.40534109434E+02  0.28610147713E+01  0.41343649706E+03  0.41542861786E+03  0.00000000000E+00 0. -1.
          3    1    6    6  503    0  0.15959582752E+03 -0.38288172581E+02  0.27993868956E+02  0.16649465162E+03  0.00000000000E+00 0. -1.
         -3    1    6    6    0  503  0.24978498754E+03 -0.13831130267E+03 -0.40694630828E+02  0.28840702041E+03  0.00000000000E+00 0.  1.
<mgrwt>
<rscale>  0 0.17576929E+04</rscale>
<asrwt>0</asrwt>
<pdfrwt beam="1">  1        2 0.28729954E+00 0.17576929E+04</pdfrwt>
<pdfrwt beam="2">  1       -1 0.63630359E-01 0.17576929E+04</pdfrwt>
<totfact> 0.21392433E+01</totfact>
</mgrwt>
</event>
<event>
12    7  0.1707730E-007  0.3383332E+04  0.7818608E-02  0.8142009E-01
         -1   -1    0    0    0  501 -0.00000000000E+00  0.00000000000E+00  0.88899278220E+03  0.88899278220E+03  0.00000000000E+00 0.  1.
          2   -1    0    0  501    0  0.00000000000E+00 -0.00000000000E+00 -0.32190748599E+04  0.32190748599E+04  0.00000000000E+00 0. -1.
         24    2    1    2    0    0 -0.53973984926E+03  0.26361200405E+02  0.72215841624E+03  0.90549603268E+03  0.79976679580E+02 0.  0.
        254    2    1    2    0    0  0.53973984926E+03 -0.26361200405E+02 -0.30522404940E+04  0.32025716095E+04  0.80515766338E+03 0.  0.
         23    2    4    4    0    0  0.41488823752E+02 -0.12294460288E+03 -0.22064997223E+04  0.22120461554E+04  0.87581225558E+02 0.  0.
         23    2    4    4    0    0  0.49825102551E+03  0.96583402480E+02 -0.84574077164E+03  0.99052545406E+03  0.90998814702E+02 0.  0.
          2    1    3    3  502    0 -0.79114331521E+02  0.27876120863E+02  0.13914848143E+03  0.16247601500E+03  0.00000000000E+00 0. -1.
         -1    1    3    3    0  502 -0.46062551774E+03 -0.15149204578E+01  0.58300993482E+03  0.74302001768E+03  0.00000000000E+00 0.  1.
         13    1    5    5    0    0  0.68863635371E+02 -0.79285882243E+02 -0.14795721943E+04  0.14832944177E+04  0.00000000000E+00 0.  1.
        -13    1    5    5    0    0 -0.27374811619E+02 -0.43658720642E+02 -0.72692752800E+03  0.72875173768E+03  0.00000000000E+00 0. -1.
          4    1    6    6  503    0  0.38826905959E+03  0.95393508121E+02 -0.59653936245E+03  0.71813090379E+03  0.00000000000E+00 0.  1.
         -4    1    6    6    0  503  0.10998196592E+03  0.11898943591E+01 -0.24920140919E+03  0.27239455028E+03  0.00000000000E+00 0. -1.
<mgrwt>
<rscale>  0 0.33833323E+04</rscale>
<asrwt>0</asrwt>
<pdfrwt beam="1">  1        2 0.49524228E+00 0.33833323E+04</pdfrwt>
<pdfrwt beam="2">  1       -1 0.13676812E+00 0.33833323E+04</pdfrwt>
<totfact> 0.52816530E-01</totfact>
</mgrwt>
</event>
<event>
12    7  0.1707730E-007  0.1157316E+04  0.7818608E-02  0.9151060E-01
         -1   -1    0    0    0  501 -0.00000000000E+00  0.00000000000E+00  0.21225173478E+03  0.21225173478E+03  0.00000000000E+00 0.  1.
          2   -1    0    0  501    0  0.00000000000E+00 -0.00000000000E+00 -0.15775856734E+04  0.15775856734E+04  0.00000000000E+00 0. -1.
         24    2    1    2    0    0  0.17183107588E+03  0.11631527944E+03 -0.23171422216E+03  0.32126314245E+03  0.80395043877E+02 0.  0.
        254    2    1    2    0    0 -0.17183107588E+03 -0.11631527944E+03 -0.11336197164E+04  0.14685742657E+04  0.91025356331E+03 0.  0.
         23    2    4    4    0    0 -0.46172714148E+03 -0.11609556704E+03 -0.10401996503E+04  0.11474726242E+04  0.89487301039E+02 0.  0.
         23    2    4    4    0    0  0.28989606560E+03 -0.21971239167E+00 -0.93420066132E+02  0.32110164145E+03  0.10168174990E+03 0.  0.
          4    1    3    3  502    0 -0.46983942430E+01  0.98818611675E+01 -0.33694369608E+02  0.35426496184E+02  0.00000000000E+00 0. -1.
         -3    1    3    3    0  502  0.17652947012E+03  0.10643341827E+03 -0.19801985255E+03  0.28583664627E+03  0.00000000000E+00 0.  1.
         13    1    5    5    0    0 -0.76021435617E+02 -0.90873444328E+01 -0.10270360502E+03  0.12810101087E+03  0.00000000000E+00 0. -1.
        -13    1    5    5    0    0 -0.38570570586E+03 -0.10700822261E+03 -0.93749604528E+03  0.10193716134E+04  0.00000000000E+00 0.  1.
          1    1    6    6  503    0  0.11880603235E+02 -0.25296749440E+02 -0.11111919743E+02  0.30075721535E+02  0.00000000000E+00 0. -1.
         -1    1    6    6    0  503  0.27801546236E+03  0.25077037048E+02 -0.82308146389E+02  0.29102591992E+03  0.00000000000E+00 0.  1.
<mgrwt>
<rscale>  0 0.11573164E+04</rscale>
<asrwt>0</asrwt>
<pdfrwt beam="1">  1        2 0.24270548E+00 0.11573164E+04</pdfrwt>
<pdfrwt beam="2">  1       -1 0.32654114E-01 0.11573164E+04</pdfrwt>
<totfact> 0.11361376E+02</totfact>
</mgrwt>
</event>
<event>
12    7  0.1707730E-007  0.2778955E+04  0.7818608E-02  0.8309832E-01
         -1   -1    0    0    0  501 -0.00000000000E+00  0.00000000000E+00  0.96451876501E+03  0.96451876501E+03  0.00000000000E+00 0.  1.
          2   -1    0    0  501    0  0.00000000000E+00 -0.00000000000E+00 -0.20016687184E+04  0.20016687184E+04  0.00000000000E+00 0. -1.
         24    2    1    2    0    0  0.61358858445E+03  0.34788197770E+03  0.62005837978E+03  0.94550962328E+03  0.10955926257E+03 0.  0.
        254    2    1    2    0    0 -0.61358858445E+03 -0.34788197770E+03 -0.16572083332E+04  0.20206778601E+04  0.91612593760E+03 0.  0.
         23    2    4    4    0    0 -0.14583594801E+03  0.30228072203E+03 -0.44104670673E+03  0.56158837374E+03  0.90650677633E+02 0.  0.
         23    2    4    4    0    0 -0.46775263644E+03 -0.65016269973E+03 -0.12161616264E+04  0.14590894864E+04  0.91591280558E+02 0.  0.
          2    1    3    3  502    0  0.10886839592E+03  0.11333993473E+03  0.14290580064E+03  0.21241548035E+03  0.00000000000E+00 0. -1.
         -1    1    3    3    0  502  0.50472018853E+03  0.23454204297E+03  0.47715257914E+03  0.73309414293E+03  0.00000000000E+00 0.  1.
         13    1    5    5    0    0 -0.13071832817E+03  0.28597730911E+03 -0.36209405395E+03  0.47956480954E+03  0.00000000000E+00 0. -1.
        -13    1    5    5    0    0 -0.15117619841E+02  0.16303412924E+02 -0.78952652776E+02  0.82023564194E+02  0.00000000000E+00 0.  1.
          3    1    6    6  503    0 -0.29858325943E+03 -0.41056508180E+03 -0.68896133436E+03  0.85579399942E+03  0.00000000000E+00 0. -1.
         -3    1    6    6    0  503 -0.16916937701E+03 -0.23959761794E+03 -0.52720029207E+03  0.60329548697E+03  0.00000000000E+00 0.  1.
<mgrwt>
<rscale>  0 0.27789545E+04</rscale>
<asrwt>0</asrwt>
<pdfrwt beam="1">  1        2 0.30794903E+00 0.27789545E+04</pdfrwt>
<pdfrwt beam="2">  1       -1 0.14838750E+00 0.27789545E+04</pdfrwt>
<totfact> 0.23747254E+00</totfact>
</mgrwt>
</event>
<event>
12    7  0.1707730E-007  0.2594017E+04  0.7818608E-02  0.8370236E-01
          2   -1    0    0  501    0  0.00000000000E+00  0.00000000000E+00  0.36718582782E+04  0.36718582782E+04  0.00000000000E+00 0. -1.
         -1   -1    0    0    0  501 -0.00000000000E+00 -0.00000000000E+00 -0.45814167664E+03  0.45814167664E+03  0.00000000000E+00 0.  1.
         24    2    1    2    0    0  0.86821384698E+02  0.45253727899E+03 -0.24049047125E+03  0.52574830637E+03  0.79042223980E+02 0.  0.
        254    2    1    2    0    0 -0.86821384698E+02 -0.45253727899E+03  0.34542070728E+04  0.36042516485E+04  0.92019318731E+03 0.  0.
         23    2    4    4    0    0 -0.21217449835E+03 -0.32464684471E+03  0.33548314629E+04  0.33784149376E+04  0.91540998348E+02 0.  0.
         23    2    4    4    0    0  0.12535311365E+03 -0.12789043428E+03  0.99375609899E+02  0.22583671090E+03  0.95170068103E+02 0.  0.
          4    1    3    3  502    0 -0.71800535597E+01  0.62225799696E+01  0.11766729996E+01  0.95738304740E+01  0.00000000000E+00 0. -1.
         -3    1    3    3    0  502  0.94001438258E+02  0.44631469902E+03 -0.24166714425E+03  0.51617447590E+03  0.00000000000E+00 0.  1.
         13    1    5    5    0    0 -0.18162384862E+02 -0.26943687818E+02  0.12731051802E+03  0.13139179021E+03  0.00000000000E+00 0. -1.
        -13    1    5    5    0    0 -0.19401211349E+03 -0.29770315689E+03  0.32275209449E+04  0.32470231474E+04  0.00000000000E+00 0.  1.
          2    1    6    6  503    0  0.46160851264E+02 -0.74764907390E+02  0.96390275977E+02  0.13042891117E+03  0.00000000000E+00 0.  1.
         -2    1    6    6    0  503  0.79192262390E+02 -0.53125526893E+02  0.29853339221E+01  0.95407799727E+02  0.00000000000E+00 0. -1.
<mgrwt>
<rscale>  0 0.25940172E+04</rscale>
<asrwt>0</asrwt>
<pdfrwt beam="1">  1        2 0.56490125E+00 0.25940172E+04</pdfrwt>
<pdfrwt beam="2">  1       -1 0.70483337E-01 0.25940172E+04</pdfrwt>
<totfact> 0.12547400E+00</totfact>
</mgrwt>
</event>
<event>
12    7  0.1707730E-007  0.1446927E+04  0.7818608E-02  0.8920534E-01
          2   -1    0    0  501    0  0.00000000000E+00  0.00000000000E+00  0.42425261752E+03  0.42425261752E+03  0.00000000000E+00 0. -1.
         -1   -1    0    0    0  501 -0.00000000000E+00 -0.00000000000E+00 -0.12336975379E+04  0.12336975379E+04  0.00000000000E+00 0.  1.
         24    2    1    2    0    0 -0.41779181537E+03 -0.20616482678E+02 -0.40258222821E+03  0.58673471553E+03  0.84912517268E+02 0.  0.
        254    2    1    2    0    0  0.41779181537E+03  0.20616482678E+02 -0.40686269213E+03  0.10712154399E+04  0.89832634826E+03 0.  0.
         23    2    4    4    0    0  0.38833668949E+02 -0.38629948461E+03 -0.47699590030E+02  0.40300950558E+03  0.96984870208E+02 0.  0.
         23    2    4    4    0    0  0.37895814642E+03  0.40691596729E+03 -0.35916310210E+03  0.66820593427E+03  0.91165539056E+02 0.  0.
          4    1    3    3  502    0 -0.27340145045E+02 -0.23955289678E+02 -0.35688591233E+02  0.50941289529E+02  0.00000000000E+00 0. -1.
         -3    1    3    3    0  502 -0.39045167032E+03  0.33388070003E+01 -0.36689363698E+03  0.53579342600E+03  0.00000000000E+00 0.  1.
         13    1    5    5    0    0  0.38842385186E+02 -0.10955260430E+03 -0.49300879185E+02  0.12625799256E+03  0.00000000000E+00 0.  1.
        -13    1    5    5    0    0 -0.87162370952E-02 -0.27674688031E+03  0.16012891544E+01  0.27675151303E+03  0.00000000000E+00 0. -1.
          2    1    6    6  503    0  0.26891321074E+03  0.33906148050E+03 -0.25598206805E+03  0.50279600400E+03  0.00000000000E+00 0. -1.
         -2    1    6    6    0  503  0.11004493568E+03  0.67854486783E+02 -0.10318103404E+03  0.16540993027E+03  0.00000000000E+00 0.  1.
<mgrwt>
<rscale>  0 0.14469270E+04</rscale>
<asrwt>0</asrwt>
<pdfrwt beam="1">  1        2 0.65269634E-01 0.14469270E+04</pdfrwt>
<pdfrwt beam="2">  1       -1 0.18979962E+00 0.14469270E+04</pdfrwt>
<totfact> 0.14630035E+01</totfact>
</mgrwt>
</event>
<event>
12    7  0.1707730E-007  0.1568083E+04  0.7818608E-02  0.8840400E-01
         -1   -1    0    0    0  501 -0.00000000000E+00  0.00000000000E+00  0.29371263436E+03  0.29371263436E+03  0.00000000000E+00 0.  1.
          2   -1    0    0  501    0  0.00000000000E+00 -0.00000000000E+00 -0.20929330286E+04  0.20929330286E+04  0.00000000000E+00 0. -1.
         24    2    1    2    0    0  0.48649726115E+03  0.14363502544E+03 -0.75329869052E+03  0.91178904676E+03  0.81177232052E+02 0.  0.
        254    2    1    2    0    0 -0.48649726115E+03 -0.14363502544E+03 -0.10459217037E+04  0.14748566162E+04  0.90771097954E+03 0.  0.
         23    2    4    4    0    0 -0.11343177756E+03  0.22102973514E+03 -0.88159189440E+03  0.92041788591E+03  0.90795949532E+02 0.  0.
         23    2    4    4    0    0 -0.37306548359E+03 -0.36466476058E+03 -0.16432980931E+03  0.55443873028E+03  0.90773216065E+02 0.  0.
          4    1    3    3  502    0  0.46832373386E+03  0.13049012983E+03 -0.68564296722E+03  0.84051238669E+03  0.00000000000E+00 0. -1.
         -3    1    3    3    0  502  0.18173527287E+02  0.13144895607E+02 -0.67655723303E+02  0.71276660066E+02  0.00000000000E+00 0.  1.
         13    1    5    5    0    0 -0.39023601961E+02  0.15351793742E+03 -0.62748914812E+03  0.64717326091E+03  0.00000000000E+00 0. -1.
        -13    1    5    5    0    0 -0.74408175595E+02  0.67511797715E+02 -0.25410274628E+03  0.27324462500E+03  0.00000000000E+00 0.  1.
          3    1    6    6  503    0 -0.27099338559E+03 -0.20761268374E+03 -0.12095485347E+03  0.36217470654E+03  0.00000000000E+00 0.  1.
         -3    1    6    6    0  503 -0.10207209801E+03 -0.15705207684E+03 -0.43374955837E+02  0.19226402374E+03  0.00000000000E+00 0. -1.
<mgrwt>
<rscale>  0 0.15680827E+04</rscale>
<asrwt>0</asrwt>
<pdfrwt beam="1">  1        2 0.32198969E+00 0.15680827E+04</pdfrwt>
<pdfrwt beam="2">  1       -1 0.45186561E-01 0.15680827E+04</pdfrwt>
<totfact> 0.31565449E+01</totfact>
</mgrwt>
</event>
<event>
12    7  0.1707730E-007  0.1321457E+04  0.7818608E-02  0.9012720E-01
         -1   -1    0    0    0  501 -0.00000000000E+00  0.00000000000E+00  0.46171955676E+03  0.46171955676E+03  0.00000000000E+00 0.  1.
          2   -1    0    0  501    0  0.00000000000E+00 -0.00000000000E+00 -0.94551398895E+03  0.94551398895E+03  0.00000000000E+00 0. -1.
         24    2    1    2    0    0 -0.19268582281E+02  0.15364755404E+03 -0.46028097462E+03  0.49080373359E+03  0.71069544732E+02 0.  0.
        254    2    1    2    0    0  0.19268582281E+02 -0.15364755404E+03 -0.23513457569E+02  0.91642981211E+03  0.90294621585E+03 0.  0.
         23    2    4    4    0    0  0.31329692106E+03 -0.20602861828E+03 -0.30699556063E+03  0.49325675852E+03  0.91941303465E+02 0.  0.
         23    2    4    4    0    0 -0.29402833878E+03  0.52381064246E+02  0.28348210306E+03  0.42317305359E+03  0.97554552074E+02 0.  0.
          4    1    3    3  502    0 -0.26164455782E+02  0.14474201477E+03 -0.45533441887E+03  0.47850210302E+03  0.00000000000E+00 0. -1.
         -3    1    3    3    0  502  0.68958735007E+01  0.89055392688E+01 -0.49465557477E+01  0.12301630574E+02  0.00000000000E+00 0.  1.
         13    1    5    5    0    0  0.28778162264E+03 -0.19438493916E+03 -0.30938962250E+03  0.46510827279E+03  0.00000000000E+00 0. -1.
        -13    1    5    5    0    0  0.25515298422E+02 -0.11643679121E+02  0.23940618703E+01  0.28148485737E+02  0.00000000000E+00 0.  1.
          4    1    6    6  503    0 -0.12373171819E+02 -0.44206395593E+01 -0.67510625801E+01  0.14772077746E+02  0.00000000000E+00 0.  1.
         -4    1    6    6    0  503 -0.28165516696E+03  0.56801703806E+02  0.29023316564E+03  0.40840097584E+03  0.00000000000E+00 0. -1.
<mgrwt>
<rscale>  0 0.13214572E+04</rscale>
<asrwt>0</asrwt>
<pdfrwt beam="1">  1        2 0.14546369E+00 0.13214572E+04</pdfrwt>
<pdfrwt beam="2">  1       -1 0.71033778E-01 0.13214572E+04</pdfrwt>
<totfact> 0.61124905E+01</totfact>
</mgrwt>
</event>
<event>
12    7  0.1707730E-007  0.2021511E+04  0.7818608E-02  0.8596629E-01
          2   -1    0    0  501    0  0.00000000000E+00  0.00000000000E+00  0.12086765197E+04  0.12086765197E+04  0.00000000000E+00 0. -1.
         -1   -1    0    0    0  501 -0.00000000000E+00 -0.00000000000E+00 -0.84524398981E+03  0.84524398981E+03  0.00000000000E+00 0.  1.
         24    2    1    2    0    0 -0.76142421878E+02 -0.45348779507E+03  0.82741767309E+03  0.95003645279E+03  0.80625102835E+02 0.  0.
        254    2    1    2    0    0  0.76142421878E+02  0.45348779507E+03 -0.46398514315E+03  0.11038840568E+04  0.88984771115E+03 0.  0.
         23    2    4    4    0    0  0.32652652343E+03  0.15094165751E+03 -0.57528275766E+03  0.68463733295E+03  0.91515419087E+02 0.  0.
         23    2    4    4    0    0 -0.25038410155E+03  0.30254613756E+03  0.11129761451E+03  0.41924672382E+03  0.95678068421E+02 0.  0.
          4    1    3    3  502    0 -0.88734269344E+02 -0.39744639313E+03  0.75260609761E+03  0.85571802840E+03  0.00000000000E+00 0. -1.
         -3    1    3    3    0  502  0.12591847466E+02 -0.56041401947E+02  0.74811575471E+02  0.94318424389E+02  0.00000000000E+00 0.  1.
         13    1    5    5    0    0  0.24836906620E+03  0.13488219883E+03 -0.50304382625E+03  0.57700389231E+03  0.00000000000E+00 0.  1.
        -13    1    5    5    0    0  0.78157457227E+02  0.16059458682E+02 -0.72238931409E+02  0.10763344064E+03  0.00000000000E+00 0. -1.
          3    1    6    6  503    0 -0.59617609429E+02  0.93209888101E+02 -0.10101116858E+02  0.11110524360E+03  0.00000000000E+00 0. -1.
         -3    1    6    6    0  503 -0.19076649212E+03  0.20933624946E+03  0.12139873137E+03  0.30814148022E+03  0.00000000000E+00 0.  1.
<mgrwt>
<rscale>  0 0.20215109E+04</rscale>
<asrwt>0</asrwt>
<pdfrwt beam="1">  1        2 0.18595023E+00 0.20215109E+04</pdfrwt>
<pdfrwt beam="2">  1       -1 0.13003754E+00 0.20215109E+04</pdfrwt>
<totfact> 0.10029993E+01</totfact>
</mgrwt>
</event>
<event>
12    7  0.1707730E-007  0.2986747E+04  0.7818608E-02  0.8247525E-01
         -1   -1    0    0    0  501 -0.00000000000E+00  0.00000000000E+00  0.87081836573E+03  0.87081836573E+03  0.00000000000E+00 0.  1.
          2   -1    0    0  501    0  0.00000000000E+00 -0.00000000000E+00 -0.25609984558E+04  0.25609984558E+04  0.00000000000E+00 0. -1.
         24    2    1    2    0    0  0.38471087170E+03  0.11702392001E+04 -0.11697312907E+03  0.12400061468E+04  0.80438117818E+02 0.  0.
        254    2    1    2    0    0 -0.38471087170E+03 -0.11702392001E+04 -0.15732069610E+04  0.21918106747E+04  0.90088381681E+03 0.  0.
         23    2    4    4    0    0 -0.13395115362E+03 -0.11607265844E+04 -0.93316719161E+03  0.14980704263E+04  0.90470322465E+02 0.  0.
         23    2    4    4    0    0 -0.25075971808E+03 -0.95126157433E+01 -0.64003976939E+03  0.69374024848E+03  0.93025264766E+02 0.  0.
          2    1    3    3  502    0  0.11030284593E+03  0.34325384515E+03 -0.71036874575E+02  0.36747266235E+03  0.00000000000E+00 0. -1.
         -1    1    3    3    0  502  0.27440802578E+03  0.82698535500E+03 -0.45936254496E+02  0.87253348444E+03  0.00000000000E+00 0.  1.
         13    1    5    5    0    0 -0.13915655132E+03 -0.86258572710E+03 -0.69716519427E+03  0.11177915684E+04  0.00000000000E+00 0. -1.
        -13    1    5    5    0    0  0.52053976998E+01 -0.29814085730E+03 -0.23600199735E+03  0.38027885783E+03  0.00000000000E+00 0.  1.
          2    1    6    6  503    0 -0.12438767065E+03  0.33220122270E+02 -0.38438564634E+03  0.40537414107E+03  0.00000000000E+00 0. -1.
         -2    1    6    6    0  503 -0.12637204743E+03 -0.42732738014E+02 -0.25565412305E+03  0.28836610741E+03  0.00000000000E+00 0.  1.
<mgrwt>
<rscale>  0 0.29867471E+04</rscale>
<asrwt>0</asrwt>
<pdfrwt beam="1">  1        2 0.39399976E+00 0.29867471E+04</pdfrwt>
<pdfrwt beam="2">  1       -1 0.13397206E+00 0.29867471E+04</pdfrwt>
<totfact> 0.14672292E+00</totfact>
</mgrwt>
</event>
<event>
12    7  0.1707730E-007  0.1586615E+04  0.7818608E-02  0.8828813E-01
         -1   -1    0    0    0  501 -0.00000000000E+00  0.00000000000E+00  0.22117945577E+03  0.22117945577E+03  0.00000000000E+00 0.  1.
          2   -1    0    0  501    0  0.00000000000E+00 -0.00000000000E+00 -0.28453673102E+04  0.28453673102E+04  0.00000000000E+00 0. -1.
         24    2    1    2    0    0 -0.88386069814E+02  0.21431071224E+03 -0.18213044130E+04  0.18377095160E+04  0.79280021063E+02 0.  0.
        254    2    1    2    0    0  0.88386069814E+02 -0.21431071224E+03 -0.80288344140E+03  0.12288372499E+04  0.90093173304E+03 0.  0.
         23    2    4    4    0    0 -0.10060274037E+03  0.24306981659E+03  0.32890942914E+01  0.27824252647E+03  0.90577250389E+02 0.  0.
         23    2    4    4    0    0  0.18898881018E+03 -0.45738052883E+03 -0.80617253569E+03  0.95059472346E+03  0.93821385779E+02 0.  0.
          2    1    3    3  502    0 -0.46203134485E+02  0.18668665310E+03 -0.13316718990E+04  0.13454875260E+04  0.00000000000E+00 0. -1.
         -1    1    3    3    0  502 -0.42182935329E+02  0.27624059140E+02 -0.48963251400E+03  0.49222199000E+03  0.00000000000E+00 0.  1.
         13    1    5    5    0    0 -0.24661746426E+01 -0.35714005611E+01 -0.11591808857E+02  0.12377679585E+02  0.00000000000E+00 0. -1.
        -13    1    5    5    0    0 -0.98136565725E+02  0.24664121715E+03  0.14880903148E+02  0.26586484688E+03  0.00000000000E+00 0.  1.
          1    1    6    6  503    0  0.10630195446E+03 -0.17980730979E+03 -0.27192657254E+03  0.34289187075E+03  0.00000000000E+00 0. -1.
         -1    1    6    6    0  503  0.82686855723E+02 -0.27757321905E+03 -0.53424596315E+03  0.60770285270E+03  0.00000000000E+00 0.  1.
<mgrwt>
<rscale>  0 0.15866150E+04</rscale>
<asrwt>0</asrwt>
<pdfrwt beam="1">  1        2 0.43774879E+00 0.15866150E+04</pdfrwt>
<pdfrwt beam="2">  1       -1 0.34027610E-01 0.15866150E+04</pdfrwt>
<totfact> 0.19451642E+01</totfact>
</mgrwt>
</event>
<event>
12    7  0.1707730E-007  0.1997749E+04  0.7818608E-02  0.8607674E-01
          2   -1    0    0  501    0  0.00000000000E+00  0.00000000000E+00  0.23869485838E+04  0.23869485838E+04  0.00000000000E+00 0. -1.
         -1   -1    0    0    0  501 -0.00000000000E+00 -0.00000000000E+00 -0.41800249841E+03  0.41800249841E+03  0.00000000000E+00 0.  1.
         24    2    1    2    0    0 -0.32943476855E+03 -0.39925052422E+03  0.16300315375E+04  0.17120550934E+04  0.78750122443E+02 0.  0.
        254    2    1    2    0    0  0.32943476855E+03  0.39925052422E+03  0.33891454783E+03  0.10928959887E+04  0.90090528007E+03 0.  0.
         23    2    4    4    0    0  0.26106002885E+03 -0.10100238255E+03  0.47537185868E+03  0.56117894529E+03  0.10290570765E+03 0.  0.
         23    2    4    4    0    0  0.68374739701E+02  0.50025290677E+03 -0.13645731085E+03  0.53171704346E+03  0.95782779560E+02 0.  0.
          4    1    3    3  502    0 -0.29103143248E+03 -0.37255436973E+03  0.14112054117E+04  0.14882865205E+04  0.00000000000E+00 0. -1.
         -3    1    3    3    0  502 -0.38403336073E+02 -0.26696154491E+02  0.21882612580E+03  0.22376857291E+03  0.00000000000E+00 0.  1.
         13    1    5    5    0    0  0.57571453624E+02  0.39088015897E+01  0.16993473677E+03  0.17946466438E+03  0.00000000000E+00 0. -1.
        -13    1    5    5    0    0  0.20348857522E+03 -0.10491118414E+03  0.30543712191E+03  0.38171428090E+03  0.00000000000E+00 0.  1.
          1    1    6    6  503    0  0.21857596438E+02  0.13062047365E+03  0.67110956955E+01  0.13260656644E+03  0.00000000000E+00 0. -1.
         -1    1    6    6    0  503  0.46517143263E+02  0.36963243312E+03 -0.14316840654E+03  0.39911047701E+03  0.00000000000E+00 0.  1.
<mgrwt>
<rscale>  0 0.19977492E+04</rscale>
<asrwt>0</asrwt>
<pdfrwt beam="1">  1        2 0.36722285E+00 0.19977492E+04</pdfrwt>
<pdfrwt beam="2">  1       -1 0.64308078E-01 0.19977492E+04</pdfrwt>
<totfact> 0.10494032E+01</totfact>
</mgrwt>
</event>
<event>
12    7  0.1707730E-007  0.2699278E+04  0.7818608E-02  0.8335239E-01
          2   -1    0    0  501    0  0.00000000000E+00  0.00000000000E+00  0.18214828727E+04  0.18214828727E+04  0.00000000000E+00 0. -1.
         -1   -1    0    0    0  501 -0.00000000000E+00 -0.00000000000E+00 -0.10000236358E+04  0.10000236358E+04  0.00000000000E+00 0.  1.
         24    2    1    2    0    0  0.11984041077E+03 -0.24854615098E+03 -0.85646466129E+03  0.90338121909E+03  0.80181031157E+02 0.  0.
        254    2    1    2    0    0 -0.11984041077E+03  0.24854615098E+03  0.16779238983E+04  0.19181252894E+04  0.88749034037E+03 0.  0.
         23    2    4    4    0    0  0.92549437174E+02 -0.27493383490E+03  0.30485890582E+03  0.43056646299E+03  0.91074226336E+02 0.  0.
         23    2    4    4    0    0 -0.21238984794E+03  0.52347998588E+03  0.13730649925E+04  0.14875588264E+04  0.91558972359E+02 0.  0.
          2    1    3    3  502    0  0.14026707195E+02 -0.11203210173E+03 -0.38781632660E+03  0.40391761970E+03  0.00000000000E+00 0. -1.
         -1    1    3    3    0  502  0.10581370358E+03 -0.13651404925E+03 -0.46864833469E+03  0.49946359939E+03  0.00000000000E+00 0.  1.
         13    1    5    5    0    0  0.38527837058E+02 -0.11427411714E+03  0.65393105855E+02  0.13718318545E+03  0.00000000000E+00 0.  1.
        -13    1    5    5    0    0  0.54021600116E+02 -0.16065971776E+03  0.23946579996E+03  0.29338327754E+03  0.00000000000E+00 0. -1.
          4    1    6    6  503    0 -0.16004796246E+02  0.82665085668E+01  0.77125475485E+02  0.79201184559E+02  0.00000000000E+00 0. -1.
         -4    1    6    6    0  503 -0.19638505170E+03  0.51521347731E+03  0.12959395170E+04  0.14083576419E+04  0.00000000000E+00 0.  1.
<mgrwt>
<rscale>  0 0.26992784E+04</rscale>
<asrwt>0</asrwt>
<pdfrwt beam="1">  1        2 0.28022813E+00 0.26992784E+04</pdfrwt>
<pdfrwt beam="2">  1       -1 0.15384979E+00 0.26992784E+04</pdfrwt>
<totfact> 0.27302018E+00</totfact>
</mgrwt>
</event>
<event>
12    7  0.1707730E-007  0.2734107E+04  0.7818608E-02  0.8324023E-01
         -1   -1    0    0    0  501 -0.00000000000E+00  0.00000000000E+00  0.12963733477E+04  0.12963733477E+04  0.00000000000E+00 0.  1.
          2   -1    0    0  501    0  0.00000000000E+00 -0.00000000000E+00 -0.14415868646E+04  0.14415868646E+04  0.00000000000E+00 0. -1.
         24    2    1    2    0    0 -0.24482651338E+02  0.17781327064E+03  0.11436533522E+04  0.11604213893E+04  0.80111493882E+02 0.  0.
        254    2    1    2    0    0  0.24482651338E+02 -0.17781327064E+03 -0.12888668691E+04  0.15775388229E+04  0.89175892043E+03 0.  0.
         23    2    4    4    0    0 -0.16895151978E+03 -0.40609299505E+03 -0.29929000770E+03  0.53940016145E+03  0.89004993084E+02 0.  0.
         23    2    4    4    0    0  0.19343417112E+03  0.22827972441E+03 -0.98957686135E+03  0.10381386614E+04  0.94557415029E+02 0.  0.
          4    1    3    3  502    0  0.50500320692E+01  0.14816483000E+03  0.74717057801E+03  0.76173630103E+03  0.00000000000E+00 0. -1.
         -3    1    3    3    0  502 -0.29532683408E+02  0.29648440637E+02  0.39648277417E+03  0.39868508830E+03  0.00000000000E+00 0.  1.
         13    1    5    5    0    0 -0.45019445508E+02 -0.15464798269E+03 -0.15741138272E+03  0.22521343751E+03  0.00000000000E+00 0.  1.
        -13    1    5    5    0    0 -0.12393207427E+03 -0.25144501236E+03 -0.14187862499E+03  0.31418672394E+03  0.00000000000E+00 0. -1.
          1    1    6    6  503    0  0.11018174449E+03  0.16962085204E+03 -0.76951404476E+03  0.79565263485E+03  0.00000000000E+00 0. -1.
         -1    1    6    6    0  503  0.83252426630E+02  0.58658872378E+02 -0.22006281659E+03  0.24248602660E+03  0.00000000000E+00 0.  1.
<mgrwt>
<rscale>  0 0.27341066E+04</rscale>
<asrwt>0</asrwt>
<pdfrwt beam="1">  1        2 0.22178260E+00 0.27341066E+04</pdfrwt>
<pdfrwt beam="2">  1       -1 0.19944205E+00 0.27341066E+04</pdfrwt>
<totfact> 0.20729479E+00</totfact>
</mgrwt>
</event>
<event>
12    7  0.1707730E-007  0.2184359E+04  0.7818608E-02  0.8524966E-01
          2   -1    0    0  501    0  0.00000000000E+00  0.00000000000E+00  0.66179521755E+03  0.66179521755E+03  0.00000000000E+00 0. -1.
         -1   -1    0    0    0  501 -0.00000000000E+00 -0.00000000000E+00 -0.18024557348E+04  0.18024557348E+04  0.00000000000E+00 0.  1.
         24    2    1    2    0    0 -0.38151875865E+03  0.73960313457E+03 -0.74130538721E+02  0.83958762786E+03  0.82720542811E+02 0.  0.
        254    2    1    2    0    0  0.38151875865E+03 -0.73960313457E+03 -0.10665299786E+04  0.16246633245E+04  0.89970848780E+03 0.  0.
         23    2    4    4    0    0 -0.53353556635E+02  0.13652912418E+03  0.51776235661E+01  0.17092264799E+03  0.87755000178E+02 0.  0.
         23    2    4    4    0    0  0.43487231529E+03 -0.87613225875E+03 -0.10717076021E+04  0.14537406765E+04  0.89906088294E+02 0.  0.
          2    1    3    3  502    0 -0.22136082075E+03  0.50226206231E+03 -0.28194448580E+02  0.54960232816E+03  0.00000000000E+00 0. -1.
         -1    1    3    3    0  502 -0.16015793791E+03  0.23734107227E+03 -0.45936090141E+02  0.28998529969E+03  0.00000000000E+00 0.  1.
         13    1    5    5    0    0  0.18089616574E+02  0.37410861967E+01  0.79486058975E+01  0.20109954984E+02  0.00000000000E+00 0.  1.
        -13    1    5    5    0    0 -0.71443173209E+02  0.13278803798E+03 -0.27709823314E+01  0.15081269301E+03  0.00000000000E+00 0. -1.
          1    1    6    6  503    0  0.41574170999E+03 -0.78997811719E+03 -0.99554920000E+03  0.13371704471E+04  0.00000000000E+00 0. -1.
         -1    1    6    6    0  503  0.19130605298E+02 -0.86154141559E+02 -0.76158402124E+02  0.11657022939E+03  0.00000000000E+00 0.  1.
<mgrwt>
<rscale>  0 0.21843595E+04</rscale>
<asrwt>0</asrwt>
<pdfrwt beam="1">  1        2 0.10181465E+00 0.21843595E+04</pdfrwt>
<pdfrwt beam="2">  1       -1 0.27730088E+00 0.21843595E+04</pdfrwt>
<totfact> 0.21284939E+00</totfact>
</mgrwt>
</event>
<event>
12    7  0.1707730E-007  0.1955356E+04  0.7818608E-02  0.8627782E-01
          2   -1    0    0  501    0  0.00000000000E+00  0.00000000000E+00  0.11816715736E+04  0.11816715736E+04  0.00000000000E+00 0. -1.
         -1   -1    0    0    0  501 -0.00000000000E+00 -0.00000000000E+00 -0.80890022573E+03  0.80890022573E+03  0.00000000000E+00 0.  1.
         24    2    1    2    0    0  0.55539799874E+03 -0.45108151990E+03  0.64064779090E+02  0.72281187290E+03  0.80070176056E+02 0.  0.
        254    2    1    2    0    0 -0.55539799874E+03  0.45108151990E+03  0.30870656878E+03  0.12677599264E+04  0.99998700534E+03 0.  0.
         23    2    4    4    0    0 -0.62288834573E+03  0.68746623514E+03  0.36466343263E+03  0.10012976151E+04  0.94961988633E+02 0.  0.
         23    2    4    4    0    0  0.67490346997E+02 -0.23638471524E+03 -0.55956863849E+02  0.26646231128E+03  0.86245650240E+02 0.  0.
          4    1    3    3  502    0  0.38554984666E+01 -0.46506888558E+01 -0.75053747253E+01  0.96345433221E+01  0.00000000000E+00 0. -1.
         -3    1    3    3    0  502  0.55154250027E+03 -0.44643083104E+03  0.71570153816E+02  0.71317732958E+03  0.00000000000E+00 0.  1.
         13    1    5    5    0    0 -0.53343877298E+03  0.63061772967E+03  0.33415784978E+03  0.89100904264E+03  0.00000000000E+00 0. -1.
        -13    1    5    5    0    0 -0.89449572758E+02  0.56848505468E+02  0.30505582851E+02  0.11028857251E+03  0.00000000000E+00 0.  1.
          2    1    6    6  503    0  0.74401344193E+02 -0.13351954951E+03 -0.88295114247E+01  0.15310450807E+03  0.00000000000E+00 0. -1.
         -2    1    6    6    0  503 -0.69109971960E+01 -0.10286516573E+03 -0.47127352424E+02  0.11335780322E+03  0.00000000000E+00 0.  1.
<mgrwt>
<rscale>  0 0.19553561E+04</rscale>
<asrwt>0</asrwt>
<pdfrwt beam="1">  1        2 0.18179563E+00 0.19553561E+04</pdfrwt>
<pdfrwt beam="2">  1       -1 0.12444619E+00 0.19553561E+04</pdfrwt>
<totfact> 0.11688130E+01</totfact>
</mgrwt>
</event>
<event>
12    7  0.1707730E-007  0.1758163E+04  0.7818608E-02  0.8728870E-01
         -1   -1    0    0    0  501 -0.00000000000E+00  0.00000000000E+00  0.13626139223E+04  0.13626139223E+04  0.00000000000E+00 0.  1.
          2   -1    0    0  501    0  0.00000000000E+00 -0.00000000000E+00 -0.56713354177E+03  0.56713354177E+03  0.00000000000E+00 0. -1.
         24    2    1    2    0    0  0.14352928603E+03 -0.49877909796E+03 -0.12782822956E+03  0.54035709742E+03  0.79148543592E+02 0.  0.
        254    2    1    2    0    0 -0.14352928603E+03  0.49877909796E+03  0.92330861006E+03  0.13893903666E+04  0.89918049186E+03 0.  0.
         23    2    4    4    0    0 -0.86311191759E+02  0.71098752411E+03  0.89491394516E+03  0.11499237536E+04  0.92199721460E+02 0.  0.
         23    2    4    4    0    0 -0.57218094268E+02 -0.21220842616E+03  0.28394664895E+02  0.23946661299E+03  0.90728580402E+02 0.  0.
          2    1    3    3  502    0  0.30009746224E+02 -0.19504884421E+03 -0.18669964177E+02  0.19822513478E+03  0.00000000000E+00 0. -1.
         -1    1    3    3    0  502  0.11351953980E+03 -0.30373025375E+03 -0.10915826539E+03  0.34213196264E+03  0.00000000000E+00 0.  1.
         13    1    5    5    0    0 -0.97618409207E+02  0.67220731621E+03  0.81985319320E+03  0.10646836564E+04  0.00000000000E+00 0. -1.
        -13    1    5    5    0    0  0.11307217448E+02  0.38780207900E+02  0.75060751965E+02  0.85240097236E+02  0.00000000000E+00 0.  1.
          1    1    6    6  503    0 -0.58134662342E+01 -0.17271907122E+03  0.16998988763E+02  0.17365091296E+03  0.00000000000E+00 0. -1.
         -1    1    6    6    0  503 -0.51404628034E+02 -0.39489354934E+02  0.11395676132E+02  0.65815700034E+02  0.00000000000E+00 0.  1.
<mgrwt>
<rscale>  0 0.17581627E+04</rscale>
<asrwt>0</asrwt>
<pdfrwt beam="1">  1        2 0.87251314E-01 0.17581627E+04</pdfrwt>
<pdfrwt beam="2">  1       -1 0.20963291E+00 0.17581627E+04</pdfrwt>
<totfact> 0.74253768E+00</totfact>
</mgrwt>
</event>
<event>
12    7  0.1707730E-007  0.1416401E+04  0.7818608E-02  0.8942031E-01
          2   -1    0    0  501    0  0.00000000000E+00  0.00000000000E+00  0.29902493550E+04  0.29902493550E+04  0.00000000000E+00 0. -1.
         -1   -1    0    0    0  501 -0.00000000000E+00 -0.00000000000E+00 -0.16772791461E+03  0.16772791461E+03  0.00000000000E+00 0.  1.
         24    2    1    2    0    0 -0.22177871468E+03  0.31938430729E+03  0.11810457361E+04  0.12460897409E+04  0.81721953040E+02 0.  0.
        254    2    1    2    0    0  0.22177871468E+03 -0.31938430729E+03  0.16414757043E+04  0.19118875287E+04  0.89982181603E+03 0.  0.
         23    2    4    4    0    0  0.44820565991E+03  0.81150531823E+02  0.11098841751E+04  0.12031094366E+04  0.90308981152E+02 0.  0.
         23    2    4    4    0    0 -0.22642694523E+03 -0.40053483911E+03  0.53159152921E+03  0.70877809205E+03  0.89886099977E+02 0.  0.
          4    1    3    3  502    0 -0.53001092500E+02  0.32138630368E+02  0.14201870161E+03  0.15495586137E+03  0.00000000000E+00 0. -1.
         -3    1    3    3    0  502 -0.16877762218E+03  0.28724567692E+03  0.10390270345E+04  0.10911338796E+04  0.00000000000E+00 0.  1.
         13    1    5    5    0    0  0.26466792791E+03  0.92072890819E+02  0.64993942581E+03  0.70777665016E+03  0.00000000000E+00 0. -1.
        -13    1    5    5    0    0  0.18353773200E+03 -0.10922358996E+02  0.45994474924E+03  0.49533278646E+03  0.00000000000E+00 0.  1.
          3    1    6    6  503    0 -0.13258467724E+02 -0.85938338193E+02  0.12472733602E+03  0.15204635243E+03  0.00000000000E+00 0. -1.
         -3    1    6    6    0  503 -0.21316847751E+03 -0.31459650092E+03  0.40686419319E+03  0.55673173962E+03  0.00000000000E+00 0.  1.
<mgrwt>
<rscale>  0 0.14164015E+04</rscale>
<asrwt>0</asrwt>
<pdfrwt beam="1">  1        2 0.46003832E+00 0.14164015E+04</pdfrwt>
<pdfrwt beam="2">  1       -1 0.25804297E-01 0.14164015E+04</pdfrwt>
<totfact> 0.26157769E+01</totfact>
</mgrwt>
</event>
<event>
12    7  0.1707730E-007  0.3939946E+04  0.7818608E-02  0.8016772E-01
         -1   -1    0    0    0  501 -0.00000000000E+00  0.00000000000E+00  0.17765523918E+04  0.17765523918E+04  0.00000000000E+00 0.  1.
          2   -1    0    0  501    0  0.00000000000E+00 -0.00000000000E+00 -0.21844521230E+04  0.21844521230E+04  0.00000000000E+00 0. -1.
         24    2    1    2    0    0 -0.50762413125E+02 -0.13434683424E+04  0.11045054157E+04  0.17418255974E+04  0.80871432766E+02 0.  0.
        254    2    1    2    0    0  0.50762413125E+02  0.13434683424E+04 -0.15124051469E+04  0.22191789174E+04  0.91098942342E+03 0.  0.
         23    2    4    4    0    0  0.43905079177E+03  0.91084084654E+03 -0.11212764799E+04  0.15126509471E+04  0.91952694326E+02 0.  0.
         23    2    4    4    0    0 -0.38828837865E+03  0.43262749586E+03 -0.39112866703E+03  0.70652797032E+03  0.90916024490E+02 0.  0.
          4    1    3    3  502    0 -0.16373083810E+02 -0.43361065393E+03  0.30827948768E+03  0.53228048959E+03  0.00000000000E+00 0. -1.
         -3    1    3    3    0  502 -0.34389329315E+02 -0.90985768847E+03  0.79622592804E+03  0.12095451078E+04  0.00000000000E+00 0.  1.
         13    1    5    5    0    0  0.40577731311E+03  0.87155189304E+03 -0.10851139691E+04  0.14497345467E+04  0.00000000000E+00 0. -1.
        -13    1    5    5    0    0  0.33273478658E+02  0.39288953499E+02 -0.36162510778E+02  0.62916400364E+02  0.00000000000E+00 0.  1.
          2    1    6    6  503    0 -0.39221471706E+03  0.41878883036E+03 -0.37836231457E+03  0.68729506749E+03  0.00000000000E+00 0. -1.
         -2    1    6    6    0  503  0.39263384129E+01  0.13838665500E+02 -0.12766352456E+02  0.19232902828E+02  0.00000000000E+00 0.  1.
<mgrwt>
<rscale>  0 0.39399460E+04</rscale>
<asrwt>0</asrwt>
<pdfrwt beam="1">  1        2 0.33606955E+00 0.39399460E+04</pdfrwt>
<pdfrwt beam="2">  1       -1 0.27331575E+00 0.39399460E+04</pdfrwt>
<totfact> 0.23358160E-01</totfact>
</mgrwt>
</event>
<event>
12    7  0.1707730E-007  0.1249687E+04  0.7818608E-02  0.9070444E-01
          2   -1    0    0  501    0  0.00000000000E+00  0.00000000000E+00  0.13943955165E+04  0.13943955165E+04  0.00000000000E+00 0. -1.
         -1   -1    0    0    0  501 -0.00000000000E+00 -0.00000000000E+00 -0.27999916775E+03  0.27999916775E+03  0.00000000000E+00 0.  1.
         24    2    1    2    0    0  0.14474297669E+03  0.17966987209E+03  0.14450749497E+03  0.28380350128E+03  0.80188646317E+02 0.  0.
        254    2    1    2    0    0 -0.14474297669E+03 -0.17966987209E+03  0.96988885382E+03  0.13905911830E+04  0.96944708842E+03 0.  0.
         23    2    4    4    0    0 -0.59236896308E+02  0.37323577369E+03  0.59545258387E+03  0.71134377928E+03  0.92909848983E+02 0.  0.
         23    2    4    4    0    0 -0.85506080377E+02 -0.55290564578E+03  0.37443626994E+03  0.67924740372E+03  0.90324815460E+02 0.  0.
          4    1    3    3  502    0 -0.51893074987E+01  0.25760361191E+02  0.28261225849E+01  0.26429379294E+02  0.00000000000E+00 0. -1.
         -3    1    3    3    0  502  0.14993228418E+03  0.15390951090E+03  0.14168137238E+03  0.25737412199E+03  0.00000000000E+00 0.  1.
         13    1    5    5    0    0 -0.41642460368E+02  0.21806667163E+03  0.26395726460E+03  0.34490666175E+03  0.00000000000E+00 0. -1.
        -13    1    5    5    0    0 -0.17594435940E+02  0.15516910206E+03  0.33149531927E+03  0.36643711754E+03  0.00000000000E+00 0.  1.
          1    1    6    6  503    0 -0.81625995736E+02 -0.38485744663E+03  0.30313339471E+03  0.49665673497E+03  0.00000000000E+00 0. -1.
         -1    1    6    6    0  503 -0.38800846410E+01 -0.16804819916E+03  0.71302875231E+02  0.18259066874E+03  0.00000000000E+00 0.  1.
<mgrwt>
<rscale>  0 0.12496873E+04</rscale>
<asrwt>0</asrwt>
<pdfrwt beam="1">  1        2 0.21452238E+00 0.12496873E+04</pdfrwt>
<pdfrwt beam="2">  1       -1 0.43076796E-01 0.12496873E+04</pdfrwt>
<totfact> 0.86770971E+01</totfact>
</mgrwt>
</event>
<event>
12    7  0.1707730E-007  0.1361263E+04  0.7818608E-02  0.8982346E-01
          2   -1    0    0  501    0  0.00000000000E+00  0.00000000000E+00  0.13101908112E+04  0.13101908112E+04  0.00000000000E+00 0. -1.
         -1   -1    0    0    0  501 -0.00000000000E+00 -0.00000000000E+00 -0.35358141135E+03  0.35358141135E+03  0.00000000000E+00 0.  1.
         24    2    1    2    0    0  0.27064280594E+03  0.24183443107E+03  0.13135787260E+03  0.39350717255E+03  0.76560980256E+02 0.  0.
        254    2    1    2    0    0 -0.27064280594E+03 -0.24183443107E+03  0.82525152725E+03  0.12702650500E+04  0.89487529497E+03 0.  0.
         23    2    4    4    0    0 -0.13707861219E+03 -0.17023653413E+03 -0.14945119082E+03  0.27975007843E+03  0.90296314837E+02 0.  0.
         23    2    4    4    0    0 -0.13356419375E+03 -0.71597896944E+02  0.97470271807E+03  0.99051497156E+03  0.90049250838E+02 0.  0.
          2    1    3    3  502    0  0.25893481779E+03  0.22957116453E+03  0.10403185414E+03  0.36134856597E+03  0.00000000000E+00 0. -1.
         -3    1    3    3    0  502  0.11707988147E+02  0.12263266537E+02  0.27326018460E+02  0.32158606585E+02  0.00000000000E+00 0.  1.
         13    1    5    5    0    0 -0.55490752546E+02 -0.40066543966E+02 -0.94309198549E+02  0.11652800734E+03  0.00000000000E+00 0. -1.
        -13    1    5    5    0    0 -0.81587859646E+02 -0.13016999016E+03 -0.55141992270E+02  0.16322207109E+03  0.00000000000E+00 0.  1.
          2    1    6    6  503    0 -0.95270460544E+02 -0.38855568994E+02  0.84709956487E+03  0.85332519516E+03  0.00000000000E+00 0.  1.
         -2    1    6    6    0  503 -0.38293733203E+02 -0.32742327950E+02  0.12760315320E+03  0.13718977640E+03  0.00000000000E+00 0. -1.
<mgrwt>
<rscale>  0 0.13612628E+04</rscale>
<asrwt>0</asrwt>
<pdfrwt beam="1">  1        2 0.20156781E+00 0.13612628E+04</pdfrwt>
<pdfrwt beam="2">  1       -1 0.54397141E-01 0.13612628E+04</pdfrwt>
<totfact> 0.61914971E+01</totfact>
</mgrwt>
</event>
<event>
12    7  0.1707730E-007  0.1924152E+04  0.7818608E-02  0.8642927E-01
          2   -1    0    0  501    0  0.00000000000E+00  0.00000000000E+00  0.10833599854E+04  0.10833599854E+04  0.00000000000E+00 0. -1.
         -1   -1    0    0    0  501 -0.00000000000E+00 -0.00000000000E+00 -0.85437036141E+03  0.85437036141E+03  0.00000000000E+00 0.  1.
         24    2    1    2    0    0 -0.59480949635E+03 -0.15503576418E+03  0.50968360984E+03  0.80269364769E+03  0.81885803232E+02 0.  0.
        254    2    1    2    0    0  0.59480949635E+03  0.15503576418E+03 -0.28069398586E+03  0.11350366991E+04  0.91196752657E+03 0.  0.
         23    2    4    4    0    0  0.35159736356E+03  0.30612215929E+03 -0.55333092491E+03  0.72923699071E+03  0.90994470600E+02 0.  0.
         23    2    4    4    0    0  0.24321213279E+03 -0.15108639511E+03  0.27263693905E+03  0.40579970841E+03  0.91450874749E+02 0.  0.
          2    1    3    3  502    0 -0.54836532820E+03 -0.15353281461E+03  0.44328474480E+03  0.72164965413E+03  0.00000000000E+00 0. -1.
         -1    1    3    3    0  502 -0.46444168153E+02 -0.15029495696E+01  0.66398865045E+02  0.81043993559E+02  0.00000000000E+00 0.  1.
         13    1    5    5    0    0  0.31365202647E+03  0.23617201232E+03 -0.48756857123E+03  0.62600153735E+03  0.00000000000E+00 0. -1.
        -13    1    5    5    0    0  0.37945337099E+02  0.69950146973E+02 -0.65762353676E+02  0.10323545336E+03  0.00000000000E+00 0.  1.
          1    1    6    6  503    0  0.24696321911E+03 -0.13630596498E+03  0.24235602733E+03  0.37189594198E+03  0.00000000000E+00 0. -1.
         -1    1    6    6    0  503 -0.37510863229E+01 -0.14780430134E+02  0.30280911720E+02  0.33903766430E+02  0.00000000000E+00 0.  1.
<mgrwt>
<rscale>  0 0.19241524E+04</rscale>
<asrwt>0</asrwt>
<pdfrwt beam="1">  1        2 0.16667077E+00 0.19241524E+04</pdfrwt>
<pdfrwt beam="2">  1       -1 0.13144159E+00 0.19241524E+04</pdfrwt>
<totfact> 0.11730943E+01</totfact>
</mgrwt>
</event>
<event>
12    7  0.1707730E-007  0.1128548E+04  0.7818608E-02  0.9177805E-01
          2   -1    0    0  501    0  0.00000000000E+00  0.00000000000E+00  0.28849573315E+04  0.28849573315E+04  0.00000000000E+00 0. -1.
         -1   -1    0    0    0  501 -0.00000000000E+00 -0.00000000000E+00 -0.11036744355E+03  0.11036744355E+03  0.00000000000E+00 0.  1.
         24    2    1    2    0    0 -0.15834284234E+02  0.20086731661E+03  0.33030248159E+03  0.39531183223E+03  0.81075963910E+02 0.  0.
        254    2    1    2    0    0  0.15834284234E+02 -0.20086731661E+03  0.24442874064E+04  0.26000129428E+04  0.86309210079E+03 0.  0.
         23    2    4    4    0    0 -0.12175485075E+03  0.16042627612E+03  0.19663472577E+04  0.19787499376E+04  0.91481933229E+02 0.  0.
         23    2    4    4    0    0  0.13758913499E+03 -0.36129359273E+03  0.47794014865E+03  0.62126300516E+03  0.89872719288E+02 0.  0.
          4    1    3    3  502    0 -0.16542801900E+02  0.29670709580E+02  0.11684320727E+03  0.12168134774E+03  0.00000000000E+00 0. -1.
         -3    1    3    3    0  502  0.70851766602E+00  0.17119660703E+03  0.21345927432E+03  0.27363048450E+03  0.00000000000E+00 0.  1.
         13    1    5    5    0    0 -0.12824161163E+02  0.68517201083E+02  0.40930881554E+03  0.41520208625E+03  0.00000000000E+00 0.  1.
        -13    1    5    5    0    0 -0.10893068959E+03  0.91909075034E+02  0.15570384422E+04  0.15635478514E+04  0.00000000000E+00 0. -1.
          1    1    6    6  503    0  0.12323938561E+03 -0.32817813739E+03  0.38056773629E+03  0.51741727641E+03  0.00000000000E+00 0. -1.
         -1    1    6    6    0  503  0.14349749376E+02 -0.33115455340E+02  0.97372412364E+02  0.10384572875E+03  0.00000000000E+00 0.  1.
<mgrwt>
<rscale>  0 0.11285484E+04</rscale>
<asrwt>0</asrwt>
<pdfrwt beam="1">  1        2 0.44383953E+00 0.11285484E+04</pdfrwt>
<pdfrwt beam="2">  1       -1 0.16979609E-01 0.11285484E+04</pdfrwt>
<totfact> 0.63158098E+01</totfact>
</mgrwt>
</event>
<event>
12    7  0.1707730E-007  0.2924809E+04  0.7818608E-02  0.8265534E-01
          2   -1    0    0  501    0  0.00000000000E+00  0.00000000000E+00  0.13715608735E+04  0.13715608735E+04  0.00000000000E+00 0. -1.
         -3   -1    0    0    0  501 -0.00000000000E+00 -0.00000000000E+00 -0.15592648839E+04  0.15592648839E+04  0.00000000000E+00 0.  1.
         24    2    1    2    0    0  0.62503859660E+03 -0.10489102100E+04  0.42472303288E+03  0.12953153966E+04  0.81033611724E+02 0.  0.
        254    2    1    2    0    0 -0.62503859660E+03  0.10489102100E+04 -0.61242704322E+03  0.16355103607E+04  0.89941168602E+03 0.  0.
         23    2    4    4    0    0 -0.12508926598E+03  0.80240635367E+03 -0.20790393000E+02  0.81754937102E+03  0.91931783142E+02 0.  0.
         23    2    4    4    0    0 -0.49994933062E+03  0.24650385632E+03 -0.59163665022E+03  0.81796098971E+03  0.91174395700E+02 0.  0.
          4    1    3    3  502    0  0.38773825009E+03 -0.68975485493E+03  0.30996023008E+03  0.84981059932E+03  0.00000000000E+00 0. -1.
         -3    1    3    3    0  502  0.23730034652E+03 -0.35915535505E+03  0.11476280280E+03  0.44550479731E+03  0.00000000000E+00 0.  1.
         13    1    5    5    0    0 -0.32360967080E+02  0.11625168341E+03  0.26489088451E+02  0.12354496304E+03  0.00000000000E+00 0.  1.
        -13    1    5    5    0    0 -0.92728298900E+02  0.68615467025E+03 -0.47279481451E+02  0.69400440798E+03  0.00000000000E+00 0. -1.
          2    1    6    6  503    0 -0.45832389662E+03  0.24916218290E+03 -0.53115931101E+03  0.74449499748E+03  0.00000000000E+00 0. -1.
         -2    1    6    6    0  503 -0.41625434008E+02 -0.26583265804E+01 -0.60477339217E+02  0.73465992237E+02  0.00000000000E+00 0.  1.
<mgrwt>
<rscale>  0 0.29248089E+04</rscale>
<asrwt>0</asrwt>
<pdfrwt beam="1">  1        2 0.21100937E+00 0.29248089E+04</pdfrwt>
<pdfrwt beam="2">  1       -3 0.23988690E+00 0.29248089E+04</pdfrwt>
<totfact> 0.68225145E-01</totfact>
</mgrwt>
</event>
<event>
12    7  0.1707730E-007  0.1783354E+04  0.7818608E-02  0.8715202E-01
         -3   -1    0    0    0  501 -0.00000000000E+00  0.00000000000E+00  0.21710540065E+04  0.21710540065E+04  0.00000000000E+00 0.  1.
          2   -1    0    0  501    0  0.00000000000E+00 -0.00000000000E+00 -0.36622200296E+03  0.36622200296E+03  0.00000000000E+00 0. -1.
         24    2    1    2    0    0 -0.93546090820E+02  0.39568121750E+03  0.14084784693E+04  0.14682296796E+04  0.81069702681E+02 0.  0.
        254    2    1    2    0    0  0.93546090820E+02 -0.39568121750E+03  0.39635353429E+03  0.10690463299E+04  0.90578663838E+03 0.  0.
         23    2    4    4    0    0  0.40314837675E+03 -0.14890961473E+03 -0.76129467282E+02  0.44582319033E+03  0.90884180206E+02 0.  0.
         23    2    4    4    0    0 -0.30960228593E+03 -0.24677160277E+03  0.47248300157E+03  0.62322313954E+03  0.91744730047E+02 0.  0.
          4    1    3    3  502    0 -0.84257506533E+02  0.39268080261E+03  0.13349134026E+04  0.13940198465E+04  0.00000000000E+00 0. -1.
         -1    1    3    3    0  502 -0.92885842869E+01  0.30004148938E+01  0.73565066711E+02  0.74209833093E+02  0.00000000000E+00 0.  1.
         13    1    5    5    0    0  0.78302749431E+02 -0.69744575493E+02 -0.21382032147E+02  0.10701783813E+03  0.00000000000E+00 0. -1.
        -13    1    5    5    0    0  0.32484562732E+03 -0.79165039238E+02 -0.54747435135E+02  0.33880535220E+03  0.00000000000E+00 0.  1.
          1    1    6    6  503    0 -0.80332497486E+02 -0.19038045064E+02  0.81916343437E+02  0.11630152464E+03  0.00000000000E+00 0. -1.
         -1    1    6    6    0  503 -0.22926978845E+03 -0.22773355771E+03  0.39056665814E+03  0.50692161490E+03  0.00000000000E+00 0.  1.
<mgrwt>
<rscale>  0 0.17833539E+04</rscale>
<asrwt>0</asrwt>
<pdfrwt beam="1">  1        2 0.56341848E-01 0.17833539E+04</pdfrwt>
<pdfrwt beam="2">  1       -3 0.33400830E+00 0.17833539E+04</pdfrwt>
<totfact> 0.12695418E+00</totfact>
</mgrwt>
</event>
<event>
12    7  0.1707730E-007  0.3326814E+04  0.7818608E-02  0.8156106E-01
         -1   -1    0    0    0  501 -0.00000000000E+00  0.00000000000E+00  0.11985260240E+04  0.11985260240E+04  0.00000000000E+00 0.  1.
          2   -1    0    0  501    0  0.00000000000E+00 -0.00000000000E+00 -0.23086052027E+04  0.23086052027E+04  0.00000000000E+00 0. -1.
         24    2    1    2    0    0 -0.12910199242E+04  0.42472535582E+03  0.25400176021E+03  0.13849108457E+04  0.79605801438E+02 0.  0.
        254    2    1    2    0    0  0.12910199242E+04 -0.42472535582E+03 -0.13640809388E+04  0.21222203810E+04  0.89217625244E+03 0.  0.
         23    2    4    4    0    0  0.10827688288E+04 -0.15328899902E+03 -0.53595177779E+03  0.12215530331E+04  0.95192703482E+02 0.  0.
         23    2    4    4    0    0  0.20825109546E+03 -0.27143635680E+03 -0.82812916105E+03  0.90066734795E+03  0.91419635399E+02 0.  0.
          4    1    3    3  502    0 -0.13256014031E+03  0.62426283812E+02  0.10214934489E+02  0.14687946281E+03  0.00000000000E+00 0. -1.
         -3    1    3    3    0  502 -0.11584597839E+04  0.36229907201E+03  0.24378682572E+03  0.12380313828E+04  0.00000000000E+00 0.  1.
         13    1    5    5    0    0  0.44680769449E+03 -0.26866487027E+02 -0.25225347715E+03  0.51380029264E+03  0.00000000000E+00 0. -1.
        -13    1    5    5    0    0  0.63596113426E+03 -0.12642251200E+03 -0.28369830064E+03  0.70775274045E+03  0.00000000000E+00 0.  1.
          3    1    6    6  503    0  0.11870476567E+03 -0.21718171616E+03 -0.62297796080E+03  0.67034338877E+03  0.00000000000E+00 0. -1.
         -3    1    6    6    0  503  0.89546329786E+02 -0.54254640635E+02 -0.20515120025E+03  0.23032395918E+03  0.00000000000E+00 0.  1.
<mgrwt>
<rscale>  0 0.33268143E+04</rscale>
<asrwt>0</asrwt>
<pdfrwt beam="1">  1        2 0.35517003E+00 0.33268143E+04</pdfrwt>
<pdfrwt beam="2">  1       -1 0.18438862E+00 0.33268143E+04</pdfrwt>
<totfact> 0.82216486E-01</totfact>
</mgrwt>
</event>
<event>
12    7  0.1707730E-007  0.2164317E+04  0.7818608E-02  0.8533429E-01
         -1   -1    0    0    0  501 -0.00000000000E+00  0.00000000000E+00  0.84307833484E+03  0.84307833484E+03  0.00000000000E+00 0.  1.
          2   -1    0    0  501    0  0.00000000000E+00 -0.00000000000E+00 -0.13890371389E+04  0.13890371389E+04  0.00000000000E+00 0. -1.
         24    2    1    2    0    0  0.79163475372E+03  0.41700303827E+03 -0.22620805517E+03  0.92668918405E+03  0.83699715605E+02 0.  0.
        254    2    1    2    0    0 -0.79163475372E+03 -0.41700303827E+03 -0.31975074892E+03  0.13054262897E+04  0.89516486706E+03 0.  0.
         23    2    4    4    0    0 -0.72316729582E+03 -0.10608498164E+03  0.12863597188E+03  0.74790661828E+03  0.92693771780E+02 0.  0.
         23    2    4    4    0    0 -0.68467457896E+02 -0.31091805663E+03 -0.44838672079E+03  0.55751967143E+03  0.91758933733E+02 0.  0.
          4    1    3    3  502    0  0.49753729551E+03  0.24179636186E+03 -0.10190420762E+03  0.56248849639E+03  0.00000000000E+00 0. -1.
         -3    1    3    3    0  502  0.29409745821E+03  0.17520667641E+03 -0.12430384754E+03  0.36420068767E+03  0.00000000000E+00 0.  1.
         13    1    5    5    0    0 -0.21726015680E+03 -0.32895291568E+01  0.63593556332E+01  0.21737809949E+03  0.00000000000E+00 0.  1.
        -13    1    5    5    0    0 -0.50590713903E+03 -0.10279545248E+03  0.12227661624E+03  0.53052851879E+03  0.00000000000E+00 0. -1.
          4    1    6    6  503    0 -0.13504318426E+02 -0.24451722384E+03 -0.34079850193E+03  0.41966017000E+03  0.00000000000E+00 0. -1.
         -4    1    6    6    0  503 -0.54963139470E+02 -0.66400832794E+02 -0.10758821887E+03  0.13785950143E+03  0.00000000000E+00 0.  1.
<mgrwt>
<rscale>  0 0.21643171E+04</rscale>
<asrwt>0</asrwt>
<pdfrwt beam="1">  1        2 0.21369802E+00 0.21643171E+04</pdfrwt>
<pdfrwt beam="2">  1       -1 0.12970436E+00 0.21643171E+04</pdfrwt>
<totfact> 0.78233681E+00</totfact>
</mgrwt>
</event>
<event>
12    7  0.1707730E-007  0.1401430E+04  0.7818608E-02  0.8952784E-01
         -1   -1    0    0    0  501 -0.00000000000E+00  0.00000000000E+00  0.15995367096E+04  0.15995367096E+04  0.00000000000E+00 0.  1.
          2   -1    0    0  501    0  0.00000000000E+00 -0.00000000000E+00 -0.30696479790E+03  0.30696479790E+03  0.00000000000E+00 0. -1.
         24    2    1    2    0    0  0.58735576682E+02  0.16023901350E+02 -0.16493227975E+03  0.19524651353E+03  0.84922969572E+02 0.  0.
        254    2    1    2    0    0 -0.58735576682E+02 -0.16023901350E+02  0.14575041914E+04  0.17112549940E+04  0.89463319462E+03 0.  0.
         23    2    4    4    0    0  0.24236682177E+03 -0.34081689652E+03  0.87347375792E+03  0.97271253577E+03  0.91189024682E+02 0.  0.
         23    2    4    4    0    0 -0.30110239845E+03  0.32479299517E+03  0.58403043350E+03  0.73854245818E+03  0.90555348902E+02 0.  0.
          2    1    3    3  502    0  0.67826188017E+02  0.33010379824E+02 -0.87843380457E+02  0.11578659874E+03  0.00000000000E+00 0. -1.
         -1    1    3    3    0  502 -0.90906113342E+01 -0.16986478474E+02 -0.77088899291E+02  0.79459914795E+02  0.00000000000E+00 0.  1.
         13    1    5    5    0    0  0.10840580912E+03 -0.13306134407E+03  0.26255272771E+03  0.31367351747E+03  0.00000000000E+00 0. -1.
        -13    1    5    5    0    0  0.13396101265E+03 -0.20775555244E+03  0.61092103022E+03  0.65903901830E+03  0.00000000000E+00 0.  1.
          1    1    6    6  503    0 -0.13199395623E+03  0.16251693012E+03  0.34654811741E+03  0.40488239618E+03  0.00000000000E+00 0. -1.
         -1    1    6    6    0  503 -0.16910844221E+03  0.16227606504E+03  0.23748231609E+03  0.33366006200E+03  0.00000000000E+00 0.  1.
<mgrwt>
<rscale>  0 0.14014299E+04</rscale>
<asrwt>0</asrwt>
<pdfrwt beam="1">  1        2 0.47225355E-01 0.14014299E+04</pdfrwt>
<pdfrwt beam="2">  1       -1 0.24608257E+00 0.14014299E+04</pdfrwt>
<totfact> 0.88289206E+00</totfact>
</mgrwt>
</event>
<event>
12    7  0.1707730E-007  0.1367903E+04  0.7818608E-02  0.8977386E-01
          2   -1    0    0  501    0  0.00000000000E+00  0.00000000000E+00  0.23096550807E+04  0.23096550807E+04  0.00000000000E+00 0. -1.
         -1   -1    0    0    0  501 -0.00000000000E+00 -0.00000000000E+00 -0.20253647749E+03  0.20253647749E+03  0.00000000000E+00 0.  1.
         24    2    1    2    0    0 -0.14469739084E+03 -0.37542118205E+03  0.51543077583E+03  0.65867992265E+03  0.79447825478E+02 0.  0.
        254    2    1    2    0    0  0.14469739084E+03  0.37542118205E+03  0.15916878273E+04  0.18535116355E+04  0.86032368585E+03 0.  0.
         23    2    4    4    0    0 -0.23978099196E+03 -0.55081748018E+02  0.95403709888E+03  0.98915914646E+03  0.87864144685E+02 0.  0.
         23    2    4    4    0    0  0.38447838280E+03  0.43050293007E+03  0.63765072846E+03  0.86435248905E+03  0.85734323280E+02 0.  0.
          4    1    3    3  502    0 -0.15095312710E+03 -0.36577297019E+03  0.48372421940E+03  0.62495266439E+03  0.00000000000E+00 0. -1.
         -3    1    3    3    0  502  0.62557362582E+01 -0.96482118644E+01  0.31706556435E+02  0.33727258253E+02  0.00000000000E+00 0.  1.
         13    1    5    5    0    0 -0.17686726814E+03 -0.69991400369E+02  0.79592006978E+03  0.81833341869E+03  0.00000000000E+00 0.  1.
        -13    1    5    5    0    0 -0.62913723816E+02  0.14909652351E+02  0.15811702910E+03  0.17082572778E+03  0.00000000000E+00 0. -1.
          2    1    6    6  503    0  0.13304174784E+03  0.11210944381E+03  0.23852748899E+03  0.29523549425E+03  0.00000000000E+00 0. -1.
         -2    1    6    6    0  503  0.25143663495E+03  0.31839348626E+03  0.39912323947E+03  0.56911699480E+03  0.00000000000E+00 0.  1.
<mgrwt>
<rscale>  0 0.13679026E+04</rscale>
<asrwt>0</asrwt>
<pdfrwt beam="1">  1        2 0.35533153E+00 0.13679026E+04</pdfrwt>
<pdfrwt beam="2">  1       -1 0.31159460E-01 0.13679026E+04</pdfrwt>
<totfact> 0.47590962E+01</totfact>
</mgrwt>
</event>
<event>
12    7  0.1707730E-007  0.1407606E+04  0.7818608E-02  0.8948331E-01
          2   -1    0    0  501    0  0.00000000000E+00  0.00000000000E+00  0.32082051070E+04  0.32082051070E+04  0.00000000000E+00 0. -1.
         -1   -1    0    0    0  501 -0.00000000000E+00 -0.00000000000E+00 -0.15439750212E+03  0.15439750212E+03  0.00000000000E+00 0.  1.
         24    2    1    2    0    0 -0.51360122912E+02 -0.17845817871E+03  0.33438400964E+02  0.20476853699E+03  0.79541456550E+02 0.  0.
        254    2    1    2    0    0  0.51360122912E+02  0.17845817871E+03  0.30203692039E+04  0.31578340721E+04  0.90266312394E+03 0.  0.
         23    2    4    4    0    0  0.39483948492E+03 -0.13537262007E+03  0.17652965295E+04  0.18162490176E+04  0.90910350022E+02 0.  0.
         23    2    4    4    0    0 -0.34347936201E+03  0.31383079878E+03  0.12550726744E+04  0.13415850545E+04  0.90416801926E+02 0.  0.
          4    1    3    3  502    0  0.16543649664E+02 -0.64678859241E+02  0.27292971981E+02  0.72124569298E+02  0.00000000000E+00 0. -1.
         -3    1    3    3    0  502 -0.67903772576E+02 -0.11377931947E+03  0.61454289832E+01  0.13264396770E+03  0.00000000000E+00 0.  1.
         13    1    5    5    0    0  0.30400817079E+03 -0.10172781241E+03  0.11700114244E+04  0.12131348849E+04  0.00000000000E+00 0.  1.
        -13    1    5    5    0    0  0.90831314127E+02 -0.33644807654E+02  0.59528510513E+03  0.60311413273E+03  0.00000000000E+00 0. -1.
          1    1    6    6  503    0 -0.20654034676E+03  0.15140547168E+03  0.58387757105E+03  0.63757003511E+03  0.00000000000E+00 0. -1.
         -1    1    6    6    0  503 -0.13693901525E+03  0.16242532710E+03  0.67119510333E+03  0.70401501938E+03  0.00000000000E+00 0.  1.
<mgrwt>
<rscale>  0 0.14076063E+04</rscale>
<asrwt>0</asrwt>
<pdfrwt beam="1">  1        2 0.49356997E+00 0.14076063E+04</pdfrwt>
<pdfrwt beam="2">  1       -1 0.23753464E-01 0.14076063E+04</pdfrwt>
<totfact> 0.21957106E+01</totfact>
</mgrwt>
</event>
<event>
12    7  0.1707730E-007  0.1770833E+04  0.7818608E-02  0.8721966E-01
         -1   -1    0    0    0  501 -0.00000000000E+00  0.00000000000E+00  0.63748697806E+03  0.63748697806E+03  0.00000000000E+00 0.  1.
          2   -1    0    0  501    0  0.00000000000E+00 -0.00000000000E+00 -0.12297705204E+04  0.12297705204E+04  0.00000000000E+00 0. -1.
         24    2    1    2    0    0 -0.10909833751E+03  0.97047673300E+02  0.45019653909E+03  0.47938387306E+03  0.76231724358E+02 0.  0.
        254    2    1    2    0    0  0.10909833751E+03 -0.97047673300E+02 -0.10424800814E+04  0.13878736254E+04  0.90449310764E+03 0.  0.
         23    2    4    4    0    0  0.22284014812E+03  0.43007669341E+01 -0.11551528914E+04  0.11805421894E+04  0.98109277177E+02 0.  0.
         23    2    4    4    0    0 -0.11374181061E+03 -0.10134844023E+03  0.11267280994E+03  0.20733143601E+03  0.84157331464E+02 0.  0.
          2    1    3    3  502    0 -0.17648112117E+02  0.58044155069E+02  0.11878386319E+03  0.13337985587E+03  0.00000000000E+00 0. -1.
         -1    1    3    3    0  502 -0.91450225396E+02  0.39003518231E+02  0.33141267590E+03  0.34600401719E+03  0.00000000000E+00 0.  1.
         13    1    5    5    0    0  0.19124341354E+03 -0.30552500914E+02 -0.84997892360E+03  0.87176353967E+03  0.00000000000E+00 0.  1.
        -13    1    5    5    0    0  0.31596734588E+02  0.34853267848E+02 -0.30517396778E+03  0.30877864972E+03  0.00000000000E+00 0. -1.
          4    1    6    6  503    0  0.33500575696E+01 -0.37186225509E+02  0.42233682568E+02  0.56371288761E+02  0.00000000000E+00 0. -1.
         -4    1    6    6    0  503 -0.11709186818E+03 -0.64162214725E+02  0.70439127373E+02  0.15096014725E+03  0.00000000000E+00 0.  1.
<mgrwt>
<rscale>  0 0.17708334E+04</rscale>
<asrwt>0</asrwt>
<pdfrwt beam="1">  1        2 0.18919546E+00 0.17708334E+04</pdfrwt>
<pdfrwt beam="2">  1       -1 0.98074921E-01 0.17708334E+04</pdfrwt>
<totfact> 0.19547293E+01</totfact>
</mgrwt>
</event>
<event>
12    7  0.1707730E-007  0.1614961E+04  0.7818608E-02  0.8811409E-01
          2   -1    0    0  501    0  0.00000000000E+00  0.00000000000E+00  0.85659065631E+03  0.85659065631E+03  0.00000000000E+00 0. -1.
         -1   -1    0    0    0  501 -0.00000000000E+00 -0.00000000000E+00 -0.76118629157E+03  0.76118629157E+03  0.00000000000E+00 0.  1.
         24    2    1    2    0    0  0.14323665395E+03 -0.44107358028E+03  0.41719123803E+03  0.62886118108E+03  0.79719594395E+02 0.  0.
        254    2    1    2    0    0 -0.14323665395E+03  0.44107358028E+03 -0.32178687329E+03  0.98891576680E+03  0.81200059097E+03 0.  0.
         23    2    4    4    0    0  0.87666706163E+02 -0.14348303369E+03  0.11342320141E+03  0.21969281198E+03  0.84423199957E+02 0.  0.
         23    2    4    4    0    0 -0.23090336012E+03  0.58455661396E+03 -0.43521007470E+03  0.76922295482E+03  0.85283928489E+02 0.  0.
          4    1    3    3  502    0  0.14636927991E+03 -0.40659204522E+03  0.40470969891E+03  0.59205658322E+03  0.00000000000E+00 0. -1.
         -3    1    3    3    0  502 -0.31326259532E+01 -0.34481535058E+02  0.12481539113E+02  0.36804597864E+02  0.00000000000E+00 0.  1.
         13    1    5    5    0    0  0.14447306633E+02 -0.98152170052E+02  0.41686645875E+02  0.10761203278E+03  0.00000000000E+00 0. -1.
        -13    1    5    5    0    0  0.73219399531E+02 -0.45330863636E+02  0.71736555532E+02  0.11208077920E+03  0.00000000000E+00 0.  1.
          4    1    6    6  503    0 -0.12485901229E+03  0.35712675626E+03 -0.30820866282E+03  0.48797732819E+03  0.00000000000E+00 0. -1.
         -4    1    6    6    0  503 -0.10604434783E+03  0.22742985770E+03 -0.12700141188E+03  0.28124562663E+03  0.00000000000E+00 0.  1.
<mgrwt>
<rscale>  0 0.16149614E+04</rscale>
<asrwt>0</asrwt>
<pdfrwt beam="1">  1        2 0.13178318E+00 0.16149614E+04</pdfrwt>
<pdfrwt beam="2">  1       -1 0.11710558E+00 0.16149614E+04</pdfrwt>
<totfact> 0.22564618E+01</totfact>
</mgrwt>
</event>
<event>
12    7  0.1707730E-007  0.1650440E+04  0.7818608E-02  0.8790146E-01
         -1   -1    0    0    0  501 -0.00000000000E+00  0.00000000000E+00  0.82749232289E+03  0.82749232289E+03  0.00000000000E+00 0.  1.
          2   -1    0    0  501    0  0.00000000000E+00 -0.00000000000E+00 -0.82295382731E+03  0.82295382731E+03  0.00000000000E+00 0. -1.
         24    2    1    2    0    0  0.25447053401E+03  0.36234974947E+02  0.52107739779E+03  0.58638224683E+03  0.79083872078E+02 0.  0.
        254    2    1    2    0    0 -0.25447053401E+03 -0.36234974947E+02 -0.51653890221E+03  0.10640639034E+04  0.89406449816E+03 0.  0.
         23    2    4    4    0    0  0.61242646551E+02 -0.24267498261E+03  0.13964600654E+03  0.30200815525E+03  0.95216121314E+02 0.  0.
         23    2    4    4    0    0 -0.31571318056E+03  0.20644000766E+03 -0.65618490875E+03  0.76205574812E+03  0.88645584370E+02 0.  0.
          2    1    3    3  502    0  0.11974189945E+03  0.38216053263E+02  0.32510553706E+03  0.34855731156E+03  0.00000000000E+00 0. -1.
         -1    1    3    3    0  502  0.13472863456E+03 -0.19810783164E+01  0.19597186072E+03  0.23782493527E+03  0.00000000000E+00 0.  1.
         13    1    5    5    0    0  0.37897200520E+02 -0.41349970827E+02  0.36683843425E+00  0.56090573763E+02  0.00000000000E+00 0. -1.
        -13    1    5    5    0    0  0.23345446031E+02 -0.20132501178E+03  0.13927916810E+03  0.24591758149E+03  0.00000000000E+00 0.  1.
          3    1    6    6  503    0 -0.94506376823E+02  0.25289546815E+02 -0.12417684637E+03  0.15808512141E+03  0.00000000000E+00 0. -1.
         -3    1    6    6    0  503 -0.22120680374E+03  0.18115046085E+03 -0.53200806238E+03  0.60397062671E+03  0.00000000000E+00 0.  1.
<mgrwt>
<rscale>  0 0.16504399E+04</rscale>
<asrwt>0</asrwt>
<pdfrwt beam="1">  1        2 0.12660828E+00 0.16504399E+04</pdfrwt>
<pdfrwt beam="2">  1       -1 0.12730651E+00 0.16504399E+04</pdfrwt>
<totfact> 0.19337076E+01</totfact>
</mgrwt>
</event>
<event>
12    7  0.1761908E-007  0.1551457E+04  0.7818608E-02  0.8850938E-01
          2   -1    0    0  501    0  0.00000000000E+00  0.00000000000E+00  0.10977457272E+04  0.10977457272E+04  0.00000000000E+00 0. -1.
         -1   -1    0    0    0  501 -0.00000000000E+00 -0.00000000000E+00 -0.54817321576E+03  0.54817321576E+03  0.00000000000E+00 0.  1.
         24    2    1    2    0    0  0.17888345131E+02 -0.23241963926E+03  0.66328741439E+03  0.71133910096E+03  0.10823234665E+03 0.  0.
        254    2    1    2    0    0 -0.17888345131E+02  0.23241963926E+03 -0.11371490292E+03  0.93457984203E+03  0.89786943393E+03 0.  0.
         23    2    4    4    0    0 -0.73509670487E+02 -0.13946294663E+03  0.31133515771E+03  0.35964098065E+03  0.86939458251E+02 0.  0.
         23    2    4    4    0    0  0.55621325357E+02  0.37188258589E+03 -0.42505006062E+03  0.57493886138E+03  0.92177821437E+02 0.  0.
          4    1    3    3  502    0  0.16929422945E+02 -0.21785712477E+03  0.66147495100E+03  0.69663293274E+03  0.00000000000E+00 0. -1.
         -3    1    3    3    0  502  0.95892218558E+00 -0.14562514495E+02  0.18124633857E+01  0.14706168219E+02  0.00000000000E+00 0.  1.
         13    1    5    5    0    0 -0.84559509947E+02 -0.91777363934E+02  0.26169046033E+03  0.28992290748E+03  0.00000000000E+00 0. -1.
        -13    1    5    5    0    0  0.11049839460E+02 -0.47685582697E+02  0.49644697379E+02  0.69718073174E+02  0.00000000000E+00 0.  1.
          1    1    6    6  503    0  0.60590042432E+02  0.35518998202E+03 -0.42543560587E+03  0.55751818921E+03  0.00000000000E+00 0. -1.
         -1    1    6    6    0  503 -0.49687170749E+01  0.16692603875E+02  0.38554524430E+00  0.17420672164E+02  0.00000000000E+00 0.  1.
<mgrwt>
<rscale>  0 0.15514571E+04</rscale>
<asrwt>0</asrwt>
<pdfrwt beam="1">  1        2 0.16888396E+00 0.15514571E+04</pdfrwt>
<pdfrwt beam="2">  1       -1 0.84334341E-01 0.15514571E+04</pdfrwt>
<totfact> 0.33419957E+01</totfact>
</mgrwt>
</event>
<event>
12    7  0.1707730E-007  0.1595206E+04  0.7818608E-02  0.8823498E-01
         -1   -1    0    0    0  501 -0.00000000000E+00  0.00000000000E+00  0.36164488187E+03  0.36164488187E+03  0.00000000000E+00 0.  1.
          2   -1    0    0  501    0  0.00000000000E+00 -0.00000000000E+00 -0.17591036492E+04  0.17591036492E+04  0.00000000000E+00 0. -1.
         24    2    1    2    0    0 -0.79192755798E+02 -0.22044111138E+03  0.16379541685E+03  0.29676529768E+03  0.79843141033E+02 0.  0.
        254    2    1    2    0    0  0.79192755798E+02  0.22044111138E+03 -0.15612541842E+04  0.18239832334E+04  0.91352856107E+03 0.  0.
         23    2    4    4    0    0 -0.25832401869E+03 -0.14504167166E+03 -0.19264885703E+03  0.36489052035E+03  0.90901730324E+02 0.  0.
         23    2    4    4    0    0  0.33751677449E+03  0.36548278304E+03 -0.13686053271E+04  0.14590927130E+04  0.91519210868E+02 0.  0.
          2    1    3    3  502    0  0.12232661349E+01 -0.46238294952E+02  0.68188702220E+02  0.82396452657E+02  0.00000000000E+00 0. -1.
         -1    1    3    3    0  502 -0.80416021933E+02 -0.17420281643E+03  0.95606714629E+02  0.21436884502E+03  0.00000000000E+00 0.  1.
         13    1    5    5    0    0 -0.94377325118E+02 -0.98862637555E+02 -0.11065407474E+03  0.17585569327E+03  0.00000000000E+00 0.  1.
        -13    1    5    5    0    0 -0.16394669358E+03 -0.46179034104E+02 -0.81994782290E+02  0.18903482708E+03  0.00000000000E+00 0. -1.
          2    1    6    6  503    0  0.37820129291E+02  0.58687263991E+02 -0.11940268680E+03  0.13831687803E+03  0.00000000000E+00 0. -1.
         -2    1    6    6    0  503  0.29969664520E+03  0.30679551905E+03 -0.12492026404E+04  0.13207758350E+04  0.00000000000E+00 0.  1.
<mgrwt>
<rscale>  0 0.15952064E+04</rscale>
<asrwt>0</asrwt>
<pdfrwt beam="1">  1        2 0.27063133E+00 0.15952064E+04</pdfrwt>
<pdfrwt beam="2">  1       -1 0.55637675E-01 0.15952064E+04</pdfrwt>
<totfact> 0.32458867E+01</totfact>
</mgrwt>
</event>
<event>
12    7  0.1707730E-007  0.1794944E+04  0.7818608E-02  0.8708993E-01
         -1   -1    0    0    0  501 -0.00000000000E+00  0.00000000000E+00  0.18305234029E+04  0.18305234029E+04  0.00000000000E+00 0.  1.
          2   -1    0    0  501    0  0.00000000000E+00 -0.00000000000E+00 -0.44001390985E+03  0.44001390985E+03  0.00000000000E+00 0. -1.
         24    2    1    2    0    0  0.66186337094E+01 -0.40730286850E+02 -0.32153225921E+03  0.33455887044E+03  0.82727755303E+02 0.  0.
        254    2    1    2    0    0 -0.66186337094E+01  0.40730286850E+02  0.17120417523E+04  0.19359784423E+04  0.90289689615E+03 0.  0.
         23    2    4    4    0    0  0.94387510184E+02  0.44376918984E+03  0.10742939932E+04  0.11696709336E+04  0.90456693204E+02 0.  0.
         23    2    4    4    0    0 -0.10100614389E+03 -0.40303890299E+03  0.63774775913E+03  0.76630750870E+03  0.88670148238E+02 0.  0.
          2    1    3    3  502    0 -0.16489479220E+02 -0.10095905579E+02 -0.26798740417E+03  0.26868397613E+03  0.00000000000E+00 0. -1.
         -1    1    3    3    0  502  0.23108112929E+02 -0.30634381270E+02 -0.53544855033E+02  0.65874894303E+02  0.00000000000E+00 0.  1.
         13    1    5    5    0    0  0.88203176237E+02  0.28113177679E+03  0.60452221339E+03  0.67250426221E+03  0.00000000000E+00 0. -1.
        -13    1    5    5    0    0  0.61843339471E+01  0.16263741305E+03  0.46977177978E+03  0.49716667144E+03  0.00000000000E+00 0.  1.
          2    1    6    6  503    0 -0.82751307701E+02 -0.36701895991E+03  0.52004497088E+03  0.64187028876E+03  0.00000000000E+00 0. -1.
         -2    1    6    6    0  503 -0.18254836192E+02 -0.36019943079E+02  0.11770278825E+03  0.12443721994E+03  0.00000000000E+00 0.  1.
<mgrwt>
<rscale>  0 0.17949437E+04</rscale>
<asrwt>0</asrwt>
<pdfrwt beam="1">  1        2 0.67694449E-01 0.17949437E+04</pdfrwt>
<pdfrwt beam="2">  1       -1 0.28161898E+00 0.17949437E+04</pdfrwt>
<totfact> 0.33493840E+00</totfact>
</mgrwt>
</event>
<event>
12    7  0.1707730E-007  0.1698004E+04  0.7818608E-02  0.8762504E-01
          2   -1    0    0  501    0  0.00000000000E+00  0.00000000000E+00  0.78172172847E+03  0.78172172847E+03  0.00000000000E+00 0. -1.
         -1   -1    0    0    0  501 -0.00000000000E+00 -0.00000000000E+00 -0.92207272897E+03  0.92207272897E+03  0.00000000000E+00 0.  1.
         24    2    1    2    0    0 -0.44686345887E+00 -0.98131823905E+02 -0.66524253556E+03  0.67712023034E+03  0.79461441328E+02 0.  0.
        254    2    1    2    0    0  0.44686345887E+00  0.98131823905E+02  0.52489153506E+03  0.10266742271E+04  0.87688014601E+03 0.  0.
         23    2    4    4    0    0 -0.35274831350E+02  0.35928646556E+03 -0.61269813211E+02  0.37882232552E+03  0.97063310457E+02 0.  0.
         23    2    4    4    0    0  0.35721694809E+02 -0.26115464166E+03  0.58616134827E+03  0.64785190159E+03  0.81542466511E+02 0.  0.
          4    1    3    3  502    0 -0.12481111204E+02 -0.15947097014E+02 -0.28381022004E+02  0.34865031910E+02  0.00000000000E+00 0. -1.
         -3    1    3    3    0  502  0.12034247745E+02 -0.82184726891E+02 -0.63686151356E+03  0.64225519843E+03  0.00000000000E+00 0.  1.
         13    1    5    5    0    0 -0.51102735097E+01  0.33221928770E+03 -0.63336662771E+02  0.33824148602E+03  0.00000000000E+00 0. -1.
        -13    1    5    5    0    0 -0.30164557840E+02  0.27067177863E+02  0.20668495601E+01  0.40580839497E+02  0.00000000000E+00 0.  1.
          1    1    6    6  503    0 -0.18390434439E+02 -0.13415847972E+03  0.33341612191E+03  0.35986527494E+03  0.00000000000E+00 0. -1.
         -1    1    6    6    0  503  0.54112129248E+02 -0.12699616193E+03  0.25274522636E+03  0.28798662664E+03  0.00000000000E+00 0.  1.
<mgrwt>
<rscale>  0 0.16980039E+04</rscale>
<asrwt>0</asrwt>
<pdfrwt beam="1">  1        2 0.12026488E+00 0.16980039E+04</pdfrwt>
<pdfrwt beam="2">  1       -1 0.14185734E+00 0.16980039E+04</pdfrwt>
<totfact> 0.15627612E+01</totfact>
</mgrwt>
</event>
<event>
12    7  0.1707730E-007  0.1972272E+04  0.7818608E-02  0.8619695E-01
         -1   -1    0    0    0  501 -0.00000000000E+00  0.00000000000E+00  0.17076345876E+04  0.17076345876E+04  0.00000000000E+00 0.  1.
          2   -1    0    0  501    0  0.00000000000E+00 -0.00000000000E+00 -0.56948034004E+03  0.56948034004E+03  0.00000000000E+00 0. -1.
         24    2    1    2    0    0  0.51080001068E+03 -0.32928337874E+03 -0.10372067104E+03  0.62143450490E+03  0.77965837699E+02 0.  0.
        254    2    1    2    0    0 -0.51080001068E+03  0.32928337874E+03  0.12418749186E+04  0.16556804228E+04  0.91086780293E+03 0.  0.
         23    2    4    4    0    0 -0.40736626394E+03 -0.20067724228E+03  0.26547960654E+03  0.53612475342E+03  0.10359392442E+03 0.  0.
         23    2    4    4    0    0 -0.10343374674E+03  0.52996062103E+03  0.97639531210E+03  0.11195556694E+04  0.92197025484E+02 0.  0.
          2    1    3    3  502    0  0.39615544272E+03 -0.27186981323E+03 -0.11058747296E+03  0.49303338560E+03  0.00000000000E+00 0. -1.
         -3    1    3    3    0  502  0.11464456796E+03 -0.57413565517E+02  0.68668019210E+01  0.12840111930E+03  0.00000000000E+00 0.  1.
         13    1    5    5    0    0 -0.37562718820E+02 -0.31191701340E+02  0.68580497385E+02  0.84185299781E+02  0.00000000000E+00 0. -1.
        -13    1    5    5    0    0 -0.36980354512E+03 -0.16948554094E+03  0.19689910916E+03  0.45193945364E+03  0.00000000000E+00 0.  1.
          1    1    6    6  503    0  0.14530245565E+02  0.10528026429E+03  0.16750869008E+03  0.19837898915E+03  0.00000000000E+00 0. -1.
         -1    1    6    6    0  503 -0.11796399231E+03  0.42468035674E+03  0.80888662202E+03  0.92117668021E+03  0.00000000000E+00 0.  1.
<mgrwt>
<rscale>  0 0.19722721E+04</rscale>
<asrwt>0</asrwt>
<pdfrwt beam="1">  1        2 0.87612361E-01 0.19722721E+04</pdfrwt>
<pdfrwt beam="2">  1       -1 0.26271301E+00 0.19722721E+04</pdfrwt>
<totfact> 0.32365261E+00</totfact>
</mgrwt>
</event>
<event>
12    7  0.1707730E-007  0.1918075E+04  0.7818608E-02  0.8645911E-01
         -1   -1    0    0    0  501 -0.00000000000E+00  0.00000000000E+00  0.45850219752E+03  0.45850219752E+03  0.00000000000E+00 0.  1.
          2   -1    0    0  501    0  0.00000000000E+00 -0.00000000000E+00 -0.20059944343E+04  0.20059944343E+04  0.00000000000E+00 0. -1.
         24    2    1    2    0    0  0.17970770640E+03  0.22143326003E+03 -0.14782420492E+04  0.15076300354E+04  0.80132511405E+02 0.  0.
        254    2    1    2    0    0 -0.17970770640E+03 -0.22143326003E+03 -0.69250187652E+02  0.95686659644E+03  0.91075273620E+03 0.  0.
         23    2    4    4    0    0  0.10554308208E+03 -0.43986423041E+03 -0.27129205520E+03  0.53542666963E+03  0.91991608149E+02 0.  0.
         23    2    4    4    0    0 -0.28525078849E+03  0.21843097037E+03  0.20204186755E+03  0.42143992680E+03  0.87809990948E+02 0.  0.
          2    1    3    3  502    0  0.15725485417E+03  0.16723569671E+03 -0.10118608510E+04  0.10375737320E+04  0.00000000000E+00 0. -1.
         -1    1    3    3    0  502  0.22452852238E+02  0.54197563322E+02 -0.46638119811E+03  0.47005630343E+03  0.00000000000E+00 0.  1.
         13    1    5    5    0    0  0.54074977538E+02 -0.34699589549E+03 -0.23768944398E+03  0.42405957890E+03  0.00000000000E+00 0.  1.
        -13    1    5    5    0    0  0.51468104547E+02 -0.92868334918E+02 -0.33602611225E+02  0.11136709073E+03  0.00000000000E+00 0. -1.
          4    1    6    6  503    0 -0.32592852612E+02  0.58243063073E+02  0.62111526336E+02  0.91172310168E+02  0.00000000000E+00 0. -1.
         -4    1    6    6    0  503 -0.25265793588E+03  0.16018790730E+03  0.13993034121E+03  0.33026761664E+03  0.00000000000E+00 0.  1.
<mgrwt>
<rscale>  0 0.19180749E+04</rscale>
<asrwt>0</asrwt>
<pdfrwt beam="1">  1        2 0.30861453E+00 0.19180749E+04</pdfrwt>
<pdfrwt beam="2">  1       -1 0.70538800E-01 0.19180749E+04</pdfrwt>
<totfact> 0.14338486E+01</totfact>
</mgrwt>
</event>
<event>
12    7  0.1707730E-007  0.1868873E+04  0.7818608E-02  0.8670507E-01
          2   -1    0    0  501    0  0.00000000000E+00  0.00000000000E+00  0.11926331782E+04  0.11926331782E+04  0.00000000000E+00 0. -1.
         -1   -1    0    0    0  501 -0.00000000000E+00 -0.00000000000E+00 -0.73213733596E+03  0.73213733596E+03  0.00000000000E+00 0.  1.
         24    2    1    2    0    0 -0.43995961032E+01 -0.38346757837E+03  0.80205068635E+03  0.89249713672E+03  0.78734334767E+02 0.  0.
        254    2    1    2    0    0  0.43995961032E+01  0.38346757837E+03 -0.34155484410E+03  0.10322733774E+04  0.89546740541E+03 0.  0.
         23    2    4    4    0    0 -0.24832662354E+03  0.52536397654E+03 -0.16870641168E+02  0.58764635725E+03  0.85849885562E+02 0.  0.
         23    2    4    4    0    0  0.25272621964E+03 -0.14189639817E+03 -0.32468420293E+03  0.44462702020E+03  0.90929783598E+02 0.  0.
          4    1    3    3  502    0 -0.28615765845E+01 -0.38731627070E+03  0.79258613547E+03  0.88216487365E+03  0.00000000000E+00 0. -1.
         -3    1    3    3    0  502 -0.15380195186E+01  0.38486923303E+01  0.94645508850E+01  0.10332263070E+02  0.00000000000E+00 0.  1.
         13    1    5    5    0    0 -0.41464585656E+02  0.36406905755E+02  0.98829515279E+01  0.56057536346E+02  0.00000000000E+00 0.  1.
        -13    1    5    5    0    0 -0.20686203789E+03  0.48895707078E+03 -0.26753592696E+02  0.53158882090E+03  0.00000000000E+00 0. -1.
          1    1    6    6  503    0  0.23510803522E+03 -0.15438074651E+03 -0.30961935738E+03  0.41829815871E+03  0.00000000000E+00 0. -1.
         -1    1    6    6    0  503  0.17618184428E+02  0.12484348331E+02 -0.15064845557E+02  0.26328861492E+02  0.00000000000E+00 0.  1.
<mgrwt>
<rscale>  0 0.18688727E+04</rscale>
<asrwt>0</asrwt>
<pdfrwt beam="1">  1        2 0.18348203E+00 0.18688727E+04</pdfrwt>
<pdfrwt beam="2">  1       -1 0.11263651E+00 0.18688727E+04</pdfrwt>
<totfact> 0.14779152E+01</totfact>
</mgrwt>
</event>
<event>
12    7  0.1707730E-007  0.1957598E+04  0.7818608E-02  0.8626705E-01
         -1   -1    0    0    0  501 -0.00000000000E+00  0.00000000000E+00  0.13866433383E+04  0.13866433383E+04  0.00000000000E+00 0.  1.
          2   -1    0    0  501    0  0.00000000000E+00 -0.00000000000E+00 -0.69091151714E+03  0.69091151714E+03  0.00000000000E+00 0. -1.
         24    2    1    2    0    0 -0.26351529279E+03 -0.72578182964E+03  0.30735783502E+03  0.83418639129E+03  0.72100782985E+02 0.  0.
        254    2    1    2    0    0  0.26351529279E+03  0.72578182964E+03  0.38837398619E+03  0.12433684642E+04  0.89382952000E+03 0.  0.
         23    2    4    4    0    0 -0.86110221846E+02  0.40654197211E+03 -0.21050255155E+03  0.47457771547E+03  0.90671596545E+02 0.  0.
         23    2    4    4    0    0  0.34962551464E+03  0.31923985753E+03  0.59887653774E+03  0.76879074872E+03  0.90741505003E+02 0.  0.
          2    1    3    3  502    0 -0.71522429799E+02 -0.21698895295E+03  0.56790343191E+02  0.23542473690E+03  0.00000000000E+00 0. -1.
         -1    1    3    3    0  502 -0.19199286299E+03 -0.50879287669E+03  0.25056749182E+03  0.59876165439E+03  0.00000000000E+00 0.  1.
         13    1    5    5    0    0 -0.37872360974E+02  0.14872928317E+03 -0.12733419477E+03  0.19942094313E+03  0.00000000000E+00 0.  1.
        -13    1    5    5    0    0 -0.48237860872E+02  0.25781268894E+03 -0.83168356777E+02  0.27515677235E+03  0.00000000000E+00 0. -1.
          4    1    6    6  503    0  0.30269730901E+03  0.22710762430E+03  0.48028305748E+03  0.61145347264E+03  0.00000000000E+00 0. -1.
         -4    1    6    6    0  503  0.46928205628E+02  0.92132233225E+02  0.11859348027E+03  0.15733727608E+03  0.00000000000E+00 0.  1.
<mgrwt>
<rscale>  0 0.19575984E+04</rscale>
<asrwt>0</asrwt>
<pdfrwt beam="1">  1        2 0.10629408E+00 0.19575984E+04</pdfrwt>
<pdfrwt beam="2">  1       -1 0.21332974E+00 0.19575984E+04</pdfrwt>
<totfact> 0.54101764E+00</totfact>
</mgrwt>
</event>
<event>
12    7  0.1707730E-007  0.1576859E+04  0.7818608E-02  0.8834892E-01
         -1   -1    0    0    0  501 -0.00000000000E+00  0.00000000000E+00  0.51712006200E+03  0.51712006200E+03  0.00000000000E+00 0.  1.
          2   -1    0    0  501    0  0.00000000000E+00 -0.00000000000E+00 -0.12020820347E+04  0.12020820347E+04  0.00000000000E+00 0. -1.
         24    2    1    2    0    0 -0.21657094346E+03  0.67864598737E+02  0.28908123879E+03  0.37649030159E+03  0.81660316328E+02 0.  0.
        254    2    1    2    0    0  0.21657094346E+03 -0.67864598737E+02 -0.97404321150E+03  0.13427117951E+04  0.89588292179E+03 0.  0.
         23    2    4    4    0    0  0.34222021953E+03  0.22088990400E+03 -0.12949047429E+03  0.43679705981E+03  0.90093618975E+02 0.  0.
         23    2    4    4    0    0 -0.12564927607E+03 -0.28875450274E+03 -0.84455273720E+03  0.90591473530E+03  0.90803514731E+02 0.  0.
          4    1    3    3  502    0 -0.84957990473E+02 -0.33505664641E+01  0.64948386474E+02  0.10699242658E+03  0.00000000000E+00 0. -1.
         -3    1    3    3    0  502 -0.13161295298E+03  0.71215165201E+02  0.22413285231E+03  0.26949787501E+03  0.00000000000E+00 0.  1.
         13    1    5    5    0    0  0.42383180111E+02  0.12350424364E+02 -0.42659714668E+02  0.61389886739E+02  0.00000000000E+00 0. -1.
        -13    1    5    5    0    0  0.29983703942E+03  0.20853947964E+03 -0.86830759626E+02  0.37540717307E+03  0.00000000000E+00 0.  1.
          1    1    6    6  503    0 -0.13293189426E+03 -0.21013776223E+03 -0.65178531117E+03  0.69760508849E+03  0.00000000000E+00 0.  1.
         -1    1    6    6    0  503  0.72826181865E+01 -0.78616740510E+02 -0.19276742603E+03  0.20830964681E+03  0.00000000000E+00 0. -1.
<mgrwt>
<rscale>  0 0.15768586E+04</rscale>
<asrwt>0</asrwt>
<pdfrwt beam="1">  1        2 0.18493570E+00 0.15768586E+04</pdfrwt>
<pdfrwt beam="2">  1       -1 0.79556933E-01 0.15768586E+04</pdfrwt>
<totfact> 0.32658533E+01</totfact>
</mgrwt>
</event>
<event>
12    7  0.1707730E-007  0.2217635E+04  0.7818608E-02  0.8511124E-01
         -1   -1    0    0    0  501 -0.00000000000E+00  0.00000000000E+00  0.29445188825E+03  0.29445188825E+03  0.00000000000E+00 0.  1.
          2   -1    0    0  501    0  0.00000000000E+00 -0.00000000000E+00 -0.41754732818E+04  0.41754732818E+04  0.00000000000E+00 0. -1.
         24    2    1    2    0    0 -0.43528900245E+03 -0.41795856051E+03 -0.30491359439E+04  0.31092384441E+04  0.77251692353E+02 0.  0.
        254    2    1    2    0    0  0.43528900245E+03  0.41795856051E+03 -0.83188544969E+03  0.13606867260E+04  0.89177861093E+03 0.  0.
         23    2    4    4    0    0  0.15711546992E+03  0.30142469583E+03 -0.95874146473E+03  0.10216864542E+04  0.95477203181E+02 0.  0.
         23    2    4    4    0    0  0.27817353253E+03  0.11653386468E+03  0.12685601504E+03  0.33900027180E+03  0.88702197908E+02 0.  0.
          4    1    3    3  502    0 -0.75702541118E+02 -0.47159923612E+02 -0.56206354784E+03  0.56909609464E+03  0.00000000000E+00 0. -1.
         -3    1    3    3    0  502 -0.35958646133E+03 -0.37079863690E+03 -0.24870723960E+04  0.25401423494E+04  0.00000000000E+00 0.  1.
         13    1    5    5    0    0  0.16401150900E+03  0.30390707852E+03 -0.94480528832E+03  0.10059405153E+04  0.00000000000E+00 0.  1.
        -13    1    5    5    0    0 -0.68960390784E+01 -0.24823826926E+01 -0.13936176406E+02  0.15745938893E+02  0.00000000000E+00 0. -1.
          2    1    6    6  503    0  0.48788535157E+01  0.13470397878E+02  0.26560242336E+02  0.30177828013E+02  0.00000000000E+00 0. -1.
         -2    1    6    6    0  503  0.27329467901E+03  0.10306346680E+03  0.10029577270E+03  0.30882244379E+03  0.00000000000E+00 0.  1.
<mgrwt>
<rscale>  0 0.22176348E+04</rscale>
<asrwt>0</asrwt>
<pdfrwt beam="1">  1        2 0.64238046E+00 0.22176348E+04</pdfrwt>
<pdfrwt beam="2">  1       -1 0.45300294E-01 0.22176348E+04</pdfrwt>
<totfact> 0.12367757E+00</totfact>
</mgrwt>
</event>
<event>
12    7  0.1707730E-007  0.1871269E+04  0.7818608E-02  0.8669291E-01
         -1   -1    0    0    0  501 -0.00000000000E+00  0.00000000000E+00  0.15199973936E+04  0.15199973936E+04  0.00000000000E+00 0.  1.
          2   -1    0    0  501    0  0.00000000000E+00 -0.00000000000E+00 -0.57592969608E+03  0.57592969608E+03  0.00000000000E+00 0. -1.
         24    2    1    2    0    0  0.41823438342E+03 -0.19191986286E+03 -0.25128817532E+03  0.53023798950E+03  0.79078095713E+02 0.  0.
        254    2    1    2    0    0 -0.41823438342E+03  0.19191986286E+03  0.11953558728E+04  0.15656891002E+04  0.90041849293E+03 0.  0.
         23    2    4    4    0    0 -0.61918329439E+03  0.66881074823E+02  0.11459101562E+04  0.13073888424E+04  0.91073974150E+02 0.  0.
         23    2    4    4    0    0  0.20094891097E+03  0.12503878803E+03  0.49445716574E+02  0.25830025777E+03  0.90878935654E+02 0.  0.
          2    1    3    3  502    0  0.22806112196E+03 -0.68902723437E+02 -0.15435058849E+03  0.28387244462E+03  0.00000000000E+00 0. -1.
         -1    1    3    3    0  502  0.19017326146E+03 -0.12301713942E+03 -0.96937586834E+02  0.24636554489E+03  0.00000000000E+00 0.  1.
         13    1    5    5    0    0 -0.26882549682E+03  0.46296147213E+02  0.41560655104E+03  0.49713105541E+03  0.00000000000E+00 0. -1.
        -13    1    5    5    0    0 -0.35035779757E+03  0.20584927610E+02  0.73030360521E+03  0.81025778697E+03  0.00000000000E+00 0.  1.
          2    1    6    6  503    0  0.54591048642E+02  0.28688722867E+02  0.55505021485E+02  0.82970071843E+02  0.00000000000E+00 0. -1.
         -2    1    6    6    0  503  0.14635786232E+03  0.96350065166E+02 -0.60593049104E+01  0.17533018593E+03  0.00000000000E+00 0.  1.
<mgrwt>
<rscale>  0 0.18712687E+04</rscale>
<asrwt>0</asrwt>
<pdfrwt beam="1">  1        2 0.88604569E-01 0.18712687E+04</pdfrwt>
<pdfrwt beam="2">  1       -1 0.23384575E+00 0.18712687E+04</pdfrwt>
<totfact> 0.49729445E+00</totfact>
</mgrwt>
</event>
<event>
12    7  0.1707730E-007  0.1596049E+04  0.7818608E-02  0.8822979E-01
         -1   -1    0    0    0  501 -0.00000000000E+00  0.00000000000E+00  0.56496267931E+03  0.56496267931E+03  0.00000000000E+00 0.  1.
          2   -1    0    0  501    0  0.00000000000E+00 -0.00000000000E+00 -0.11272307685E+04  0.11272307685E+04  0.00000000000E+00 0. -1.
         24    2    1    2    0    0  0.44338058615E+03 -0.23174571885E+02  0.13298631526E+03  0.47039847319E+03  0.80411184407E+02 0.  0.
        254    2    1    2    0    0 -0.44338058615E+03  0.23174571885E+02 -0.69525440443E+03  0.12217949746E+04  0.90126625817E+03 0.  0.
         23    2    4    4    0    0 -0.33130463113E+03 -0.30433764496E+03 -0.21983679614E+02  0.45941467684E+03  0.90522938385E+02 0.  0.
         23    2    4    4    0    0 -0.11207595502E+03  0.32751221684E+03 -0.67327072482E+03  0.76238029776E+03  0.90027649350E+02 0.  0.
          4    1    3    3  502    0  0.63015930807E+02 -0.14297921928E+02 -0.69978007609E+01  0.64995440782E+02  0.00000000000E+00 0. -1.
         -3    1    3    3    0  502  0.38036465534E+03 -0.88766499563E+01  0.13998411602E+03  0.40540303241E+03  0.00000000000E+00 0.  1.
         13    1    5    5    0    0 -0.22642774942E+03 -0.25794430024E+03 -0.34343860685E+01  0.34324420278E+03  0.00000000000E+00 0. -1.
        -13    1    5    5    0    0 -0.10487688171E+03 -0.46393344722E+02 -0.18549293546E+02  0.11617047406E+03  0.00000000000E+00 0.  1.
          3    1    6    6  503    0 -0.11578991177E+03  0.21453428113E+03 -0.48380647177E+03  0.54175729213E+03  0.00000000000E+00 0. -1.
         -3    1    6    6    0  503  0.37139567500E+01  0.11297793572E+03 -0.18946425304E+03  0.22062300563E+03  0.00000000000E+00 0.  1.
<mgrwt>
<rscale>  0 0.15960493E+04</rscale>
<asrwt>0</asrwt>
<pdfrwt beam="1">  1        2 0.17342012E+00 0.15960493E+04</pdfrwt>
<pdfrwt beam="2">  1       -1 0.86917335E-01 0.15960493E+04</pdfrwt>
<totfact> 0.29911473E+01</totfact>
</mgrwt>
</event>
<event>
12    7  0.1707730E-007  0.1595158E+04  0.7818608E-02  0.8823528E-01
         -1   -1    0    0    0  501 -0.00000000000E+00  0.00000000000E+00  0.15105339736E+04  0.15105339736E+04  0.00000000000E+00 0.  1.
          2   -1    0    0  501    0  0.00000000000E+00 -0.00000000000E+00 -0.42113078133E+03  0.42113078133E+03  0.00000000000E+00 0. -1.
         24    2    1    2    0    0  0.29515337803E+03 -0.44858537108E+03  0.48715526663E+03  0.72968374058E+03  0.82302829474E+02 0.  0.
        254    2    1    2    0    0 -0.29515337803E+03  0.44858537108E+03  0.60224792566E+03  0.12019810144E+04  0.89090484523E+03 0.  0.
         23    2    4    4    0    0 -0.47632090300E+03  0.15924832071E+03  0.53823882411E+01  0.50873040463E+03  0.80845681448E+02 0.  0.
         23    2    4    4    0    0  0.18116752497E+03  0.28933705037E+03  0.59686553742E+03  0.69325060975E+03  0.88376112918E+02 0.  0.
          4    1    3    3  502    0  0.29880803071E+02 -0.99961303178E+02  0.78142003386E+02  0.13035067019E+03  0.00000000000E+00 0. -1.
         -1    1    3    3    0  502  0.26527257496E+03 -0.34862406791E+03  0.40901326324E+03  0.59933307039E+03  0.00000000000E+00 0.  1.
         13    1    5    5    0    0 -0.14767780969E+02  0.21928457221E+02  0.63177820375E+01  0.27181960207E+02  0.00000000000E+00 0. -1.
        -13    1    5    5    0    0 -0.46155312203E+03  0.13731986349E+03 -0.93539379645E+00  0.48154844442E+03  0.00000000000E+00 0.  1.
          3    1    6    6  503    0  0.23014540050E+02  0.24046894291E+00  0.35318717179E+02  0.42156122476E+02  0.00000000000E+00 0. -1.
         -3    1    6    6    0  503  0.15815298492E+03  0.28909658143E+03  0.56154682024E+03  0.65109448727E+03  0.00000000000E+00 0.  1.
<mgrwt>
<rscale>  0 0.15951581E+04</rscale>
<asrwt>0</asrwt>
<pdfrwt beam="1">  1        2 0.64789352E-01 0.15951581E+04</pdfrwt>
<pdfrwt beam="2">  1       -1 0.23238984E+00 0.15951581E+04</pdfrwt>
<totfact> 0.74906053E+00</totfact>
</mgrwt>
</event>
<event>
12    7  0.1707730E-007  0.1559396E+04  0.7818608E-02  0.8845889E-01
         -1   -1    0    0    0  501 -0.00000000000E+00  0.00000000000E+00  0.64959702233E+03  0.64959702233E+03  0.00000000000E+00 0.  1.
          2   -1    0    0  501    0  0.00000000000E+00 -0.00000000000E+00 -0.93585495418E+03  0.93585495418E+03  0.00000000000E+00 0. -1.
         24    2    1    2    0    0 -0.28790712876E+03  0.37279739261E+03  0.11332809198E+03  0.49091860103E+03  0.79305773346E+02 0.  0.
        254    2    1    2    0    0  0.28790712876E+03 -0.37279739261E+03 -0.39958602383E+03  0.10945333755E+04  0.90358503135E+03 0.  0.
         23    2    4    4    0    0  0.37960352099E+02  0.71526252632E+02 -0.54578898041E+03  0.55818407670E+03  0.84420727302E+02 0.  0.
         23    2    4    4    0    0  0.24994677666E+03 -0.44432364524E+03  0.14620295658E+03  0.53634929878E+03  0.79989830029E+02 0.  0.
          2    1    3    3  502    0 -0.20480006469E+03  0.24794555697E+03  0.40310937421E+02  0.32410652167E+03  0.00000000000E+00 0. -1.
         -1    1    3    3    0  502 -0.83107064071E+02  0.12485183564E+03  0.73017154557E+02  0.16681207936E+03  0.00000000000E+00 0.  1.
         13    1    5    5    0    0  0.44570502830E+02  0.88297222282E+02 -0.45606721579E+03  0.46666929886E+03  0.00000000000E+00 0.  1.
        -13    1    5    5    0    0 -0.66101507309E+01 -0.16770969650E+02 -0.89721764625E+02  0.91514777840E+02  0.00000000000E+00 0. -1.
          1    1    6    6  503    0 -0.55933525204E+01 -0.80656809880E+01 -0.72571063408E+00  0.98421267083E+01  0.00000000000E+00 0. -1.
         -1    1    6    6    0  503  0.25554012918E+03 -0.43625796425E+03  0.14692866721E+03  0.52650717207E+03  0.00000000000E+00 0.  1.
<mgrwt>
<rscale>  0 0.15593955E+04</rscale>
<asrwt>0</asrwt>
<pdfrwt beam="1">  1        2 0.14397768E+00 0.15593955E+04</pdfrwt>
<pdfrwt beam="2">  1       -1 0.99938004E-01 0.15593955E+04</pdfrwt>
<totfact> 0.29072898E+01</totfact>
</mgrwt>
</event>
<event>
12    7  0.1707730E-007  0.1552918E+04  0.7818608E-02  0.8850006E-01
         -1   -1    0    0    0  501 -0.00000000000E+00  0.00000000000E+00  0.62867301124E+03  0.62867301124E+03  0.00000000000E+00 0.  1.
          2   -1    0    0  501    0  0.00000000000E+00 -0.00000000000E+00 -0.95898614955E+03  0.95898614955E+03  0.00000000000E+00 0. -1.
         24    2    1    2    0    0  0.45313413237E+03  0.11649202652E+03  0.10232813896E+03  0.48596536709E+03  0.82403615351E+02 0.  0.
        254    2    1    2    0    0 -0.45313413237E+03 -0.11649202652E+03 -0.43264127727E+03  0.11016937937E+04  0.89869338827E+03 0.  0.
         23    2    4    4    0    0 -0.33162594306E+03 -0.31185399034E+03  0.13412921283E+03  0.48248060743E+03  0.86995479232E+02 0.  0.
         23    2    4    4    0    0 -0.12150818930E+03  0.19536196382E+03 -0.56677049010E+03  0.61921318627E+03  0.96258218522E+02 0.  0.
          2    1    3    3  502    0  0.11113710105E+03  0.39760694713E+02 -0.85547964516E+01  0.11834505742E+03  0.00000000000E+00 0. -1.
         -1    1    3    3    0  502  0.34199703132E+03  0.76731331809E+02  0.11088293541E+03  0.36762030967E+03  0.00000000000E+00 0.  1.
         13    1    5    5    0    0 -0.11613471251E+03 -0.16730259293E+03  0.50115590780E+02  0.20973555133E+03  0.00000000000E+00 0.  1.
        -13    1    5    5    0    0 -0.21549123055E+03 -0.14455139741E+03  0.84013622049E+02  0.27274505610E+03  0.00000000000E+00 0. -1.
          2    1    6    6  503    0 -0.43061624672E+02  0.15297948552E+03 -0.39259206551E+03  0.42353932097E+03  0.00000000000E+00 0. -1.
         -2    1    6    6    0  503 -0.78446564631E+02  0.42382478300E+02 -0.17417842459E+03  0.19567386530E+03  0.00000000000E+00 0.  1.
<mgrwt>
<rscale>  0 0.15529182E+04</rscale>
<asrwt>0</asrwt>
<pdfrwt beam="1">  1        2 0.14753633E+00 0.15529182E+04</pdfrwt>
<pdfrwt beam="2">  1       -1 0.96718925E-01 0.15529182E+04</pdfrwt>
<totfact> 0.30251312E+01</totfact>
</mgrwt>
</event>
<event>
12    7  0.1707730E-007  0.2082764E+04  0.7818608E-02  0.8568874E-01
          2   -1    0    0  501    0  0.00000000000E+00  0.00000000000E+00  0.10123450234E+04  0.10123450234E+04  0.00000000000E+00 0. -1.
         -1   -1    0    0    0  501 -0.00000000000E+00 -0.00000000000E+00 -0.10712522865E+04  0.10712522865E+04  0.00000000000E+00 0.  1.
         24    2    1    2    0    0  0.76660353095E+03 -0.24575474549E+03  0.22953806763E+03  0.84082101418E+03  0.78840882801E+02 0.  0.
        254    2    1    2    0    0 -0.76660353095E+03  0.24575474549E+03 -0.28844533075E+03  0.12427762957E+04  0.90178481010E+03 0.  0.
         23    2    4    4    0    0 -0.15735730874E+03  0.20916343481E+03  0.28726178350E+03  0.39897394618E+03  0.90278526758E+02 0.  0.
         23    2    4    4    0    0 -0.60924622221E+03  0.36591310678E+02 -0.57570711425E+03  0.84380234952E+03  0.89687459290E+02 0.  0.
          4    1    3    3  502    0  0.57613086773E+03 -0.20131902029E+03  0.14231059938E+03  0.62666452858E+03  0.00000000000E+00 0. -1.
         -3    1    3    3    0  502  0.19047266322E+03 -0.44435725199E+02  0.87227468254E+02  0.21415648560E+03  0.00000000000E+00 0.  1.
         13    1    5    5    0    0 -0.55755178765E+02  0.30341824840E+02  0.11209224054E+03  0.12881745488E+03  0.00000000000E+00 0.  1.
        -13    1    5    5    0    0 -0.10160212997E+03  0.17882160997E+03  0.17516954297E+03  0.27015649130E+03  0.00000000000E+00 0. -1.
          1    1    6    6  503    0 -0.37397910736E+03 -0.18090954949E+02 -0.37254174679E+03  0.52818084828E+03  0.00000000000E+00 0. -1.
         -1    1    6    6    0  503 -0.23526711485E+03  0.54682265627E+02 -0.20316536746E+03  0.31562150123E+03  0.00000000000E+00 0.  1.
<mgrwt>
<rscale>  0 0.20827644E+04</rscale>
<asrwt>0</asrwt>
<pdfrwt beam="1">  1        2 0.15574539E+00 0.20827644E+04</pdfrwt>
<pdfrwt beam="2">  1       -1 0.16480804E+00 0.20827644E+04</pdfrwt>
<totfact> 0.69998577E+00</totfact>
</mgrwt>
</event>
<event>
12    7  0.1707730E-007  0.1777729E+04  0.7818608E-02  0.8718233E-01
         -1   -1    0    0    0  501 -0.00000000000E+00  0.00000000000E+00  0.87147144863E+03  0.87147144863E+03  0.00000000000E+00 0.  1.
          2   -1    0    0  501    0  0.00000000000E+00 -0.00000000000E+00 -0.90660487981E+03  0.90660487981E+03  0.00000000000E+00 0. -1.
         24    2    1    2    0    0 -0.21350990651E+02 -0.64576523341E+03  0.13319497261E+03  0.66462659501E+03  0.80740377689E+02 0.  0.
        254    2    1    2    0    0  0.21350990651E+02  0.64576523341E+03 -0.16832840379E+03  0.11134497334E+04  0.89104840265E+03 0.  0.
         23    2    4    4    0    0  0.10847191342E+03  0.58359850256E+03 -0.48181440767E+03  0.77042429568E+03  0.95158308844E+02 0.  0.
         23    2    4    4    0    0 -0.87120922766E+02  0.62166730845E+02  0.31348600387E+03  0.34302543775E+03  0.89096681825E+02 0.  0.
          4    1    3    3  502    0  0.18900081552E+02 -0.32183888169E+03  0.38086070078E+02  0.32463522234E+03  0.00000000000E+00 0. -1.
         -3    1    3    3    0  502 -0.40251072202E+02 -0.32392635171E+03  0.95108902527E+02  0.33999137267E+03  0.00000000000E+00 0.  1.
         13    1    5    5    0    0  0.11596881765E+03  0.38163595675E+03 -0.31024628973E+03  0.50531923617E+03  0.00000000000E+00 0.  1.
        -13    1    5    5    0    0 -0.74969042366E+01  0.20196254581E+03 -0.17156811794E+03  0.26510505951E+03  0.00000000000E+00 0. -1.
          3    1    6    6  503    0  0.16716848930E+02  0.18454889854E+02  0.38450622881E+02  0.45809239216E+02  0.00000000000E+00 0. -1.
         -3    1    6    6    0  503 -0.10383777170E+03  0.43711840991E+02  0.27503538099E+03  0.29721619853E+03  0.00000000000E+00 0.  1.
<mgrwt>
<rscale>  0 0.17777292E+04</rscale>
<asrwt>0</asrwt>
<pdfrwt beam="1">  1        2 0.13947767E+00 0.17777292E+04</pdfrwt>
<pdfrwt beam="2">  1       -1 0.13407253E+00 0.17777292E+04</pdfrwt>
<totfact> 0.14687053E+01</totfact>
</mgrwt>
</event>
<event>
12    7  0.1707730E-007  0.2970535E+04  0.7818608E-02  0.8252195E-01
          2   -1    0    0  501    0  0.00000000000E+00  0.00000000000E+00  0.17677608158E+04  0.17677608158E+04  0.00000000000E+00 0. -1.
         -1   -1    0    0    0  501 -0.00000000000E+00 -0.00000000000E+00 -0.12479175024E+04  0.12479175024E+04  0.00000000000E+00 0.  1.
         24    2    1    2    0    0 -0.59252294403E+03  0.57250211465E+03  0.13173472315E+04  0.15559798626E+04  0.82628651567E+02 0.  0.
        254    2    1    2    0    0  0.59252294403E+03 -0.57250211465E+03 -0.79750391815E+03  0.14596984555E+04  0.90325244042E+03 0.  0.
         23    2    4    4    0    0 -0.14917789892E+03  0.37279661136E+02 -0.35041520409E+03  0.39625687005E+03  0.10288281270E+03 0.  0.
         23    2    4    4    0    0  0.74170084295E+03 -0.60978177578E+03 -0.44708871406E+03  0.10634415855E+04  0.95214142609E+02 0.  0.
          2    1    3    3  502    0 -0.29446870797E+03  0.30687275886E+03  0.75078819219E+03  0.86288215860E+03  0.00000000000E+00 0. -1.
         -1    1    3    3    0  502 -0.29805423607E+03  0.26562935579E+03  0.56655903933E+03  0.69309770404E+03  0.00000000000E+00 0.  1.
         13    1    5    5    0    0 -0.10026917627E+03  0.55816741463E+02 -0.30874682662E+03  0.32938430334E+03  0.00000000000E+00 0. -1.
        -13    1    5    5    0    0 -0.48908722650E+02 -0.18537080327E+02 -0.41668377466E+02  0.66872566714E+02  0.00000000000E+00 0.  1.
          1    1    6    6  503    0  0.46620111201E+03 -0.32831164941E+03 -0.28604694922E+03  0.63793014754E+03  0.00000000000E+00 0. -1.
         -1    1    6    6    0  503  0.27549973094E+03 -0.28147012637E+03 -0.16104176484E+03  0.42551143793E+03  0.00000000000E+00 0.  1.
<mgrwt>
<rscale>  0 0.29705351E+04</rscale>
<asrwt>0</asrwt>
<pdfrwt beam="1">  1        2 0.27196320E+00 0.29705351E+04</pdfrwt>
<pdfrwt beam="2">  1       -1 0.19198731E+00 0.29705351E+04</pdfrwt>
<totfact> 0.15026864E+00</totfact>
</mgrwt>
</event>
<event>
12    7  0.1707730E-007  0.1291848E+04  0.7818608E-02  0.9036055E-01
          2   -1    0    0  501    0  0.00000000000E+00  0.00000000000E+00  0.35104033248E+04  0.35104033248E+04  0.00000000000E+00 0. -1.
         -1   -1    0    0    0  501 -0.00000000000E+00 -0.00000000000E+00 -0.11885174740E+03  0.11885174740E+03  0.00000000000E+00 0.  1.
         24    2    1    2    0    0  0.75895851099E+02  0.26894933020E+03  0.14075371112E+04  0.14378386683E+04  0.90140968075E+02 0.  0.
        254    2    1    2    0    0 -0.75895851099E+02 -0.26894933020E+03  0.19840144662E+04  0.21914164039E+04  0.88763648577E+03 0.  0.
         23    2    4    4    0    0 -0.37919253757E+03 -0.40434533371E+03  0.14578586275E+04  0.15624313559E+04  0.92508566304E+02 0.  0.
         23    2    4    4    0    0  0.30329668647E+03  0.13539600351E+03  0.52615583870E+03  0.62898504797E+03  0.91985141144E+02 0.  0.
          2    1    3    3  502    0  0.65282658648E+02  0.26667957058E+03  0.12437802940E+04  0.12737225909E+04  0.00000000000E+00 0. -1.
         -1    1    3    3    0  502  0.10613192451E+02  0.22697596197E+01  0.16375681722E+03  0.16411607736E+03  0.00000000000E+00 0.  1.
         13    1    5    5    0    0 -0.34090575398E+03 -0.31911311102E+03  0.11679834627E+04  0.12578693414E+04  0.00000000000E+00 0.  1.
        -13    1    5    5    0    0 -0.38286783592E+02 -0.85232222681E+02  0.28987516472E+03  0.30456201454E+03  0.00000000000E+00 0. -1.
          4    1    6    6  503    0  0.95723272177E+02  0.83356947105E+02  0.24192523942E+03  0.27320165983E+03  0.00000000000E+00 0. -1.
         -4    1    6    6    0  503  0.20757341429E+03  0.52039056403E+02  0.28423059928E+03  0.35578338814E+03  0.00000000000E+00 0.  1.
<mgrwt>
<rscale>  0 0.12918476E+04</rscale>
<asrwt>0</asrwt>
<pdfrwt beam="1">  1        2 0.54006197E+00 0.12918476E+04</pdfrwt>
<pdfrwt beam="2">  1       -1 0.18284887E-01 0.12918476E+04</pdfrwt>
<totfact> 0.21672308E+01</totfact>
</mgrwt>
</event>
<event>
12    7  0.1707730E-007  0.3091962E+04  0.7818608E-02  0.8217947E-01
          2   -1    0    0  501    0  0.00000000000E+00  0.00000000000E+00  0.12179380658E+04  0.12179380658E+04  0.00000000000E+00 0. -1.
         -1   -1    0    0    0  501 -0.00000000000E+00 -0.00000000000E+00 -0.19623804514E+04  0.19623804514E+04  0.00000000000E+00 0.  1.
         24    2    1    2    0    0  0.10654459603E+02 -0.74523505802E+03  0.89836996961E+03  0.11697154514E+04  0.75344713320E+02 0.  0.
        254    2    1    2    0    0 -0.10654459603E+02  0.74523505802E+03 -0.16428123552E+04  0.20106030658E+04  0.88780822520E+03 0.  0.
         23    2    4    4    0    0  0.18893625509E+03  0.84417880666E+03 -0.14888562441E+04  0.17243318498E+04  0.91063969804E+02 0.  0.
         23    2    4    4    0    0 -0.19959071469E+03 -0.98943748644E+02 -0.15395611112E+03  0.28627121603E+03  0.92856912458E+02 0.  0.
          4    1    3    3  502    0 -0.13763904351E+02 -0.35755023111E+03  0.48173580456E+03  0.60008415928E+03  0.00000000000E+00 0. -1.
         -3    1    3    3    0  502  0.24418363954E+02 -0.38768482690E+03  0.41663416506E+03  0.56963129216E+03  0.00000000000E+00 0.  1.
         13    1    5    5    0    0 -0.73755323522E+00  0.24963265458E+02 -0.20786405469E+02  0.32492818583E+02  0.00000000000E+00 0. -1.
        -13    1    5    5    0    0  0.18967380832E+03  0.81921554120E+03 -0.14680698386E+04  0.16918390312E+04  0.00000000000E+00 0.  1.
          2    1    6    6  503    0 -0.47698710867E+01  0.14873467541E+02 -0.12018427588E+02  0.19708229463E+02  0.00000000000E+00 0. -1.
         -2    1    6    6    0  503 -0.19482084360E+03 -0.11381721619E+03 -0.14193768353E+03  0.26656298657E+03  0.00000000000E+00 0.  1.
<mgrwt>
<rscale>  0 0.30919624E+04</rscale>
<asrwt>0</asrwt>
<pdfrwt beam="1">  1        2 0.18737509E+00 0.30919624E+04</pdfrwt>
<pdfrwt beam="2">  1       -1 0.30190468E+00 0.30919624E+04</pdfrwt>
<totfact> 0.57400640E-01</totfact>
</mgrwt>
</event>
<event>
12    7  0.1707730E-007  0.1638479E+04  0.7818608E-02  0.8797252E-01
          2   -1    0    0  501    0  0.00000000000E+00  0.00000000000E+00  0.84129850994E+03  0.84129850994E+03  0.00000000000E+00 0. -1.
         -1   -1    0    0    0  501 -0.00000000000E+00 -0.00000000000E+00 -0.79775840465E+03  0.79775840465E+03  0.00000000000E+00 0.  1.
         24    2    1    2    0    0 -0.42120881421E+03 -0.16276505442E+03  0.36565597799E+03  0.58633853287E+03  0.78608223317E+02 0.  0.
        254    2    1    2    0    0  0.42120881421E+03  0.16276505442E+03 -0.32211587270E+03  0.10527183817E+04  0.89473349532E+03 0.  0.
         23    2    4    4    0    0  0.60315321394E+02 -0.11578204431E+02  0.29272767809E+03  0.31303257816E+03  0.92346676503E+02 0.  0.
         23    2    4    4    0    0  0.36089349281E+03  0.17434325886E+03 -0.61484355079E+03  0.73968580355E+03  0.91993537632E+02 0.  0.
          4    1    3    3  502    0 -0.31268874877E+03 -0.82576749216E+02  0.26002323537E+03  0.41497621143E+03  0.00000000000E+00 0. -1.
         -3    1    3    3    0  502 -0.10852006544E+03 -0.80188305208E+02  0.10563274262E+03  0.17136232144E+03  0.00000000000E+00 0.  1.
         13    1    5    5    0    0  0.72249952212E+02  0.20748569389E+02  0.17745812191E+03  0.19272245266E+03  0.00000000000E+00 0.  1.
        -13    1    5    5    0    0 -0.11934630818E+02 -0.32326773820E+02  0.11526955617E+03  0.12031012550E+03  0.00000000000E+00 0. -1.
          1    1    6    6  503    0  0.30952475642E+03  0.16066545504E+03 -0.46894191577E+03  0.58440181694E+03  0.00000000000E+00 0. -1.
         -1    1    6    6    0  503  0.51368736393E+02  0.13677803814E+02 -0.14590163502E+03  0.15528398661E+03  0.00000000000E+00 0.  1.
<mgrwt>
<rscale>  0 0.16384785E+04</rscale>
<asrwt>0</asrwt>
<pdfrwt beam="1">  1        2 0.12943054E+00 0.16384785E+04</pdfrwt>
<pdfrwt beam="2">  1       -1 0.12273206E+00 0.16384785E+04</pdfrwt>
<totfact> 0.20578326E+01</totfact>
</mgrwt>
</event>
<event>
12    7  0.1707730E-007  0.2070362E+04  0.7818608E-02  0.8574413E-01
         -1   -1    0    0    0  501 -0.00000000000E+00  0.00000000000E+00  0.87945354607E+03  0.87945354607E+03  0.00000000000E+00 0.  1.
          2   -1    0    0  501    0  0.00000000000E+00 -0.00000000000E+00 -0.12184838454E+04  0.12184838454E+04  0.00000000000E+00 0. -1.
         24    2    1    2    0    0  0.16872871435E+03 -0.80730525739E+03 -0.13806264474E+03  0.84012631763E+03  0.80868894124E+02 0.  0.
        254    2    1    2    0    0 -0.16872871435E+03  0.80730525739E+03 -0.20096765454E+03  0.12578110738E+04  0.92816460908E+03 0.  0.
         23    2    4    4    0    0 -0.18659639383E+03 -0.13331921266E+03 -0.19213877737E+03  0.31253434405E+03  0.90377982865E+02 0.  0.
         23    2    4    4    0    0  0.17867679482E+02  0.94062447005E+03 -0.88288771744E+01  0.94527672976E+03  0.91523216293E+02 0.  0.
          4    1    3    3  502    0 -0.26811473139E+01 -0.30936552199E+02  0.72565244181E+01  0.31889119767E+02  0.00000000000E+00 0. -1.
         -3    1    3    3    0  502  0.17140986166E+03 -0.77636870519E+03 -0.14531916916E+03  0.80823719786E+03  0.00000000000E+00 0.  1.
         13    1    5    5    0    0 -0.54191393909E+02 -0.37423735438E+02 -0.11326121410E+03  0.13101658585E+03  0.00000000000E+00 0.  1.
        -13    1    5    5    0    0 -0.13240499992E+03 -0.95895477217E+02 -0.78877563273E+02  0.18151775820E+03  0.00000000000E+00 0. -1.
          3    1    6    6  503    0 -0.41349041378E+01  0.77429148653E+03 -0.36812774608E+02  0.77517713067E+03  0.00000000000E+00 0. -1.
         -3    1    6    6    0  503  0.22002583620E+02  0.16633298352E+03  0.27983897434E+02  0.17009959908E+03  0.00000000000E+00 0.  1.
<mgrwt>
<rscale>  0 0.20703622E+04</rscale>
<asrwt>0</asrwt>
<pdfrwt beam="1">  1        2 0.18745905E+00 0.20703622E+04</pdfrwt>
<pdfrwt beam="2">  1       -1 0.13530055E+00 0.20703622E+04</pdfrwt>
<totfact> 0.89078268E+00</totfact>
</mgrwt>
</event>
<event>
12    7  0.1707730E-007  0.1446026E+04  0.7818608E-02  0.8921160E-01
          2   -1    0    0  501    0  0.00000000000E+00  0.00000000000E+00  0.10236662932E+04  0.10236662932E+04  0.00000000000E+00 0. -1.
         -1   -1    0    0    0  501 -0.00000000000E+00 -0.00000000000E+00 -0.51066235453E+03  0.51066235453E+03  0.00000000000E+00 0.  1.
         24    2    1    2    0    0  0.18410286583E+03  0.11535628331E+03  0.54558822002E+03  0.59329485521E+03  0.84447274031E+02 0.  0.
        254    2    1    2    0    0 -0.18410286583E+03 -0.11535628331E+03 -0.32584281336E+02  0.94103379254E+03  0.91503110657E+03 0.  0.
         23    2    4    4    0    0  0.23985895417E+01  0.36907010480E+03  0.10657004459E+03  0.39560594814E+03  0.94490191590E+02 0.  0.
         23    2    4    4    0    0 -0.18650145537E+03 -0.48442638812E+03 -0.13915432592E+03  0.54542784440E+03  0.93144450513E+02 0.  0.
          4    1    3    3  502    0  0.13331358691E+03  0.65322007998E+02  0.45127154263E+03  0.47506366139E+03  0.00000000000E+00 0. -1.
         -3    1    3    3    0  502  0.50789278922E+02  0.50034275313E+02  0.94316677389E+02  0.11823119382E+03  0.00000000000E+00 0.  1.
         13    1    5    5    0    0 -0.14583348036E+02  0.99728748732E+02 -0.10692467149E+02  0.10135495162E+03  0.00000000000E+00 0. -1.
        -13    1    5    5    0    0  0.16981937577E+02  0.26934135607E+03  0.11726251174E+03  0.29425099652E+03  0.00000000000E+00 0.  1.
          3    1    6    6  503    0 -0.21653756606E+01 -0.10763306204E+03 -0.21611599356E+02  0.10980266901E+03  0.00000000000E+00 0. -1.
         -3    1    6    6    0  503 -0.18433607971E+03 -0.37679332608E+03 -0.11754272657E+03  0.43562517539E+03  0.00000000000E+00 0.  1.
<mgrwt>
<rscale>  0 0.14460261E+04</rscale>
<asrwt>0</asrwt>
<pdfrwt beam="1">  1        2 0.15748712E+00 0.14460261E+04</pdfrwt>
<pdfrwt beam="2">  1       -1 0.78563439E-01 0.14460261E+04</pdfrwt>
<totfact> 0.43651480E+01</totfact>
</mgrwt>
</event>
<event>
12    7  0.1707730E-007  0.2886841E+04  0.7818608E-02  0.8276803E-01
          2   -1    0    0  501    0  0.00000000000E+00  0.00000000000E+00  0.14468525933E+04  0.14468525933E+04  0.00000000000E+00 0. -1.
         -1   -1    0    0    0  501 -0.00000000000E+00 -0.00000000000E+00 -0.14399969153E+04  0.14399969153E+04  0.00000000000E+00 0.  1.
         24    2    1    2    0    0 -0.57068753752E+03 -0.89540044126E+03 -0.68183030146E+03  0.12643724012E+04  0.79490836648E+02 0.  0.
        254    2    1    2    0    0  0.57068753752E+03  0.89540044126E+03  0.68868597952E+03  0.16224771074E+04  0.10152425179E+04 0.  0.
         23    2    4    4    0    0  0.85095667599E+03  0.56891302169E+03  0.44792362419E+03  0.11211052471E+04  0.91935365390E+02 0.  0.
         23    2    4    4    0    0 -0.28026913847E+03  0.32648741958E+03  0.24076235533E+03  0.50137186030E+03  0.90897774620E+02 0.  0.
          4    1    3    3  502    0 -0.49899647426E+02 -0.44692437646E+02 -0.35466547311E+02  0.75797524855E+02  0.00000000000E+00 0. -1.
         -3    1    3    3    0  502 -0.52078789009E+03 -0.85070800362E+03 -0.64636375415E+03  0.11885748763E+04  0.00000000000E+00 0.  1.
         13    1    5    5    0    0  0.72374408770E+03  0.51005659539E+03  0.41098463496E+03  0.97615142532E+03  0.00000000000E+00 0.  1.
        -13    1    5    5    0    0  0.12721258829E+03  0.58856426294E+02  0.36938989231E+02  0.14495382182E+03  0.00000000000E+00 0. -1.
          3    1    6    6  503    0 -0.22021983257E+03  0.30459415230E+03  0.20559446008E+03  0.42841971744E+03  0.00000000000E+00 0. -1.
         -3    1    6    6    0  503 -0.60049305904E+02  0.21893267276E+02  0.35167895244E+02  0.72952142857E+02  0.00000000000E+00 0.  1.
<mgrwt>
<rscale>  0 0.28868414E+04</rscale>
<asrwt>0</asrwt>
<pdfrwt beam="1">  1        2 0.22259271E+00 0.28868414E+04</pdfrwt>
<pdfrwt beam="2">  1       -1 0.22153799E+00 0.28868414E+04</pdfrwt>
<totfact> 0.14387968E+00</totfact>
</mgrwt>
</event>
<event>
12    7  0.1707730E-007  0.1703840E+04  0.7818608E-02  0.8759178E-01
          2   -1    0    0  501    0  0.00000000000E+00  0.00000000000E+00  0.11131606627E+04  0.11131606627E+04  0.00000000000E+00 0. -1.
         -1   -1    0    0    0  501 -0.00000000000E+00 -0.00000000000E+00 -0.65198798194E+03  0.65198798194E+03  0.00000000000E+00 0.  1.
         24    2    1    2    0    0  0.49454837644E+03 -0.33963594880E+03  0.84264295489E+02  0.61066487846E+03  0.76684078699E+02 0.  0.
        254    2    1    2    0    0 -0.49454837644E+03  0.33963594880E+03  0.37690838529E+03  0.11544837662E+04  0.91150543671E+03 0.  0.
         23    2    4    4    0    0  0.18085812996E+03  0.34321205966E+03  0.21713927282E+03  0.45435769289E+03  0.93740430014E+02 0.  0.
         23    2    4    4    0    0 -0.67540650640E+03 -0.35761108551E+01  0.15976911247E+03  0.70012607330E+03  0.91997889972E+02 0.  0.
          4    1    3    3  502    0  0.95860567041E+01  0.34755654340E+01  0.49279857596E+01  0.11325064321E+02  0.00000000000E+00 0. -1.
         -3    1    3    3    0  502  0.48496231974E+03 -0.34311151424E+03  0.79336309729E+02  0.59933981414E+03  0.00000000000E+00 0.  1.
         13    1    5    5    0    0  0.16399197864E+03  0.21824278311E+03  0.14633154510E+03  0.30973569786E+03  0.00000000000E+00 0.  1.
        -13    1    5    5    0    0  0.16866151321E+02  0.12496927655E+03  0.70807727715E+02  0.14462199502E+03  0.00000000000E+00 0. -1.
          3    1    6    6  503    0 -0.47911584112E+03 -0.16221356607E+02  0.72124324339E+02  0.48478556061E+03  0.00000000000E+00 0. -1.
         -3    1    6    6    0  503 -0.19629066529E+03  0.12645245752E+02  0.87644788130E+02  0.21534051269E+03  0.00000000000E+00 0.  1.
<mgrwt>
<rscale>  0 0.17038396E+04</rscale>
<asrwt>0</asrwt>
<pdfrwt beam="1">  1        2 0.17125549E+00 0.17038396E+04</pdfrwt>
<pdfrwt beam="2">  1       -1 0.10030584E+00 0.17038396E+04</pdfrwt>
<totfact> 0.21960969E+01</totfact>
</mgrwt>
</event>
<event>
12    7  0.1707730E-007  0.1149261E+04  0.7818608E-02  0.9158466E-01
         -3   -1    0    0    0  501 -0.00000000000E+00  0.00000000000E+00  0.11916634077E+03  0.11916634077E+03  0.00000000000E+00 0.  1.
          2   -1    0    0  501    0  0.00000000000E+00 -0.00000000000E+00 -0.27709187362E+04  0.27709187362E+04  0.00000000000E+00 0. -1.
         24    2    1    2    0    0 -0.17958951308E+03  0.10818821003E+03 -0.49393545636E+03  0.54253681103E+03  0.80105394788E+02 0.  0.
        254    2    1    2    0    0  0.17958951308E+03 -0.10818821003E+03 -0.21578169391E+04  0.23475482660E+04  0.90047311811E+03 0.  0.
         23    2    4    4    0    0 -0.77331324245E+02 -0.45759805863E+03 -0.95711314254E+03  0.10676691970E+04  0.92064269249E+02 0.  0.
         23    2    4    4    0    0  0.25692083732E+03  0.34940984861E+03 -0.12007037966E+04  0.12798790690E+04  0.91133227366E+02 0.  0.
          4    1    3    3  502    0  0.17401692329E+01  0.24788325808E+02 -0.55500846025E+02  0.60809811666E+02  0.00000000000E+00 0. -1.
         -3    1    3    3    0  502 -0.18132968231E+03  0.83399884219E+02 -0.43843461033E+03  0.48172699936E+03  0.00000000000E+00 0.  1.
         13    1    5    5    0    0 -0.88403319689E+01 -0.30975549987E+02 -0.13652330229E+03  0.14027205079E+03  0.00000000000E+00 0. -1.
        -13    1    5    5    0    0 -0.68490992276E+02 -0.42662250865E+03 -0.82058984025E+03  0.92739714622E+03  0.00000000000E+00 0.  1.
          2    1    6    6  503    0 -0.53364165811E+01  0.15932306550E+02 -0.26438623524E+02  0.31325972415E+02  0.00000000000E+00 0. -1.
         -2    1    6    6    0  503  0.26225725391E+03  0.33347754206E+03 -0.11742651730E+04  0.12485530965E+04  0.00000000000E+00 0.  1.
<mgrwt>
<rscale>  0 0.11492611E+04</rscale>
<asrwt>0</asrwt>
<pdfrwt beam="1">  1        2 0.42629513E+00 0.11492611E+04</pdfrwt>
<pdfrwt beam="2">  1       -3 0.18333286E-01 0.11492611E+04</pdfrwt>
<totfact> 0.42285937E+01</totfact>
</mgrwt>
</event>
<event>
12    7  0.1707730E-007  0.2511076E+04  0.7818608E-02  0.8399050E-01
          2   -1    0    0  501    0  0.00000000000E+00  0.00000000000E+00  0.19213557765E+04  0.19213557765E+04  0.00000000000E+00 0. -1.
         -1   -1    0    0    0  501 -0.00000000000E+00 -0.00000000000E+00 -0.82044944854E+03  0.82044944854E+03  0.00000000000E+00 0.  1.
         24    2    1    2    0    0  0.21170578547E+03  0.10383757946E+04  0.79259274066E+03  0.13257451988E+04  0.79708526044E+02 0.  0.
        254    2    1    2    0    0 -0.21170578547E+03 -0.10383757946E+04  0.30831358727E+03  0.14160600262E+04  0.88720070973E+03 0.  0.
         23    2    4    4    0    0 -0.49290357898E+03 -0.60539196537E+03  0.40317215636E+03  0.88325441983E+03  0.90206499647E+02 0.  0.
         23    2    4    4    0    0  0.28119779350E+03 -0.43298382924E+03 -0.94858569088E+02  0.53280560640E+03  0.91304274983E+02 0.  0.
          4    1    3    3  502    0  0.16873624200E+03  0.93877912294E+03  0.72292589280E+03  0.11968291472E+04  0.00000000000E+00 0. -1.
         -3    1    3    3    0  502  0.42969543473E+02  0.99596671669E+02  0.69666847863E+02  0.12891605162E+03  0.00000000000E+00 0.  1.
         13    1    5    5    0    0 -0.10157554336E+03 -0.16181014558E+03  0.13404230067E+03  0.23338263129E+03  0.00000000000E+00 0. -1.
        -13    1    5    5    0    0 -0.39132803561E+03 -0.44358181979E+03  0.26912985569E+03  0.64987178853E+03  0.00000000000E+00 0.  1.
          3    1    6    6  503    0  0.40089504308E+02 -0.80130765503E+02 -0.51256886473E+02  0.10322488240E+03  0.00000000000E+00 0. -1.
         -3    1    6    6    0  503  0.24110828919E+03 -0.35285306373E+03 -0.43601682616E+02  0.42958072400E+03  0.00000000000E+00 0.  1.
<mgrwt>
<rscale>  0 0.25110757E+04</rscale>
<asrwt>0</asrwt>
<pdfrwt beam="1">  1        2 0.29559320E+00 0.25110757E+04</pdfrwt>
<pdfrwt beam="2">  1       -1 0.12622299E+00 0.25110757E+04</pdfrwt>
<totfact> 0.40923131E+00</totfact>
</mgrwt>
</event>
<event>
12    7  0.1707730E-007  0.2802296E+04  0.7818608E-02  0.8302556E-01
         -1   -1    0    0    0  501 -0.00000000000E+00  0.00000000000E+00  0.67297324694E+03  0.67297324694E+03  0.00000000000E+00 0.  1.
          2   -1    0    0  501    0  0.00000000000E+00 -0.00000000000E+00 -0.29172271799E+04  0.29172271799E+04  0.00000000000E+00 0. -1.
         24    2    1    2    0    0  0.77292157029E+03  0.75059522029E+03 -0.18393262342E+04  0.21330554467E+04  0.77482931520E+02 0.  0.
        254    2    1    2    0    0 -0.77292157029E+03 -0.75059522029E+03 -0.40492769878E+03  0.14571449801E+04  0.89359057358E+03 0.  0.
         23    2    4    4    0    0 -0.74545007026E+03 -0.72495272122E+03 -0.62454586834E+03  0.12164582088E+04  0.91982481598E+02 0.  0.
         23    2    4    4    0    0 -0.27471500026E+02 -0.25642499064E+02  0.21961816955E+03  0.24068677125E+03  0.91026152190E+02 0.  0.
          2    1    3    3  502    0  0.14578578982E+03  0.15517143890E+03 -0.42383454701E+03  0.47430727931E+03  0.00000000000E+00 0. -1.
         -1    1    3    3    0  502  0.62713578047E+03  0.59542378139E+03 -0.14154916871E+04  0.16587481674E+04  0.00000000000E+00 0.  1.
         13    1    5    5    0    0 -0.25094425438E+03 -0.23230963680E+03 -0.15674413207E+03  0.37617749679E+03  0.00000000000E+00 0. -1.
        -13    1    5    5    0    0 -0.49450581588E+03 -0.49264308443E+03 -0.46780173627E+03  0.84028071204E+03  0.00000000000E+00 0.  1.
          2    1    6    6  503    0  0.34354342241E+01  0.23667143521E+02  0.15654115858E+02  0.28582988543E+02  0.00000000000E+00 0. -1.
         -2    1    6    6    0  503 -0.30906934250E+02 -0.49309642585E+02  0.20396405370E+03  0.21210378270E+03  0.00000000000E+00 0.  1.
<mgrwt>
<rscale>  0 0.28022961E+04</rscale>
<asrwt>0</asrwt>
<pdfrwt beam="1">  1        2 0.44880418E+00 0.28022961E+04</pdfrwt>
<pdfrwt beam="2">  1       -1 0.10353435E+00 0.28022961E+04</pdfrwt>
<totfact> 0.17046165E+00</totfact>
</mgrwt>
</event>
<event>
12    7  0.1707730E-007  0.1737491E+04  0.7818608E-02  0.8740266E-01
          2   -1    0    0  501    0  0.00000000000E+00  0.00000000000E+00  0.32545265724E+04  0.32545265724E+04  0.00000000000E+00 0. -1.
         -1   -1    0    0    0  501 -0.00000000000E+00 -0.00000000000E+00 -0.23189808792E+03  0.23189808792E+03  0.00000000000E+00 0.  1.
         24    2    1    2    0    0  0.61527588642E+03 -0.11676777517E+03  0.91834363884E+03  0.11143350236E+04  0.78666231571E+02 0.  0.
        254    2    1    2    0    0 -0.61527588642E+03  0.11676777517E+03  0.21042848456E+04  0.23720896367E+04  0.89810656579E+03 0.  0.
         23    2    4    4    0    0 -0.76007589060E+03  0.28858952246E+03  0.13333342121E+04  0.15638892176E+04  0.83487076459E+02 0.  0.
         23    2    4    4    0    0  0.14480000418E+03 -0.17182174729E+03  0.77095063353E+03  0.80820041912E+03  0.91286823090E+02 0.  0.
          2    1    3    3  502    0  0.43958102950E+03 -0.99517344482E+02  0.71332795801E+03  0.84378430836E+03  0.00000000000E+00 0. -1.
         -1    1    3    3    0  502  0.17569485692E+03 -0.17250430685E+02  0.20501568083E+03  0.27055071519E+03  0.00000000000E+00 0.  1.
         13    1    5    5    0    0 -0.74973255033E+03  0.29376914879E+03  0.13071810260E+04  0.15352919737E+04  0.00000000000E+00 0.  1.
        -13    1    5    5    0    0 -0.10343340269E+02 -0.51796263326E+01  0.26153186104E+02  0.28597243928E+02  0.00000000000E+00 0. -1.
          1    1    6    6  503    0  0.15556629277E+02 -0.55004363337E+02  0.10187572743E+03  0.11681674769E+03  0.00000000000E+00 0. -1.
         -1    1    6    6    0  503  0.12924337490E+03 -0.11681738395E+03  0.66907490610E+03  0.69138367143E+03  0.00000000000E+00 0.  1.
<mgrwt>
<rscale>  0 0.17374907E+04</rscale>
<asrwt>0</asrwt>
<pdfrwt beam="1">  1        2 0.50069636E+00 0.17374907E+04</pdfrwt>
<pdfrwt beam="2">  1       -1 0.35676631E-01 0.17374907E+04</pdfrwt>
<totfact> 0.97349365E+00</totfact>
</mgrwt>
</event>
<event>
12    7  0.1707730E-007  0.2247401E+04  0.7818608E-02  0.8498954E-01
          2   -1    0    0  501    0  0.00000000000E+00  0.00000000000E+00  0.20021765692E+04  0.20021765692E+04  0.00000000000E+00 0. -1.
         -1   -1    0    0    0  501 -0.00000000000E+00 -0.00000000000E+00 -0.63066522355E+03  0.63066522355E+03  0.00000000000E+00 0.  1.
         24    2    1    2    0    0 -0.86885324176E+03  0.59133859111E+01  0.10164488686E+04  0.13396156369E+04  0.80379278620E+02 0.  0.
        254    2    1    2    0    0  0.86885324176E+03 -0.59133859111E+01  0.35506247709E+03  0.12932261558E+04  0.88961992091E+03 0.  0.
         23    2    4    4    0    0 -0.12604086821E+03  0.66746863160E+02  0.22794421777E+03  0.28344248314E+03  0.89663987383E+02 0.  0.
         23    2    4    4    0    0  0.99489410997E+03 -0.72660249071E+02  0.12711825932E+03  0.10097836727E+04  0.91707207827E+02 0.  0.
          4    1    3    3  502    0 -0.64336370739E+03  0.33510236672E+02  0.78133987123E+03  0.10126854350E+04  0.00000000000E+00 0. -1.
         -3    1    3    3    0  502 -0.22548953437E+03 -0.27596850761E+02  0.23510899736E+03  0.32693020192E+03  0.00000000000E+00 0.  1.
         13    1    5    5    0    0 -0.84676778003E+02  0.26720555915E+01  0.77724296326E+02  0.11497113922E+03  0.00000000000E+00 0.  1.
        -13    1    5    5    0    0 -0.41364090203E+02  0.64074807569E+02  0.15021992145E+03  0.16847134392E+03  0.00000000000E+00 0. -1.
          1    1    6    6  503    0  0.28777494619E+03 -0.26003678311E+02 -0.46281844970E+01  0.28898448234E+03  0.00000000000E+00 0. -1.
         -1    1    6    6    0  503  0.70711916378E+03 -0.46656570760E+02  0.13174644382E+03  0.72079919037E+03  0.00000000000E+00 0.  1.
<mgrwt>
<rscale>  0 0.22474013E+04</rscale>
<asrwt>0</asrwt>
<pdfrwt beam="1">  1        2 0.30802716E+00 0.22474013E+04</pdfrwt>
<pdfrwt beam="2">  1       -1 0.97025420E-01 0.22474013E+04</pdfrwt>
<totfact> 0.70488364E+00</totfact>
</mgrwt>
</event>
<event>
12    7  0.1707730E-007  0.1254602E+04  0.7818608E-02  0.9066361E-01
         -1   -1    0    0    0  501 -0.00000000000E+00  0.00000000000E+00  0.38178549694E+03  0.38178549694E+03  0.00000000000E+00 0.  1.
          2   -1    0    0  501    0  0.00000000000E+00 -0.00000000000E+00 -0.10307010831E+04  0.10307010831E+04  0.00000000000E+00 0. -1.
         24    2    1    2    0    0  0.22646671643E+03  0.18572717590E+03 -0.12249653408E+03  0.32879666877E+03  0.85557530438E+02 0.  0.
        254    2    1    2    0    0 -0.22646671643E+03 -0.18572717590E+03 -0.52641905207E+03  0.10836899113E+04  0.90082464879E+03 0.  0.
         23    2    4    4    0    0  0.73353254832E+01  0.31976698157E+03 -0.37017051644E+03  0.49795908819E+03  0.92910240412E+02 0.  0.
         23    2    4    4    0    0 -0.23380204191E+03 -0.50549415747E+03 -0.15624853563E+03  0.58573082307E+03  0.92082865800E+02 0.  0.
          2    1    3    3  502    0  0.25438862221E+02  0.60274097381E+02 -0.45311013051E+02  0.79581344736E+02  0.00000000000E+00 0. -1.
         -1    1    3    3    0  502  0.20102785421E+03  0.12545307852E+03 -0.77185521032E+02  0.24921532404E+03  0.00000000000E+00 0.  1.
         13    1    5    5    0    0 -0.19911662567E+02  0.27070982788E+03 -0.33718238788E+03  0.43286516135E+03  0.00000000000E+00 0. -1.
        -13    1    5    5    0    0  0.27246988050E+02  0.49057153687E+02 -0.32988128559E+02  0.65093926840E+02  0.00000000000E+00 0.  1.
          2    1    6    6  503    0 -0.86369602900E+02 -0.25446210575E+03 -0.11257719150E+03  0.29134909578E+03  0.00000000000E+00 0.  1.
         -2    1    6    6    0  503 -0.14743243901E+03 -0.25103205172E+03 -0.43671344124E+02  0.29438172729E+03  0.00000000000E+00 0. -1.
<mgrwt>
<rscale>  0 0.12546023E+04</rscale>
<asrwt>0</asrwt>
<pdfrwt beam="1">  1        2 0.15856939E+00 0.12546023E+04</pdfrwt>
<pdfrwt beam="2">  1       -1 0.58736231E-01 0.12546023E+04</pdfrwt>
<totfact> 0.79314667E+01</totfact>
</mgrwt>
</event>
<event>
12    7  0.1707730E-007  0.2893157E+04  0.7818608E-02  0.8274916E-01
         -1   -1    0    0    0  501 -0.00000000000E+00  0.00000000000E+00  0.63271826548E+03  0.63271826548E+03  0.00000000000E+00 0.  1.
          2   -1    0    0  501    0  0.00000000000E+00 -0.00000000000E+00 -0.33072999355E+04  0.33072999355E+04  0.00000000000E+00 0. -1.
         24    2    1    2    0    0  0.78803814514E+03  0.78178323812E+03 -0.20942961132E+04  0.23713725394E+04  0.71710259131E+02 0.  0.
        254    2    1    2    0    0 -0.78803814514E+03 -0.78178323812E+03 -0.58028555687E+03  0.15686456616E+04  0.94431389622E+03 0.  0.
         23    2    4    4    0    0 -0.76188003146E+03 -0.23497706894E+03 -0.55724514929E+02  0.80441083670E+03  0.91083299054E+02 0.  0.
         23    2    4    4    0    0 -0.26158113681E+02 -0.54680616918E+03 -0.52456104194E+03  0.76423482491E+03  0.95965344438E+02 0.  0.
          2    1    3    3  502    0  0.70348927879E+03  0.71633736600E+03 -0.19260427728E+04  0.21720214433E+04  0.00000000000E+00 0. -1.
         -1    1    3    3    0  502  0.84548866355E+02  0.65445872117E+02 -0.16825334035E+03  0.19935109610E+03  0.00000000000E+00 0.  1.
         13    1    5    5    0    0 -0.71883615800E+02 -0.12563853667E+02 -0.30283445158E+02  0.79007541983E+02  0.00000000000E+00 0. -1.
        -13    1    5    5    0    0 -0.68999641566E+03 -0.22241321528E+03 -0.25441069771E+02  0.72540329472E+03  0.00000000000E+00 0.  1.
          3    1    6    6  503    0 -0.30722643552E+02 -0.59065452643E+02 -0.46100808829E+02  0.80980819318E+02  0.00000000000E+00 0. -1.
         -3    1    6    6    0  503  0.45645298714E+01 -0.48774071653E+03 -0.47846023311E+03  0.68325400560E+03  0.00000000000E+00 0.  1.
<mgrwt>
<rscale>  0 0.28931568E+04</rscale>
<asrwt>0</asrwt>
<pdfrwt beam="1">  1        2 0.50881536E+00 0.28931568E+04</pdfrwt>
<pdfrwt beam="2">  1       -1 0.97341275E-01 0.28931568E+04</pdfrwt>
<totfact> 0.10947241E+00</totfact>
</mgrwt>
</event>
<event>
12    7  0.1707730E-007  0.2117358E+04  0.7818608E-02  0.8553635E-01
         -1   -1    0    0    0  501 -0.00000000000E+00  0.00000000000E+00  0.53754747348E+03  0.53754747348E+03  0.00000000000E+00 0.  1.
          2   -1    0    0  501    0  0.00000000000E+00 -0.00000000000E+00 -0.20850282626E+04  0.20850282626E+04  0.00000000000E+00 0. -1.
         24    2    1    2    0    0 -0.34335981610E+03 -0.26999466874E+03 -0.15679372141E+04  0.16293439770E+04  0.74441948292E+02 0.  0.
        254    2    1    2    0    0  0.34335981610E+03  0.26999466874E+03  0.20456425024E+02  0.99323175901E+03  0.89179469461E+03 0.  0.
         23    2    4    4    0    0  0.46725387418E+03 -0.12991778826E+03 -0.17294913833E+03  0.52303205252E+03  0.91903802269E+02 0.  0.
         23    2    4    4    0    0 -0.12389405808E+03  0.39991245699E+03  0.19340556336E+03  0.47019970650E+03  0.91664285138E+02 0.  0.
          2    1    3    3  502    0 -0.22381050525E+03 -0.20231008201E+03 -0.11737465366E+04  0.12118999314E+04  0.00000000000E+00 0. -1.
         -1    1    3    3    0  502 -0.11954931085E+03 -0.67684586725E+02 -0.39419067747E+03  0.41744404561E+03  0.00000000000E+00 0.  1.
         13    1    5    5    0    0  0.13251854843E+03 -0.76574018603E+02 -0.73499526543E+02  0.16978494163E+03  0.00000000000E+00 0.  1.
        -13    1    5    5    0    0  0.33473532574E+03 -0.53343769652E+02 -0.99449611790E+02  0.35324711088E+03  0.00000000000E+00 0. -1.
          2    1    6    6  503    0 -0.78899744327E+02  0.34050626899E+03  0.18424896666E+03  0.39511690749E+03  0.00000000000E+00 0. -1.
         -2    1    6    6    0  503 -0.44994313751E+02  0.59406188006E+02  0.91565967017E+01  0.75082799006E+02  0.00000000000E+00 0.  1.
<mgrwt>
<rscale>  0 0.21173584E+04</rscale>
<asrwt>0</asrwt>
<pdfrwt beam="1">  1        2 0.32077358E+00 0.21173584E+04</pdfrwt>
<pdfrwt beam="2">  1       -1 0.82699612E-01 0.21173584E+04</pdfrwt>
<totfact> 0.91154444E+00</totfact>
</mgrwt>
</event>
<event>
12    7  0.1707730E-007  0.1681656E+04  0.7818608E-02  0.8771896E-01
         -1   -1    0    0    0  501 -0.00000000000E+00  0.00000000000E+00  0.26539966823E+03  0.26539966823E+03  0.00000000000E+00 0.  1.
          2   -1    0    0  501    0  0.00000000000E+00 -0.00000000000E+00 -0.26638768024E+04  0.26638768024E+04  0.00000000000E+00 0. -1.
         24    2    1    2    0    0  0.33169264168E+03 -0.25099496156E+02 -0.17348208786E+04  0.17680437338E+04  0.75664856503E+02 0.  0.
        254    2    1    2    0    0 -0.33169264168E+03  0.25099496156E+02 -0.66365625551E+03  0.11612327368E+04  0.89295680201E+03 0.  0.
         23    2    4    4    0    0  0.11113768240E+03  0.27189382871E+03 -0.55709730363E+03  0.63634653775E+03  0.91113510772E+02 0.  0.
         23    2    4    4    0    0 -0.44283032408E+03 -0.24679433256E+03 -0.10655895187E+03  0.52488619904E+03  0.84525577249E+02 0.  0.
          4    1    3    3  502    0  0.26514316112E+03 -0.38830093319E+02 -0.14929685060E+04  0.15168268299E+04  0.00000000000E+00 0. -1.
         -3    1    3    3    0  502  0.66549480557E+02  0.13730597163E+02 -0.24185237267E+03  0.25121690394E+03  0.00000000000E+00 0.  1.
         13    1    5    5    0    0 -0.36881235052E+01  0.62543565706E+02 -0.17394580935E+03  0.18488494924E+03  0.00000000000E+00 0. -1.
        -13    1    5    5    0    0  0.11482580591E+03  0.20935026300E+03 -0.38315149429E+03  0.45146158851E+03  0.00000000000E+00 0.  1.
          1    1    6    6  503    0 -0.13587324277E+02 -0.28258609529E+02 -0.14283851799E+02  0.34455664494E+02  0.00000000000E+00 0. -1.
         -1    1    6    6    0  503 -0.42924299980E+03 -0.21853572303E+03 -0.92275100076E+02  0.49043053454E+03  0.00000000000E+00 0.  1.
<mgrwt>
<rscale>  0 0.16816563E+04</rscale>
<asrwt>0</asrwt>
<pdfrwt beam="1">  1        2 0.40982722E+00 0.16816563E+04</pdfrwt>
<pdfrwt beam="2">  1       -1 0.40830716E-01 0.16816563E+04</pdfrwt>
<totfact> 0.17803478E+01</totfact>
</mgrwt>
</event>
<event>
12    7  0.1707730E-007  0.1923477E+04  0.7818608E-02  0.8643258E-01
         -1   -1    0    0    0  501 -0.00000000000E+00  0.00000000000E+00  0.34530579568E+03  0.34530579568E+03  0.00000000000E+00 0.  1.
          2   -1    0    0  501    0  0.00000000000E+00 -0.00000000000E+00 -0.26786152761E+04  0.26786152761E+04  0.00000000000E+00 0. -1.
         24    2    1    2    0    0  0.98912255011E+02  0.29672487325E+03 -0.19817318753E+04  0.20077847121E+04  0.78159708139E+02 0.  0.
        254    2    1    2    0    0 -0.98912255011E+02 -0.29672487325E+03 -0.35157760514E+03  0.10161363597E+04  0.90060924073E+03 0.  0.
         23    2    4    4    0    0  0.34694072932E+03 -0.26384704107E+03 -0.60910915890E+01  0.44554256785E+03  0.92130058191E+02 0.  0.
         23    2    4    4    0    0 -0.44585298434E+03 -0.32877832180E+02 -0.34548651355E+03  0.57059379186E+03  0.79690079523E+02 0.  0.
          2    1    3    3  502    0  0.89992393519E+02  0.29911466005E+03 -0.18961088323E+04  0.19216651412E+04  0.00000000000E+00 0. -1.
         -1    1    3    3    0  502  0.89198614917E+01 -0.23897868068E+01 -0.85623042954E+02  0.86119570916E+02  0.00000000000E+00 0.  1.
         13    1    5    5    0    0  0.34433141038E+03 -0.25588720658E+03 -0.19820825333E+02  0.42945925043E+03  0.00000000000E+00 0. -1.
        -13    1    5    5    0    0  0.26093189488E+01 -0.79598344882E+01  0.13729733744E+02  0.16083317417E+02  0.00000000000E+00 0.  1.
          1    1    6    6  503    0 -0.41081206816E+03 -0.16786705700E+02 -0.33574593751E+03  0.53082358971E+03  0.00000000000E+00 0. -1.
         -1    1    6    6    0  503 -0.35040916170E+02 -0.16091126481E+02 -0.97405760411E+01  0.39770202150E+02  0.00000000000E+00 0.  1.
<mgrwt>
<rscale>  0 0.19234775E+04</rscale>
<asrwt>0</asrwt>
<pdfrwt beam="1">  1        2 0.41209466E+00 0.19234775E+04</pdfrwt>
<pdfrwt beam="2">  1       -1 0.53123968E-01 0.19234775E+04</pdfrwt>
<totfact> 0.10412588E+01</totfact>
</mgrwt>
</event>
<event>
12    7  0.1707730E-007  0.9855190E+03  0.7818608E-02  0.9324571E-01
          2   -1    0    0  501    0  0.00000000000E+00  0.00000000000E+00  0.23188922802E+04  0.23188922802E+04  0.00000000000E+00 0. -1.
         -1   -1    0    0    0  501 -0.00000000000E+00 -0.00000000000E+00 -0.10471030368E+03  0.10471030368E+03  0.00000000000E+00 0.  1.
         24    2    1    2    0    0  0.40778333474E+02 -0.11949402188E+02  0.23111372479E+03  0.24531943857E+03  0.70444392660E+02 0.  0.
        254    2    1    2    0    0 -0.40778333474E+02  0.11949402188E+02  0.19830682517E+04  0.21782831453E+04  0.90030667520E+03 0.  0.
         23    2    4    4    0    0  0.38733600893E+03 -0.15047748948E+03  0.79295661744E+03  0.90020145485E+03  0.94391755544E+02 0.  0.
         23    2    4    4    0    0 -0.42811434241E+03  0.16242689167E+03  0.11901116342E+04  0.12780816904E+04  0.86387036599E+02 0.  0.
          4    1    3    3  502    0  0.64797239141E+01 -0.17673674556E+00  0.19151781332E+03  0.19162747944E+03  0.00000000000E+00 0. -1.
         -3    1    3    3    0  502  0.34298609560E+02 -0.11772665443E+02  0.39595911473E+02  0.53691959126E+02  0.00000000000E+00 0.  1.
         13    1    5    5    0    0  0.51441574330E+01 -0.82934130497E+01  0.65704819205E+02  0.66425645067E+02  0.00000000000E+00 0.  1.
        -13    1    5    5    0    0  0.38219185150E+03 -0.14218407643E+03  0.72725179823E+03  0.83377580978E+03  0.00000000000E+00 0. -1.
          3    1    6    6  503    0 -0.32139530099E+03  0.16047545779E+03  0.91666804770E+03  0.98454437265E+03  0.00000000000E+00 0. -1.
         -3    1    6    6    0  503 -0.10671904142E+03  0.19514338876E+01  0.27344358654E+03  0.29353731776E+03  0.00000000000E+00 0.  1.
<mgrwt>
<rscale>  0 0.98551898E+03</rscale>
<asrwt>0</asrwt>
<pdfrwt beam="1">  1        2 0.35675262E+00 0.98551898E+03</pdfrwt>
<pdfrwt beam="2">  1       -1 0.16109279E-01 0.98551898E+03</pdfrwt>
<totfact> 0.14877042E+02</totfact>
</mgrwt>
</event>
<event>
12    7  0.1707730E-007  0.1174640E+04  0.7818608E-02  0.9135349E-01
         -1   -1    0    0    0  501 -0.00000000000E+00  0.00000000000E+00  0.22258361801E+03  0.22258361801E+03  0.00000000000E+00 0.  1.
          2   -1    0    0  501    0  0.00000000000E+00 -0.00000000000E+00 -0.15497300241E+04  0.15497300241E+04  0.00000000000E+00 0. -1.
         24    2    1    2    0    0  0.15743202738E+03  0.11545136459E+03 -0.80533314098E+02  0.22516190445E+03  0.78092302469E+02 0.  0.
        254    2    1    2    0    0 -0.15743202738E+03 -0.11545136459E+03 -0.12466130920E+04  0.15471517377E+04  0.89527673787E+03 0.  0.
         23    2    4    4    0    0 -0.14152309324E+03  0.37104326186E+03 -0.43698025668E+03  0.59737815301E+03  0.90592631471E+02 0.  0.
         23    2    4    4    0    0 -0.15908934139E+02 -0.48649462645E+03 -0.80963283536E+03  0.94977358468E+03  0.98155072829E+02 0.  0.
          2    1    3    3  502    0  0.10680930569E+03  0.70654721380E+02 -0.90527613156E+02  0.15682973627E+03  0.00000000000E+00 0. -1.
         -1    1    3    3    0  502  0.50622721695E+02  0.44796643210E+02  0.99942990581E+01  0.68332168181E+02  0.00000000000E+00 0.  1.
         13    1    5    5    0    0 -0.10796640159E+03  0.17189844932E+03 -0.25125109738E+03  0.32300609078E+03  0.00000000000E+00 0.  1.
        -13    1    5    5    0    0 -0.33556691654E+02  0.19914481254E+03 -0.18572915930E+03  0.27437206223E+03  0.00000000000E+00 0. -1.
          4    1    6    6  503    0 -0.32844901962E+02 -0.47488497708E+03 -0.77610027272E+03  0.91045382220E+03  0.00000000000E+00 0. -1.
         -4    1    6    6    0  503  0.16935967823E+02 -0.11609649363E+02 -0.33532562637E+02  0.39319762480E+02  0.00000000000E+00 0.  1.
<mgrwt>
<rscale>  0 0.11746395E+04</rscale>
<asrwt>0</asrwt>
<pdfrwt beam="1">  1        2 0.23842000E+00 0.11746395E+04</pdfrwt>
<pdfrwt beam="2">  1       -1 0.34243634E-01 0.11746395E+04</pdfrwt>
<totfact> 0.10808868E+02</totfact>
</mgrwt>
</event>
<event>
12    7  0.1707730E-007  0.2240516E+04  0.7818608E-02  0.8501751E-01
          2   -1    0    0  501    0  0.00000000000E+00  0.00000000000E+00  0.19483439321E+04  0.19483439321E+04  0.00000000000E+00 0. -1.
         -1   -1    0    0    0  501 -0.00000000000E+00 -0.00000000000E+00 -0.64412554352E+03  0.64412554352E+03  0.00000000000E+00 0.  1.
         24    2    1    2    0    0 -0.14766229057E+03  0.90854278424E+03  0.71359571211E+03  0.11673705718E+04  0.79253194206E+02 0.  0.
        254    2    1    2    0    0  0.14766229057E+03 -0.90854278424E+03  0.59062267647E+03  0.14250989038E+04  0.91368353206E+03 0.  0.
         23    2    4    4    0    0  0.30574668422E+03 -0.73877248755E+03  0.22435301755E+02  0.80461871644E+03  0.87419178674E+02 0.  0.
         23    2    4    4    0    0 -0.15808439365E+03 -0.16977029669E+03  0.56818737471E+03  0.62048018734E+03  0.91357216200E+02 0.  0.
          4    1    3    3  502    0 -0.50673720457E+02  0.13451505381E+03  0.11527285710E+03  0.18425514167E+03  0.00000000000E+00 0. -1.
         -3    1    3    3    0  502 -0.96988570111E+02  0.77402773042E+03  0.59832285500E+03  0.98311543016E+03  0.00000000000E+00 0.  1.
         13    1    5    5    0    0  0.64996972417E+02 -0.11956558935E+03 -0.25773900776E+02  0.13850931572E+03  0.00000000000E+00 0. -1.
        -13    1    5    5    0    0  0.24074971181E+03 -0.61920689820E+03  0.48209202531E+02  0.66610940072E+03  0.00000000000E+00 0.  1.
          1    1    6    6  503    0  0.54849905784E+01  0.64989869789E+01  0.26091753276E+02  0.27442695611E+02  0.00000000000E+00 0. -1.
         -1    1    6    6    0  503 -0.16356938423E+03 -0.17626928366E+03  0.54209562144E+03  0.59303749173E+03  0.00000000000E+00 0.  1.
<mgrwt>
<rscale>  0 0.22405161E+04</rscale>
<asrwt>0</asrwt>
<pdfrwt beam="1">  1        2 0.29974522E+00 0.22405161E+04</pdfrwt>
<pdfrwt beam="2">  1       -1 0.99096238E-01 0.22405161E+04</pdfrwt>
<totfact> 0.72025722E+00</totfact>
</mgrwt>
</event>
<event>
12    7  0.1707730E-007  0.1081552E+04  0.7818608E-02  0.9223361E-01
         -1   -1    0    0    0  501 -0.00000000000E+00  0.00000000000E+00  0.13826468981E+03  0.13826468981E+03  0.00000000000E+00 0.  1.
          2   -1    0    0  501    0  0.00000000000E+00 -0.00000000000E+00 -0.21150651105E+04  0.21150651105E+04  0.00000000000E+00 0. -1.
         24    2    1    2    0    0  0.40333391632E+02 -0.96132611296E+01 -0.60708904030E+03  0.61315587672E+03  0.75391173485E+02 0.  0.
        254    2    1    2    0    0 -0.40333391632E+02  0.96132611296E+01 -0.13697113804E+04  0.16401739236E+04  0.90130019240E+03 0.  0.
         23    2    4    4    0    0 -0.33842954650E+03  0.26071487973E+03 -0.10091563123E+04  0.10997640067E+04  0.92615340875E+02 0.  0.
         23    2    4    4    0    0  0.29809615487E+03 -0.25110161860E+03 -0.36055506816E+03  0.54040991694E+03  0.10064581830E+03 0.  0.
          2    1    3    3  502    0  0.35884043707E+02  0.11180979271E+02 -0.56251430571E+03  0.56376858995E+03  0.00000000000E+00 0. -1.
         -1    1    3    3    0  502  0.44493479248E+01 -0.20794240401E+02 -0.44574734590E+02  0.49387286771E+02  0.00000000000E+00 0.  1.
         13    1    5    5    0    0 -0.18939955596E+01 -0.61361832703E+01 -0.27895612036E+02  0.28625253452E+02  0.00000000000E+00 0.  1.
        -13    1    5    5    0    0 -0.33653555094E+03  0.26685106300E+03 -0.98126070024E+03  0.10711387532E+04  0.00000000000E+00 0. -1.
          4    1    6    6  503    0  0.21667957395E+03 -0.23482055186E+03 -0.28579507747E+03  0.42868351455E+03  0.00000000000E+00 0. -1.
         -4    1    6    6    0  503  0.81416580922E+02 -0.16281066741E+02 -0.74759990693E+02  0.11172640239E+03  0.00000000000E+00 0.  1.
<mgrwt>
<rscale>  0 0.10815523E+04</rscale>
<asrwt>0</asrwt>
<pdfrwt beam="1">  1        2 0.32539462E+00 0.10815523E+04</pdfrwt>
<pdfrwt beam="2">  1       -1 0.21271491E-01 0.10815523E+04</pdfrwt>
<totfact> 0.12076450E+02</totfact>
</mgrwt>
</event>
<event>
12    7  0.1707730E-007  0.1665789E+04  0.7818608E-02  0.8781120E-01
          2   -1    0    0  501    0  0.00000000000E+00  0.00000000000E+00  0.34480617235E+04  0.34480617235E+04  0.00000000000E+00 0. -1.
         -1   -1    0    0    0  501 -0.00000000000E+00 -0.00000000000E+00 -0.20118929467E+03  0.20118929467E+03  0.00000000000E+00 0.  1.
         24    2    1    2    0    0  0.57042990653E+03  0.11746440484E+03  0.13506983118E+04  0.14737451451E+04  0.91381936779E+02 0.  0.
        254    2    1    2    0    0 -0.57042990653E+03 -0.11746440484E+03  0.18961741170E+04  0.21755058731E+04  0.89339876722E+03 0.  0.
         23    2    4    4    0    0 -0.31118030105E+03  0.24436636710E+02  0.18312251594E+04  0.18598764381E+04  0.91238434091E+02 0.  0.
         23    2    4    4    0    0 -0.25924960548E+03 -0.14190104155E+03  0.64948957658E+02  0.31562943499E+03  0.89762517772E+02 0.  0.
          4    1    3    3  502    0  0.47099937986E+03  0.63805248934E+02  0.10519023918E+04  0.11543007266E+04  0.00000000000E+00 0. -1.
         -3    1    3    3    0  502  0.99430526668E+02  0.53659155909E+02  0.29879592006E+03  0.31944441847E+03  0.00000000000E+00 0.  1.
         13    1    5    5    0    0 -0.93842534113E+02 -0.21233934937E+02  0.74444028877E+03  0.75063216341E+03  0.00000000000E+00 0. -1.
        -13    1    5    5    0    0 -0.21733776693E+03  0.45670571646E+02  0.10867848706E+04  0.11092442747E+04  0.00000000000E+00 0.  1.
          2    1    6    6  503    0 -0.13915759533E+03 -0.44301471279E+02  0.67439425140E+02  0.16085873542E+03  0.00000000000E+00 0. -1.
         -2    1    6    6    0  503 -0.12009201015E+03 -0.97599570274E+02 -0.24904674819E+01  0.15477069958E+03  0.00000000000E+00 0.  1.
<mgrwt>
<rscale>  0 0.16657888E+04</rscale>
<asrwt>0</asrwt>
<pdfrwt beam="1">  1        2 0.53047099E+00 0.16657888E+04</pdfrwt>
<pdfrwt beam="2">  1       -1 0.30952202E-01 0.16657888E+04</pdfrwt>
<totfact> 0.93617012E+00</totfact>
</mgrwt>
</event>
<event>
12    7  0.1707730E-007  0.1415280E+04  0.7818608E-02  0.8942832E-01
          2   -1    0    0  501    0  0.00000000000E+00  0.00000000000E+00  0.30462314341E+04  0.30462314341E+04  0.00000000000E+00 0. -1.
         -1   -1    0    0    0  501 -0.00000000000E+00 -0.00000000000E+00 -0.16438484932E+03  0.16438484932E+03  0.00000000000E+00 0.  1.
         24    2    1    2    0    0 -0.34009876066E+03  0.68829989917E+02  0.33636169283E+03  0.48958327566E+03  0.78408296008E+02 0.  0.
        254    2    1    2    0    0  0.34009876066E+03 -0.68829989917E+02  0.25454848920E+04  0.27210330078E+04  0.89672881059E+03 0.  0.
         23    2    4    4    0    0  0.57435036462E+03  0.47584838359E+02  0.10576141375E+04  0.12076112093E+04  0.87375687025E+02 0.  0.
         23    2    4    4    0    0 -0.23425160396E+03 -0.11641482828E+03  0.14878707544E+04  0.15134217985E+04  0.90884168687E+02 0.  0.
          2    1    3    3  502    0 -0.54937445740E+02  0.36986943996E+02  0.41514504634E+02  0.78164001085E+02  0.00000000000E+00 0. -1.
         -1    1    3    3    0  502 -0.28516131492E+03  0.31843045921E+02  0.29484718820E+03  0.41141927457E+03  0.00000000000E+00 0.  1.
         13    1    5    5    0    0  0.55223368468E+03  0.38826794087E+02  0.97032926026E+03  0.11171429791E+04  0.00000000000E+00 0. -1.
        -13    1    5    5    0    0  0.22116679943E+02  0.87580442718E+01  0.87284877283E+02  0.90468230188E+02  0.00000000000E+00 0.  1.
          2    1    6    6  503    0 -0.10126746449E+03 -0.26099476332E+02  0.38719043067E+03  0.40106447316E+03  0.00000000000E+00 0. -1.
         -2    1    6    6    0  503 -0.13298413947E+03 -0.90315351944E+02  0.11006803238E+04  0.11123573253E+04  0.00000000000E+00 0.  1.
<mgrwt>
<rscale>  0 0.14152799E+04</rscale>
<asrwt>0</asrwt>
<pdfrwt beam="1">  1        2 0.46865095E+00 0.14152799E+04</pdfrwt>
<pdfrwt beam="2">  1       -1 0.25289979E-01 0.14152799E+04</pdfrwt>
<totfact> 0.24991056E+01</totfact>
</mgrwt>
</event>
<event>
12    7  0.1707730E-007  0.1080106E+04  0.7818608E-02  0.9224802E-01
         -1   -1    0    0    0  501 -0.00000000000E+00  0.00000000000E+00  0.36746620996E+03  0.36746620996E+03  0.00000000000E+00 0.  1.
          2   -1    0    0  501    0  0.00000000000E+00 -0.00000000000E+00 -0.79369846114E+03  0.79369846114E+03  0.00000000000E+00 0. -1.
         24    2    1    2    0    0  0.98304424938E+02  0.26979175506E+02  0.50924187365E+02  0.13913581761E+03  0.79836501732E+02 0.  0.
        254    2    1    2    0    0 -0.98304424938E+02 -0.26979175506E+02 -0.47715643855E+03  0.10220288535E+04  0.89803845944E+03 0.  0.
         23    2    4    4    0    0 -0.24395855365E+03 -0.29268618070E+03  0.62575338917E+02  0.39658392083E+03  0.90455275984E+02 0.  0.
         23    2    4    4    0    0  0.14565412871E+03  0.26570700519E+03 -0.53973177747E+03  0.62544493266E+03  0.89753185798E+02 0.  0.
          4    1    3    3  502    0  0.44039211757E+02 -0.16961460153E+02 -0.78827718549E+01  0.47846435549E+02  0.00000000000E+00 0. -1.
         -1    1    3    3    0  502  0.54265213181E+02  0.43940635658E+02  0.58806959220E+02  0.91289382057E+02  0.00000000000E+00 0.  1.
         13    1    5    5    0    0 -0.50500954392E+02 -0.14139185252E+02  0.10205048492E+02  0.53426641003E+02  0.00000000000E+00 0. -1.
        -13    1    5    5    0    0 -0.19345759926E+03 -0.27854699544E+03  0.52370290425E+02  0.34315727983E+03  0.00000000000E+00 0.  1.
          4    1    6    6  503    0 -0.41271724058E+01  0.59863230266E+02 -0.80917335601E+02  0.10073854819E+03  0.00000000000E+00 0. -1.
         -4    1    6    6    0  503  0.14978130112E+03  0.20584377492E+03 -0.45881444187E+03  0.52470638447E+03  0.00000000000E+00 0.  1.
<mgrwt>
<rscale>  0 0.10801062E+04</rscale>
<asrwt>0</asrwt>
<pdfrwt beam="1">  1        2 0.12210746E+00 0.10801062E+04</pdfrwt>
<pdfrwt beam="2">  1       -1 0.56533263E-01 0.10801062E+04</pdfrwt>
<totfact> 0.12507457E+02</totfact>
</mgrwt>
</event>
<event>
12    7  0.1707730E-007  0.1236014E+04  0.7818608E-02  0.9081905E-01
          2   -1    0    0  501    0  0.00000000000E+00  0.00000000000E+00  0.54889541281E+03  0.54889541281E+03  0.00000000000E+00 0. -1.
         -1   -1    0    0    0  501 -0.00000000000E+00 -0.00000000000E+00 -0.69582061300E+03  0.69582061300E+03  0.00000000000E+00 0.  1.
         24    2    1    2    0    0 -0.20985519144E+03  0.50772583977E+02 -0.20354521473E+03  0.30708054368E+03  0.79061679787E+02 0.  0.
        254    2    1    2    0    0  0.20985519144E+03 -0.50772583977E+02  0.56620014533E+02  0.93763548213E+03  0.91067964436E+03 0.  0.
         23    2    4    4    0    0  0.48334419153E+03  0.12458656208E+03  0.23098759750E+03  0.55749454297E+03  0.91112437772E+02 0.  0.
         23    2    4    4    0    0 -0.27348900009E+03 -0.17535914605E+03 -0.17436758296E+03  0.38014093915E+03  0.92498737065E+02 0.  0.
          4    1    3    3  502    0 -0.15293759008E+03  0.33924299584E+02 -0.94568581935E+02  0.18298628706E+03  0.00000000000E+00 0. -1.
         -3    1    3    3    0  502 -0.56917601355E+02  0.16848284393E+02 -0.10897663280E+03  0.12409425662E+03  0.00000000000E+00 0.  1.
         13    1    5    5    0    0  0.17541108767E+03  0.34478630272E+01  0.97172186081E+02  0.20055765052E+03  0.00000000000E+00 0.  1.
        -13    1    5    5    0    0  0.30793310386E+03  0.12113869905E+03  0.13381541142E+03  0.35693689245E+03  0.00000000000E+00 0. -1.
          3    1    6    6  503    0 -0.25711550953E+03 -0.18577070065E+03 -0.15627626920E+03  0.35361194943E+03  0.00000000000E+00 0. -1.
         -3    1    6    6    0  503 -0.16373490557E+02  0.10411554600E+02 -0.18091313764E+02  0.26528989727E+02  0.00000000000E+00 0.  1.
<mgrwt>
<rscale>  0 0.12360141E+04</rscale>
<asrwt>0</asrwt>
<pdfrwt beam="1">  1        2 0.84445448E-01 0.12360141E+04</pdfrwt>
<pdfrwt beam="2">  1       -1 0.10704932E+00 0.12360141E+04</pdfrwt>
<totfact> 0.50559300E+01</totfact>
</mgrwt>
</event>
<event>
12    7  0.1707730E-007  0.1512014E+04  0.7818608E-02  0.8876503E-01
          2   -1    0    0  501    0  0.00000000000E+00  0.00000000000E+00  0.31003030606E+04  0.31003030606E+04  0.00000000000E+00 0. -1.
         -1   -1    0    0    0  501 -0.00000000000E+00 -0.00000000000E+00 -0.18435185364E+03  0.18435185364E+03  0.00000000000E+00 0.  1.
         24    2    1    2    0    0  0.29166553707E+03  0.47165288403E+02  0.10985884654E+03  0.32435023890E+03  0.76424873973E+02 0.  0.
        254    2    1    2    0    0 -0.29166553707E+03 -0.47165288403E+02  0.28060923604E+04  0.29603046753E+04  0.89552000856E+03 0.  0.
         23    2    4    4    0    0 -0.59671872166E+03 -0.73665765403E+02  0.20690840630E+04  0.21570071991E+04  0.10035596187E+03 0.  0.
         23    2    4    4    0    0  0.30505318459E+03  0.26500477000E+02  0.73700829737E+03  0.80329747628E+03  0.91355811510E+02 0.  0.
          2    1    3    3  502    0  0.92740650380E+02  0.91104272683E+01  0.73263402770E+02  0.11853840856E+03  0.00000000000E+00 0. -1.
         -1    1    3    3    0  502  0.19892488669E+03  0.38054861135E+02  0.36595443767E+02  0.20581183034E+03  0.00000000000E+00 0.  1.
         13    1    5    5    0    0 -0.89184256425E+02  0.16861241742E+02  0.23760598290E+03  0.25435159951E+03  0.00000000000E+00 0.  1.
        -13    1    5    5    0    0 -0.50753446524E+03 -0.90527007145E+02  0.18314780802E+04  0.19026555996E+04  0.00000000000E+00 0. -1.
          1    1    6    6  503    0  0.29135630489E+03  0.22547657265E+02  0.73201972760E+03  0.78819399569E+03  0.00000000000E+00 0. -1.
         -1    1    6    6    0  503  0.13696879703E+02  0.39528197352E+01  0.49885697617E+01  0.15103480583E+02  0.00000000000E+00 0.  1.
<mgrwt>
<rscale>  0 0.15120140E+04</rscale>
<asrwt>0</asrwt>
<pdfrwt beam="1">  1        2 0.47696966E+00 0.15120140E+04</pdfrwt>
<pdfrwt beam="2">  1       -1 0.28361826E-01 0.15120140E+04</pdfrwt>
<totfact> 0.18770963E+01</totfact>
</mgrwt>
</event>
<event>
12    7  0.1707730E-007  0.1523318E+04  0.7818608E-02  0.8869093E-01
          2   -1    0    0  501    0  0.00000000000E+00  0.00000000000E+00  0.21082785417E+04  0.21082785417E+04  0.00000000000E+00 0. -1.
         -1   -1    0    0    0  501 -0.00000000000E+00 -0.00000000000E+00 -0.27516511198E+03  0.27516511198E+03  0.00000000000E+00 0.  1.
         24    2    1    2    0    0 -0.23794207207E+02  0.38015369870E+03  0.10650339740E+04  0.11337977593E+04  0.78211215709E+02 0.  0.
        254    2    1    2    0    0  0.23794207207E+02 -0.38015369870E+03  0.76807945578E+03  0.12496458944E+04  0.90916764800E+03 0.  0.
         23    2    4    4    0    0  0.19108215113E+03  0.17378284336E+03  0.56903545793E+03  0.63131025356E+03  0.89657229206E+02 0.  0.
         23    2    4    4    0    0 -0.16728794392E+03 -0.55393654206E+03  0.19904399785E+03  0.61833564088E+03  0.88822873678E+02 0.  0.
          2    1    3    3  502    0 -0.33653636934E+02  0.32374323070E+03  0.96645233809E+03  0.10197903552E+04  0.00000000000E+00 0. -1.
         -1    1    3    3    0  502  0.98594297262E+01  0.56410467991E+02  0.98581635877E+02  0.11400740408E+03  0.00000000000E+00 0.  1.
         13    1    5    5    0    0  0.10983737855E+03  0.12243549878E+03  0.25986948075E+03  0.30754974901E+03  0.00000000000E+00 0. -1.
        -13    1    5    5    0    0  0.81244772582E+02  0.51347344577E+02  0.30916597718E+03  0.32376050456E+03  0.00000000000E+00 0.  1.
          1    1    6    6  503    0 -0.16330405091E+03 -0.55694126071E+03  0.19803109006E+03  0.61324391033E+03  0.00000000000E+00 0. -1.
         -1    1    6    6    0  503 -0.39838930161E+01  0.30047186553E+01  0.10129077953E+01  0.50917305470E+01  0.00000000000E+00 0.  1.
<mgrwt>
<rscale>  0 0.15233184E+04</rscale>
<asrwt>0</asrwt>
<pdfrwt beam="1">  1        2 0.32435053E+00 0.15233184E+04</pdfrwt>
<pdfrwt beam="2">  1       -1 0.42333096E-01 0.15233184E+04</pdfrwt>
<totfact> 0.35065951E+01</totfact>
</mgrwt>
</event>
<event>
12    7  0.1707730E-007  0.1326148E+04  0.7818608E-02  0.9009083E-01
          2   -1    0    0  501    0  0.00000000000E+00  0.00000000000E+00  0.39946692938E+04  0.39946692938E+04  0.00000000000E+00 0. -1.
         -1   -1    0    0    0  501 -0.00000000000E+00 -0.00000000000E+00 -0.11006343690E+03  0.11006343690E+03  0.00000000000E+00 0.  1.
         24    2    1    2    0    0 -0.15474676843E+03  0.28318626555E+03  0.62124497818E+03  0.70457754110E+03  0.79643990170E+02 0.  0.
        254    2    1    2    0    0  0.15474676843E+03 -0.28318626555E+03  0.32633608788E+04  0.34001551897E+04  0.89854886642E+03 0.  0.
         23    2    4    4    0    0 -0.17121468172E+03  0.14876496474E+03  0.30545407610E+03  0.39177023377E+03  0.93467863427E+02 0.  0.
         23    2    4    4    0    0  0.32596145015E+03 -0.43195123029E+03  0.29579068027E+04  0.30083849559E+04  0.91294343684E+02 0.  0.
          2    1    3    3  502    0 -0.81099765216E+02  0.17521455525E+03  0.28910382985E+03  0.34764685634E+03  0.00000000000E+00 0. -1.
         -1    1    3    3    0  502 -0.73647003217E+02  0.10797171030E+03  0.33214114833E+03  0.35693068476E+03  0.00000000000E+00 0.  1.
         13    1    5    5    0    0 -0.64637858512E+01  0.49515203614E+02  0.40110175476E+02  0.64049684567E+02  0.00000000000E+00 0. -1.
        -13    1    5    5    0    0 -0.16475089587E+03  0.99249761127E+02  0.26534390063E+03  0.32772054921E+03  0.00000000000E+00 0.  1.
          2    1    6    6  503    0  0.27815024586E+02 -0.54167764283E+01  0.16130701619E+03  0.16377719784E+03  0.00000000000E+00 0. -1.
         -2    1    6    6    0  503  0.29814642557E+03 -0.42653445386E+03  0.27965997865E+04  0.28446077580E+04  0.00000000000E+00 0.  1.
<mgrwt>
<rscale>  0 0.13261479E+04</rscale>
<asrwt>0</asrwt>
<pdfrwt beam="1">  1        2 0.61456439E+00 0.13261479E+04</pdfrwt>
<pdfrwt beam="2">  1       -1 0.16932840E-01 0.13261479E+04</pdfrwt>
<totfact> 0.10722791E+01</totfact>
</mgrwt>
</event>
<event>
12    7  0.1707730E-007  0.1571696E+04  0.7818608E-02  0.8838127E-01
         -1   -1    0    0    0  501 -0.00000000000E+00  0.00000000000E+00  0.27198844387E+03  0.27198844387E+03  0.00000000000E+00 0.  1.
          2   -1    0    0  501    0  0.00000000000E+00 -0.00000000000E+00 -0.22705265432E+04  0.22705265432E+04  0.00000000000E+00 0. -1.
         24    2    1    2    0    0  0.46646853324E+03  0.14016414221E+03 -0.97146777894E+03  0.10899022916E+04  0.83057091503E+02 0.  0.
        254    2    1    2    0    0 -0.46646853324E+03 -0.14016414221E+03 -0.10270703204E+04  0.14526126955E+04  0.90441766943E+03 0.  0.
         23    2    4    4    0    0 -0.31468647427E+03 -0.11838096820E+03  0.57798894280E+02  0.35306152337E+03  0.90940070255E+02 0.  0.
         23    2    4    4    0    0 -0.15178205897E+03 -0.21783174011E+02 -0.10848692147E+04  0.10995511721E+04  0.92516306991E+02 0.  0.
          4    1    3    3  502    0  0.27572508543E+03  0.90694848434E+02 -0.66451900629E+03  0.72514508065E+03  0.00000000000E+00 0. -1.
         -3    1    3    3    0  502  0.19074344781E+03  0.49469293778E+02 -0.30694877265E+03  0.36475721095E+03  0.00000000000E+00 0.  1.
         13    1    5    5    0    0 -0.25412528884E+03 -0.13116204025E+03  0.40790384092E+02  0.28887194164E+03  0.00000000000E+00 0.  1.
        -13    1    5    5    0    0 -0.60561185431E+02  0.12781072047E+02  0.17008510188E+02  0.64189581727E+02  0.00000000000E+00 0. -1.
          4    1    6    6  503    0  0.63808707673E+01 -0.35649961745E+01 -0.74658660458E+01  0.10448151286E+02  0.00000000000E+00 0. -1.
         -4    1    6    6    0  503 -0.15816292974E+03 -0.18218177836E+02 -0.10774033486E+04  0.10891030208E+04  0.00000000000E+00 0.  1.
<mgrwt>
<rscale>  0 0.15716959E+04</rscale>
<asrwt>0</asrwt>
<pdfrwt beam="1">  1        2 0.34931178E+00 0.15716959E+04</pdfrwt>
<pdfrwt beam="2">  1       -1 0.41844376E-01 0.15716959E+04</pdfrwt>
<totfact> 0.28940690E+01</totfact>
</mgrwt>
</event>
<event>
12    7  0.1707730E-007  0.1299606E+04  0.7818608E-02  0.9029878E-01
          2   -1    0    0  501    0  0.00000000000E+00  0.00000000000E+00  0.12045298268E+04  0.12045298268E+04  0.00000000000E+00 0. -1.
         -1   -1    0    0    0  501 -0.00000000000E+00 -0.00000000000E+00 -0.35054648040E+03  0.35054648040E+03  0.00000000000E+00 0.  1.
         24    2    1    2    0    0 -0.25408159590E+03 -0.14176424645E+03  0.40770261161E+03  0.50716475486E+03  0.79624808428E+02 0.  0.
        254    2    1    2    0    0  0.25408159590E+03  0.14176424645E+03  0.44628073483E+03  0.10479115524E+04  0.90238437950E+03 0.  0.
         23    2    4    4    0    0 -0.19861478649E+03 -0.21709377980E+02 -0.15812631834E+03  0.26979470604E+03  0.88691151457E+02 0.  0.
         23    2    4    4    0    0  0.45269638240E+03  0.16347362443E+03  0.60440705317E+03  0.77811684634E+03  0.92197072151E+02 0.  0.
          4    1    3    3  502    0 -0.14581478995E+03 -0.94995099006E+02  0.30317758632E+03  0.34957498573E+03  0.00000000000E+00 0. -1.
         -3    1    3    3    0  502 -0.10826680595E+03 -0.46769147444E+02  0.10452502529E+03  0.15758976913E+03  0.00000000000E+00 0.  1.
         13    1    5    5    0    0 -0.14236628817E+03 -0.20480336758E+02 -0.15782362629E+03  0.21353196767E+03  0.00000000000E+00 0.  1.
        -13    1    5    5    0    0 -0.56248498325E+02 -0.12290412225E+01 -0.30269204996E+00  0.56262738368E+02  0.00000000000E+00 0. -1.
          4    1    6    6  503    0  0.18066188871E+03  0.74347157240E+02  0.17648722939E+03  0.26327544504E+03  0.00000000000E+00 0. -1.
         -4    1    6    6    0  503  0.27203449369E+03  0.89126467190E+02  0.42791982378E+03  0.51484140130E+03  0.00000000000E+00 0.  1.
<mgrwt>
<rscale>  0 0.12996056E+04</rscale>
<asrwt>0</asrwt>
<pdfrwt beam="1">  1        2 0.18531228E+00 0.12996056E+04</pdfrwt>
<pdfrwt beam="2">  1       -1 0.53930228E-01 0.12996056E+04</pdfrwt>
<totfact> 0.72998765E+01</totfact>
</mgrwt>
</event>
<event>
12    7  0.1707730E-007  0.2049308E+04  0.7818608E-02  0.8583908E-01
          2   -1    0    0  501    0  0.00000000000E+00  0.00000000000E+00  0.24663678592E+04  0.24663678592E+04  0.00000000000E+00 0. -1.
         -1   -1    0    0    0  501 -0.00000000000E+00 -0.00000000000E+00 -0.42569306964E+03  0.42569306964E+03  0.00000000000E+00 0.  1.
         24    2    1    2    0    0 -0.66932092327E+02 -0.36696908769E+03  0.18637930833E+04  0.19025085381E+04  0.81656989702E+02 0.  0.
        254    2    1    2    0    0  0.66932092327E+02  0.36696908769E+03  0.17688170630E+03  0.98955239075E+03  0.89932228913E+03 0.  0.
         23    2    4    4    0    0  0.16854132273E+03  0.29294396941E+03  0.51169559718E+03  0.62013374595E+03  0.92255796641E+02 0.  0.
         23    2    4    4    0    0 -0.10160923040E+03  0.74025118277E+02 -0.33481389088E+03  0.36941864480E+03  0.92550741549E+02 0.  0.
          4    1    3    3  502    0 -0.81453022149E+02 -0.34955362837E+03  0.17686373437E+04  0.18046884461E+04  0.00000000000E+00 0. -1.
         -3    1    3    3    0  502  0.14520929821E+02 -0.17415459318E+02  0.95155739631E+02  0.97820092061E+02  0.00000000000E+00 0.  1.
         13    1    5    5    0    0  0.59396747651E+02  0.18908565055E+03  0.31858410718E+03  0.37520286543E+03  0.00000000000E+00 0. -1.
        -13    1    5    5    0    0  0.10914457508E+03  0.10385831886E+03  0.19311149000E+03  0.24493088052E+03  0.00000000000E+00 0.  1.
          1    1    6    6  503    0 -0.17265741695E+00  0.18831189787E+02 -0.43074915313E+01  0.19318333330E+02  0.00000000000E+00 0. -1.
         -1    1    6    6    0  503 -0.10143657299E+03  0.55193928491E+02 -0.33050639935E+03  0.35010031147E+03  0.00000000000E+00 0.  1.
<mgrwt>
<rscale>  0 0.20493079E+04</rscale>
<asrwt>0</asrwt>
<pdfrwt beam="1">  1        2 0.37944120E+00 0.20493079E+04</pdfrwt>
<pdfrwt beam="2">  1       -1 0.65491243E-01 0.20493079E+04</pdfrwt>
<totfact> 0.90664684E+00</totfact>
</mgrwt>
</event>
<event>
12    7  0.1707730E-007  0.1263670E+04  0.7818608E-02  0.9058882E-01
          2   -1    0    0  501    0  0.00000000000E+00  0.00000000000E+00  0.13402721420E+04  0.13402721420E+04  0.00000000000E+00 0. -1.
         -1   -1    0    0    0  501 -0.00000000000E+00 -0.00000000000E+00 -0.29786146420E+03  0.29786146420E+03  0.00000000000E+00 0.  1.
         24    2    1    2    0    0 -0.70637998385E+02  0.65132189502E+02 -0.11514679021E+03  0.16981663523E+03  0.79667919384E+02 0.  0.
        254    2    1    2    0    0  0.70637998385E+02 -0.65132189502E+02  0.11575574680E+04  0.14683169710E+04  0.89821128170E+03 0.  0.
         23    2    4    4    0    0 -0.32970842311E+03  0.13682220204E+03  0.23169137793E+03  0.43557039822E+03  0.92804730279E+02 0.  0.
         23    2    4    4    0    0  0.40034642149E+03 -0.20195439154E+03  0.92586609006E+03  0.10327465727E+04  0.90965011434E+02 0.  0.
          4    1    3    3  502    0 -0.52347889118E+01  0.48469448856E+02 -0.18950184161E+02  0.52304875175E+02  0.00000000000E+00 0. -1.
         -3    1    3    3    0  502 -0.65403209473E+02  0.16662740646E+02 -0.96196606050E+02  0.11751176005E+03  0.00000000000E+00 0.  1.
         13    1    5    5    0    0 -0.43333532763E+02  0.47683071731E+02  0.16739595143E+02  0.66570897823E+02  0.00000000000E+00 0. -1.
        -13    1    5    5    0    0 -0.28637489035E+03  0.89139130305E+02  0.21495178278E+03  0.36899950040E+03  0.00000000000E+00 0.  1.
          1    1    6    6  503    0  0.30969203066E+02  0.85488201370E+01  0.74380950057E+02  0.81022833792E+02  0.00000000000E+00 0. -1.
         -1    1    6    6    0  503  0.36937721843E+03 -0.21050321167E+03  0.85148514000E+03  0.95172373894E+03  0.00000000000E+00 0.  1.
<mgrwt>
<rscale>  0 0.12636699E+04</rscale>
<asrwt>0</asrwt>
<pdfrwt beam="1">  1        2 0.20619571E+00 0.12636699E+04</pdfrwt>
<pdfrwt beam="2">  1       -1 0.45824841E-01 0.12636699E+04</pdfrwt>
<totfact> 0.83004784E+01</totfact>
</mgrwt>
</event>
<event>
12    7  0.1707730E-007  0.1365056E+04  0.7818608E-02  0.8979508E-01
         -1   -1    0    0    0  501 -0.00000000000E+00  0.00000000000E+00  0.34021149463E+03  0.34021149463E+03  0.00000000000E+00 0.  1.
          2   -1    0    0  501    0  0.00000000000E+00 -0.00000000000E+00 -0.13692791781E+04  0.13692791781E+04  0.00000000000E+00 0. -1.
         24    2    1    2    0    0 -0.36909570344E+03 -0.44503714964E+02 -0.24893106694E+03  0.45450487356E+03  0.79973652276E+02 0.  0.
        254    2    1    2    0    0  0.36909570344E+03  0.44503714964E+02 -0.78013661650E+03  0.12549857991E+04  0.91003516234E+03 0.  0.
         23    2    4    4    0    0  0.33970563149E+03 -0.37783010690E+03 -0.25928666436E+03  0.57762719606E+03  0.90929079910E+02 0.  0.
         23    2    4    4    0    0  0.29390071958E+02  0.42233382186E+03 -0.52084995214E+03  0.67735860308E+03  0.91106372455E+02 0.  0.
          4    1    3    3  502    0 -0.14599880187E+03 -0.22757419532E+02 -0.53595136052E+02  0.15718138853E+03  0.00000000000E+00 0. -1.
         -3    1    3    3    0  502 -0.22309690157E+03 -0.21746295432E+02 -0.19533593089E+03  0.29732348503E+03  0.00000000000E+00 0.  1.
         13    1    5    5    0    0  0.10344910742E+03 -0.13690955679E+03 -0.43255358702E+02  0.17696601544E+03  0.00000000000E+00 0. -1.
        -13    1    5    5    0    0  0.23625652407E+03 -0.24092055011E+03 -0.21603130566E+03  0.40066118062E+03  0.00000000000E+00 0.  1.
          4    1    6    6  503    0  0.22682610488E+02  0.14314470752E+03 -0.24603576131E+03  0.28554947724E+03  0.00000000000E+00 0. -1.
         -4    1    6    6    0  503  0.67074614695E+01  0.27918911435E+03 -0.27481419083E+03  0.39180912584E+03  0.00000000000E+00 0.  1.
<mgrwt>
<rscale>  0 0.13650561E+04</rscale>
<asrwt>0</asrwt>
<pdfrwt beam="1">  1        2 0.21065833E+00 0.13650561E+04</pdfrwt>
<pdfrwt beam="2">  1       -1 0.52340231E-01 0.13650561E+04</pdfrwt>
<totfact> 0.61619953E+01</totfact>
</mgrwt>
</event>
<event>
12    7  0.1707730E-007  0.1361752E+04  0.7818608E-02  0.8981979E-01
         -3   -1    0    0    0  501 -0.00000000000E+00  0.00000000000E+00  0.14064932908E+04  0.14064932908E+04  0.00000000000E+00 0.  1.
          4   -1    0    0  501    0  0.00000000000E+00 -0.00000000000E+00 -0.32960868383E+03  0.32960868383E+03  0.00000000000E+00 0. -1.
         24    2    1    2    0    0  0.35383571803E+03 -0.13038131957E+03  0.39759172536E+03  0.55574120262E+03  0.92574836596E+02 0.  0.
        254    2    1    2    0    0 -0.35383571803E+03  0.13038131957E+03  0.67929288156E+03  0.11803607720E+04  0.88860212086E+03 0.  0.
         23    2    4    4    0    0  0.45310100043E+02 -0.31732328064E+03  0.37228070590E+03  0.50028852980E+03  0.94597143024E+02 0.  0.
         23    2    4    4    0    0 -0.39914581807E+03  0.44770460021E+03  0.30701217566E+03  0.68007224216E+03  0.92113980550E+02 0.  0.
          4    1    3    3  502    0  0.74882809931E+02 -0.67609763574E+02  0.83160340349E+02  0.13074462727E+03  0.00000000000E+00 0. -1.
         -3    1    3    3    0  502  0.27895290810E+03 -0.62771555996E+02  0.31443138501E+03  0.42499657535E+03  0.00000000000E+00 0.  1.
         13    1    5    5    0    0  0.37937219253E+01 -0.25095271341E+03  0.24420946652E+03  0.35018555114E+03  0.00000000000E+00 0. -1.
        -13    1    5    5    0    0  0.41516378118E+02 -0.66370567233E+02  0.12807123938E+03  0.15010297866E+03  0.00000000000E+00 0.  1.
          3    1    6    6  503    0 -0.35102409320E+03  0.33996503690E+03  0.25353678400E+03  0.55052251649E+03  0.00000000000E+00 0. -1.
         -3    1    6    6    0  503 -0.48121724869E+02  0.10773956330E+03  0.53475391665E+02  0.12954972566E+03  0.00000000000E+00 0.  1.
<mgrwt>
<rscale>  0 0.13617524E+04</rscale>
<asrwt>0</asrwt>
<pdfrwt beam="1">  1        4 0.50709029E-01 0.13617524E+04</pdfrwt>
<pdfrwt beam="2">  1       -3 0.21638358E+00 0.13617524E+04</pdfrwt>
<totfact> 0.97104520E-01</totfact>
</mgrwt>
</event>
<event>
12    7  0.1707730E-007  0.2600733E+04  0.7818608E-02  0.8367952E-01
          2   -1    0    0  501    0  0.00000000000E+00  0.00000000000E+00  0.16999253379E+04  0.16999253379E+04  0.00000000000E+00 0. -1.
         -1   -1    0    0    0  501 -0.00000000000E+00 -0.00000000000E+00 -0.99472168343E+03  0.99472168343E+03  0.00000000000E+00 0.  1.
         24    2    1    2    0    0  0.47587947327E+03 -0.26424411669E+03  0.13475866804E+04  0.14556922467E+04  0.82242504332E+02 0.  0.
        254    2    1    2    0    0 -0.47587947327E+03  0.26424411669E+03 -0.64238302590E+03  0.12389547747E+04  0.90888214609E+03 0.  0.
         23    2    4    4    0    0 -0.10904732026E+03  0.30249703461E+03  0.14499692232E+03  0.36463977928E+03  0.92424494305E+02 0.  0.
         23    2    4    4    0    0 -0.36683215301E+03 -0.38252917917E+02 -0.78737994822E+03  0.87431499542E+03  0.91817286698E+02 0.  0.
          4    1    3    3  502    0  0.41846258254E+03 -0.19893725334E+03  0.11200433456E+04  0.12120990305E+04  0.00000000000E+00 0. -1.
         -3    1    3    3    0  502  0.57416890731E+02 -0.65306863347E+02  0.22754333481E+03  0.24359321616E+03  0.00000000000E+00 0.  1.
         13    1    5    5    0    0 -0.11513125068E+03  0.19182184179E+03  0.95715621925E+02  0.24333578477E+03  0.00000000000E+00 0. -1.
        -13    1    5    5    0    0  0.60839304156E+01  0.11067519282E+03  0.49281300393E+02  0.12130399451E+03  0.00000000000E+00 0.  1.
          3    1    6    6  503    0 -0.29026945465E+03 -0.59550425905E+02 -0.66957676065E+03  0.73221284333E+03  0.00000000000E+00 0. -1.
         -3    1    6    6    0  503 -0.76562698360E+02  0.21297507989E+02 -0.11780318757E+03  0.14210215209E+03  0.00000000000E+00 0.  1.
<mgrwt>
<rscale>  0 0.26007327E+04</rscale>
<asrwt>0</asrwt>
<pdfrwt beam="1">  1        2 0.26152698E+00 0.26007327E+04</pdfrwt>
<pdfrwt beam="2">  1       -1 0.15303410E+00 0.26007327E+04</pdfrwt>
<totfact> 0.32637104E+00</totfact>
</mgrwt>
</event>
<event>
12    7  0.1707730E-007  0.2059089E+04  0.7818608E-02  0.8579482E-01
         -1   -1    0    0    0  501 -0.00000000000E+00  0.00000000000E+00  0.30517489853E+04  0.30517489853E+04  0.00000000000E+00 0.  1.
          2   -1    0    0  501    0  0.00000000000E+00 -0.00000000000E+00 -0.34732930144E+03  0.34732930144E+03  0.00000000000E+00 0. -1.
         24    2    1    2    0    0  0.72587396638E+03  0.15897688639E+02  0.42995717906E+03  0.84888530496E+03  0.92721807474E+02 0.  0.
        254    2    1    2    0    0 -0.72587396638E+03 -0.15897688639E+02  0.22744625048E+04  0.25501929818E+04  0.89619127814E+03 0.  0.
         23    2    4    4    0    0 -0.57643186796E+03  0.16696117006E+03  0.59076999360E+03  0.84709140312E+03  0.91678400932E+02 0.  0.
         23    2    4    4    0    0 -0.14944209842E+03 -0.18285885870E+03  0.16836925112E+04  0.17031015787E+04  0.99820899553E+02 0.  0.
          2    1    3    3  502    0  0.64887137795E+03  0.40406511143E+02  0.36797055148E+03  0.74704021179E+03  0.00000000000E+00 0. -1.
         -1    1    3    3    0  502  0.77002588428E+02 -0.24508822505E+02  0.61986627581E+02  0.10184509318E+03  0.00000000000E+00 0.  1.
         13    1    5    5    0    0 -0.17786969121E+03  0.92346351711E+02  0.22072076812E+03  0.29813274427E+03  0.00000000000E+00 0. -1.
        -13    1    5    5    0    0 -0.39856217674E+03  0.74614818349E+02  0.37004922548E+03  0.54895865885E+03  0.00000000000E+00 0.  1.
          4    1    6    6  503    0 -0.33747128128E+02 -0.11495216019E+03  0.67834411781E+03  0.68884222429E+03  0.00000000000E+00 0. -1.
         -4    1    6    6    0  503 -0.11569497030E+03 -0.67906698513E+02  0.10053483934E+04  0.10142593544E+04  0.00000000000E+00 0.  1.
<mgrwt>
<rscale>  0 0.20590890E+04</rscale>
<asrwt>0</asrwt>
<pdfrwt beam="1">  1        2 0.53435279E-01 0.20590890E+04</pdfrwt>
<pdfrwt beam="2">  1       -1 0.46949983E+00 0.20590890E+04</pdfrwt>
<totfact> 0.23410092E-01</totfact>
</mgrwt>
</event>
<event>
12    7  0.1707730E-007  0.1693568E+04  0.7818608E-02  0.8765042E-01
         -1   -1    0    0    0  501 -0.00000000000E+00  0.00000000000E+00  0.27582667177E+03  0.27582667177E+03  0.00000000000E+00 0.  1.
          2   -1    0    0  501    0  0.00000000000E+00 -0.00000000000E+00 -0.25996135555E+04  0.25996135555E+04  0.00000000000E+00 0. -1.
         24    2    1    2    0    0  0.65339124476E+01  0.59786094158E+03 -0.98989466401E+03  0.11590040784E+04  0.76932506198E+02 0.  0.
        254    2    1    2    0    0 -0.65339124476E+01 -0.59786094158E+03 -0.13338922197E+04  0.17164361488E+04  0.89966894008E+03 0.  0.
         23    2    4    4    0    0 -0.25304082846E+03 -0.72534679751E+03 -0.83492175550E+03  0.11381293895E+04  0.89925145508E+02 0.  0.
         23    2    4    4    0    0  0.24650691602E+03  0.12748585593E+03 -0.49897046420E+03  0.57830675938E+03  0.91917793140E+02 0.  0.
          4    1    3    3  502    0 -0.21972523814E+02  0.46419847993E+03 -0.73007319975E+03  0.86543046952E+03  0.00000000000E+00 0. -1.
         -3    1    3    3    0  502  0.28506436262E+02  0.13366246165E+03 -0.25982146426E+03  0.29357360892E+03  0.00000000000E+00 0.  1.
         13    1    5    5    0    0 -0.20641419366E+03 -0.53061161927E+03 -0.56567565271E+03  0.80258610374E+03  0.00000000000E+00 0.  1.
        -13    1    5    5    0    0 -0.46626634806E+02 -0.19473517824E+03 -0.26924610279E+03  0.33554328571E+03  0.00000000000E+00 0. -1.
          3    1    6    6  503    0  0.14557198742E+03  0.31346287977E+02 -0.30540181858E+03  0.33977060509E+03  0.00000000000E+00 0. -1.
         -3    1    6    6    0  503  0.10093492860E+03  0.96139567950E+02 -0.19356864562E+03  0.23853615429E+03  0.00000000000E+00 0.  1.
<mgrwt>
<rscale>  0 0.16935675E+04</rscale>
<asrwt>0</asrwt>
<pdfrwt beam="1">  1        2 0.39994053E+00 0.16935675E+04</pdfrwt>
<pdfrwt beam="2">  1       -1 0.42434874E-01 0.16935675E+04</pdfrwt>
<totfact> 0.18070086E+01</totfact>
</mgrwt>
</event>
<event>
12    7  0.1707730E-007  0.1109573E+04  0.7818608E-02  0.9195911E-01
         -1   -1    0    0    0  501 -0.00000000000E+00  0.00000000000E+00  0.78326630106E+03  0.78326630106E+03  0.00000000000E+00 0.  1.
          2   -1    0    0  501    0  0.00000000000E+00 -0.00000000000E+00 -0.39295456409E+03  0.39295456409E+03  0.00000000000E+00 0. -1.
         24    2    1    2    0    0  0.11744957488E+03  0.88097353390E+02 -0.34337412791E+02  0.17099244644E+03  0.80646218206E+02 0.  0.
        254    2    1    2    0    0 -0.11744957488E+03 -0.88097353390E+02  0.42464914975E+03  0.10052284187E+04  0.89922284617E+03 0.  0.
         23    2    4    4    0    0 -0.13769322924E+03 -0.17983033661E+03  0.67749673966E+03  0.72017195906E+03  0.91364342156E+02 0.  0.
         23    2    4    4    0    0  0.20243654360E+02  0.91732983216E+02 -0.25284758991E+03  0.28505645965E+03  0.92198349856E+02 0.  0.
          4    1    3    3  502    0  0.11438495815E+03  0.10136201361E+03 -0.26003802281E+02  0.15503023636E+03  0.00000000000E+00 0. -1.
         -3    1    3    3    0  502  0.30646167282E+01 -0.13264660222E+02 -0.83336105103E+01  0.15962210080E+02  0.00000000000E+00 0.  1.
         13    1    5    5    0    0 -0.14907390022E+03 -0.15533966668E+03  0.56915917096E+03  0.60851918758E+03  0.00000000000E+00 0.  1.
        -13    1    5    5    0    0  0.11380670979E+02 -0.24490669931E+02  0.10833756870E+03  0.11165277148E+03  0.00000000000E+00 0. -1.
          3    1    6    6  503    0 -0.17896220521E+02 -0.11340146683E+02 -0.51049264210E+02  0.55271158954E+02  0.00000000000E+00 0. -1.
         -3    1    6    6    0  503  0.38139874881E+02  0.10307312990E+03 -0.20179832570E+03  0.22978530070E+03  0.00000000000E+00 0.  1.
<mgrwt>
<rscale>  0 0.11095730E+04</rscale>
<asrwt>0</asrwt>
<pdfrwt beam="1">  1        2 0.60454549E-01 0.11095730E+04</pdfrwt>
<pdfrwt beam="2">  1       -1 0.12050251E+00 0.11095730E+04</pdfrwt>
<totfact> 0.56491532E+01</totfact>
</mgrwt>
</event>
<event>
12    7  0.1707730E-007  0.1685813E+04  0.7818608E-02  0.8769498E-01
          2   -1    0    0  501    0  0.00000000000E+00  0.00000000000E+00  0.10241135376E+04  0.10241135376E+04  0.00000000000E+00 0. -1.
         -1   -1    0    0    0  501 -0.00000000000E+00 -0.00000000000E+00 -0.69376196566E+03  0.69376196566E+03  0.00000000000E+00 0.  1.
         24    2    1    2    0    0  0.14107301630E+02 -0.59135965837E+03  0.10906797400E+03  0.60825427648E+03  0.90400112861E+02 0.  0.
        254    2    1    2    0    0 -0.14107301630E+02  0.59135965837E+03  0.22128359792E+03  0.11096212268E+04  0.91235276876E+03 0.  0.
         23    2    4    4    0    0  0.79176095110E+02  0.19088891144E+03 -0.34068506793E+03  0.40722669771E+03  0.84022837780E+02 0.  0.
         23    2    4    4    0    0 -0.93283396739E+02  0.40047074693E+03  0.56196866585E+03  0.70239452905E+03  0.92036306888E+02 0.  0.
          4    1    3    3  502    0 -0.35956076511E+02 -0.15653917320E+03  0.24686371028E+02  0.16250159722E+03  0.00000000000E+00 0. -1.
         -3    1    3    3    0  502  0.50063378141E+02 -0.43482048516E+03  0.84381602973E+02  0.44575267926E+03  0.00000000000E+00 0.  1.
         13    1    5    5    0    0  0.38368244822E+02  0.14919102340E+03 -0.29618329555E+03  0.33384821137E+03  0.00000000000E+00 0. -1.
        -13    1    5    5    0    0  0.40807850288E+02  0.41697888045E+02 -0.44501772386E+02  0.73378486343E+02  0.00000000000E+00 0.  1.
          3    1    6    6  503    0 -0.99569690790E+02  0.37316796702E+03  0.54967978906E+03  0.67180080785E+03  0.00000000000E+00 0. -1.
         -3    1    6    6    0  503  0.62862940505E+01  0.27302779910E+02  0.12288876792E+02  0.30593721194E+02  0.00000000000E+00 0.  1.
<mgrwt>
<rscale>  0 0.16858126E+04</rscale>
<asrwt>0</asrwt>
<pdfrwt beam="1">  1        2 0.15755593E+00 0.16858126E+04</pdfrwt>
<pdfrwt beam="2">  1       -1 0.10673261E+00 0.16858126E+04</pdfrwt>
<totfact> 0.21650490E+01</totfact>
</mgrwt>
</event>
<event>
12    7  0.1707730E-007  0.1439541E+04  0.7818608E-02  0.8925684E-01
          2   -1    0    0  501    0  0.00000000000E+00  0.00000000000E+00  0.25304051792E+04  0.25304051792E+04  0.00000000000E+00 0. -1.
         -1   -1    0    0    0  501 -0.00000000000E+00 -0.00000000000E+00 -0.20473771794E+03  0.20473771794E+03  0.00000000000E+00 0.  1.
         24    2    1    2    0    0 -0.58380412202E+01 -0.10774021821E+03  0.15216150811E+04  0.15275137063E+04  0.79646911364E+02 0.  0.
        254    2    1    2    0    0  0.58380412202E+01  0.10774021821E+03  0.80405238011E+03  0.12076291908E+04  0.89455351724E+03 0.  0.
         23    2    4    4    0    0  0.75373434648E+02 -0.34649028324E+03  0.13314770208E+03  0.38957447714E+03  0.91122399215E+02 0.  0.
         23    2    4    4    0    0 -0.69535393427E+02  0.45423050144E+03  0.67090467803E+03  0.81805471368E+03  0.89106162478E+02 0.  0.
          4    1    3    3  502    0 -0.96343926293E+01 -0.10345639255E+03  0.15157899418E+04  0.15193469631E+04  0.00000000000E+00 0. -1.
         -3    1    3    3    0  502  0.37963514091E+01 -0.42838256553E+01  0.58251393731E+01  0.81667432299E+01  0.00000000000E+00 0.  1.
         13    1    5    5    0    0  0.85894086552E+02 -0.31435957599E+03  0.14065517858E+03  0.35494170843E+03  0.00000000000E+00 0.  1.
        -13    1    5    5    0    0 -0.10520651904E+02 -0.32130707246E+02 -0.75074765065E+01  0.34632768704E+02  0.00000000000E+00 0. -1.
          4    1    6    6  503    0  0.21036512375E+02  0.73887640586E+02  0.12092387866E+03  0.14326375227E+03  0.00000000000E+00 0. -1.
         -4    1    6    6    0  503 -0.90571905802E+02  0.38034286086E+03  0.54998079937E+03  0.67479096141E+03  0.00000000000E+00 0.  1.
<mgrwt>
<rscale>  0 0.14395407E+04</rscale>
<asrwt>0</asrwt>
<pdfrwt beam="1">  1        2 0.38929308E+00 0.14395407E+04</pdfrwt>
<pdfrwt beam="2">  1       -1 0.31498112E-01 0.14395407E+04</pdfrwt>
<totfact> 0.34714730E+01</totfact>
</mgrwt>
</event>
<event>
12    7  0.1707730E-007  0.1696120E+04  0.7818608E-02  0.8763580E-01
         -1   -1    0    0    0  501 -0.00000000000E+00  0.00000000000E+00  0.48809810341E+03  0.48809810341E+03  0.00000000000E+00 0.  1.
          2   -1    0    0  501    0  0.00000000000E+00 -0.00000000000E+00 -0.14734862846E+04  0.14734862846E+04  0.00000000000E+00 0. -1.
         24    2    1    2    0    0  0.29213250373E+03  0.28986378443E+03 -0.87072880419E+03  0.96634714656E+03  0.79345724305E+02 0.  0.
        254    2    1    2    0    0 -0.29213250373E+03 -0.28986378443E+03 -0.11465937703E+03  0.99523724147E+03  0.89888151656E+03 0.  0.
         23    2    4    4    0    0 -0.43710214101E+03  0.18531353116E+03 -0.49745012521E+02  0.48601748921E+03  0.91318382808E+02 0.  0.
         23    2    4    4    0    0  0.14496963728E+03 -0.47517731560E+03 -0.64914364508E+02  0.50921975226E+03  0.91001122972E+02 0.  0.
          2    1    3    3  502    0  0.16002172646E+03  0.19778874807E+03 -0.46933105232E+03  0.53385295585E+03  0.00000000000E+00 0. -1.
         -1    1    3    3    0  502  0.13211077727E+03  0.92075036365E+02 -0.40139775187E+03  0.43249419071E+03  0.00000000000E+00 0.  1.
         13    1    5    5    0    0 -0.20256406923E+03  0.13483060681E+03 -0.17697420568E+02  0.24397682958E+03  0.00000000000E+00 0.  1.
        -13    1    5    5    0    0 -0.23453807178E+03  0.50482924357E+02 -0.32047591953E+02  0.24204065964E+03  0.00000000000E+00 0. -1.
          1    1    6    6  503    0 -0.39555381166E+01 -0.11625953710E+03 -0.20198321735E+02  0.11806734709E+03  0.00000000000E+00 0. -1.
         -1    1    6    6    0  503  0.14892517540E+03 -0.35891777850E+03 -0.44716042773E+02  0.39115240517E+03  0.00000000000E+00 0.  1.
<mgrwt>
<rscale>  0 0.16961201E+04</rscale>
<asrwt>0</asrwt>
<pdfrwt beam="1">  1        2 0.22669019E+00 0.16961201E+04</pdfrwt>
<pdfrwt beam="2">  1       -1 0.75092017E-01 0.16961201E+04</pdfrwt>
<totfact> 0.25417399E+01</totfact>
</mgrwt>
</event>
<event>
12    7  0.1707730E-007  0.1423908E+04  0.7818608E-02  0.8936692E-01
          2   -1    0    0  501    0  0.00000000000E+00  0.00000000000E+00  0.99447590042E+03  0.99447590042E+03  0.00000000000E+00 0. -1.
         -1   -1    0    0    0  501 -0.00000000000E+00 -0.00000000000E+00 -0.50969444792E+03  0.50969444792E+03  0.00000000000E+00 0.  1.
         24    2    1    2    0    0  0.39103341779E+03  0.10113345822E+03  0.25910607309E+03  0.48654286561E+03  0.80329899500E+02 0.  0.
        254    2    1    2    0    0 -0.39103341779E+03 -0.10113345822E+03  0.22567537940E+03  0.10176274827E+04  0.90636703743E+03 0.  0.
         23    2    4    4    0    0  0.73144282930E+02  0.30633399228E+03  0.21700457828E+03  0.39318834990E+03  0.91189311598E+02 0.  0.
         23    2    4    4    0    0 -0.46417770072E+03 -0.40746745051E+03  0.86708011264E+01  0.62443913283E+03  0.91424213120E+02 0.  0.
          2    1    3    3  502    0  0.35724064705E+03  0.95292516577E+02  0.26039531469E+03  0.45222479314E+03  0.00000000000E+00 0. -1.
         -1    1    3    3    0  502  0.33792770745E+02  0.58409416478E+01 -0.12892415913E+01  0.34318072467E+02  0.00000000000E+00 0.  1.
         13    1    5    5    0    0  0.24074761771E+02  0.88538161407E+02  0.16727132644E+02  0.93265197936E+02  0.00000000000E+00 0. -1.
        -13    1    5    5    0    0  0.49069521159E+02  0.21779583088E+03  0.20027744563E+03  0.29992315196E+03  0.00000000000E+00 0.  1.
          4    1    6    6  503    0 -0.17659125550E+03 -0.21494773480E+03  0.98463889932E+01  0.27835939286E+03  0.00000000000E+00 0. -1.
         -4    1    6    6    0  503 -0.28758644523E+03 -0.19251971570E+03 -0.11755878667E+01  0.34607973997E+03  0.00000000000E+00 0.  1.
<mgrwt>
<rscale>  0 0.14239085E+04</rscale>
<asrwt>0</asrwt>
<pdfrwt beam="1">  1        2 0.15299629E+00 0.14239085E+04</pdfrwt>
<pdfrwt beam="2">  1       -1 0.78414530E-01 0.14239085E+04</pdfrwt>
<totfact> 0.45835977E+01</totfact>
</mgrwt>
</event>
<event>
12    7  0.1707730E-007  0.1328295E+04  0.7818608E-02  0.9007423E-01
         -1   -1    0    0    0  501 -0.00000000000E+00  0.00000000000E+00  0.29794908412E+03  0.29794908412E+03  0.00000000000E+00 0.  1.
          2   -1    0    0  501    0  0.00000000000E+00 -0.00000000000E+00 -0.14804279685E+04  0.14804279685E+04  0.00000000000E+00 0. -1.
         24    2    1    2    0    0  0.45575019496E+02 -0.10025608328E+03 -0.55989643707E+03  0.57658081594E+03  0.82662279413E+02 0.  0.
        254    2    1    2    0    0 -0.45575019496E+02  0.10025608328E+03 -0.62258244732E+03  0.12017962367E+04  0.10220454619E+04 0.  0.
         23    2    4    4    0    0  0.12921312636E+03  0.51479032565E+03 -0.18990691264E+03  0.57113168185E+03  0.91769554545E+02 0.  0.
         23    2    4    4    0    0 -0.17478814586E+03 -0.41453424236E+03 -0.43267553468E+03  0.63066455484E+03  0.90222660097E+02 0.  0.
          4    1    3    3  502    0  0.68200962337E+02 -0.62768096906E+02 -0.41434925030E+03  0.42458980967E+03  0.00000000000E+00 0. -1.
         -3    1    3    3    0  502 -0.22625942841E+02 -0.37487986379E+02 -0.14554718677E+03  0.15199100627E+03  0.00000000000E+00 0.  1.
         13    1    5    5    0    0  0.10896865142E+00  0.17305305745E+03 -0.69521897476E+02  0.18649575544E+03  0.00000000000E+00 0. -1.
        -13    1    5    5    0    0  0.12910415771E+03  0.34173726820E+03 -0.12038501517E+03  0.38463592642E+03  0.00000000000E+00 0.  1.
          1    1    6    6  503    0  0.16455861388E+01 -0.31456645511E+02 -0.87868640987E+01  0.32702254987E+02  0.00000000000E+00 0. -1.
         -1    1    6    6    0  503 -0.17643373200E+03 -0.38307759685E+03 -0.42388867058E+03  0.59796229985E+03  0.00000000000E+00 0.  1.
<mgrwt>
<rscale>  0 0.13282954E+04</rscale>
<asrwt>0</asrwt>
<pdfrwt beam="1">  1        2 0.22775815E+00 0.13282954E+04</pdfrwt>
<pdfrwt beam="2">  1       -1 0.45838321E-01 0.13282954E+04</pdfrwt>
<totfact> 0.68657224E+01</totfact>
</mgrwt>
</event>
<event>
12    7  0.1707730E-007  0.2127480E+04  0.7818608E-02  0.8549234E-01
          2   -1    0    0  501    0  0.00000000000E+00  0.00000000000E+00  0.12934535342E+04  0.12934535342E+04  0.00000000000E+00 0. -1.
         -1   -1    0    0    0  501 -0.00000000000E+00 -0.00000000000E+00 -0.87482299904E+03  0.87482299904E+03  0.00000000000E+00 0.  1.
         24    2    1    2    0    0  0.46166482823E+03  0.58512070471E+03 -0.28865020253E+03  0.80189729786E+03  0.64959096296E+02 0.  0.
        254    2    1    2    0    0 -0.46166482823E+03 -0.58512070471E+03  0.70728073772E+03  0.13663792354E+04  0.90069168991E+03 0.  0.
         23    2    4    4    0    0 -0.53260121947E+03 -0.21229056374E+02  0.14149170031E+03  0.55921890928E+03  0.92688485937E+02 0.  0.
         23    2    4    4    0    0  0.70936391235E+02 -0.56389164834E+03  0.56578903741E+03  0.80716032612E+03  0.91568523776E+02 0.  0.
          4    1    3    3  502    0  0.11291155882E+03  0.10271998613E+03 -0.50850741393E+02  0.16089193133E+03  0.00000000000E+00 0. -1.
         -3    1    3    3    0  502  0.34875326942E+03  0.48240071858E+03 -0.23779946114E+03  0.64100536654E+03  0.00000000000E+00 0.  1.
         13    1    5    5    0    0 -0.10797834415E+03 -0.34978535874E+02  0.52946565057E+02  0.12524439919E+03  0.00000000000E+00 0. -1.
        -13    1    5    5    0    0 -0.42462287532E+03  0.13749479500E+02  0.88545135254E+02  0.43397451009E+03  0.00000000000E+00 0.  1.
          2    1    6    6  503    0  0.53134070544E+02 -0.25674126501E+03  0.20371623893E+03  0.33202351215E+03  0.00000000000E+00 0. -1.
         -2    1    6    6    0  503  0.17802320691E+02 -0.30715038333E+03  0.36207279848E+03  0.47513681398E+03  0.00000000000E+00 0.  1.
<mgrwt>
<rscale>  0 0.21274801E+04</rscale>
<asrwt>0</asrwt>
<pdfrwt beam="1">  1        2 0.19899285E+00 0.21274801E+04</pdfrwt>
<pdfrwt beam="2">  1       -1 0.13458815E+00 0.21274801E+04</pdfrwt>
<totfact> 0.81154150E+00</totfact>
</mgrwt>
</event>
<event>
12    7  0.1707730E-007  0.1100724E+04  0.7818608E-02  0.9204486E-01
          2   -1    0    0  501    0  0.00000000000E+00  0.00000000000E+00  0.33012616085E+03  0.33012616085E+03  0.00000000000E+00 0. -1.
         -1   -1    0    0    0  501 -0.00000000000E+00 -0.00000000000E+00 -0.91752321737E+03  0.91752321737E+03  0.00000000000E+00 0.  1.
         24    2    1    2    0    0  0.78728274478E+02  0.16797141469E+03 -0.77807409622E+02  0.21689570523E+03  0.81100040685E+02 0.  0.
        254    2    1    2    0    0 -0.78728274478E+02 -0.16797141469E+03 -0.50958964689E+03  0.10307536730E+04  0.87656088711E+03 0.  0.
         23    2    4    4    0    0 -0.17347302834E+03  0.31102097784E+03 -0.84184566429E+02  0.37678728762E+03  0.89747861622E+02 0.  0.
         23    2    4    4    0    0  0.94744753862E+02 -0.47899239254E+03 -0.42540508046E+03  0.65396638537E+03  0.91061903215E+02 0.  0.
          4    1    3    3  502    0  0.93953868275E+02  0.13951824275E+03 -0.53543589278E+02  0.17652077888E+03  0.00000000000E+00 0. -1.
         -3    1    3    3    0  502 -0.15225593797E+02  0.28453171945E+02 -0.24263820344E+02  0.40374926351E+02  0.00000000000E+00 0.  1.
         13    1    5    5    0    0 -0.12872093880E+02  0.14623784038E+02  0.15884853689E+02  0.25137112745E+02  0.00000000000E+00 0.  1.
        -13    1    5    5    0    0 -0.16060093446E+03  0.29639719381E+03 -0.10006942012E+03  0.35165017487E+03  0.00000000000E+00 0. -1.
          2    1    6    6  503    0 -0.55288550231E+01 -0.13888056429E+03 -0.88013460034E+02  0.16451367275E+03  0.00000000000E+00 0.  1.
         -2    1    6    6    0  503  0.10027360889E+03 -0.34011182825E+03 -0.33739162043E+03  0.48945271262E+03  0.00000000000E+00 0. -1.
<mgrwt>
<rscale>  0 0.11007242E+04</rscale>
<asrwt>0</asrwt>
<pdfrwt beam="1">  1        2 0.50788642E-01 0.11007242E+04</pdfrwt>
<pdfrwt beam="2">  1       -1 0.14115741E+00 0.11007242E+04</pdfrwt>
<totfact> 0.46035479E+01</totfact>
</mgrwt>
</event>
<event>
12    7  0.1707730E-007  0.1649420E+04  0.7818608E-02  0.8790749E-01
         -1   -1    0    0    0  501 -0.00000000000E+00  0.00000000000E+00  0.42329055143E+03  0.42329055143E+03  0.00000000000E+00 0.  1.
          2   -1    0    0  501    0  0.00000000000E+00 -0.00000000000E+00 -0.16068085974E+04  0.16068085974E+04  0.00000000000E+00 0. -1.
         24    2    1    2    0    0 -0.46399752363E+03  0.13543167652E+03 -0.80629378591E+03  0.94346746590E+03  0.79910882019E+02 0.  0.
        254    2    1    2    0    0  0.46399752363E+03 -0.13543167652E+03 -0.37722426007E+03  0.10866316829E+04  0.89712587246E+03 0.  0.
         23    2    4    4    0    0 -0.23667449874E+03 -0.10783289124E+03  0.18210144864E+02  0.27645392638E+03  0.91937006971E+02 0.  0.
         23    2    4    4    0    0  0.70067202236E+03 -0.27598785282E+02 -0.39543440494E+03  0.81017775656E+03  0.91195683792E+02 0.  0.
          2    1    3    3  502    0 -0.43980181493E+03  0.13156515542E+03 -0.79107637762E+03  0.91462389088E+03  0.00000000000E+00 0. -1.
         -1    1    3    3    0  502 -0.24195708694E+02  0.38665211057E+01 -0.15217408295E+02  0.28843575019E+02  0.00000000000E+00 0.  1.
         13    1    5    5    0    0 -0.85260725341E+02 -0.65031320934E+02 -0.30946435362E+02  0.11160710484E+03  0.00000000000E+00 0.  1.
        -13    1    5    5    0    0 -0.15141377340E+03 -0.42801570307E+02  0.49156580226E+02  0.16484682155E+03  0.00000000000E+00 0. -1.
          2    1    6    6  503    0  0.68502397018E+03 -0.22922151843E+02 -0.36723181517E+03  0.77758759689E+03  0.00000000000E+00 0. -1.
         -2    1    6    6    0  503  0.15648052180E+02 -0.46766334389E+01 -0.28202589768E+02  0.32590159664E+02  0.00000000000E+00 0.  1.
<mgrwt>
<rscale>  0 0.16494204E+04</rscale>
<asrwt>0</asrwt>
<pdfrwt beam="1">  1        2 0.24720132E+00 0.16494204E+04</pdfrwt>
<pdfrwt beam="2">  1       -1 0.65121624E-01 0.16494204E+04</pdfrwt>
<totfact> 0.28762029E+01</totfact>
</mgrwt>
</event>
<event>
12    7  0.1707730E-007  0.1287343E+04  0.7818608E-02  0.9039663E-01
          2   -1    0    0  501    0  0.00000000000E+00  0.00000000000E+00  0.13412439689E+04  0.13412439689E+04  0.00000000000E+00 0. -1.
         -1   -1    0    0    0  501 -0.00000000000E+00 -0.00000000000E+00 -0.30890184385E+03  0.30890184385E+03  0.00000000000E+00 0.  1.
         24    2    1    2    0    0 -0.24844759073E+03  0.93656310200E+02  0.34296220706E+02  0.27860934001E+03  0.77131211634E+02 0.  0.
        254    2    1    2    0    0  0.24844759073E+03 -0.93656310200E+02  0.99804590436E+03  0.13715364727E+04  0.90250704101E+03 0.  0.
         23    2    4    4    0    0  0.32594881242E+03  0.21173079425E+03  0.96521968308E+03  0.10445046374E+04  0.90930431612E+02 0.  0.
         23    2    4    4    0    0 -0.77501221693E+02 -0.30538710445E+03  0.32826221274E+02  0.32703183534E+03  0.81268306184E+02 0.  0.
          2    1    3    3  502    0 -0.80474888377E+02  0.29390047364E+01  0.34745258962E+02  0.87704494916E+02  0.00000000000E+00 0. -1.
         -1    1    3    3    0  502 -0.16797270235E+03  0.90717305463E+02 -0.44903825608E+00  0.19090484510E+03  0.00000000000E+00 0.  1.
         13    1    5    5    0    0  0.78771840926E+02  0.92707200671E+02  0.23868819394E+03  0.26790237384E+03  0.00000000000E+00 0.  1.
        -13    1    5    5    0    0  0.24717697150E+03  0.11902359358E+03  0.72653148914E+03  0.77660226357E+03  0.00000000000E+00 0. -1.
          2    1    6    6  503    0 -0.46512491273E+01 -0.13684028788E+03 -0.13726312128E+02  0.13760563270E+03  0.00000000000E+00 0. -1.
         -2    1    6    6    0  503 -0.72849972566E+02 -0.16854681657E+03  0.46552533402E+02  0.18942620264E+03  0.00000000000E+00 0.  1.
<mgrwt>
<rscale>  0 0.12873426E+04</rscale>
<asrwt>0</asrwt>
<pdfrwt beam="1">  1        2 0.20634522E+00 0.12873426E+04</pdfrwt>
<pdfrwt beam="2">  1       -1 0.47523361E-01 0.12873426E+04</pdfrwt>
<totfact> 0.77289764E+01</totfact>
</mgrwt>
</event>
<event>
12    7  0.1707730E-007  0.1647678E+04  0.7818608E-02  0.8791782E-01
          2   -1    0    0  501    0  0.00000000000E+00  0.00000000000E+00  0.68251374656E+03  0.68251374656E+03  0.00000000000E+00 0. -1.
         -1   -1    0    0    0  501 -0.00000000000E+00 -0.00000000000E+00 -0.99442744451E+03  0.99442744451E+03  0.00000000000E+00 0.  1.
         24    2    1    2    0    0  0.56238574304E+03 -0.20921621944E+02 -0.11356452875E+02  0.56848901513E+03  0.79594931146E+02 0.  0.
        254    2    1    2    0    0 -0.56238574304E+03  0.20921621944E+02 -0.30055724507E+03  0.11084521759E+04  0.90643043337E+03 0.  0.
         23    2    4    4    0    0 -0.23133041655E+03 -0.16629539081E+03 -0.56273305308E+03  0.63764900919E+03  0.93594077119E+02 0.  0.
         23    2    4    4    0    0 -0.33105532649E+03  0.18721701276E+03  0.26217580801E+03  0.47080316675E+03  0.90948493393E+02 0.  0.
          2    1    3    3  502    0  0.25693323149E+02  0.92665348620E+01  0.13307648454E+02  0.30382709395E+02  0.00000000000E+00 0. -1.
         -1    1    3    3    0  502  0.53669241989E+03 -0.30188156806E+02 -0.24664101329E+02  0.53810630573E+03  0.00000000000E+00 0.  1.
         13    1    5    5    0    0 -0.19027523188E+03 -0.14316066435E+03 -0.52767714147E+03  0.57891519699E+03  0.00000000000E+00 0.  1.
        -13    1    5    5    0    0 -0.41055184666E+02 -0.23134726461E+02 -0.35055911613E+02  0.58733812199E+02  0.00000000000E+00 0. -1.
          3    1    6    6  503    0 -0.38288229032E+02  0.26300438220E+02  0.51658247648E+00  0.46453938373E+02  0.00000000000E+00 0. -1.
         -3    1    6    6    0  503 -0.29276709746E+03  0.16091657454E+03  0.26165922553E+03  0.42434922837E+03  0.00000000000E+00 0.  1.
<mgrwt>
<rscale>  0 0.16476776E+04</rscale>
<asrwt>0</asrwt>
<pdfrwt beam="1">  1        2 0.10500211E+00 0.16476776E+04</pdfrwt>
<pdfrwt beam="2">  1       -1 0.15298884E+00 0.16476776E+04</pdfrwt>
<totfact> 0.15267487E+01</totfact>
</mgrwt>
</event>
<event>
12    7  0.1707730E-007  0.1338628E+04  0.7818608E-02  0.8999482E-01
          2   -1    0    0  501    0  0.00000000000E+00  0.00000000000E+00  0.14230031429E+04  0.14230031429E+04  0.00000000000E+00 0. -1.
         -1   -1    0    0    0  501 -0.00000000000E+00 -0.00000000000E+00 -0.31481385780E+03  0.31481385780E+03  0.00000000000E+00 0.  1.
         24    2    1    2    0    0 -0.21407072786E+03  0.30582518915E+03  0.14107668307E+03  0.40671467487E+03  0.78478490060E+02 0.  0.
        254    2    1    2    0    0  0.21407072786E+03 -0.30582518915E+03  0.96711260198E+03  0.13311023258E+04  0.83496784008E+03 0.  0.
         23    2    4    4    0    0  0.34872595191E+03  0.88054839690E+02  0.78390529486E+03  0.86718250660E+03  0.90191707547E+02 0.  0.
         23    2    4    4    0    0 -0.13465522405E+03 -0.39388002884E+03  0.18320730712E+03  0.46391981919E+03  0.91559678711E+02 0.  0.
          2    1    3    3  502    0 -0.10861725450E+03  0.20964958569E+03  0.11077272062E+03  0.26080884262E+03  0.00000000000E+00 0. -1.
         -1    1    3    3    0  502 -0.10545347336E+03  0.96175603469E+02  0.30303962453E+02  0.14590583226E+03  0.00000000000E+00 0.  1.
         13    1    5    5    0    0  0.21780427571E+03  0.29303318854E+02  0.55606647738E+03  0.59791915363E+03  0.00000000000E+00 0. -1.
        -13    1    5    5    0    0  0.13092167621E+03  0.58751520836E+02  0.22783881749E+03  0.26926335298E+03  0.00000000000E+00 0.  1.
          4    1    6    6  503    0 -0.55762329274E+02 -0.29241612097E+03  0.12819239809E+03  0.32411404798E+03  0.00000000000E+00 0. -1.
         -4    1    6    6    0  503 -0.78892894778E+02 -0.10146390787E+03  0.55014909028E+02  0.13980577121E+03  0.00000000000E+00 0.  1.
<mgrwt>
<rscale>  0 0.13386278E+04</rscale>
<asrwt>0</asrwt>
<pdfrwt beam="1">  1        2 0.21892356E+00 0.13386278E+04</pdfrwt>
<pdfrwt beam="2">  1       -1 0.48432902E-01 0.13386278E+04</pdfrwt>
<totfact> 0.66678915E+01</totfact>
</mgrwt>
</event>
<event>
12    7  0.1707730E-007  0.1283787E+04  0.7818608E-02  0.9042522E-01
          2   -1    0    0  501    0  0.00000000000E+00  0.00000000000E+00  0.78442386605E+03  0.78442386605E+03  0.00000000000E+00 0. -1.
         -1   -1    0    0    0  501 -0.00000000000E+00 -0.00000000000E+00 -0.52526093350E+03  0.52526093350E+03  0.00000000000E+00 0.  1.
         24    2    1    2    0    0  0.22324483585E+03 -0.62597718921E+02 -0.14191776366E+03  0.28340412078E+03  0.80128102948E+02 0.  0.
        254    2    1    2    0    0 -0.22324483585E+03  0.62597718921E+02  0.40108069621E+03  0.10262806788E+04  0.91576720601E+03 0.  0.
         23    2    4    4    0    0  0.17371962133E+03  0.26557551506E+03  0.46119485755E+03  0.56732707439E+03  0.91926338297E+02 0.  0.
         23    2    4    4    0    0 -0.39696445718E+03 -0.20297779614E+03 -0.60114161338E+02  0.45895360439E+03  0.90796104518E+02 0.  0.
          4    1    3    3  502    0 -0.63297021711E+01 -0.26076043929E+01 -0.93867101856E+01  0.11617876672E+02  0.00000000000E+00 0. -1.
         -3    1    3    3    0  502  0.22957453802E+03 -0.59990114528E+02 -0.13253105348E+03  0.27178624411E+03  0.00000000000E+00 0.  1.
         13    1    5    5    0    0  0.43396815589E+02  0.79608336840E+02  0.68253376547E+02  0.11348697858E+03  0.00000000000E+00 0. -1.
        -13    1    5    5    0    0  0.13032280574E+03  0.18596717822E+03  0.39294148100E+03  0.45384009581E+03  0.00000000000E+00 0.  1.
          1    1    6    6  503    0 -0.27632327327E+03 -0.10166486508E+03 -0.64246919469E+02  0.30136018782E+03  0.00000000000E+00 0.  1.
         -1    1    6    6    0  503 -0.12064118391E+03 -0.10131293106E+03  0.41327581314E+01  0.15759341656E+03  0.00000000000E+00 0. -1.
<mgrwt>
<rscale>  0 0.12837869E+04</rscale>
<asrwt>0</asrwt>
<pdfrwt beam="1">  1        2 0.12068059E+00 0.12837869E+04</pdfrwt>
<pdfrwt beam="2">  1       -1 0.80809374E-01 0.12837869E+04</pdfrwt>
<totfact> 0.60504049E+01</totfact>
</mgrwt>
</event>
<event>
12    7  0.1707730E-007  0.1675747E+04  0.7818608E-02  0.8775319E-01
         -1   -1    0    0    0  501 -0.00000000000E+00  0.00000000000E+00  0.52150432168E+03  0.52150432168E+03  0.00000000000E+00 0.  1.
          2   -1    0    0  501    0  0.00000000000E+00 -0.00000000000E+00 -0.13461677873E+04  0.13461677873E+04  0.00000000000E+00 0. -1.
         24    2    1    2    0    0  0.86426842828E+02  0.52330938750E+03 -0.59290500284E+03  0.79956020758E+03  0.80236331857E+02 0.  0.
        254    2    1    2    0    0 -0.86426842828E+02 -0.52330938750E+03 -0.23175846275E+03  0.10681119014E+04  0.89767963917E+03 0.  0.
         23    2    4    4    0    0  0.27945640518E+03  0.21080322669E+02 -0.27561383200E+03  0.40382510165E+03  0.92582211726E+02 0.  0.
         23    2    4    4    0    0 -0.36588324801E+03 -0.54438971016E+03  0.43855369248E+02  0.66428679972E+03  0.95514141175E+02 0.  0.
          2    1    3    3  502    0  0.42616170001E+02  0.41662744224E+03 -0.43292191911E+03  0.60234205533E+03  0.00000000000E+00 0. -1.
         -1    1    3    3    0  502  0.43810672827E+02  0.10668194526E+03 -0.15998308373E+03  0.19721815225E+03  0.00000000000E+00 0.  1.
         13    1    5    5    0    0  0.44670297296E+02 -0.30332060381E+02 -0.62572532230E+02  0.82648600334E+02  0.00000000000E+00 0.  1.
        -13    1    5    5    0    0  0.23478610789E+03  0.51412383049E+02 -0.21304129977E+03  0.32117650131E+03  0.00000000000E+00 0. -1.
          1    1    6    6  503    0 -0.24510594714E+03 -0.27993037503E+03  0.21394022397E+02  0.37268705958E+03  0.00000000000E+00 0. -1.
         -1    1    6    6    0  503 -0.12077730087E+03 -0.26445933513E+03  0.22461346851E+02  0.29159974014E+03  0.00000000000E+00 0.  1.
<mgrwt>
<rscale>  0 0.16757474E+04</rscale>
<asrwt>0</asrwt>
<pdfrwt beam="1">  1        2 0.20710274E+00 0.16757474E+04</pdfrwt>
<pdfrwt beam="2">  1       -1 0.80231433E-01 0.16757474E+04</pdfrwt>
<totfact> 0.26183418E+01</totfact>
</mgrwt>
</event>
<event>
12    7  0.1707730E-007  0.1515978E+04  0.7818608E-02  0.8873897E-01
          2   -1    0    0  501    0  0.00000000000E+00  0.00000000000E+00  0.14217134821E+04  0.14217134821E+04  0.00000000000E+00 0. -1.
         -1   -1    0    0    0  501 -0.00000000000E+00 -0.00000000000E+00 -0.40412327559E+03  0.40412327559E+03  0.00000000000E+00 0.  1.
         24    2    1    2    0    0  0.11514833624E+03 -0.23721885423E+03  0.79319485241E+03  0.84086383920E+03  0.91443961192E+02 0.  0.
        254    2    1    2    0    0 -0.11514833624E+03  0.23721885423E+03  0.22439535414E+03  0.98497291853E+03  0.92210978258E+03 0.  0.
         23    2    4    4    0    0 -0.11432986027E+03 -0.11254485388E+03  0.49720329012E+03  0.53232386316E+03  0.10207802164E+03 0.  0.
         23    2    4    4    0    0 -0.81847597624E+00  0.34976370811E+03 -0.27280793598E+03  0.45264905537E+03  0.90175805917E+02 0.  0.
          2    1    3    3  502    0  0.12206218856E+03 -0.23797404266E+03  0.78809152467E+03  0.83223739048E+03  0.00000000000E+00 0. -1.
         -3    1    3    3    0  502 -0.69138523186E+01  0.75518842791E+00  0.51033277370E+01  0.86264487152E+01  0.00000000000E+00 0.  1.
         13    1    5    5    0    0 -0.17502852763E+02  0.16102603179E+02  0.11765022829E+03  0.12003007915E+03  0.00000000000E+00 0. -1.
        -13    1    5    5    0    0 -0.96827007503E+02 -0.12864745706E+03  0.37955306183E+03  0.41229378401E+03  0.00000000000E+00 0.  1.
          2    1    6    6  503    0 -0.19584626376E+02  0.28156083960E+02 -0.51225791214E+02  0.61647419571E+02  0.00000000000E+00 0. -1.
         -2    1    6    6    0  503  0.18766150400E+02  0.32160762415E+03 -0.22158214477E+03  0.39100163580E+03  0.00000000000E+00 0.  1.
<mgrwt>
<rscale>  0 0.15159782E+04</rscale>
<asrwt>0</asrwt>
<pdfrwt beam="1">  1        2 0.21872515E+00 0.15159782E+04</pdfrwt>
<pdfrwt beam="2">  1       -1 0.62172812E-01 0.15159782E+04</pdfrwt>
<totfact> 0.40581708E+01</totfact>
</mgrwt>
</event>
<event>
12    7  0.1707730E-007  0.1517987E+04  0.7818608E-02  0.8872579E-01
         -1   -1    0    0    0  501 -0.00000000000E+00  0.00000000000E+00  0.50322831920E+03  0.50322831920E+03  0.00000000000E+00 0.  1.
          2   -1    0    0  501    0  0.00000000000E+00 -0.00000000000E+00 -0.11447511455E+04  0.11447511455E+04  0.00000000000E+00 0. -1.
         24    2    1    2    0    0 -0.10966723283E+02  0.36242220372E+03 -0.55391438328E+03  0.66688275505E+03  0.80257972830E+02 0.  0.
        254    2    1    2    0    0  0.10966723283E+02 -0.36242220372E+03 -0.87608443022E+02  0.98109670966E+03  0.90741687864E+03 0.  0.
         23    2    4    4    0    0 -0.35149418356E+03 -0.43972851765E+03  0.55652726130E+02  0.57320082230E+03  0.92480411162E+02 0.  0.
         23    2    4    4    0    0  0.36246090684E+03  0.77306313932E+02 -0.14326116915E+03  0.40789588736E+03  0.92201503132E+02 0.  0.
          4    1    3    3  502    0  0.23311627876E+02  0.28937218301E+03 -0.42098363024E+03  0.51137746257E+03  0.00000000000E+00 0. -1.
         -3    1    3    3    0  502 -0.34278351159E+02  0.73050020707E+02 -0.13293075304E+03  0.15550529247E+03  0.00000000000E+00 0.  1.
         13    1    5    5    0    0 -0.11705722740E+03 -0.20889708312E+03  0.47330333866E+02  0.24409126639E+03  0.00000000000E+00 0. -1.
        -13    1    5    5    0    0 -0.23443695616E+03 -0.23083143453E+03  0.83223922639E+01  0.32910955591E+03  0.00000000000E+00 0.  1.
          1    1    6    6  503    0  0.64231877472E+02  0.82519662487E+01 -0.65382265352E+02  0.92025375050E+02  0.00000000000E+00 0. -1.
         -1    1    6    6    0  503  0.29822902937E+03  0.69054347683E+02 -0.77878903800E+02  0.31587051231E+03  0.00000000000E+00 0.  1.
<mgrwt>
<rscale>  0 0.15179871E+04</rscale>
<asrwt>0</asrwt>
<pdfrwt beam="1">  1        2 0.17611556E+00 0.15179871E+04</pdfrwt>
<pdfrwt beam="2">  1       -1 0.77419743E-01 0.15179871E+04</pdfrwt>
<totfact> 0.37641817E+01</totfact>
</mgrwt>
</event>
<event>
12    7  0.1707730E-007  0.1475446E+04  0.7818608E-02  0.8900947E-01
          2   -1    0    0  501    0  0.00000000000E+00  0.00000000000E+00  0.46207506964E+03  0.46207506964E+03  0.00000000000E+00 0. -1.
         -1   -1    0    0    0  501 -0.00000000000E+00 -0.00000000000E+00 -0.11778063699E+04  0.11778063699E+04  0.00000000000E+00 0.  1.
         24    2    1    2    0    0 -0.50373920802E+02  0.44697072655E+03 -0.30587142445E+03  0.54967509479E+03  0.79151874608E+02 0.  0.
        254    2    1    2    0    0  0.50373920802E+02 -0.44697072655E+03 -0.40985987582E+03  0.10902063448E+04  0.90456862319E+03 0.  0.
         23    2    4    4    0    0 -0.39191226158E+03 -0.37680620658E+03 -0.26109495776E+03  0.60993926046E+03  0.90979043637E+02 0.  0.
         23    2    4    4    0    0  0.44228618238E+03 -0.70164519965E+02 -0.14876491806E+03  0.48026708430E+03  0.89360754400E+02 0.  0.
          4    1    3    3  502    0 -0.40571234420E+02  0.25429035258E+03 -0.21921078904E+03  0.33817595791E+03  0.00000000000E+00 0. -1.
         -3    1    3    3    0  502 -0.98026863823E+01  0.19268037397E+03 -0.86660635412E+02  0.21149913689E+03  0.00000000000E+00 0.  1.
         13    1    5    5    0    0 -0.47077368641E+02 -0.60917239315E+02 -0.72308683164E+02  0.10562070983E+03  0.00000000000E+00 0.  1.
        -13    1    5    5    0    0 -0.34483489294E+03 -0.31588896727E+03 -0.18878627460E+03  0.50431855063E+03  0.00000000000E+00 0. -1.
          1    1    6    6  503    0  0.27374656553E+03 -0.34091934561E+01 -0.10906106485E+03  0.29469156860E+03  0.00000000000E+00 0. -1.
         -1    1    6    6    0  503  0.16853961686E+03 -0.66755326509E+02 -0.39703853211E+02  0.18557551570E+03  0.00000000000E+00 0.  1.
<mgrwt>
<rscale>  0 0.14754456E+04</rscale>
<asrwt>0</asrwt>
<pdfrwt beam="1">  1        2 0.71088473E-01 0.14754456E+04</pdfrwt>
<pdfrwt beam="2">  1       -1 0.18120098E+00 0.14754456E+04</pdfrwt>
<totfact> 0.15234341E+01</totfact>
</mgrwt>
</event>
<event>
12    7  0.1707730E-007  0.1822212E+04  0.7818608E-02  0.8694576E-01
         -1   -1    0    0    0  501 -0.00000000000E+00  0.00000000000E+00  0.97588319316E+03  0.97588319316E+03  0.00000000000E+00 0.  1.
          2   -1    0    0  501    0  0.00000000000E+00 -0.00000000000E+00 -0.85062842811E+03  0.85062842811E+03  0.00000000000E+00 0. -1.
         24    2    1    2    0    0 -0.18202705531E+03  0.44649249829E+03 -0.39280612449E+03  0.62706476522E+03  0.80150910497E+02 0.  0.
        254    2    1    2    0    0  0.18202705531E+03 -0.44649249829E+03  0.51806088954E+03  0.11994468560E+04  0.96839882037E+03 0.  0.
         23    2    4    4    0    0  0.54284410834E+03 -0.29471601507E+03  0.49534597325E+03  0.79676825769E+03  0.89077313272E+02 0.  0.
         23    2    4    4    0    0 -0.36081705303E+03 -0.15177648322E+03  0.22714916286E+02  0.40267859835E+03  0.91700815321E+02 0.  0.
          2    1    3    3  502    0 -0.68155094441E+02  0.22592514590E+03 -0.14872618750E+03  0.27893864432E+03  0.00000000000E+00 0. -1.
         -1    1    3    3    0  502 -0.11387196087E+03  0.22056735239E+03 -0.24407993699E+03  0.34812612090E+03  0.00000000000E+00 0.  1.
         13    1    5    5    0    0  0.16177126073E+03 -0.13516034817E+03  0.15926333477E+03  0.26420270687E+03  0.00000000000E+00 0. -1.
        -13    1    5    5    0    0  0.38107284762E+03 -0.15955566690E+03  0.33608263849E+03  0.53256555082E+03  0.00000000000E+00 0.  1.
          3    1    6    6  503    0 -0.13664549985E+03 -0.66969208416E+02  0.52903746436E+02  0.16110764691E+03  0.00000000000E+00 0. -1.
         -3    1    6    6    0  503 -0.22417155318E+03 -0.84807274808E+02 -0.30188830149E+02  0.24157095144E+03  0.00000000000E+00 0.  1.
<mgrwt>
<rscale>  0 0.18222118E+04</rscale>
<asrwt>0</asrwt>
<pdfrwt beam="1">  1        2 0.13086591E+00 0.18222118E+04</pdfrwt>
<pdfrwt beam="2">  1       -1 0.15013588E+00 0.18222118E+04</pdfrwt>
<totfact> 0.11870049E+01</totfact>
</mgrwt>
</event>
<event>
12    7  0.1707730E-007  0.2048439E+04  0.7818608E-02  0.8584303E-01
          2   -1    0    0  501    0  0.00000000000E+00  0.00000000000E+00  0.27573147152E+04  0.27573147152E+04  0.00000000000E+00 0. -1.
         -1   -1    0    0    0  501 -0.00000000000E+00 -0.00000000000E+00 -0.38045198138E+03  0.38045198138E+03  0.00000000000E+00 0.  1.
         24    2    1    2    0    0  0.66760292901E+03 -0.16292653963E+03  0.25479866613E+03  0.73726067302E+03  0.79951307542E+02 0.  0.
        254    2    1    2    0    0 -0.66760292901E+03  0.16292653963E+03  0.21220640677E+04  0.24005060235E+04  0.88714966808E+03 0.  0.
         23    2    4    4    0    0 -0.10104716777E+03 -0.37550529297E+02 -0.45553217961E+02  0.14919339296E+03  0.92536481847E+02 0.  0.
         23    2    4    4    0    0 -0.56655576125E+03  0.20047706893E+03  0.21676172856E+04  0.22513126306E+04  0.93098753133E+02 0.  0.
          2    1    3    3  502    0  0.21342095368E+03 -0.52290581348E+02  0.12186142821E+03  0.25126284256E+03  0.00000000000E+00 0. -1.
         -1    1    3    3    0  502  0.45418197534E+03 -0.11063595829E+03  0.13293723792E+03  0.48599783046E+03  0.00000000000E+00 0.  1.
         13    1    5    5    0    0 -0.32475298059E+02 -0.80897617941E+01  0.28571971516E+02  0.44005076823E+02  0.00000000000E+00 0.  1.
        -13    1    5    5    0    0 -0.68571869706E+02 -0.29460767503E+02 -0.74125189477E+02  0.10518831614E+03  0.00000000000E+00 0. -1.
          3    1    6    6  503    0 -0.48386022410E+03  0.16306200227E+03  0.19449702576E+04  0.20108752413E+04  0.00000000000E+00 0. -1.
         -3    1    6    6    0  503 -0.82695537145E+02  0.37415066657E+02  0.22264702801E+03  0.24043738927E+03  0.00000000000E+00 0.  1.
<mgrwt>
<rscale>  0 0.20484393E+04</rscale>
<asrwt>0</asrwt>
<pdfrwt beam="1">  1        2 0.42420225E+00 0.20484393E+04</pdfrwt>
<pdfrwt beam="2">  1       -1 0.58531076E-01 0.20484393E+04</pdfrwt>
<totfact> 0.76536301E+00</totfact>
</mgrwt>
</event>
<event>
12    7  0.1707730E-007  0.1759178E+04  0.7818608E-02  0.8728315E-01
          2   -1    0    0  501    0  0.00000000000E+00  0.00000000000E+00  0.81786732188E+03  0.81786732188E+03  0.00000000000E+00 0. -1.
         -1   -1    0    0    0  501 -0.00000000000E+00 -0.00000000000E+00 -0.94596819149E+03  0.94596819149E+03  0.00000000000E+00 0.  1.
         24    2    1    2    0    0  0.59162041913E+02 -0.51617256009E+03  0.34323784638E+03  0.62764174554E+03  0.78661824035E+02 0.  0.
        254    2    1    2    0    0 -0.59162041913E+02  0.51617256009E+03 -0.47133871599E+03  0.11361937678E+04  0.89377952196E+03 0.  0.
         23    2    4    4    0    0  0.36316634142E+02  0.24894706942E+03  0.24383652438E+03  0.36116429616E+03  0.87691829217E+02 0.  0.
         23    2    4    4    0    0 -0.95478676054E+02  0.26722549067E+03 -0.71517524037E+03  0.77502947167E+03  0.93109704491E+02 0.  0.
          4    1    3    3  502    0  0.66396987554E+02 -0.27448886544E+03  0.20664137126E+03  0.34993335584E+03  0.00000000000E+00 0. -1.
         -3    1    3    3    0  502 -0.72349456409E+01 -0.24168369465E+03  0.13659647511E+03  0.27770838970E+03  0.00000000000E+00 0.  1.
         13    1    5    5    0    0  0.63382337997E+01  0.22928512407E+03  0.22185786496E+03  0.31911244660E+03  0.00000000000E+00 0. -1.
        -13    1    5    5    0    0  0.29978400342E+02  0.19661945350E+02  0.21978659423E+02  0.42051849567E+02  0.00000000000E+00 0.  1.
          3    1    6    6  503    0 -0.28259631090E+02  0.13397552675E+03 -0.45424054934E+03  0.47442863023E+03  0.00000000000E+00 0. -1.
         -3    1    6    6    0  503 -0.67219044964E+02  0.13324996392E+03 -0.26093469104E+03  0.30060084144E+03  0.00000000000E+00 0.  1.
<mgrwt>
<rscale>  0 0.17591776E+04</rscale>
<asrwt>0</asrwt>
<pdfrwt beam="1">  1        2 0.12582574E+00 0.17591776E+04</pdfrwt>
<pdfrwt beam="2">  1       -1 0.14553357E+00 0.17591776E+04</pdfrwt>
<totfact> 0.13681008E+01</totfact>
</mgrwt>
</event>
<event>
12    7  0.1707730E-007  0.1326094E+04  0.7818608E-02  0.9009124E-01
          2   -1    0    0  501    0  0.00000000000E+00  0.00000000000E+00  0.36606525090E+03  0.36606525090E+03  0.00000000000E+00 0. -1.
         -1   -1    0    0    0  501 -0.00000000000E+00 -0.00000000000E+00 -0.12009647719E+04  0.12009647719E+04  0.00000000000E+00 0.  1.
         24    2    1    2    0    0  0.37527079557E+02 -0.31638917267E+01  0.18591794752E+03  0.20608165304E+03  0.80534915396E+02 0.  0.
        254    2    1    2    0    0 -0.37527079557E+02  0.31638917267E+01 -0.10208174686E+04  0.13609483698E+04  0.89927407903E+03 0.  0.
         23    2    4    4    0    0 -0.28786228965E+03  0.10321001187E+03 -0.19091647050E+02  0.31926367412E+03  0.89709521641E+02 0.  0.
         23    2    4    4    0    0  0.25033521010E+03 -0.10004612014E+03 -0.10017258215E+04  0.10416846957E+04  0.94738799558E+02 0.  0.
          4    1    3    3  502    0  0.15903864898E+02 -0.40456093803E+02  0.11675230336E+03  0.12458221697E+03  0.00000000000E+00 0. -1.
         -3    1    3    3    0  502  0.21623214659E+02  0.37292202076E+02  0.69165644163E+02  0.81499436074E+02  0.00000000000E+00 0.  1.
         13    1    5    5    0    0 -0.71225327072E+02 -0.12632447071E+02 -0.13181575668E+02  0.73528089004E+02  0.00000000000E+00 0. -1.
        -13    1    5    5    0    0 -0.21663696258E+03  0.11584245894E+03 -0.59100713824E+01  0.24573558512E+03  0.00000000000E+00 0.  1.
          1    1    6    6  503    0 -0.12256900330E+01  0.10419055302E+02 -0.26648044598E+02  0.28638737932E+02  0.00000000000E+00 0. -1.
         -1    1    6    6    0  503  0.25156090013E+03 -0.11046517545E+03 -0.97507777691E+03  0.10130459577E+04  0.00000000000E+00 0.  1.
<mgrwt>
<rscale>  0 0.13260942E+04</rscale>
<asrwt>0</asrwt>
<pdfrwt beam="1">  1        2 0.56317731E-01 0.13260942E+04</pdfrwt>
<pdfrwt beam="2">  1       -1 0.18476381E+00 0.13260942E+04</pdfrwt>
<totfact> 0.18934882E+01</totfact>
</mgrwt>
</event>
<event>
12    7  0.1707730E-007  0.1486863E+04  0.7818608E-02  0.8893236E-01
         -1   -1    0    0    0  501 -0.00000000000E+00  0.00000000000E+00  0.52496642454E+03  0.52496642454E+03  0.00000000000E+00 0.  1.
          2   -1    0    0  501    0  0.00000000000E+00 -0.00000000000E+00 -0.10528112775E+04  0.10528112775E+04  0.00000000000E+00 0. -1.
         24    2    1    2    0    0 -0.45488979977E+03 -0.81586545785E+02 -0.80563877834E+02  0.47472304152E+03  0.72734677785E+02 0.  0.
        254    2    1    2    0    0  0.45488979977E+03  0.81586545785E+02 -0.44728097513E+03  0.11030546605E+04  0.89615189505E+03 0.  0.
         23    2    4    4    0    0  0.13853436291E+03 -0.38556978314E+03 -0.29213059655E+03  0.51089941084E+03  0.88442609472E+02 0.  0.
         23    2    4    4    0    0  0.31635543686E+03  0.46715632893E+03 -0.15515037857E+03  0.59215524969E+03  0.90886751897E+02 0.  0.
          4    1    3    3  502    0 -0.27692768695E+03 -0.34495630535E+02 -0.81177289085E+02  0.29063489913E+03  0.00000000000E+00 0. -1.
         -3    1    3    3    0  502 -0.17796211281E+03 -0.47090915250E+02  0.61341125021E+00  0.18408814239E+03  0.00000000000E+00 0.  1.
         13    1    5    5    0    0  0.72320562922E+02 -0.24869587178E+03 -0.13431327635E+03  0.29175324619E+03  0.00000000000E+00 0.  1.
        -13    1    5    5    0    0  0.66213799985E+02 -0.13687391137E+03 -0.15781732020E+03  0.21914616464E+03  0.00000000000E+00 0. -1.
          1    1    6    6  503    0  0.88259877342E+02  0.17852711018E+03 -0.90033510298E+02  0.21855838578E+03  0.00000000000E+00 0.  1.
         -1    1    6    6    0  503  0.22809555952E+03  0.28862921875E+03 -0.65116868275E+02  0.37359686391E+03  0.00000000000E+00 0. -1.
<mgrwt>
<rscale>  0 0.14868632E+04</rscale>
<asrwt>0</asrwt>
<pdfrwt beam="1">  1        2 0.16197097E+00 0.14868632E+04</pdfrwt>
<pdfrwt beam="2">  1       -1 0.80764065E-01 0.14868632E+04</pdfrwt>
<totfact> 0.39322331E+01</totfact>
</mgrwt>
</event>
<event>
12    7  0.1707730E-007  0.1167415E+04  0.7818608E-02  0.9141866E-01
          2   -1    0    0  501    0  0.00000000000E+00  0.00000000000E+00  0.35845069790E+04  0.35845069790E+04  0.00000000000E+00 0. -1.
         -1   -1    0    0    0  501 -0.00000000000E+00 -0.00000000000E+00 -0.95051923346E+02  0.95051923346E+02  0.00000000000E+00 0.  1.
         24    2    1    2    0    0  0.14252903346E+03  0.64381697127E+02  0.19942479754E+03  0.26544760304E+03  0.78947145468E+02 0.  0.
        254    2    1    2    0    0 -0.14252903346E+03 -0.64381697127E+02  0.32900302581E+04  0.34141112993E+04  0.89855291245E+03 0.  0.
         23    2    4    4    0    0 -0.16159212069E+03  0.23493494526E+01  0.32932497976E+04  0.32985050513E+04  0.92324489725E+02 0.  0.
         23    2    4    4    0    0  0.19063087230E+02 -0.66731046580E+02 -0.32195395181E+01  0.11560624794E+03  0.92401327132E+02 0.  0.
          4    1    3    3  502    0  0.32859766683E+02  0.54445614071E+02  0.90054318736E+02  0.11024458935E+03  0.00000000000E+00 0. -1.
         -3    1    3    3    0  502  0.10966926678E+03  0.99360830563E+01  0.10937047880E+03  0.15520301368E+03  0.00000000000E+00 0.  1.
         13    1    5    5    0    0 -0.11257111477E+03  0.32700779500E+02  0.26765808056E+04  0.26791465816E+04  0.00000000000E+00 0. -1.
        -13    1    5    5    0    0 -0.49021005920E+02 -0.30351430047E+02  0.61666899203E+03  0.61935846975E+03  0.00000000000E+00 0.  1.
          4    1    6    6  503    0 -0.30085125646E+01 -0.12319205468E+02 -0.42901787989E+02  0.44736756519E+02  0.00000000000E+00 0. -1.
         -4    1    6    6    0  503  0.22071599794E+02 -0.54411841112E+02  0.39682248470E+02  0.70869491421E+02  0.00000000000E+00 0.  1.
<mgrwt>
<rscale>  0 0.11674147E+04</rscale>
<asrwt>0</asrwt>
<pdfrwt beam="1">  1        2 0.55146251E+00 0.11674147E+04</pdfrwt>
<pdfrwt beam="2">  1       -1 0.14623376E-01 0.11674147E+04</pdfrwt>
<totfact> 0.28187191E+01</totfact>
</mgrwt>
</event>
<event>
12    7  0.1707730E-007  0.1475732E+04  0.7818608E-02  0.8900753E-01
          2   -1    0    0  501    0  0.00000000000E+00  0.00000000000E+00  0.85896681102E+03  0.85896681102E+03  0.00000000000E+00 0. -1.
         -1   -1    0    0    0  501 -0.00000000000E+00 -0.00000000000E+00 -0.63383825970E+03  0.63383825970E+03  0.00000000000E+00 0.  1.
         24    2    1    2    0    0 -0.10044651029E+03  0.24145076904E+03 -0.31198037057E+03  0.41469727417E+03  0.79082882338E+02 0.  0.
        254    2    1    2    0    0  0.10044651029E+03 -0.24145076904E+03  0.53710892189E+03  0.10781077966E+04  0.89746445708E+03 0.  0.
         23    2    4    4    0    0 -0.14109755812E+03 -0.16744846795E+03  0.71668567586E+03  0.75505753078E+03  0.92336376827E+02 0.  0.
         23    2    4    4    0    0  0.24154406840E+03 -0.74002301090E+02 -0.17957675396E+03  0.32305026578E+03  0.91070226239E+02 0.  0.
          4    1    3    3  502    0 -0.99936939271E+02  0.20716761075E+03 -0.30073686680E+03  0.37861388488E+03  0.00000000000E+00 0. -1.
         -3    1    3    3    0  502 -0.50957101617E+00  0.34283158293E+02 -0.11243503776E+02  0.36083389285E+02  0.00000000000E+00 0.  1.
         13    1    5    5    0    0 -0.14016210768E+03 -0.14786375287E+03  0.70082400211E+03  0.72983791884E+03  0.00000000000E+00 0. -1.
        -13    1    5    5    0    0 -0.93545043624E+00 -0.19584715085E+02  0.15861673746E+02  0.25219611942E+02  0.00000000000E+00 0.  1.
          1    1    6    6  503    0  0.16363102912E+03 -0.58286217814E+02 -0.69075193485E+02  0.18693255263E+03  0.00000000000E+00 0. -1.
         -1    1    6    6    0  503  0.77913039280E+02 -0.15716083275E+02 -0.11050156048E+03  0.13611771314E+03  0.00000000000E+00 0.  1.
<mgrwt>
<rscale>  0 0.14757317E+04</rscale>
<asrwt>0</asrwt>
<pdfrwt beam="1">  1        2 0.13214874E+00 0.14757317E+04</pdfrwt>
<pdfrwt beam="2">  1       -1 0.97513578E-01 0.14757317E+04</pdfrwt>
<totfact> 0.34903700E+01</totfact>
</mgrwt>
</event>
<event>
12    7  0.1707730E-007  0.1041468E+04  0.7818608E-02  0.9264197E-01
         -1   -1    0    0    0  501 -0.00000000000E+00  0.00000000000E+00  0.80671857278E+03  0.80671857278E+03  0.00000000000E+00 0.  1.
          2   -1    0    0  501    0  0.00000000000E+00 -0.00000000000E+00 -0.33613221943E+03  0.33613221943E+03  0.00000000000E+00 0. -1.
         24    2    1    2    0    0  0.65234032145E+01  0.97700650663E+02  0.10748246802E+03  0.16694137484E+03  0.82030297896E+02 0.  0.
        254    2    1    2    0    0 -0.65234032145E+01 -0.97700650663E+02  0.36310388534E+03  0.97590941736E+03  0.90053694395E+03 0.  0.
         23    2    4    4    0    0  0.37860584859E+03 -0.77502655868E+02  0.41687071154E+03  0.57605775831E+03  0.93339704949E+02 0.  0.
         23    2    4    4    0    0 -0.38512925180E+03 -0.20197994795E+02 -0.53766826203E+02  0.39985165905E+03  0.90873417784E+02 0.  0.
          2    1    3    3  502    0  0.50310442844E+01  0.36733576909E+02 -0.65261234319E+01  0.37646478802E+02  0.00000000000E+00 0. -1.
         -1    1    3    3    0  502  0.14923589301E+01  0.60967073754E+02  0.11400859145E+03  0.12929489604E+03  0.00000000000E+00 0.  1.
         13    1    5    5    0    0  0.16444649307E+03 -0.11694081194E+02  0.11894389552E+03  0.20329055782E+03  0.00000000000E+00 0.  1.
        -13    1    5    5    0    0  0.21415935552E+03 -0.65808574673E+02  0.29792681602E+03  0.37276720049E+03  0.00000000000E+00 0. -1.
          2    1    6    6  503    0 -0.36653593988E+03 -0.40084494332E+02 -0.46266068250E+02  0.37161258184E+03  0.00000000000E+00 0. -1.
         -2    1    6    6    0  503 -0.18593311926E+02  0.19886499537E+02 -0.75007579534E+01  0.28239077217E+02  0.00000000000E+00 0.  1.
<mgrwt>
<rscale>  0 0.10414684E+04</rscale>
<asrwt>0</asrwt>
<pdfrwt beam="1">  1        2 0.51712649E-01 0.10414684E+04</pdfrwt>
<pdfrwt beam="2">  1       -1 0.12411055E+00 0.10414684E+04</pdfrwt>
<totfact> 0.62875784E+01</totfact>
</mgrwt>
</event>
<event>
12    7  0.1707730E-007  0.1260987E+04  0.7818608E-02  0.9061088E-01
          2   -1    0    0  501    0  0.00000000000E+00  0.00000000000E+00  0.51119564612E+03  0.51119564612E+03  0.00000000000E+00 0. -1.
         -1   -1    0    0    0  501 -0.00000000000E+00 -0.00000000000E+00 -0.77763250540E+03  0.77763250540E+03  0.00000000000E+00 0.  1.
         24    2    1    2    0    0 -0.49762626713E+01 -0.28600447870E+03 -0.11911080757E+03  0.31987723918E+03  0.79440157598E+02 0.  0.
        254    2    1    2    0    0  0.49762626713E+01  0.28600447870E+03 -0.14732605171E+03  0.96895091234E+03  0.91396804101E+03 0.  0.
         23    2    4    4    0    0  0.27385553929E+03  0.51445911545E+03 -0.96214472532E+02  0.59920318070E+03  0.10060909088E+03 0.  0.
         23    2    4    4    0    0 -0.26887927662E+03 -0.22845463675E+03 -0.51111579174E+02  0.36974773164E+03  0.98047973358E+02 0.  0.
          4    1    3    3  502    0  0.58254162024E+01  0.80456474894E+00  0.44732010781E+01  0.73886620069E+01  0.00000000000E+00 0. -1.
         -3    1    3    3    0  502 -0.10801678874E+02 -0.28680904344E+03 -0.12358400865E+03  0.31248857717E+03  0.00000000000E+00 0.  1.
         13    1    5    5    0    0  0.49607259029E+01  0.68656503743E+02 -0.27262938712E+02  0.74037775053E+02  0.00000000000E+00 0. -1.
        -13    1    5    5    0    0  0.26889481339E+03  0.44580261170E+03 -0.68951533819E+02  0.52516540564E+03  0.00000000000E+00 0.  1.
          3    1    6    6  503    0 -0.40230326907E+02 -0.16661116326E+02  0.23206375436E+02  0.49341745624E+02  0.00000000000E+00 0. -1.
         -3    1    6    6    0  503 -0.22864894971E+03 -0.21179352042E+03 -0.74317954611E+02  0.32040598602E+03  0.00000000000E+00 0.  1.
<mgrwt>
<rscale>  0 0.12609875E+04</rscale>
<asrwt>0</asrwt>
<pdfrwt beam="1">  1        2 0.78645485E-01 0.12609875E+04</pdfrwt>
<pdfrwt beam="2">  1       -1 0.11963577E+00 0.12609875E+04</pdfrwt>
<totfact> 0.42077290E+01</totfact>
</mgrwt>
</event>
<event>
12    7  0.1707730E-007  0.1444941E+04  0.7818608E-02  0.8921915E-01
         -1   -1    0    0    0  501 -0.00000000000E+00  0.00000000000E+00  0.29876639421E+03  0.29876639421E+03  0.00000000000E+00 0.  1.
          2   -1    0    0  501    0  0.00000000000E+00 -0.00000000000E+00 -0.17470628741E+04  0.17470628741E+04  0.00000000000E+00 0. -1.
         24    2    1    2    0    0  0.22941015090E+03  0.14032371374E+03 -0.92950524634E+03  0.97093692652E+03  0.80117103892E+02 0.  0.
        254    2    1    2    0    0 -0.22941015090E+03 -0.14032371374E+03 -0.51879123359E+03  0.10748923418E+04  0.90218038134E+03 0.  0.
         23    2    4    4    0    0 -0.91494723126E+02 -0.44991274495E+03 -0.24966861185E+02  0.46928115612E+03  0.93854658375E+02 0.  0.
         23    2    4    4    0    0 -0.13791542778E+03  0.30958903121E+03 -0.49382437240E+03  0.60561118570E+03  0.89645769571E+02 0.  0.
          2    1    3    3  502    0  0.21240903180E+03  0.14968703915E+03 -0.88552849920E+03  0.92286755787E+03  0.00000000000E+00 0. -1.
         -1    1    3    3    0  502  0.17001119103E+02 -0.93633254036E+01 -0.43976747133E+02  0.48069368643E+02  0.00000000000E+00 0.  1.
         13    1    5    5    0    0  0.85055107531E+01 -0.11461174620E+03 -0.32056429727E+02  0.11931391690E+03  0.00000000000E+00 0.  1.
        -13    1    5    5    0    0 -0.10000023388E+03 -0.33530099876E+03  0.70895685421E+01  0.34996723922E+03  0.00000000000E+00 0. -1.
          1    1    6    6  503    0 -0.36921996740E+01  0.80444568344E+02 -0.15925991978E+03  0.17846199305E+03  0.00000000000E+00 0.  1.
         -1    1    6    6    0  503 -0.13422322810E+03  0.22914446287E+03 -0.33456445262E+03  0.42714919265E+03  0.00000000000E+00 0. -1.
<mgrwt>
<rscale>  0 0.14449411E+04</rscale>
<asrwt>0</asrwt>
<pdfrwt beam="1">  1        2 0.26877890E+00 0.14449411E+04</pdfrwt>
<pdfrwt beam="2">  1       -1 0.45964061E-01 0.14449411E+04</pdfrwt>
<totfact> 0.48030347E+01</totfact>
</mgrwt>
</event>
<event>
12    7  0.1707730E-007  0.1631826E+04  0.7818608E-02  0.8801231E-01
          2   -1    0    0  501    0  0.00000000000E+00  0.00000000000E+00  0.17636569108E+04  0.17636569108E+04  0.00000000000E+00 0. -1.
         -1   -1    0    0    0  501 -0.00000000000E+00 -0.00000000000E+00 -0.37746253875E+03  0.37746253875E+03  0.00000000000E+00 0.  1.
         24    2    1    2    0    0 -0.14435762931E+03 -0.26954726190E+03 -0.13966868137E+03  0.34547380152E+03  0.79686607683E+02 0.  0.
        254    2    1    2    0    0  0.14435762931E+03  0.26954726190E+03  0.15258630534E+04  0.17956456480E+04  0.89587408933E+03 0.  0.
         23    2    4    4    0    0 -0.16619377364E+03 -0.55071845326E+01  0.13003881750E+04  0.13141987053E+04  0.91968101575E+02 0.  0.
         23    2    4    4    0    0  0.31055140295E+03  0.27505444643E+03  0.22547487834E+03  0.48144694270E+03  0.94101623271E+02 0.  0.
          4    1    3    3  502    0 -0.10676368573E+03 -0.14906662148E+03 -0.48143922412E+02  0.18957104077E+03  0.00000000000E+00 0. -1.
         -3    1    3    3    0  502 -0.37593943579E+02 -0.12048064041E+03 -0.91524758959E+02  0.15590276075E+03  0.00000000000E+00 0.  1.
         13    1    5    5    0    0  0.11510859051E+02 -0.12235332968E+01  0.11080780374E+03  0.11141079965E+03  0.00000000000E+00 0.  1.
        -13    1    5    5    0    0 -0.17770463269E+03 -0.42836512359E+01  0.11895803713E+04  0.12027879056E+04  0.00000000000E+00 0. -1.
          4    1    6    6  503    0  0.13393615796E+03  0.11514291264E+03  0.14941514440E+03  0.23134750942E+03  0.00000000000E+00 0. -1.
         -4    1    6    6    0  503  0.17661524499E+03  0.15991153378E+03  0.76059733944E+02  0.25009943328E+03  0.00000000000E+00 0.  1.
<mgrwt>
<rscale>  0 0.16318265E+04</rscale>
<asrwt>0</asrwt>
<pdfrwt beam="1">  1        2 0.27133183E+00 0.16318265E+04</pdfrwt>
<pdfrwt beam="2">  1       -1 0.58071161E-01 0.16318265E+04</pdfrwt>
<totfact> 0.29592113E+01</totfact>
</mgrwt>
</event>
<event>
12    7  0.1707730E-007  0.1772687E+04  0.7818608E-02  0.8720960E-01
          2   -1    0    0  501    0  0.00000000000E+00  0.00000000000E+00  0.20276404807E+04  0.20276404807E+04  0.00000000000E+00 0. -1.
         -1   -1    0    0    0  501 -0.00000000000E+00 -0.00000000000E+00 -0.38744784846E+03  0.38744784846E+03  0.00000000000E+00 0.  1.
         24    2    1    2    0    0 -0.59134375449E+02 -0.11118012206E+03 -0.26595797268E+03  0.30495168407E+03  0.80024949145E+02 0.  0.
        254    2    1    2    0    0  0.59134375449E+02  0.11118012206E+03  0.19061506049E+04  0.21101366451E+04  0.89633065237E+03 0.  0.
         23    2    4    4    0    0 -0.22506830625E+03 -0.32866263471E+02  0.17042060520E+04  0.17217219913E+04  0.90952811856E+02 0.  0.
         23    2    4    4    0    0  0.28420268170E+03  0.14404638553E+03  0.20194455295E+03  0.38841465379E+03  0.92540884677E+02 0.  0.
          2    1    3    3  502    0  0.20099631556E+02 -0.19938843637E+02 -0.53621582153E+02  0.60636843147E+02  0.00000000000E+00 0. -1.
         -1    1    3    3    0  502 -0.79234007006E+02 -0.91241278422E+02 -0.21233639053E+03  0.24431484093E+03  0.00000000000E+00 0.  1.
         13    1    5    5    0    0 -0.78389024281E+01 -0.21567909659E+02  0.87974365391E+02  0.90918161465E+02  0.00000000000E+00 0.  1.
        -13    1    5    5    0    0 -0.21722940383E+03 -0.11298353812E+02  0.16162316866E+04  0.16308038298E+04  0.00000000000E+00 0. -1.
          3    1    6    6  503    0  0.19471326899E+03  0.48159526744E+02  0.12539610227E+03  0.23655185394E+03  0.00000000000E+00 0. -1.
         -3    1    6    6    0  503  0.89489412712E+02  0.95886858786E+02  0.76548450679E+02  0.15186279985E+03  0.00000000000E+00 0.  1.
<mgrwt>
<rscale>  0 0.17726872E+04</rscale>
<asrwt>0</asrwt>
<pdfrwt beam="1">  1        2 0.31194468E+00 0.17726872E+04</pdfrwt>
<pdfrwt beam="2">  1       -1 0.59607362E-01 0.17726872E+04</pdfrwt>
<totfact> 0.19827568E+01</totfact>
</mgrwt>
</event>
<event>
12    7  0.1707730E-007  0.1094229E+04  0.7818608E-02  0.9210835E-01
         -3   -1    0    0    0  501 -0.00000000000E+00  0.00000000000E+00  0.33771361669E+03  0.33771361669E+03  0.00000000000E+00 0.  1.
          2   -1    0    0  501    0  0.00000000000E+00 -0.00000000000E+00 -0.88635505041E+03  0.88635505041E+03  0.00000000000E+00 0. -1.
         24    2    1    2    0    0  0.49179171555E+00 -0.15951110838E+03 -0.80064541195E+02  0.19518664151E+03  0.79015559927E+02 0.  0.
        254    2    1    2    0    0 -0.49179171555E+00  0.15951110838E+03 -0.46857689253E+03  0.10288820256E+04  0.90199217447E+03 0.  0.
         23    2    4    4    0    0  0.24466289343E+03 -0.57061988222E+02  0.16007790685E+03  0.31455948183E+03  0.10102835952E+03 0.  0.
         23    2    4    4    0    0 -0.24515468514E+03  0.21657309660E+03 -0.62865479938E+03  0.71432254376E+03  0.89694559034E+02 0.  0.
          4    1    3    3  502    0 -0.21710137787E+02 -0.11904860340E+03 -0.86274087365E+02  0.14861735499E+03  0.00000000000E+00 0. -1.
         -3    1    3    3    0  502  0.22201929503E+02 -0.40462504976E+02  0.62095461703E+01  0.46569286512E+02  0.00000000000E+00 0.  1.
         13    1    5    5    0    0  0.17743511956E+03 -0.83297218060E+02  0.96952960542E+02  0.21868133150E+03  0.00000000000E+00 0. -1.
        -13    1    5    5    0    0  0.67227773867E+02  0.26235229838E+02  0.63124946308E+02  0.95878150327E+02  0.00000000000E+00 0.  1.
          1    1    6    6  503    0 -0.20931136596E+03  0.18010074614E+03 -0.58574211972E+03  0.64756571674E+03  0.00000000000E+00 0. -1.
         -1    1    6    6    0  503 -0.35843319180E+02  0.36472350465E+02 -0.42912679658E+02  0.66756827019E+02  0.00000000000E+00 0.  1.
<mgrwt>
<rscale>  0 0.10942288E+04</rscale>
<asrwt>0</asrwt>
<pdfrwt beam="1">  1        2 0.13636231E+00 0.10942288E+04</pdfrwt>
<pdfrwt beam="2">  1       -3 0.51955942E-01 0.10942288E+04</pdfrwt>
<totfact> 0.69420178E+01</totfact>
</mgrwt>
</event>
<event>
12    7  0.1707730E-007  0.1329891E+04  0.7818608E-02  0.9006192E-01
         -1   -1    0    0    0  501 -0.00000000000E+00  0.00000000000E+00  0.83449045401E+03  0.83449045401E+03  0.00000000000E+00 0.  1.
          2   -1    0    0  501    0  0.00000000000E+00 -0.00000000000E+00 -0.52984699578E+03  0.52984699578E+03  0.00000000000E+00 0. -1.
         24    2    1    2    0    0 -0.25711959646E+03  0.22793025746E+03  0.15948463137E+03  0.38963642709E+03  0.91205857970E+02 0.  0.
        254    2    1    2    0    0  0.25711959646E+03 -0.22793025746E+03  0.14515882686E+03  0.97470102269E+03  0.90050447499E+03 0.  0.
         23    2    4    4    0    0 -0.24888623158E+03 -0.18489711018E+03 -0.17534626872E+03  0.36752685903E+03  0.90544908926E+02 0.  0.
         23    2    4    4    0    0  0.50600582803E+03 -0.43033147276E+02  0.32050509558E+03  0.60717416367E+03  0.89683883541E+02 0.  0.
          4    1    3    3  502    0 -0.14931665242E+03  0.15169930045E+03  0.51323903022E+02  0.21895726402E+03  0.00000000000E+00 0. -1.
         -3    1    3    3    0  502 -0.10780294404E+03  0.76230957003E+02  0.10816072835E+03  0.17067916307E+03  0.00000000000E+00 0.  1.
         13    1    5    5    0    0 -0.88934324170E+02 -0.25746257276E+02 -0.23407160402E+02  0.95499104381E+02  0.00000000000E+00 0.  1.
        -13    1    5    5    0    0 -0.15995190741E+03 -0.15915085290E+03 -0.15193910831E+03  0.27202775465E+03  0.00000000000E+00 0. -1.
          3    1    6    6  503    0  0.46143022636E+03 -0.14136815563E+02  0.27590387821E+03  0.53781098293E+03  0.00000000000E+00 0. -1.
         -3    1    6    6    0  503  0.44575601673E+02 -0.28896331713E+02  0.44601217365E+02  0.69363180734E+02  0.00000000000E+00 0.  1.
<mgrwt>
<rscale>  0 0.13298906E+04</rscale>
<asrwt>0</asrwt>
<pdfrwt beam="1">  1        2 0.81514923E-01 0.13298906E+04</pdfrwt>
<pdfrwt beam="2">  1       -1 0.12838315E+00 0.13298906E+04</pdfrwt>
<totfact> 0.33688552E+01</totfact>
</mgrwt>
</event>
<event>
12    7  0.1707730E-007  0.1352674E+04  0.7818608E-02  0.8988806E-01
         -1   -1    0    0    0  501 -0.00000000000E+00  0.00000000000E+00  0.15829670416E+03  0.15829670416E+03  0.00000000000E+00 0.  1.
          2   -1    0    0  501    0  0.00000000000E+00 -0.00000000000E+00 -0.28897116974E+04  0.28897116974E+04  0.00000000000E+00 0. -1.
         24    2    1    2    0    0  0.31799701147E+03  0.15156148912E+03 -0.61364012396E+03  0.71193795115E+03  0.78793783137E+02 0.  0.
        254    2    1    2    0    0 -0.31799701147E+03 -0.15156148912E+03 -0.21177748693E+04  0.23360704504E+04  0.92095698489E+03 0.  0.
         23    2    4    4    0    0  0.65246757398E+02 -0.43924417788E+03 -0.67544097315E+03  0.81345464538E+03  0.91078892953E+02 0.  0.
         23    2    4    4    0    0 -0.38324376887E+03  0.28768268876E+03 -0.14423338961E+04  0.15226158050E+04  0.91622628110E+02 0.  0.
          4    1    3    3  502    0  0.96638849755E+00  0.10803478599E+02 -0.41194614572E+02  0.42598654043E+02  0.00000000000E+00 0. -1.
         -3    1    3    3    0  502  0.31703062298E+03  0.14075801052E+03 -0.57244550939E+03  0.66933929711E+03  0.00000000000E+00 0.  1.
         13    1    5    5    0    0  0.53745006453E+02 -0.38738767324E+03 -0.63848651473E+03  0.74874746383E+03  0.00000000000E+00 0. -1.
        -13    1    5    5    0    0  0.11501750945E+02 -0.51856504640E+02 -0.36954458418E+02  0.64707181559E+02  0.00000000000E+00 0.  1.
          2    1    6    6  503    0 -0.35129698038E+03  0.27919072340E+03 -0.13907456403E+04  0.14613454295E+04  0.00000000000E+00 0. -1.
         -2    1    6    6    0  503 -0.31946788496E+02  0.84919653594E+01 -0.51588255844E+02  0.61270375484E+02  0.00000000000E+00 0.  1.
<mgrwt>
<rscale>  0 0.13526741E+04</rscale>
<asrwt>0</asrwt>
<pdfrwt beam="1">  1        2 0.44457100E+00 0.13526741E+04</pdfrwt>
<pdfrwt beam="2">  1       -1 0.24353341E-01 0.13526741E+04</pdfrwt>
<totfact> 0.33506704E+01</totfact>
</mgrwt>
</event>
<event>
12    7  0.2094387E-007  0.2366597E+04  0.7818608E-02  0.8452116E-01
         -1   -1    0    0    0  501 -0.00000000000E+00  0.00000000000E+00  0.12103964810E+04  0.12103964810E+04  0.00000000000E+00 0.  1.
          2   -1    0    0  501    0  0.00000000000E+00 -0.00000000000E+00 -0.11568076675E+04  0.11568076675E+04  0.00000000000E+00 0. -1.
         24    2    1    2    0    0  0.68918427249E+02  0.63899396956E+03 -0.75384089937E+03  0.99479996467E+03  0.91037494509E+02 0.  0.
        254    2    1    2    0    0 -0.68918427249E+02 -0.63899396956E+03  0.80742971289E+03  0.13724041838E+04  0.90470296770E+03 0.  0.
         23    2    4    4    0    0  0.15017485713E+03  0.41849188100E+02 -0.10551592040E+03  0.20911761304E+03  0.91064396829E+02 0.  0.
         23    2    4    4    0    0 -0.21909328438E+03 -0.68084315766E+03  0.91294563329E+03  0.11632865708E+04  0.90645704936E+02 0.  0.
          2    1    3    3  502    0  0.51856162952E+02  0.55247055075E+03 -0.59840798735E+03  0.81609122677E+03  0.00000000000E+00 0. -1.
         -1    1    3    3    0  502  0.17062264297E+02  0.86523418805E+02 -0.15543291202E+03  0.17870873790E+03  0.00000000000E+00 0.  1.
         13    1    5    5    0    0  0.33467283310E+02  0.39085196269E+02 -0.70419226423E+02  0.87215704260E+02  0.00000000000E+00 0.  1.
        -13    1    5    5    0    0  0.11670757382E+03  0.27639918311E+01 -0.35096693973E+02  0.12190190878E+03  0.00000000000E+00 0. -1.
          2    1    6    6  503    0 -0.99032558894E+02 -0.44977560992E+03  0.58210628982E+03  0.74226227148E+03  0.00000000000E+00 0.  1.
         -2    1    6    6    0  503 -0.12006072548E+03 -0.23106754774E+03  0.33083934347E+03  0.42102429930E+03  0.00000000000E+00 0. -1.
<mgrwt>
<rscale>  0 0.23665975E+04</rscale>
<asrwt>0</asrwt>
<pdfrwt beam="1">  1        2 0.17797041E+00 0.23665975E+04</pdfrwt>
<pdfrwt beam="2">  1       -1 0.18621484E+00 0.23665975E+04</pdfrwt>
<totfact> 0.38841399E+00</totfact>
</mgrwt>
</event>
<event>
12    7  0.1707730E-007  0.2782512E+04  0.7818608E-02  0.8308718E-01
          2   -1    0    0  501    0  0.00000000000E+00  0.00000000000E+00  0.38720084637E+04  0.38720084637E+04  0.00000000000E+00 0. -1.
         -1   -1    0    0    0  501 -0.00000000000E+00 -0.00000000000E+00 -0.49989389956E+03  0.49989389956E+03  0.00000000000E+00 0.  1.
         24    2    1    2    0    0  0.69984652235E+03  0.16927859210E+03 -0.89002221769E+02  0.73007779655E+03  0.81558549187E+02 0.  0.
        254    2    1    2    0    0 -0.69984652235E+03 -0.16927859210E+03  0.34611167859E+04  0.36418245667E+04  0.87470930738E+03 0.  0.
         23    2    4    4    0    0 -0.45742499591E+03 -0.50158424627E+03  0.25089043600E+04  0.26006600339E+04  0.89482632256E+02 0.  0.
         23    2    4    4    0    0 -0.24242152644E+03  0.33230565417E+03  0.95221242586E+03  0.10411645327E+04  0.90110132535E+02 0.  0.
          2    1    3    3  502    0  0.70202501252E+02  0.86181948344E+01  0.14128883160E+02  0.72126900693E+02  0.00000000000E+00 0. -1.
         -1    1    3    3    0  502  0.62964402110E+03  0.16066039727E+03 -0.10313110493E+03  0.65795089586E+03  0.00000000000E+00 0.  1.
         13    1    5    5    0    0 -0.37513217269E+03 -0.45649992833E+03  0.21716292108E+04  0.22505754289E+04  0.00000000000E+00 0.  1.
        -13    1    5    5    0    0 -0.82292823213E+02 -0.45084317939E+02  0.33727514917E+03  0.35008460509E+03  0.00000000000E+00 0. -1.
          2    1    6    6  503    0 -0.63808851208E+02  0.15848247811E+03  0.42308466634E+03  0.45627721864E+03  0.00000000000E+00 0. -1.
         -2    1    6    6    0  503 -0.17861267524E+03  0.17382317605E+03  0.52912775951E+03  0.58488731409E+03  0.00000000000E+00 0.  1.
<mgrwt>
<rscale>  0 0.27825121E+04</rscale>
<asrwt>0</asrwt>
<pdfrwt beam="1">  1        2 0.59569359E+00 0.27825121E+04</pdfrwt>
<pdfrwt beam="2">  1       -1 0.76906756E-01 0.27825121E+04</pdfrwt>
<totfact> 0.72654918E-01</totfact>
</mgrwt>
</event>
<event>
12    7  0.1707730E-007  0.2092856E+04  0.7818608E-02  0.8564397E-01
          2   -1    0    0  501    0  0.00000000000E+00  0.00000000000E+00  0.10427086178E+04  0.10427086178E+04  0.00000000000E+00 0. -1.
         -1   -1    0    0    0  501 -0.00000000000E+00 -0.00000000000E+00 -0.10501607849E+04  0.10501607849E+04  0.00000000000E+00 0.  1.
         24    2    1    2    0    0 -0.49149781984E+03 -0.38719252637E+03 -0.58234362886E+03  0.85726827032E+03  0.65548652445E+02 0.  0.
        254    2    1    2    0    0  0.49149781984E+03  0.38719252637E+03  0.57489146177E+03  0.12356011324E+04  0.89706287756E+03 0.  0.
         23    2    4    4    0    0 -0.29870157666E+02  0.32385583740E+03 -0.12163882550E+03  0.35897760036E+03  0.91071861471E+02 0.  0.
         23    2    4    4    0    0  0.52136797751E+03  0.63336688963E+02  0.69653028727E+03  0.87662353209E+03  0.86477001483E+02 0.  0.
          4    1    3    3  502    0 -0.42906424511E+02 -0.14656101366E+02 -0.52752363428E+02  0.69559862125E+02  0.00000000000E+00 0. -1.
         -3    1    3    3    0  502 -0.44859139533E+03 -0.37253642500E+03 -0.52959126543E+03  0.78770840819E+03  0.00000000000E+00 0.  1.
         13    1    5    5    0    0  0.80816817850E+01  0.53018754688E+02 -0.56384451349E+02  0.77817146459E+02  0.00000000000E+00 0. -1.
        -13    1    5    5    0    0 -0.37951839451E+02  0.27083708272E+03 -0.65254374148E+02  0.28116045390E+03  0.00000000000E+00 0.  1.
          3    1    6    6  503    0  0.33848742283E+02  0.12210196330E+02  0.19993818822E+02  0.41165264965E+02  0.00000000000E+00 0. -1.
         -3    1    6    6    0  503  0.48751923523E+03  0.51126492633E+02  0.67653646844E+03  0.83545826712E+03  0.00000000000E+00 0.  1.
<mgrwt>
<rscale>  0 0.20928561E+04</rscale>
<asrwt>0</asrwt>
<pdfrwt beam="1">  1        2 0.16041671E+00 0.20928561E+04</pdfrwt>
<pdfrwt beam="2">  1       -1 0.16156320E+00 0.20928561E+04</pdfrwt>
<totfact> 0.70755985E+00</totfact>
</mgrwt>
</event>
<event>
12    7  0.1707730E-007  0.1615754E+04  0.7818608E-02  0.8810928E-01
         -1   -1    0    0    0  501 -0.00000000000E+00  0.00000000000E+00  0.34065137672E+03  0.34065137672E+03  0.00000000000E+00 0.  1.
          2   -1    0    0  501    0  0.00000000000E+00 -0.00000000000E+00 -0.19159331905E+04  0.19159331905E+04  0.00000000000E+00 0. -1.
         24    2    1    2    0    0  0.43732049115E+03  0.28614491984E+03 -0.80719985764E+03  0.96479294707E+03  0.78266809160E+02 0.  0.
        254    2    1    2    0    0 -0.43732049115E+03 -0.28614491984E+03 -0.76808195610E+03  0.12917916201E+04  0.89757872711E+03 0.  0.
         23    2    4    4    0    0 -0.65502913912E+03 -0.40364580576E+03 -0.58229035317E+03  0.96927965297E+03  0.91912353235E+02 0.  0.
         23    2    4    4    0    0  0.21770864796E+03  0.11750088592E+03 -0.18579160293E+03  0.32251196713E+03  0.91060066075E+02 0.  0.
          4    1    3    3  502    0  0.36441132570E+03  0.25756427748E+03 -0.64061464273E+03  0.78071895828E+03  0.00000000000E+00 0. -1.
         -3    1    3    3    0  502  0.72909165452E+02  0.28580642357E+02 -0.16658521491E+03  0.18407398880E+03  0.00000000000E+00 0.  1.
         13    1    5    5    0    0 -0.57366699722E+03 -0.38081074535E+03 -0.49678755589E+03  0.84906332106E+03  0.00000000000E+00 0. -1.
        -13    1    5    5    0    0 -0.81362141896E+02 -0.22835060413E+02 -0.85502797275E+02  0.12021633192E+03  0.00000000000E+00 0.  1.
          1    1    6    6  503    0  0.16887446377E+02 -0.64827641589E+01  0.52888165344E+01  0.18846316792E+02  0.00000000000E+00 0.  1.
         -1    1    6    6    0  503  0.20082120158E+03  0.12398365008E+03 -0.19108041946E+03  0.30366565034E+03  0.00000000000E+00 0. -1.
<mgrwt>
<rscale>  0 0.16157540E+04</rscale>
<asrwt>0</asrwt>
<pdfrwt beam="1">  1        2 0.29475896E+00 0.16157540E+04</pdfrwt>
<pdfrwt beam="2">  1       -1 0.52407903E-01 0.16157540E+04</pdfrwt>
<totfact> 0.29776583E+01</totfact>
</mgrwt>
</event>
<event>
12    7  0.1707730E-007  0.1751331E+04  0.7818608E-02  0.8732618E-01
          2   -1    0    0  501    0  0.00000000000E+00  0.00000000000E+00  0.32406783458E+04  0.32406783458E+04  0.00000000000E+00 0. -1.
         -1   -1    0    0    0  501 -0.00000000000E+00 -0.00000000000E+00 -0.23661413597E+03  0.23661413597E+03  0.00000000000E+00 0.  1.
         24    2    1    2    0    0  0.58117301954E+03  0.27260008425E+03  0.10901374037E+04  0.12675841074E+04  0.79353801454E+02 0.  0.
        254    2    1    2    0    0 -0.58117301954E+03 -0.27260008425E+03  0.19139268061E+04  0.22097083743E+04  0.89867813813E+03 0.  0.
         23    2    4    4    0    0 -0.21078314054E+03  0.25654372320E+03  0.11713076035E+04  0.12207650127E+04  0.89785856616E+02 0.  0.
         23    2    4    4    0    0 -0.37038987900E+03 -0.52914380744E+03  0.74261920259E+03  0.98894336160E+03  0.96663648641E+02 0.  0.
          4    1    3    3  502    0  0.28271576527E+03  0.16831938017E+03  0.60093804287E+03  0.68511761694E+03  0.00000000000E+00 0. -1.
         -3    1    3    3    0  502  0.29845725427E+03  0.10428070408E+03  0.48919936088E+03  0.58246649050E+03  0.00000000000E+00 0.  1.
         13    1    5    5    0    0 -0.71501613961E+02  0.29327360538E+02  0.27941667813E+03  0.28990732121E+03  0.00000000000E+00 0. -1.
        -13    1    5    5    0    0 -0.13928152657E+03  0.22721636266E+03  0.89189092538E+03  0.93085769153E+03  0.00000000000E+00 0.  1.
          4    1    6    6  503    0 -0.11376225523E+03 -0.11678585439E+03  0.13949097473E+03  0.21456588389E+03  0.00000000000E+00 0. -1.
         -4    1    6    6    0  503 -0.25662762377E+03 -0.41235795306E+03  0.60312822786E+03  0.77437747770E+03  0.00000000000E+00 0.  1.
<mgrwt>
<rscale>  0 0.17513313E+04</rscale>
<asrwt>0</asrwt>
<pdfrwt beam="1">  1        2 0.49856587E+00 0.17513313E+04</pdfrwt>
<pdfrwt beam="2">  1       -1 0.36402177E-01 0.17513313E+04</pdfrwt>
<totfact> 0.95739694E+00</totfact>
</mgrwt>
</event>
<event>
12    7  0.1707730E-007  0.2010195E+04  0.7818608E-02  0.8601869E-01
         -1   -1    0    0    0  501 -0.00000000000E+00  0.00000000000E+00  0.87310280725E+03  0.87310280725E+03  0.00000000000E+00 0.  1.
          2   -1    0    0  501    0  0.00000000000E+00 -0.00000000000E+00 -0.11570475046E+04  0.11570475046E+04  0.00000000000E+00 0. -1.
         24    2    1    2    0    0 -0.59002753437E+03  0.65215956755E+02  0.44941353529E+03  0.74882764271E+03  0.79904320622E+02 0.  0.
        254    2    1    2    0    0  0.59002753437E+03 -0.65215956755E+02 -0.73335823268E+03  0.12813226692E+04  0.86694167784E+03 0.  0.
         23    2    4    4    0    0  0.60026037059E+03 -0.30323478606E+03 -0.76688967219E+03  0.10242550734E+04  0.93353296928E+02 0.  0.
         23    2    4    4    0    0 -0.10232836216E+02  0.23801882930E+03  0.33531439515E+02  0.25706759580E+03  0.90563333286E+02 0.  0.
          2    1    3    3  502    0 -0.50543641327E+03  0.43797049306E+02  0.34891336295E+03  0.61573101614E+03  0.00000000000E+00 0. -1.
         -1    1    3    3    0  502 -0.84591121103E+02  0.21418907449E+02  0.10050017233E+03  0.13309662657E+03  0.00000000000E+00 0.  1.
         13    1    5    5    0    0  0.38885621783E+02 -0.46969938846E+02 -0.84692560182E+02  0.10436041628E+03  0.00000000000E+00 0.  1.
        -13    1    5    5    0    0  0.56137474881E+03 -0.25626484721E+03 -0.68219711201E+03  0.91989465709E+03  0.00000000000E+00 0. -1.
          2    1    6    6  503    0  0.22519412129E+02  0.97951517237E+02 -0.21980334725E+02  0.10288225681E+03  0.00000000000E+00 0.  1.
         -2    1    6    6    0  503 -0.32752248345E+02  0.14006731206E+03  0.55511774240E+02  0.15418533899E+03  0.00000000000E+00 0. -1.
<mgrwt>
<rscale>  0 0.20101954E+04</rscale>
<asrwt>0</asrwt>
<pdfrwt beam="1">  1        2 0.17800731E+00 0.20101954E+04</pdfrwt>
<pdfrwt beam="2">  1       -1 0.13432351E+00 0.20101954E+04</pdfrwt>
<totfact> 0.99302197E+00</totfact>
</mgrwt>
</event>
<event>
12    7  0.1707730E-007  0.1284469E+04  0.7818608E-02  0.9041973E-01
          2   -1    0    0  501    0  0.00000000000E+00  0.00000000000E+00  0.46581527511E+03  0.46581527511E+03  0.00000000000E+00 0. -1.
         -1   -1    0    0    0  501 -0.00000000000E+00 -0.00000000000E+00 -0.88546914303E+03  0.88546914303E+03  0.00000000000E+00 0.  1.
         24    2    1    2    0    0  0.19182018965E+03  0.14389170843E+03 -0.31765371975E+03  0.40625065127E+03  0.81461015627E+02 0.  0.
        254    2    1    2    0    0 -0.19182018965E+03 -0.14389170843E+03 -0.10200014817E+03  0.94503376687E+03  0.90839692942E+03 0.  0.
         23    2    4    4    0    0 -0.12738635677E+03 -0.50082743501E+03 -0.19522564669E+03  0.55988182226E+03  0.91099935373E+02 0.  0.
         23    2    4    4    0    0 -0.64433832876E+02  0.35693572658E+03  0.93225498527E+02  0.38515194461E+03  0.89978859365E+02 0.  0.
          4    1    3    3  502    0  0.64591135113E+01  0.37314401327E+01 -0.55193849044E+02  0.55695644041E+02  0.00000000000E+00 0. -1.
         -3    1    3    3    0  502  0.18536107614E+03  0.14016026830E+03 -0.26245987071E+03  0.35055500722E+03  0.00000000000E+00 0.  1.
         13    1    5    5    0    0 -0.88968042990E+02 -0.45921871972E+03 -0.16766624164E+03  0.49689950071E+03  0.00000000000E+00 0. -1.
        -13    1    5    5    0    0 -0.38418313785E+02 -0.41608715286E+02 -0.27559405052E+02  0.62982321556E+02  0.00000000000E+00 0.  1.
          3    1    6    6  503    0 -0.48905104469E+02  0.33305164674E+03  0.60940382766E+02  0.34209478056E+03  0.00000000000E+00 0. -1.
         -3    1    6    6    0  503 -0.15528728407E+02  0.23884079841E+02  0.32285115761E+02  0.43057164044E+02  0.00000000000E+00 0.  1.
<mgrwt>
<rscale>  0 0.12844688E+04</rscale>
<asrwt>0</asrwt>
<pdfrwt beam="1">  1        2 0.71663889E-01 0.12844688E+04</pdfrwt>
<pdfrwt beam="2">  1       -1 0.13622602E+00 0.12844688E+04</pdfrwt>
<totfact> 0.33770246E+01</totfact>
</mgrwt>
</event>
<event>
12    7  0.1707730E-007  0.1826065E+04  0.7818608E-02  0.8692560E-01
          2   -1    0    0  501    0  0.00000000000E+00  0.00000000000E+00  0.61753274172E+03  0.61753274172E+03  0.00000000000E+00 0. -1.
         -1   -1    0    0    0  501 -0.00000000000E+00 -0.00000000000E+00 -0.13499334995E+04  0.13499334995E+04  0.00000000000E+00 0.  1.
         24    2    1    2    0    0 -0.63692652238E+03 -0.23998152363E+03 -0.16191317154E+03  0.70445057280E+03  0.82269118160E+02 0.  0.
        254    2    1    2    0    0  0.63692652238E+03  0.23998152363E+03 -0.57048758625E+03  0.12630156684E+04  0.89804563694E+03 0.  0.
         23    2    4    4    0    0 -0.11376582660E+03  0.29915775514E+03 -0.34587875248E+02  0.33433852088E+03  0.90265717028E+02 0.  0.
         23    2    4    4    0    0  0.75069234898E+03 -0.59176231507E+02 -0.53589971100E+03  0.92867714754E+03  0.90619616665E+02 0.  0.
          4    1    3    3  502    0 -0.25204449939E+03 -0.66604216649E+02 -0.31261130293E+02  0.26256391529E+03  0.00000000000E+00 0. -1.
         -3    1    3    3    0  502 -0.38488202299E+03 -0.17337730698E+03 -0.13065204125E+03  0.44188665751E+03  0.00000000000E+00 0.  1.
         13    1    5    5    0    0 -0.10385217936E+02  0.13919648430E+03 -0.34890324839E+02  0.14387789532E+03  0.00000000000E+00 0.  1.
        -13    1    5    5    0    0 -0.10338060866E+03  0.15996127084E+03  0.30244959107E+00  0.19046062557E+03  0.00000000000E+00 0. -1.
          4    1    6    6  503    0  0.18953427882E+03  0.19756028928E+02 -0.15806004899E+03  0.24758134544E+03  0.00000000000E+00 0. -1.
         -4    1    6    6    0  503  0.56115807016E+03 -0.78932260435E+02 -0.37783966201E+03  0.68109580210E+03  0.00000000000E+00 0.  1.
<mgrwt>
<rscale>  0 0.18260648E+04</rscale>
<asrwt>0</asrwt>
<pdfrwt beam="1">  1        2 0.95005039E-01 0.18260648E+04</pdfrwt>
<pdfrwt beam="2">  1       -1 0.20768207E+00 0.18260648E+04</pdfrwt>
<totfact> 0.68681822E+00</totfact>
</mgrwt>
</event>
<event>
12    7  0.1707730E-007  0.1743417E+04  0.7818608E-02  0.8736982E-01
         -1   -1    0    0    0  501 -0.00000000000E+00  0.00000000000E+00  0.65862043156E+03  0.65862043156E+03  0.00000000000E+00 0.  1.
          2   -1    0    0  501    0  0.00000000000E+00 -0.00000000000E+00 -0.11537383228E+04  0.11537383228E+04  0.00000000000E+00 0. -1.
         24    2    1    2    0    0  0.42566462318E+03 -0.16804049268E+03  0.28701498059E+03  0.54619729773E+03  0.80783106854E+02 0.  0.
        254    2    1    2    0    0 -0.42566462318E+03  0.16804049268E+03 -0.78213287182E+03  0.12661614566E+04  0.88431048081E+03 0.  0.
         23    2    4    4    0    0 -0.37108804895E+03  0.35960492496E+03 -0.88169044054E+03  0.10258723720E+04  0.89521217979E+02 0.  0.
         23    2    4    4    0    0 -0.54576574233E+02 -0.19156443228E+03  0.99557568717E+02  0.24028908468E+03  0.90286214651E+02 0.  0.
          4    1    3    3  502    0  0.29144087956E+02 -0.28707761835E+02  0.46588386072E+02  0.61999928783E+02  0.00000000000E+00 0. -1.
         -3    1    3    3    0  502  0.39652053523E+03 -0.13933273084E+03  0.24042659452E+03  0.48419736894E+03  0.00000000000E+00 0.  1.
         13    1    5    5    0    0 -0.54527119062E+02  0.46928821635E+02 -0.70843087882E+02  0.10096664852E+03  0.00000000000E+00 0. -1.
        -13    1    5    5    0    0 -0.31656092989E+03  0.31267610333E+03 -0.81084735266E+03  0.92490572343E+03  0.00000000000E+00 0.  1.
          2    1    6    6  503    0 -0.51405481456E+02 -0.16989993028E+03  0.47405912235E+02  0.18372759822E+03  0.00000000000E+00 0. -1.
         -2    1    6    6    0  503 -0.31710927770E+01 -0.21664502001E+02  0.52151656482E+02  0.56561486457E+02  0.00000000000E+00 0.  1.
<mgrwt>
<rscale>  0 0.17434169E+04</rscale>
<asrwt>0</asrwt>
<pdfrwt beam="1">  1        2 0.17749821E+00 0.17434169E+04</pdfrwt>
<pdfrwt beam="2">  1       -1 0.10132622E+00 0.17434169E+04</pdfrwt>
<totfact> 0.20199214E+01</totfact>
</mgrwt>
</event>
<event>
12    7  0.1707730E-007  0.3075086E+04  0.7818608E-02  0.8222609E-01
          2   -1    0    0  501    0  0.00000000000E+00  0.00000000000E+00  0.29711419369E+04  0.29711419369E+04  0.00000000000E+00 0. -1.
         -1   -1    0    0    0  501 -0.00000000000E+00 -0.00000000000E+00 -0.79566685560E+03  0.79566685560E+03  0.00000000000E+00 0.  1.
         24    2    1    2    0    0  0.10380484967E+04 -0.52427852588E+03  0.28541476323E+02  0.11661769410E+04  0.82105953513E+02 0.  0.
        254    2    1    2    0    0 -0.10380484967E+04  0.52427852588E+03  0.21469336050E+04  0.26006318515E+04  0.89529295118E+03 0.  0.
         23    2    4    4    0    0 -0.58323506823E+03  0.53746559028E+03  0.19322238064E+04  0.20907025262E+04  0.92281142241E+02 0.  0.
         23    2    4    4    0    0 -0.45481342851E+03 -0.13187064398E+02  0.21470979855E+03  0.50992932532E+03  0.83057003337E+02 0.  0.
          2    1    3    3  502    0  0.90102932451E+03 -0.47857523896E+03  0.42055599131E+02  0.10211056637E+04  0.00000000000E+00 0. -1.
         -1    1    3    3    0  502  0.13701917224E+03 -0.45703286927E+02 -0.13514122808E+02  0.14507127735E+03  0.00000000000E+00 0.  1.
         13    1    5    5    0    0 -0.46084991152E+03  0.39040234735E+03  0.13839481859E+04  0.15100030513E+04  0.00000000000E+00 0.  1.
        -13    1    5    5    0    0 -0.12238515671E+03  0.14706324293E+03  0.54827562052E+03  0.58069947482E+03  0.00000000000E+00 0. -1.
          2    1    6    6  503    0 -0.23713419362E+03 -0.10446153523E+02  0.15742023458E+03  0.28482078253E+03  0.00000000000E+00 0. -1.
         -2    1    6    6    0  503 -0.21767923489E+03 -0.27409108755E+01  0.57289563975E+02  0.22510854278E+03  0.00000000000E+00 0.  1.
<mgrwt>
<rscale>  0 0.30750864E+04</rscale>
<asrwt>0</asrwt>
<pdfrwt beam="1">  1        2 0.45709875E+00 0.30750864E+04</pdfrwt>
<pdfrwt beam="2">  1       -1 0.12241029E+00 0.30750864E+04</pdfrwt>
<totfact> 0.10334855E+00</totfact>
</mgrwt>
</event>
<event>
12    7  0.1707730E-007  0.2009561E+04  0.7818608E-02  0.8602163E-01
          2   -1    0    0  501    0  0.00000000000E+00  0.00000000000E+00  0.21381260433E+04  0.21381260433E+04  0.00000000000E+00 0. -1.
         -1   -1    0    0    0  501 -0.00000000000E+00 -0.00000000000E+00 -0.47218180765E+03  0.47218180765E+03  0.00000000000E+00 0.  1.
         24    2    1    2    0    0  0.14787454358E+03 -0.42730358602E+03  0.15274381571E+04  0.15949476435E+04  0.79595392845E+02 0.  0.
        254    2    1    2    0    0 -0.14787454358E+03  0.42730358602E+03  0.13850607860E+03  0.10153602075E+04  0.89850830927E+03 0.  0.
         23    2    4    4    0    0  0.29219866185E+02  0.67795905028E+03  0.11772641843E+03  0.69442736125E+03  0.88812026256E+02 0.  0.
         23    2    4    4    0    0 -0.17709440976E+03 -0.25065546426E+03  0.20779660166E+02  0.32093284622E+03  0.91517789386E+02 0.  0.
          2    1    3    3  502    0  0.88397968749E+02 -0.19882870408E+03  0.85557394508E+03  0.88281018908E+03  0.00000000000E+00 0. -1.
         -3    1    3    3    0  502  0.59476574827E+02 -0.22847488194E+03  0.67186421198E+03  0.71213745441E+03  0.00000000000E+00 0.  1.
         13    1    5    5    0    0  0.15096348662E+02  0.31283420736E+03  0.99308620119E+02  0.32856558411E+03  0.00000000000E+00 0. -1.
        -13    1    5    5    0    0  0.14123517524E+02  0.36512484293E+03  0.18417798314E+02  0.36586177713E+03  0.00000000000E+00 0.  1.
          3    1    6    6  503    0 -0.14582858790E+02 -0.29208350477E+02  0.32416836575E+02  0.46006942972E+02  0.00000000000E+00 0. -1.
         -3    1    6    6    0  503 -0.16251155097E+03 -0.22144711379E+03 -0.11637176409E+02  0.27492590325E+03  0.00000000000E+00 0.  1.
<mgrwt>
<rscale>  0 0.20095614E+04</rscale>
<asrwt>0</asrwt>
<pdfrwt beam="1">  1        2 0.32894246E+00 0.20095614E+04</pdfrwt>
<pdfrwt beam="2">  1       -1 0.72643356E-01 0.20095614E+04</pdfrwt>
<totfact> 0.11298418E+01</totfact>
</mgrwt>
</event>
<event>
12    7  0.1707730E-007  0.1864376E+04  0.7818608E-02  0.8672795E-01
          2   -1    0    0  501    0  0.00000000000E+00  0.00000000000E+00  0.18415191340E+04  0.18415191340E+04  0.00000000000E+00 0. -1.
         -1   -1    0    0    0  501 -0.00000000000E+00 -0.00000000000E+00 -0.47187911583E+03  0.47187911583E+03  0.00000000000E+00 0.  1.
         24    2    1    2    0    0 -0.47422115353E+03  0.49114086156E+03  0.78734656107E+03  0.10450946234E+04  0.78759864652E+02 0.  0.
        254    2    1    2    0    0  0.47422115353E+03 -0.49114086156E+03  0.58229345707E+03  0.12683036264E+04  0.89633887022E+03 0.  0.
         23    2    4    4    0    0  0.33795969275E+03 -0.42270104490E+03  0.81112493171E+03  0.97915780622E+03  0.89069789227E+02 0.  0.
         23    2    4    4    0    0  0.13626146078E+03 -0.68439816660E+02 -0.22883147465E+03  0.28914582019E+03  0.89388295344E+02 0.  0.
          2    1    3    3  502    0 -0.26223663157E+03  0.28227871977E+03  0.50190369084E+03  0.63273741904E+03  0.00000000000E+00 0. -1.
         -1    1    3    3    0  502 -0.21198452195E+03  0.20886214179E+03  0.28544287023E+03  0.41235720436E+03  0.00000000000E+00 0.  1.
         13    1    5    5    0    0  0.29491202422E+01 -0.38377699826E+02  0.51350553988E+02  0.64174952661E+02  0.00000000000E+00 0. -1.
        -13    1    5    5    0    0  0.33501057250E+03 -0.38432334507E+03  0.75977437772E+03  0.91498285355E+03  0.00000000000E+00 0.  1.
          3    1    6    6  503    0  0.11775173323E+03 -0.13528637072E+02 -0.16119975174E+03  0.20008461875E+03  0.00000000000E+00 0. -1.
         -3    1    6    6    0  503  0.18509727547E+02 -0.54911179588E+02 -0.67631722907E+02  0.89061201434E+02  0.00000000000E+00 0.  1.
<mgrwt>
<rscale>  0 0.18643759E+04</rscale>
<asrwt>0</asrwt>
<pdfrwt beam="1">  1        2 0.28331063E+00 0.18643759E+04</pdfrwt>
<pdfrwt beam="2">  1       -1 0.72596788E-01 0.18643759E+04</pdfrwt>
<totfact> 0.16748339E+01</totfact>
</mgrwt>
</event>
<event>
12    7  0.1707730E-007  0.1249099E+04  0.7818608E-02  0.9070934E-01
         -1   -1    0    0    0  501 -0.00000000000E+00  0.00000000000E+00  0.14767262362E+03  0.14767262362E+03  0.00000000000E+00 0.  1.
          2   -1    0    0  501    0  0.00000000000E+00 -0.00000000000E+00 -0.26413962410E+04  0.26413962410E+04  0.00000000000E+00 0. -1.
         24    2    1    2    0    0 -0.25232744712E+03  0.67254220549E+02 -0.31268923330E+03  0.41512916563E+03  0.79783436790E+02 0.  0.
        254    2    1    2    0    0  0.25232744712E+03 -0.67254220549E+02 -0.21810343840E+04  0.23739396989E+04  0.90027020338E+03 0.  0.
         23    2    4    4    0    0  0.18589130820E+02  0.39498580141E+03 -0.81921324574E+03  0.91435026125E+03  0.92556572717E+02 0.  0.
         23    2    4    4    0    0  0.23373831630E+03 -0.46224002196E+03 -0.13618211383E+04  0.14595894377E+04  0.86862393970E+02 0.  0.
          4    1    3    3  502    0 -0.20045056742E+03  0.70612761923E+02 -0.28705946049E+03  0.35716904398E+03  0.00000000000E+00 0. -1.
         -3    1    3    3    0  502 -0.51876879693E+02 -0.33585413744E+01 -0.25629772817E+02  0.57960121649E+02  0.00000000000E+00 0.  1.
         13    1    5    5    0    0 -0.20855241345E+01  0.22283111151E+03 -0.55774383755E+03  0.60061322163E+03  0.00000000000E+00 0.  1.
        -13    1    5    5    0    0  0.20674654955E+02  0.17215468990E+03 -0.26146940818E+03  0.31373703962E+03  0.00000000000E+00 0. -1.
          3    1    6    6  503    0  0.41386886516E+02 -0.43323697164E+02 -0.22561617068E+03  0.23343623023E+03  0.00000000000E+00 0. -1.
         -3    1    6    6    0  503  0.19235142978E+03 -0.41891632479E+03 -0.11362049676E+04  0.12261532075E+04  0.00000000000E+00 0.  1.
<mgrwt>
<rscale>  0 0.12490987E+04</rscale>
<asrwt>0</asrwt>
<pdfrwt beam="1">  1        2 0.40636863E+00 0.12490987E+04</pdfrwt>
<pdfrwt beam="2">  1       -1 0.22718866E-01 0.12490987E+04</pdfrwt>
<totfact> 0.53551865E+01</totfact>
</mgrwt>
</event>
<event>
12    7  0.1707730E-007  0.1164688E+04  0.7818608E-02  0.9144339E-01
         -1   -1    0    0    0  501 -0.00000000000E+00  0.00000000000E+00  0.15835899067E+04  0.15835899067E+04  0.00000000000E+00 0.  1.
          2   -1    0    0  501    0  0.00000000000E+00 -0.00000000000E+00 -0.21414915353E+03  0.21414915353E+03  0.00000000000E+00 0. -1.
         24    2    1    2    0    0  0.10385389998E+03 -0.16965587592E+03  0.79966125034E+02  0.23570591100E+03  0.97948693466E+02 0.  0.
        254    2    1    2    0    0 -0.10385389998E+03  0.16965587592E+03  0.12894746281E+04  0.15620331492E+04  0.85885621257E+03 0.  0.
         23    2    4    4    0    0 -0.27447783471E+03 -0.54918656615E+02  0.12240875614E+04  0.12590540016E+04  0.92046077913E+02 0.  0.
         23    2    4    4    0    0  0.17062393473E+03  0.22457453253E+03  0.65387066730E+02  0.30297914759E+03  0.89300882478E+02 0.  0.
          2    1    3    3  502    0  0.33101938934E+02 -0.10129070275E+03 -0.35966702764E+01  0.10662307846E+03  0.00000000000E+00 0. -1.
         -1    1    3    3    0  502  0.70751961047E+02 -0.68365173169E+02  0.83562795310E+02  0.12908283253E+03  0.00000000000E+00 0.  1.
         13    1    5    5    0    0 -0.19720937039E+02 -0.95199463625E+01  0.25743108755E+03  0.25836081277E+03  0.00000000000E+00 0.  1.
        -13    1    5    5    0    0 -0.25475689767E+03 -0.45398710253E+02  0.96665647382E+03  0.10006931888E+04  0.00000000000E+00 0. -1.
          1    1    6    6  503    0  0.94407029083E+02  0.16480430309E+03  0.73654403249E+01  0.19007207887E+03  0.00000000000E+00 0. -1.
         -1    1    6    6    0  503  0.76216905648E+02  0.59770229445E+02  0.58021626405E+02  0.11290706871E+03  0.00000000000E+00 0.  1.
<mgrwt>
<rscale>  0 0.11646878E+04</rscale>
<asrwt>0</asrwt>
<pdfrwt beam="1">  1        2 0.32946025E-01 0.11646878E+04</pdfrwt>
<pdfrwt beam="2">  1       -1 0.24362921E+00 0.11646878E+04</pdfrwt>
<totfact> 0.13981836E+01</totfact>
</mgrwt>
</event>
<event>
12    7  0.1707730E-007  0.2403333E+04  0.7818608E-02  0.8438257E-01
          2   -1    0    0  501    0  0.00000000000E+00  0.00000000000E+00  0.19729297254E+04  0.19729297254E+04  0.00000000000E+00 0. -1.
         -1   -1    0    0    0  501 -0.00000000000E+00 -0.00000000000E+00 -0.73190752017E+03  0.73190752017E+03  0.00000000000E+00 0.  1.
         24    2    1    2    0    0  0.15996318461E+03 -0.78440035934E+03  0.12596833255E+04  0.14946497155E+04  0.79394880745E+02 0.  0.
        254    2    1    2    0    0 -0.15996318461E+03  0.78440035934E+03 -0.18661120336E+02  0.12101875301E+04  0.90737725144E+03 0.  0.
         23    2    4    4    0    0 -0.25902654238E+03  0.31073629067E+03  0.39039280280E+03  0.56989589719E+03  0.93397008300E+02 0.  0.
         23    2    4    4    0    0  0.99063357771E+02  0.47366406867E+03 -0.40905392313E+03  0.64029163291E+03  0.92070974488E+02 0.  0.
          2    1    3    3  502    0  0.12496835367E+03 -0.64749739018E+03  0.10885504805E+04  0.12727183932E+04  0.00000000000E+00 0. -1.
         -1    1    3    3    0  502  0.34994830946E+02 -0.13690296916E+03  0.17113284500E+03  0.22193132225E+03  0.00000000000E+00 0.  1.
         13    1    5    5    0    0 -0.10402368347E+03  0.15108781674E+03  0.11774984689E+03  0.21797587374E+03  0.00000000000E+00 0. -1.
        -13    1    5    5    0    0 -0.15500285891E+03  0.15964847393E+03  0.27264295590E+03  0.35192002345E+03  0.00000000000E+00 0.  1.
          1    1    6    6  503    0  0.47501679777E+02  0.13719830807E+03 -0.17404594698E+03  0.22665342922E+03  0.00000000000E+00 0. -1.
         -1    1    6    6    0  503  0.51561677994E+02  0.33646576060E+03 -0.23500797616E+03  0.41363820369E+03  0.00000000000E+00 0.  1.
<mgrwt>
<rscale>  0 0.24033328E+04</rscale>
<asrwt>0</asrwt>
<pdfrwt beam="1">  1        2 0.30352765E+00 0.24033328E+04</pdfrwt>
<pdfrwt beam="2">  1       -1 0.11260116E+00 0.24033328E+04</pdfrwt>
<totfact> 0.51085672E+00</totfact>
</mgrwt>
</event>
<event>
12    7  0.1707730E-007  0.2373694E+04  0.7818608E-02  0.8449418E-01
          2   -1    0    0  501    0  0.00000000000E+00  0.00000000000E+00  0.17914822187E+04  0.17914822187E+04  0.00000000000E+00 0. -1.
         -1   -1    0    0    0  501 -0.00000000000E+00 -0.00000000000E+00 -0.78627974439E+03  0.78627974439E+03  0.00000000000E+00 0.  1.
         24    2    1    2    0    0  0.83009039763E+03 -0.78817016464E+02  0.10634278770E+04  0.13538362310E+04  0.82045722244E+02 0.  0.
        254    2    1    2    0    0 -0.83009039763E+03  0.78817016464E+02 -0.58225402684E+02  0.12239257321E+04  0.89405917575E+03 0.  0.
         23    2    4    4    0    0 -0.40960143345E+03 -0.39556019592E+03  0.25606345600E+02  0.57815687024E+03  0.96790902423E+02 0.  0.
         23    2    4    4    0    0 -0.42048896418E+03  0.47437721239E+03 -0.83831748285E+02  0.64576886181E+03  0.90249389077E+02 0.  0.
          2    1    3    3  502    0  0.39423421945E+03 -0.47526050696E+02  0.44232412164E+03  0.59441565749E+03  0.00000000000E+00 0. -1.
         -1    1    3    3    0  502  0.43585617818E+03 -0.31290965768E+02  0.62110375532E+03  0.75942057351E+03  0.00000000000E+00 0.  1.
         13    1    5    5    0    0 -0.19619326097E+03 -0.14061036509E+03  0.43198440815E+02  0.24521251133E+03  0.00000000000E+00 0. -1.
        -13    1    5    5    0    0 -0.21340817248E+03 -0.25494983083E+03 -0.17592095215E+02  0.33294435892E+03  0.00000000000E+00 0.  1.
          3    1    6    6  503    0 -0.10366688469E+02 -0.12183986236E+01  0.48901457267E+01  0.11526762349E+02  0.00000000000E+00 0. -1.
         -3    1    6    6    0  503 -0.41012227572E+03  0.47559561101E+03 -0.88721894012E+02  0.63424209946E+03  0.00000000000E+00 0.  1.
<mgrwt>
<rscale>  0 0.23736943E+04</rscale>
<asrwt>0</asrwt>
<pdfrwt beam="1">  1        2 0.27561265E+00 0.23736943E+04</pdfrwt>
<pdfrwt beam="2">  1       -1 0.12096612E+00 0.23736943E+04</pdfrwt>
<totfact> 0.54321185E+00</totfact>
</mgrwt>
</event>
<event>
12    7  0.1707730E-007  0.2150575E+04  0.7818608E-02  0.8539286E-01
         -1   -1    0    0    0  501 -0.00000000000E+00  0.00000000000E+00  0.41067962081E+03  0.41067962081E+03  0.00000000000E+00 0.  1.
          2   -1    0    0  501    0  0.00000000000E+00 -0.00000000000E+00 -0.28154371921E+04  0.28154371921E+04  0.00000000000E+00 0. -1.
         24    2    1    2    0    0 -0.62305593856E+03  0.57118260946E+03 -0.61395749661E+03  0.10476924958E+04  0.79167431249E+02 0.  0.
        254    2    1    2    0    0  0.62305593856E+03 -0.57118260946E+03 -0.17908000747E+04  0.21784243172E+04  0.90781017953E+03 0.  0.
         23    2    4    4    0    0  0.19720194016E+03 -0.20031024272E+03  0.28776759946E+01  0.29578844061E+03  0.92031092792E+02 0.  0.
         23    2    4    4    0    0  0.42585399840E+03 -0.37087236674E+03 -0.17936777507E+04  0.18826358765E+04  0.90222114238E+02 0.  0.
          2    1    3    3  502    0 -0.46902806534E+03  0.38905288586E+03 -0.46419791774E+03  0.76604776673E+03  0.00000000000E+00 0. -1.
         -1    1    3    3    0  502 -0.15402787322E+03  0.18212972359E+03 -0.14975957887E+03  0.28164472906E+03  0.00000000000E+00 0.  1.
         13    1    5    5    0    0  0.16551647661E+03 -0.20507575520E+03 -0.78284113920E+00  0.26353819882E+03  0.00000000000E+00 0. -1.
        -13    1    5    5    0    0  0.31685463551E+02  0.47655124824E+01  0.36605171338E+01  0.32250241788E+02  0.00000000000E+00 0.  1.
          2    1    6    6  503    0  0.33560820535E+03 -0.33647738413E+03 -0.15006239757E+04  0.15740782109E+04  0.00000000000E+00 0. -1.
         -2    1    6    6    0  503  0.90245793049E+02 -0.34394982616E+02 -0.29305377504E+03  0.30855766570E+03  0.00000000000E+00 0.  1.
<mgrwt>
<rscale>  0 0.21505745E+04</rscale>
<asrwt>0</asrwt>
<pdfrwt beam="1">  1        2 0.43314421E+00 0.21505745E+04</pdfrwt>
<pdfrwt beam="2">  1       -1 0.63181477E-01 0.21505745E+04</pdfrwt>
<totfact> 0.60105806E+00</totfact>
</mgrwt>
</event>
<event>
12    7  0.1707730E-007  0.5331961E+04  0.7818608E-02  0.7779244E-01
         -1   -1    0    0    0  501 -0.00000000000E+00  0.00000000000E+00  0.19280202966E+04  0.19280202966E+04  0.00000000000E+00 0.  1.
          2   -1    0    0  501    0  0.00000000000E+00 -0.00000000000E+00 -0.36863988121E+04  0.36863988121E+04  0.00000000000E+00 0. -1.
         24    2    1    2    0    0  0.27341843114E+03  0.18954050916E+04 -0.26905599087E+04  0.33034845426E+04  0.81113509091E+02 0.  0.
        254    2    1    2    0    0 -0.27341843114E+03 -0.18954050916E+04  0.93218139319E+03  0.23109345661E+04  0.89673759791E+03 0.  0.
         23    2    4    4    0    0 -0.40908880741E+03 -0.76139147946E+03  0.75520996720E+03  0.11515483313E+04  0.93009824739E+02 0.  0.
         23    2    4    4    0    0  0.13567037627E+03 -0.11340136121E+04  0.17697142599E+03  0.11593862348E+04  0.92001262886E+02 0.  0.
          4    1    3    3  502    0  0.17109002790E+03  0.13380505310E+04 -0.18423075246E+04  0.22833633168E+04  0.00000000000E+00 0. -1.
         -3    1    3    3    0  502  0.10232840324E+03  0.55735456058E+03 -0.84825238408E+03  0.10201212258E+04  0.00000000000E+00 0.  1.
         13    1    5    5    0    0 -0.28795232630E+03 -0.48857570098E+03  0.44328980710E+03  0.71981151066E+03  0.00000000000E+00 0. -1.
        -13    1    5    5    0    0 -0.12113648111E+03 -0.27281577848E+03  0.31192016010E+03  0.43173682067E+03  0.00000000000E+00 0.  1.
          1    1    6    6  503    0  0.10677103896E+03 -0.10639493039E+04  0.17537177236E+03  0.10835789933E+04  0.00000000000E+00 0.  1.
         -1    1    6    6    0  503  0.28899337306E+02 -0.70064308159E+02  0.15996536273E+01  0.75807241516E+02  0.00000000000E+00 0. -1.
<mgrwt>
<rscale>  0 0.53319609E+04</rscale>
<asrwt>0</asrwt>
<pdfrwt beam="1">  1        2 0.56713827E+00 0.53319609E+04</pdfrwt>
<pdfrwt beam="2">  1       -1 0.29661851E+00 0.53319609E+04</pdfrwt>
<totfact> 0.16663639E-02</totfact>
</mgrwt>
</event>
<event>
12    7  0.1707730E-007  0.2497309E+04  0.7818608E-02  0.8403945E-01
          2   -1    0    0  501    0  0.00000000000E+00  0.00000000000E+00  0.18089030787E+04  0.18089030787E+04  0.00000000000E+00 0. -1.
         -1   -1    0    0    0  501 -0.00000000000E+00 -0.00000000000E+00 -0.86192434255E+03  0.86192434255E+03  0.00000000000E+00 0.  1.
         24    2    1    2    0    0 -0.76805747937E+03  0.44475936305E+03  0.10716152636E+04  0.13936611086E+04  0.78796127829E+02 0.  0.
        254    2    1    2    0    0  0.76805747937E+03 -0.44475936305E+03 -0.12463652744E+03  0.12771663127E+04  0.90988809400E+03 0.  0.
         23    2    4    4    0    0  0.43033943799E+03 -0.29817240756E+03 -0.51008369823E+03  0.73653498028E+03  0.90551540371E+02 0.  0.
         23    2    4    4    0    0  0.33771804138E+03 -0.14658695549E+03  0.38544717079E+03  0.54063133238E+03  0.90396377609E+02 0.  0.
          2    1    3    3  502    0 -0.25516114973E+03  0.17309546723E+03  0.42022842130E+03  0.52121126156E+03  0.00000000000E+00 0. -1.
         -1    1    3    3    0  502 -0.51289632964E+03  0.27166389582E+03  0.65138684226E+03  0.87244984700E+03  0.00000000000E+00 0.  1.
         13    1    5    5    0    0  0.13465049653E+03 -0.10055753678E+03 -0.22441903573E+03  0.28036846830E+03  0.00000000000E+00 0. -1.
        -13    1    5    5    0    0  0.29568894146E+03 -0.19761487078E+03 -0.28566466250E+03  0.45616651199E+03  0.00000000000E+00 0.  1.
          3    1    6    6  503    0  0.16039853735E+02 -0.33382110248E+02  0.26641142004E+02  0.45622282272E+02  0.00000000000E+00 0. -1.
         -3    1    6    6    0  503  0.32167818765E+03 -0.11320484524E+03  0.35880602879E+03  0.49500905011E+03  0.00000000000E+00 0.  1.
<mgrwt>
<rscale>  0 0.24973086E+04</rscale>
<asrwt>0</asrwt>
<pdfrwt beam="1">  1        2 0.27829278E+00 0.24973086E+04</pdfrwt>
<pdfrwt beam="2">  1       -1 0.13260375E+00 0.24973086E+04</pdfrwt>
<totfact> 0.41774801E+00</totfact>
</mgrwt>
</event>
<event>
12    7  0.1707730E-007  0.1280297E+04  0.7818608E-02  0.9045337E-01
         -1   -1    0    0    0  501 -0.00000000000E+00  0.00000000000E+00  0.18723968086E+03  0.18723968086E+03  0.00000000000E+00 0.  1.
          2   -1    0    0  501    0  0.00000000000E+00 -0.00000000000E+00 -0.21885870050E+04  0.21885870050E+04  0.00000000000E+00 0. -1.
         24    2    1    2    0    0 -0.55983130579E+02 -0.30157682812E+02 -0.10806085112E+04  0.10854141714E+04  0.79784536395E+02 0.  0.
        254    2    1    2    0    0  0.55983130579E+02  0.30157682812E+02 -0.92073881295E+03  0.12904125145E+04  0.90186523334E+03 0.  0.
         23    2    4    4    0    0  0.14761198099E+02 -0.24111012671E+03  0.62781536312E+02  0.26535885167E+03  0.90121100116E+02 0.  0.
         23    2    4    4    0    0  0.41221932480E+02  0.27126780952E+03 -0.98352034926E+03  0.10250536628E+04  0.90206773652E+02 0.  0.
          2    1    3    3  502    0 -0.66454433728E+02 -0.45584408240E+02 -0.75911215773E+03  0.76337762481E+03  0.00000000000E+00 0. -1.
         -1    1    3    3    0  502  0.10471303149E+02  0.15426725428E+02 -0.32149635346E+03  0.32203654658E+03  0.00000000000E+00 0.  1.
         13    1    5    5    0    0 -0.22546313841E+02 -0.22240365460E+02  0.24536030848E+02  0.40062288169E+02  0.00000000000E+00 0. -1.
        -13    1    5    5    0    0  0.37307511939E+02 -0.21886976125E+03  0.38245505465E+02  0.22529656350E+03  0.00000000000E+00 0.  1.
          2    1    6    6  503    0  0.42608483771E+01 -0.61929758795E+01 -0.13466801450E+02  0.15422792238E+02  0.00000000000E+00 0. -1.
         -2    1    6    6    0  503  0.36961084103E+02  0.27746078540E+03 -0.97005354781E+03  0.10096308706E+04  0.00000000000E+00 0.  1.
<mgrwt>
<rscale>  0 0.12802974E+04</rscale>
<asrwt>0</asrwt>
<pdfrwt beam="1">  1        2 0.33670569E+00 0.12802974E+04</pdfrwt>
<pdfrwt beam="2">  1       -1 0.28806105E-01 0.12802974E+04</pdfrwt>
<totfact> 0.64335547E+01</totfact>
</mgrwt>
</event>
<event>
12    7  0.1707730E-007  0.1766128E+04  0.7818608E-02  0.8724522E-01
          2   -1    0    0  501    0  0.00000000000E+00  0.00000000000E+00  0.84946274853E+03  0.84946274853E+03  0.00000000000E+00 0. -1.
         -1   -1    0    0    0  501 -0.00000000000E+00 -0.00000000000E+00 -0.91799480068E+03  0.91799480068E+03  0.00000000000E+00 0.  1.
         24    2    1    2    0    0  0.20812293826E+02  0.11972015987E+03 -0.66591340450E+03  0.68164075192E+03  0.80170968169E+02 0.  0.
        254    2    1    2    0    0 -0.20812293826E+02 -0.11972015987E+03  0.59738135235E+03  0.10858167973E+04  0.89853634812E+03 0.  0.
         23    2    4    4    0    0  0.29605231057E+03 -0.34085855128E+03  0.14389922995E+03  0.48265991146E+03  0.91771886630E+02 0.  0.
         23    2    4    4    0    0 -0.31686460439E+03  0.22113839141E+03  0.45348212240E+03  0.60315688583E+03  0.94057577662E+02 0.  0.
          2    1    3    3  502    0  0.24691405929E+02  0.98641537543E+02 -0.33643454854E+03  0.35146553730E+03  0.00000000000E+00 0. -1.
         -1    1    3    3    0  502 -0.38791121031E+01  0.21078622327E+02 -0.32947885596E+03  0.33017521463E+03  0.00000000000E+00 0.  1.
         13    1    5    5    0    0  0.29063237717E+03 -0.29782229497E+03  0.11977158956E+03  0.43302486269E+03  0.00000000000E+00 0.  1.
        -13    1    5    5    0    0  0.54199333920E+01 -0.43036256315E+02  0.24127640390E+02  0.49635048770E+02  0.00000000000E+00 0. -1.
          2    1    6    6  503    0 -0.95780715337E+02  0.95700446727E+02  0.10261310543E+03  0.16988811124E+03  0.00000000000E+00 0. -1.
         -2    1    6    6    0  503 -0.22108388906E+03  0.12543794469E+03  0.35086901697E+03  0.43326877460E+03  0.00000000000E+00 0.  1.
<mgrwt>
<rscale>  0 0.17661284E+04</rscale>
<asrwt>0</asrwt>
<pdfrwt beam="1">  1        2 0.13068658E+00 0.17661284E+04</pdfrwt>
<pdfrwt beam="2">  1       -1 0.14122997E+00 0.17661284E+04</pdfrwt>
<totfact> 0.14061028E+01</totfact>
</mgrwt>
</event>
<event>
12    7  0.1707730E-007  0.1375850E+04  0.7818608E-02  0.8971487E-01
         -1   -1    0    0    0  501 -0.00000000000E+00  0.00000000000E+00  0.19273301287E+03  0.19273301287E+03  0.00000000000E+00 0.  1.
          2   -1    0    0  501    0  0.00000000000E+00 -0.00000000000E+00 -0.24554228160E+04  0.24554228160E+04  0.00000000000E+00 0. -1.
         24    2    1    2    0    0 -0.25366141249E+03 -0.49874038894E+02 -0.11380888474E+03  0.29375359855E+03  0.80667108981E+02 0.  0.
        254    2    1    2    0    0  0.25366141249E+03  0.49874038894E+02 -0.21488809184E+04  0.23544022303E+04  0.92665480563E+03 0.  0.
         23    2    4    4    0    0  0.47118144590E+03 -0.27981090620E+03 -0.13311055668E+04  0.14416657422E+04  0.79069488619E+02 0.  0.
         23    2    4    4    0    0 -0.21752003340E+03  0.32968494510E+03 -0.81777535162E+03  0.91273648817E+03  0.91237290433E+02 0.  0.
          4    1    3    3  502    0  0.30941843566E-01 -0.11145535437E+02 -0.15156992666E+02  0.18813780701E+02  0.00000000000E+00 0. -1.
         -3    1    3    3    0  502 -0.25369235434E+03 -0.38728503457E+02 -0.98651892073E+02  0.27493981785E+03  0.00000000000E+00 0.  1.
         13    1    5    5    0    0  0.76871545096E+02 -0.82406741479E+02 -0.26619031218E+03  0.28906294779E+03  0.00000000000E+00 0.  1.
        -13    1    5    5    0    0  0.39430990080E+03 -0.19740416472E+03 -0.10649152546E+04  0.11526027944E+04  0.00000000000E+00 0. -1.
          2    1    6    6  503    0 -0.10858881115E+01  0.54059226046E+02 -0.90300757102E+02  0.10525115585E+03  0.00000000000E+00 0.  1.
         -2    1    6    6    0  503 -0.21643414529E+03  0.27562571905E+03 -0.72747459451E+03  0.80748533232E+03  0.00000000000E+00 0. -1.
<mgrwt>
<rscale>  0 0.13758503E+04</rscale>
<asrwt>0</asrwt>
<pdfrwt beam="1">  1        2 0.37775734E+00 0.13758503E+04</pdfrwt>
<pdfrwt beam="2">  1       -1 0.29651234E-01 0.13758503E+04</pdfrwt>
<totfact> 0.42877228E+01</totfact>
</mgrwt>
</event>
<event>
12    7  0.1707730E-007  0.1484971E+04  0.7818608E-02  0.8894509E-01
         -1   -1    0    0    0  501 -0.00000000000E+00  0.00000000000E+00  0.32522740880E+03  0.32522740880E+03  0.00000000000E+00 0.  1.
          2   -1    0    0  501    0  0.00000000000E+00 -0.00000000000E+00 -0.16950737481E+04  0.16950737481E+04  0.00000000000E+00 0. -1.
         24    2    1    2    0    0 -0.26941398492E+03  0.80446756515E+02  0.83908259010E+02  0.30381365760E+03  0.78781766335E+02 0.  0.
        254    2    1    2    0    0  0.26941398492E+03 -0.80446756515E+02 -0.14537545983E+04  0.17164874993E+04  0.86825763872E+03 0.  0.
         23    2    4    4    0    0  0.58205317211E+02  0.38110205387E+03 -0.65107579678E+03  0.76239457020E+03  0.93376405471E+02 0.  0.
         23    2    4    4    0    0  0.21120866771E+03 -0.46154881038E+03 -0.80267880149E+03  0.95409292906E+03  0.91453011086E+02 0.  0.
          2    1    3    3  502    0 -0.86347447935E+02  0.61207911158E+02  0.13350831280E+02  0.10667958966E+03  0.00000000000E+00 0. -1.
         -1    1    3    3    0  502 -0.18306653699E+03  0.19238845357E+02  0.70557427731E+02  0.19713406794E+03  0.00000000000E+00 0.  1.
         13    1    5    5    0    0  0.71603145488E+02  0.17178148491E+03 -0.28183632877E+03  0.33773896017E+03  0.00000000000E+00 0.  1.
        -13    1    5    5    0    0 -0.13397828278E+02  0.20932056896E+03 -0.36923946801E+03  0.42465561003E+03  0.00000000000E+00 0. -1.
          2    1    6    6  503    0  0.13979420564E+03 -0.31685006561E+03 -0.46453794496E+03  0.57942375367E+03  0.00000000000E+00 0. -1.
         -2    1    6    6    0  503  0.71414462070E+02 -0.14469874477E+03 -0.33814085654E+03  0.37466917539E+03  0.00000000000E+00 0.  1.
<mgrwt>
<rscale>  0 0.14849706E+04</rscale>
<asrwt>0</asrwt>
<pdfrwt beam="1">  1        2 0.26078058E+00 0.14849706E+04</pdfrwt>
<pdfrwt beam="2">  1       -1 0.50034986E-01 0.14849706E+04</pdfrwt>
<totfact> 0.43592560E+01</totfact>
</mgrwt>
</event>
<event>
12    7  0.1707730E-007  0.1681380E+04  0.7818608E-02  0.8772056E-01
          2   -1    0    0  501    0  0.00000000000E+00  0.00000000000E+00  0.24880855495E+04  0.24880855495E+04  0.00000000000E+00 0. -1.
         -1   -1    0    0    0  501 -0.00000000000E+00 -0.00000000000E+00 -0.28405753582E+03  0.28405753582E+03  0.00000000000E+00 0.  1.
         24    2    1    2    0    0  0.13711364160E+03  0.29645682592E+03  0.15958817768E+04  0.16308629930E+04  0.78668011265E+02 0.  0.
        254    2    1    2    0    0 -0.13711364160E+03 -0.29645682592E+03  0.60814623685E+03  0.11412800923E+04  0.90884080201E+03 0.  0.
         23    2    4    4    0    0  0.15755689342E+03  0.19510117096E+01  0.68243546193E+03  0.70592111259E+03  0.88195671029E+02 0.  0.
         23    2    4    4    0    0 -0.29467053502E+03 -0.29840783763E+03 -0.74289225074E+02  0.43535897974E+03  0.90225221014E+02 0.  0.
          2    1    3    3  502    0  0.13710756874E+03  0.23279362851E+03  0.13577140800E+04  0.13843333709E+04  0.00000000000E+00 0. -1.
         -1    1    3    3    0  502  0.60728558313E-02  0.63663197408E+02  0.23816769686E+03  0.24652962209E+03  0.00000000000E+00 0.  1.
         13    1    5    5    0    0  0.12955125096E+03  0.35923300817E+02  0.46355266865E+03  0.48265421036E+03  0.00000000000E+00 0.  1.
        -13    1    5    5    0    0  0.28005642469E+02 -0.33972289107E+02  0.21888279328E+03  0.22326690223E+03  0.00000000000E+00 0. -1.
          1    1    6    6  503    0 -0.21036159351E+03 -0.17047059902E+03 -0.79052019404E+02  0.28206638745E+03  0.00000000000E+00 0. -1.
         -1    1    6    6    0  503 -0.84308941509E+02 -0.12793723861E+03  0.47627943298E+01  0.15329259229E+03  0.00000000000E+00 0.  1.
<mgrwt>
<rscale>  0 0.16813797E+04</rscale>
<asrwt>0</asrwt>
<pdfrwt beam="1">  1        2 0.38278238E+00 0.16813797E+04</pdfrwt>
<pdfrwt beam="2">  1       -1 0.43701161E-01 0.16813797E+04</pdfrwt>
<totfact> 0.19885224E+01</totfact>
</mgrwt>
</event>
<event>
12    7  0.1707730E-007  0.1735356E+04  0.7818608E-02  0.8741452E-01
          2   -1    0    0  501    0  0.00000000000E+00  0.00000000000E+00  0.13203150300E+04  0.13203150300E+04  0.00000000000E+00 0. -1.
         -1   -1    0    0    0  501 -0.00000000000E+00 -0.00000000000E+00 -0.57021643049E+03  0.57021643049E+03  0.00000000000E+00 0.  1.
         24    2    1    2    0    0 -0.17956101936E+03  0.12867315643E+03  0.90929890094E+03  0.93905498487E+03  0.78745364875E+02 0.  0.
        254    2    1    2    0    0  0.17956101936E+03 -0.12867315643E+03 -0.15920030146E+03  0.95147647560E+03  0.91168185611E+03 0.  0.
         23    2    4    4    0    0 -0.25475401829E+02  0.36016188185E+03  0.47666540544E+02  0.37533969988E+03  0.90786639871E+02 0.  0.
         23    2    4    4    0    0  0.20503642119E+03 -0.48883503828E+03 -0.20686684200E+03  0.57613677572E+03  0.90222310693E+02 0.  0.
          4    1    3    3  502    0 -0.12167179619E+03  0.88569076188E+02  0.74898523505E+03  0.76395509657E+03  0.00000000000E+00 0. -1.
         -3    1    3    3    0  502 -0.57889223174E+02  0.40104080240E+02  0.16031366589E+03  0.17509988830E+03  0.00000000000E+00 0.  1.
         13    1    5    5    0    0  0.63772680757E+01  0.22450746727E+03  0.67661810727E+02  0.23456852526E+03  0.00000000000E+00 0. -1.
        -13    1    5    5    0    0 -0.31852669905E+02  0.13565441458E+03 -0.19995270183E+02  0.14077117462E+03  0.00000000000E+00 0.  1.
          4    1    6    6  503    0  0.20041201085E+03 -0.39068773975E+03 -0.17720130568E+03  0.47349993328E+03  0.00000000000E+00 0. -1.
         -4    1    6    6    0  503  0.46244103444E+01 -0.98147298528E+02 -0.29665536329E+02  0.10263684244E+03  0.00000000000E+00 0.  1.
<mgrwt>
<rscale>  0 0.17353562E+04</rscale>
<asrwt>0</asrwt>
<pdfrwt beam="1">  1        2 0.20312539E+00 0.17353562E+04</pdfrwt>
<pdfrwt beam="2">  1       -1 0.87725605E-01 0.17353562E+04</pdfrwt>
<totfact> 0.22239522E+01</totfact>
</mgrwt>
</event>
<event>
12    7  0.1707730E-007  0.2456665E+04  0.7818608E-02  0.8418589E-01
         -1   -1    0    0    0  501 -0.00000000000E+00  0.00000000000E+00  0.11687771774E+04  0.11687771774E+04  0.00000000000E+00 0.  1.
          2   -1    0    0  501    0  0.00000000000E+00 -0.00000000000E+00 -0.12909220895E+04  0.12909220895E+04  0.00000000000E+00 0. -1.
         24    2    1    2    0    0 -0.77036732513E+03 -0.72588623939E+03  0.28993218078E+02  0.10619296485E+04  0.80481821058E+02 0.  0.
        254    2    1    2    0    0  0.77036732513E+03  0.72588623939E+03 -0.15113813020E+03  0.13977696184E+04  0.90030024071E+03 0.  0.
         23    2    4    4    0    0  0.77215913365E+03  0.69532336808E+03 -0.41120431427E+03  0.11213030945E+04  0.92343530975E+02 0.  0.
         23    2    4    4    0    0 -0.17918085172E+01  0.30562871313E+02  0.26006618407E+03  0.27646652389E+03  0.88668027237E+02 0.  0.
          4    1    3    3  502    0 -0.41286641782E+03 -0.40385476792E+03 -0.22799291252E+02  0.57799408320E+03  0.00000000000E+00 0. -1.
         -3    1    3    3    0  502 -0.35750090731E+03 -0.32203147148E+03  0.51792509330E+02  0.48393556531E+03  0.00000000000E+00 0.  1.
         13    1    5    5    0    0  0.12463868374E+03  0.91226120110E+02 -0.30809281838E+02  0.15749989944E+03  0.00000000000E+00 0.  1.
        -13    1    5    5    0    0  0.64752044991E+03  0.60409724797E+03 -0.38039503243E+03  0.96380319503E+03  0.00000000000E+00 0. -1.
          1    1    6    6  503    0 -0.13360360073E+02 -0.19349021367E+02  0.19625066170E+02  0.30627227614E+02  0.00000000000E+00 0.  1.
         -1    1    6    6    0  503  0.11568551556E+02  0.49911892680E+02  0.24044111790E+03  0.24583929627E+03  0.00000000000E+00 0. -1.
<mgrwt>
<rscale>  0 0.24566646E+04</rscale>
<asrwt>0</asrwt>
<pdfrwt beam="1">  1        2 0.19860340E+00 0.24566646E+04</pdfrwt>
<pdfrwt beam="2">  1       -1 0.17981187E+00 0.24566646E+04</pdfrwt>
<totfact> 0.35633282E+00</totfact>
</mgrwt>
</event>
<event>
12    7  0.1707730E-007  0.1554572E+04  0.7818608E-02  0.8848953E-01
         -1   -1    0    0    0  501 -0.00000000000E+00  0.00000000000E+00  0.75716300149E+03  0.75716300149E+03  0.00000000000E+00 0.  1.
          2   -1    0    0  501    0  0.00000000000E+00 -0.00000000000E+00 -0.79794372641E+03  0.79794372641E+03  0.00000000000E+00 0. -1.
         24    2    1    2    0    0  0.13527446026E+03  0.48339614678E+03 -0.15171329957E+03  0.53012891418E+03  0.77773556307E+02 0.  0.
        254    2    1    2    0    0 -0.13527446026E+03 -0.48339614678E+03  0.11093257465E+03  0.10249778137E+04  0.88673697801E+03 0.  0.
         23    2    4    4    0    0  0.25520013905E+03  0.20106958776E+02  0.24796225753E+03  0.36752904636E+03  0.89782615221E+02 0.  0.
         23    2    4    4    0    0 -0.39047459931E+03 -0.50350310556E+03 -0.13702968288E+03  0.65744876735E+03  0.86463620600E+02 0.  0.
          2    1    3    3  502    0  0.58859844296E+02  0.20678370325E+03 -0.10539699731E+03  0.23944207701E+03  0.00000000000E+00 0. -1.
         -1    1    3    3    0  502  0.76414615968E+02  0.27661244352E+03 -0.46316302262E+02  0.29068683717E+03  0.00000000000E+00 0.  1.
         13    1    5    5    0    0  0.18109894261E+03  0.36715636232E+02  0.12529112961E+03  0.22325485911E+03  0.00000000000E+00 0. -1.
        -13    1    5    5    0    0  0.74101196442E+02 -0.16608677456E+02  0.12267112792E+03  0.14427418725E+03  0.00000000000E+00 0.  1.
          1    1    6    6  503    0 -0.33828683975E+03 -0.38077287937E+03 -0.10033116070E+03  0.51912649077E+03  0.00000000000E+00 0. -1.
         -1    1    6    6    0  503 -0.52187759563E+02 -0.12273022619E+03 -0.36698522186E+02  0.13832227658E+03  0.00000000000E+00 0.  1.
<mgrwt>
<rscale>  0 0.15545719E+04</rscale>
<asrwt>0</asrwt>
<pdfrwt beam="1">  1        2 0.12276057E+00 0.15545719E+04</pdfrwt>
<pdfrwt beam="2">  1       -1 0.11648662E+00 0.15545719E+04</pdfrwt>
<totfact> 0.25277560E+01</totfact>
</mgrwt>
</event>
<event>
12    7  0.1707730E-007  0.1080421E+04  0.7818608E-02  0.9224488E-01
          2   -1    0    0  501    0  0.00000000000E+00  0.00000000000E+00  0.44912894892E+03  0.44912894892E+03  0.00000000000E+00 0. -1.
         -1   -1    0    0    0  501 -0.00000000000E+00 -0.00000000000E+00 -0.64976272521E+03  0.64976272521E+03  0.00000000000E+00 0.  1.
         24    2    1    2    0    0  0.64184035384E+01 -0.11253866180E+02 -0.19758410314E+03  0.21386030260E+03  0.80801644825E+02 0.  0.
        254    2    1    2    0    0 -0.64184035384E+01  0.11253866180E+02 -0.30496731421E+01  0.88503137153E+03  0.88493128698E+03 0.  0.
         23    2    4    4    0    0  0.37248296524E+03  0.21352440778E+03 -0.57155458042E+02  0.44220386581E+03  0.89113862240E+02 0.  0.
         23    2    4    4    0    0 -0.37890136878E+03 -0.20227054160E+03  0.54105784900E+02  0.44282750572E+03  0.93215581291E+02 0.  0.
          2    1    3    3  502    0 -0.20353071764E+01 -0.35963122000E+02 -0.38799100515E+02  0.52942032640E+02  0.00000000000E+00 0. -1.
         -1    1    3    3    0  502  0.84537107147E+01  0.24709255820E+02 -0.15878500263E+03  0.16091826996E+03  0.00000000000E+00 0.  1.
         13    1    5    5    0    0  0.37700422132E+02  0.55515862950E+02 -0.20643737612E+02  0.70210375092E+02  0.00000000000E+00 0. -1.
        -13    1    5    5    0    0  0.33478254311E+03  0.15800854483E+03 -0.36511720430E+02  0.37199349072E+03  0.00000000000E+00 0.  1.
          1    1    6    6  503    0 -0.41806953067E+02  0.31820881010E+01  0.20382369752E+02  0.46619609674E+02  0.00000000000E+00 0. -1.
         -1    1    6    6    0  503 -0.33709441571E+03 -0.20545262970E+03  0.33723415148E+02  0.39620789604E+03  0.00000000000E+00 0.  1.
<mgrwt>
<rscale>  0 0.10804208E+04</rscale>
<asrwt>0</asrwt>
<pdfrwt beam="1">  1        2 0.69096762E-01 0.10804208E+04</pdfrwt>
<pdfrwt beam="2">  1       -1 0.99963496E-01 0.10804208E+04</pdfrwt>
<totfact> 0.75660243E+01</totfact>
</mgrwt>
</event>
<event>
12    7  0.1707730E-007  0.2460686E+04  0.7818608E-02  0.8417127E-01
         -1   -1    0    0    0  501 -0.00000000000E+00  0.00000000000E+00  0.57957719287E+03  0.57957719287E+03  0.00000000000E+00 0.  1.
          2   -1    0    0  501    0  0.00000000000E+00 -0.00000000000E+00 -0.26118070879E+04  0.26118070879E+04  0.00000000000E+00 0. -1.
         24    2    1    2    0    0  0.88928331177E+03 -0.56612879285E+02 -0.12294193602E+03  0.90304244844E+03  0.79631133109E+02 0.  0.
        254    2    1    2    0    0 -0.88928331177E+03  0.56612879285E+02 -0.19092879590E+04  0.22883418324E+04  0.89280345234E+03 0.  0.
         23    2    4    4    0    0  0.61788784165E+02  0.12596964362E+03 -0.20084010828E+02  0.17031700245E+03  0.94436798270E+02 0.  0.
         23    2    4    4    0    0 -0.95107209593E+03 -0.69356764339E+02 -0.18892039482E+04  0.21180248299E+04  0.87115611596E+02 0.  0.
          4    1    3    3  502    0  0.34064247348E+03 -0.50079773238E+02 -0.74145484869E+02  0.35219714841E+03  0.00000000000E+00 0. -1.
         -3    1    3    3    0  502  0.54864083829E+03 -0.65331060467E+01 -0.48796451152E+02  0.55084530003E+03  0.00000000000E+00 0.  1.
         13    1    5    5    0    0  0.14696293862E+02 -0.77453312178E+01  0.17012894505E+02  0.23778347049E+02  0.00000000000E+00 0.  1.
        -13    1    5    5    0    0  0.47092490303E+02  0.13371497484E+03 -0.37096905333E+02  0.14653865540E+03  0.00000000000E+00 0. -1.
          1    1    6    6  503    0 -0.62506022691E+03 -0.74307972731E+02 -0.11774525145E+04  0.13351465784E+04  0.00000000000E+00 0. -1.
         -1    1    6    6    0  503 -0.32601186902E+03  0.49512083915E+01 -0.71175143377E+03  0.78287825150E+03  0.00000000000E+00 0.  1.
<mgrwt>
<rscale>  0 0.24606859E+04</rscale>
<asrwt>0</asrwt>
<pdfrwt beam="1">  1        2 0.40181648E+00 0.24606859E+04</pdfrwt>
<pdfrwt beam="2">  1       -1 0.89165721E-01 0.24606859E+04</pdfrwt>
<totfact> 0.37578334E+00</totfact>
</mgrwt>
</event>
<event>
12    7  0.1707730E-007  0.1546256E+04  0.7818608E-02  0.8854263E-01
         -1   -1    0    0    0  501 -0.00000000000E+00  0.00000000000E+00  0.76145942532E+03  0.76145942532E+03  0.00000000000E+00 0.  1.
          2   -1    0    0  501    0  0.00000000000E+00 -0.00000000000E+00 -0.78497497459E+03  0.78497497459E+03  0.00000000000E+00 0. -1.
         24    2    1    2    0    0  0.21717902858E+02  0.65765528627E+02 -0.51480302601E+03  0.52557116464E+03  0.80038249895E+02 0.  0.
        254    2    1    2    0    0 -0.21717902858E+02 -0.65765528627E+02  0.49128747675E+03  0.10208632353E+04  0.89218921102E+03 0.  0.
         23    2    4    4    0    0 -0.36219572603E+03 -0.16222022922E+02  0.54467335325E+03  0.66077696047E+03  0.92240076778E+02 0.  0.
         23    2    4    4    0    0  0.34047782317E+03 -0.49543505706E+02 -0.53385876500E+02  0.36008627481E+03  0.91827917701E+02 0.  0.
          4    1    3    3  502    0  0.31583600010E+02  0.57081238503E+02 -0.50494489105E+03  0.50914156634E+03  0.00000000000E+00 0. -1.
         -3    1    3    3    0  502 -0.98656971515E+01  0.86842901247E+01 -0.98581349638E+01  0.16429598298E+02  0.00000000000E+00 0.  1.
         13    1    5    5    0    0 -0.23796293898E+03  0.32985820947E+02  0.33839481044E+03  0.41500056921E+03  0.00000000000E+00 0. -1.
        -13    1    5    5    0    0 -0.12423278704E+03 -0.49207843869E+02  0.20627854281E+03  0.24577639125E+03  0.00000000000E+00 0.  1.
          2    1    6    6  503    0  0.33874002444E+03 -0.61157871547E+02 -0.49753953891E+02  0.34779382590E+03  0.00000000000E+00 0.  1.
         -2    1    6    6    0  503  0.17377987335E+01  0.11614365842E+02 -0.36319226086E+01  0.12292448909E+02  0.00000000000E+00 0. -1.
<mgrwt>
<rscale>  0 0.15462556E+04</rscale>
<asrwt>0</asrwt>
<pdfrwt beam="1">  1        2 0.12076538E+00 0.15462556E+04</pdfrwt>
<pdfrwt beam="2">  1       -1 0.11714760E+00 0.15462556E+04</pdfrwt>
<totfact> 0.25500004E+01</totfact>
</mgrwt>
</event>
<event>
12    7  0.1707730E-007  0.1761803E+04  0.7818608E-02  0.8726880E-01
         -1   -1    0    0    0  501 -0.00000000000E+00  0.00000000000E+00  0.57483244276E+03  0.57483244276E+03  0.00000000000E+00 0.  1.
          2   -1    0    0  501    0  0.00000000000E+00 -0.00000000000E+00 -0.13499369571E+04  0.13499369571E+04  0.00000000000E+00 0. -1.
         24    2    1    2    0    0  0.50211844299E+03 -0.24391328302E+03 -0.60597778037E+03  0.82772356176E+03  0.79376343905E+02 0.  0.
        254    2    1    2    0    0 -0.50211844299E+03  0.24391328302E+03 -0.16912673397E+03  0.10970458381E+04  0.92913352017E+03 0.  0.
         23    2    4    4    0    0 -0.22010301057E+03  0.17543567602E+03 -0.54095726276E+03  0.61704165337E+03  0.94247706498E+02 0.  0.
         23    2    4    4    0    0 -0.28201543242E+03  0.68477607005E+02  0.37183052879E+03  0.48000418472E+03  0.89017910686E+02 0.  0.
          4    1    3    3  502    0  0.38353429747E+03 -0.19007468399E+03 -0.51066738618E+03  0.66633934458E+03  0.00000000000E+00 0. -1.
         -3    1    3    3    0  502  0.11858414552E+03 -0.53838599030E+02 -0.95310394182E+02  0.16138421718E+03  0.00000000000E+00 0.  1.
         13    1    5    5    0    0 -0.19037073714E+03  0.13709452725E+03 -0.50441716082E+03  0.55630261467E+03  0.00000000000E+00 0. -1.
        -13    1    5    5    0    0 -0.29732273433E+02  0.38341148769E+02 -0.36540101940E+02  0.60739038700E+02  0.00000000000E+00 0.  1.
          4    1    6    6  503    0 -0.15600264888E+03  0.44369096669E+02  0.13655328346E+03  0.21201943878E+03  0.00000000000E+00 0. -1.
         -4    1    6    6    0  503 -0.12601278354E+03  0.24108510336E+02  0.23527724533E+03  0.26798474594E+03  0.00000000000E+00 0.  1.
<mgrwt>
<rscale>  0 0.17618031E+04</rscale>
<asrwt>0</asrwt>
<pdfrwt beam="1">  1        2 0.20768261E+00 0.17618031E+04</pdfrwt>
<pdfrwt beam="2">  1       -1 0.88435760E-01 0.17618031E+04</pdfrwt>
<totfact> 0.20956578E+01</totfact>
</mgrwt>
</event>
<event>
12    7  0.1707730E-007  0.1208990E+04  0.7818608E-02  0.9105024E-01
         -1   -1    0    0    0  501 -0.00000000000E+00  0.00000000000E+00  0.73747913801E+03  0.73747913801E+03  0.00000000000E+00 0.  1.
          2   -1    0    0  501    0  0.00000000000E+00 -0.00000000000E+00 -0.49549109426E+03  0.49549109426E+03  0.00000000000E+00 0. -1.
         24    2    1    2    0    0  0.15131057005E+03  0.39328254488E+02  0.26023909743E+03  0.31573703629E+03  0.86740348409E+02 0.  0.
        254    2    1    2    0    0 -0.15131057005E+03 -0.39328254488E+02 -0.18251053689E+02  0.91723319598E+03  0.90362715466E+03 0.  0.
         23    2    4    4    0    0  0.13211141400E+03  0.11985596149E+03 -0.37640554598E+03  0.42671847474E+03  0.92674939559E+02 0.  0.
         23    2    4    4    0    0 -0.28342198405E+03 -0.15918421598E+03  0.35815449229E+03  0.49051472124E+03  0.81623622477E+02 0.  0.
          4    1    3    3  502    0  0.32896167870E+02  0.16083554102E+02  0.14254082950E+03  0.14716904106E+03  0.00000000000E+00 0. -1.
         -1    1    3    3    0  502  0.11841440218E+03  0.23244700387E+02  0.11769826793E+03  0.16856799522E+03  0.00000000000E+00 0.  1.
         13    1    5    5    0    0  0.10027436056E+03  0.11995867464E+03 -0.35621992663E+03  0.38902142247E+03  0.00000000000E+00 0.  1.
        -13    1    5    5    0    0  0.31837053436E+02 -0.10271314261E+00 -0.20185619348E+02  0.37697052271E+02  0.00000000000E+00 0. -1.
          2    1    6    6  503    0 -0.14578211196E+02 -0.38801349086E+00  0.48974991314E+02  0.51100142567E+02  0.00000000000E+00 0.  1.
         -2    1    6    6    0  503 -0.26884377285E+03 -0.15879620249E+03  0.30917950098E+03  0.43941457868E+03  0.00000000000E+00 0. -1.
<mgrwt>
<rscale>  0 0.12089902E+04</rscale>
<asrwt>0</asrwt>
<pdfrwt beam="1">  1        2 0.76229399E-01 0.12089902E+04</pdfrwt>
<pdfrwt beam="2">  1       -1 0.11345833E+00 0.12089902E+04</pdfrwt>
<totfact> 0.49784118E+01</totfact>
</mgrwt>
</event>
<event>
12    7  0.1707730E-007  0.1275954E+04  0.7818608E-02  0.9048854E-01
          2   -1    0    0  501    0  0.00000000000E+00  0.00000000000E+00  0.26313676666E+04  0.26313676666E+04  0.00000000000E+00 0. -1.
         -1   -1    0    0    0  501 -0.00000000000E+00 -0.00000000000E+00 -0.15467798688E+03  0.15467798688E+03  0.00000000000E+00 0.  1.
         24    2    1    2    0    0  0.29679934301E+03 -0.43812902629E+02  0.41859400598E+03  0.52141976810E+03  0.81536570140E+02 0.  0.
        254    2    1    2    0    0 -0.29679934301E+03  0.43812902629E+02  0.20580956737E+04  0.22646258854E+04  0.89597052298E+03 0.  0.
         23    2    4    4    0    0  0.28976448934E+03 -0.12165570797E+03  0.75323155117E+03  0.82143857716E+03  0.92951577709E+02 0.  0.
         23    2    4    4    0    0 -0.58656383235E+03  0.16546861060E+03  0.13048641226E+04  0.14431873082E+04  0.93178526264E+02 0.  0.
          4    1    3    3  502    0  0.16945974955E+03 -0.42511199314E+02  0.30128733972E+03  0.34827843726E+03  0.00000000000E+00 0. -1.
         -3    1    3    3    0  502  0.12733959347E+03 -0.13017033149E+01  0.11730666626E+03  0.17314133084E+03  0.00000000000E+00 0.  1.
         13    1    5    5    0    0  0.10588596316E+03 -0.96912874519E+01  0.17928010452E+03  0.20843971340E+03  0.00000000000E+00 0. -1.
        -13    1    5    5    0    0  0.18387852618E+03 -0.11196442052E+03  0.57395144665E+03  0.61299886375E+03  0.00000000000E+00 0.  1.
          1    1    6    6  503    0 -0.65847265610E+02  0.17662613924E+01  0.20504005409E+03  0.21536110570E+03  0.00000000000E+00 0. -1.
         -1    1    6    6    0  503 -0.52071656674E+03  0.16370234921E+03  0.10998240685E+04  0.12278262025E+04  0.00000000000E+00 0.  1.
<mgrwt>
<rscale>  0 0.12759540E+04</rscale>
<asrwt>0</asrwt>
<pdfrwt beam="1">  1        2 0.40482576E+00 0.12759540E+04</pdfrwt>
<pdfrwt beam="2">  1       -1 0.23796615E-01 0.12759540E+04</pdfrwt>
<totfact> 0.50041418E+01</totfact>
</mgrwt>
</event>
<event>
12    7  0.1707730E-007  0.2815576E+04  0.7818608E-02  0.8298449E-01
         -1   -1    0    0    0  501 -0.00000000000E+00  0.00000000000E+00  0.14866221853E+04  0.14866221853E+04  0.00000000000E+00 0.  1.
          2   -1    0    0  501    0  0.00000000000E+00 -0.00000000000E+00 -0.13331346518E+04  0.13331346518E+04  0.00000000000E+00 0. -1.
         24    2    1    2    0    0  0.11018956144E+04 -0.59861230818E+02 -0.54363616398E+03  0.12326369597E+04  0.78078701195E+02 0.  0.
        254    2    1    2    0    0 -0.11018956144E+04  0.59861230818E+02  0.69712369754E+03  0.15871198774E+04  0.90289021676E+03 0.  0.
         23    2    4    4    0    0 -0.10692549747E+04 -0.24440245450E+03  0.47592756189E+03  0.11989754762E+04  0.89422524095E+02 0.  0.
         23    2    4    4    0    0 -0.32640639769E+02  0.30426368532E+03  0.22119613566E+03  0.38814440118E+03  0.89925214322E+02 0.  0.
          4    1    3    3  502    0  0.75506233146E+03 -0.58699124417E+02 -0.40776483188E+03  0.86013770392E+03  0.00000000000E+00 0. -1.
         -3    1    3    3    0  502  0.34683328297E+03 -0.11621064010E+01 -0.13587133211E+03  0.37249925578E+03  0.00000000000E+00 0.  1.
         13    1    5    5    0    0 -0.36864274857E+03 -0.12477732039E+03  0.15064611550E+03  0.41732614089E+03  0.00000000000E+00 0. -1.
        -13    1    5    5    0    0 -0.70061222609E+03 -0.11962513412E+03  0.32528144639E+03  0.78164933533E+03  0.00000000000E+00 0.  1.
          2    1    6    6  503    0 -0.55768017025E+02  0.22664856512E+03  0.19139758605E+03  0.30184876965E+03  0.00000000000E+00 0. -1.
         -2    1    6    6    0  503  0.23127377257E+02  0.77615120205E+02  0.29798549601E+02  0.86295631532E+02  0.00000000000E+00 0.  1.
<mgrwt>
<rscale>  0 0.28155764E+04</rscale>
<asrwt>0</asrwt>
<pdfrwt beam="1">  1        2 0.20509764E+00 0.28155764E+04</pdfrwt>
<pdfrwt beam="2">  1       -1 0.22871110E+00 0.28155764E+04</pdfrwt>
<totfact> 0.15070947E+00</totfact>
</mgrwt>
</event>
<event>
12    7  0.1707730E-007  0.1253802E+04  0.7818608E-02  0.9067025E-01
         -1   -1    0    0    0  501 -0.00000000000E+00  0.00000000000E+00  0.20681648473E+03  0.20681648473E+03  0.00000000000E+00 0.  1.
          2   -1    0    0  501    0  0.00000000000E+00 -0.00000000000E+00 -0.19002577003E+04  0.19002577003E+04  0.00000000000E+00 0. -1.
         24    2    1    2    0    0 -0.28227600228E+03  0.68561609278E+02 -0.39735574710E+03  0.49858855722E+03  0.79489143368E+02 0.  0.
        254    2    1    2    0    0  0.28227600228E+03 -0.68561609278E+02 -0.12960854684E+04  0.16084856278E+04  0.90719790428E+03 0.  0.
         23    2    4    4    0    0 -0.17054044038E+03  0.27133135197E+03 -0.73124081160E+03  0.80357733948E+03  0.91206751996E+02 0.  0.
         23    2    4    4    0    0  0.45281644266E+03 -0.33989296125E+03 -0.56484465685E+03  0.80490828830E+03  0.90873045268E+02 0.  0.
          4    1    3    3  502    0 -0.41404250907E+02  0.34067080901E+02 -0.42994712301E+02  0.68727165518E+02  0.00000000000E+00 0. -1.
         -3    1    3    3    0  502 -0.24087175137E+03  0.34494528377E+02 -0.35436103479E+03  0.42986139170E+03  0.00000000000E+00 0.  1.
         13    1    5    5    0    0 -0.17152953456E+03  0.26988270149E+03 -0.73381371671E+03  0.80046338119E+03  0.00000000000E+00 0.  1.
        -13    1    5    5    0    0  0.98909417512E+00  0.14486504789E+01  0.25729051148E+01  0.31139582892E+01  0.00000000000E+00 0. -1.
          4    1    6    6  503    0  0.10167457170E+03 -0.81444048419E+02 -0.80082776200E+02  0.15291861429E+03  0.00000000000E+00 0. -1.
         -4    1    6    6    0  503  0.35114187096E+03 -0.25844891283E+03 -0.48476188065E+03  0.65198967401E+03  0.00000000000E+00 0.  1.
<mgrwt>
<rscale>  0 0.12538016E+04</rscale>
<asrwt>0</asrwt>
<pdfrwt beam="1">  1        2 0.29234733E+00 0.12538016E+04</pdfrwt>
<pdfrwt beam="2">  1       -1 0.31817922E-01 0.12538016E+04</pdfrwt>
<totfact> 0.78246804E+01</totfact>
</mgrwt>
</event>
<event>
12    7  0.1707730E-007  0.2005261E+04  0.7818608E-02  0.8604165E-01
          2   -1    0    0  501    0  0.00000000000E+00  0.00000000000E+00  0.22254557043E+04  0.22254557043E+04  0.00000000000E+00 0. -1.
         -1   -1    0    0    0  501 -0.00000000000E+00 -0.00000000000E+00 -0.45171307364E+03  0.45171307364E+03  0.00000000000E+00 0.  1.
         24    2    1    2    0    0  0.22979456775E+03  0.45212300206E+03  0.15716888978E+04  0.16531913522E+04  0.74932658170E+02 0.  0.
        254    2    1    2    0    0 -0.22979456775E+03 -0.45212300206E+03  0.20205373286E+03  0.10239774257E+04  0.86630439514E+03 0.  0.
         23    2    4    4    0    0  0.23528891937E+03 -0.13448967188E+03 -0.18001458155E+03  0.33723677994E+03  0.88741471430E+02 0.  0.
         23    2    4    4    0    0 -0.46508348712E+03 -0.31763333018E+03  0.38206831440E+03  0.68674064577E+03  0.91885446306E+02 0.  0.
          2    1    3    3  502    0  0.21061579351E+03  0.35350254142E+03  0.12271503323E+04  0.12943032864E+04  0.00000000000E+00 0. -1.
         -3    1    3    3    0  502  0.19178774238E+02  0.98620460644E+02  0.34453856549E+03  0.35888806576E+03  0.00000000000E+00 0.  1.
         13    1    5    5    0    0  0.10251178370E+03 -0.26616295823E+02 -0.30977511812E+02  0.11034808217E+03  0.00000000000E+00 0. -1.
        -13    1    5    5    0    0  0.13277713567E+03 -0.10787337606E+03 -0.14903706973E+03  0.22688869777E+03  0.00000000000E+00 0.  1.
          3    1    6    6  503    0 -0.50604798908E+02 -0.57398245052E+01  0.23088362699E+02  0.55918366840E+02  0.00000000000E+00 0. -1.
         -3    1    6    6    0  503 -0.41447868821E+03 -0.31189350567E+03  0.35897995170E+03  0.63082227893E+03  0.00000000000E+00 0.  1.
<mgrwt>
<rscale>  0 0.20052605E+04</rscale>
<asrwt>0</asrwt>
<pdfrwt beam="1">  1        2 0.34237780E+00 0.20052605E+04</pdfrwt>
<pdfrwt beam="2">  1       -1 0.69494320E-01 0.20052605E+04</pdfrwt>
<totfact> 0.11062082E+01</totfact>
</mgrwt>
</event>
<event>
12    7  0.1707730E-007  0.2076226E+04  0.7818608E-02  0.8571789E-01
         -1   -1    0    0    0  501 -0.00000000000E+00  0.00000000000E+00  0.42275451545E+03  0.42275451545E+03  0.00000000000E+00 0.  1.
          2   -1    0    0  501    0  0.00000000000E+00 -0.00000000000E+00 -0.25491829457E+04  0.25491829457E+04  0.00000000000E+00 0. -1.
         24    2    1    2    0    0 -0.40596288790E+03  0.44803644636E+03 -0.18048028494E+04  0.19050535401E+04  0.79831961128E+02 0.  0.
        254    2    1    2    0    0  0.40596288790E+03 -0.44803644636E+03 -0.32162558093E+03  0.10668839211E+04  0.81808053585E+03 0.  0.
         23    2    4    4    0    0  0.62555682472E+03 -0.22741547669E+03 -0.31705321309E+03  0.74280616672E+03  0.90548999928E+02 0.  0.
         23    2    4    4    0    0 -0.21959393682E+03 -0.22062096966E+03 -0.45723678384E+01  0.32407775437E+03  0.90057620346E+02 0.  0.
          2    1    3    3  502    0 -0.33918999772E+03  0.36149124925E+03 -0.13770500265E+04  0.14635547661E+04  0.00000000000E+00 0. -1.
         -1    1    3    3    0  502 -0.66772890180E+02  0.86545197109E+02 -0.42775282285E+03  0.44149877402E+03  0.00000000000E+00 0.  1.
         13    1    5    5    0    0  0.33450381633E+03 -0.15031464168E+03 -0.13402307959E+03  0.39044779485E+03  0.00000000000E+00 0. -1.
        -13    1    5    5    0    0  0.29105300840E+03 -0.77100835010E+02 -0.18303013351E+03  0.35235837187E+03  0.00000000000E+00 0.  1.
          4    1    6    6  503    0 -0.48938791844E+02 -0.16147842296E+02 -0.24381467279E+02  0.57010649046E+02  0.00000000000E+00 0. -1.
         -4    1    6    6    0  503 -0.17065514498E+03 -0.20447312737E+03  0.19809099440E+02  0.26706710532E+03  0.00000000000E+00 0.  1.
<mgrwt>
<rscale>  0 0.20762260E+04</rscale>
<asrwt>0</asrwt>
<pdfrwt beam="1">  1        2 0.39218199E+00 0.20762260E+04</pdfrwt>
<pdfrwt beam="2">  1       -1 0.65039157E-01 0.20762260E+04</pdfrwt>
<totfact> 0.82129255E+00</totfact>
</mgrwt>
</event>
<event>
12    7  0.1707730E-007  0.1263072E+04  0.7818608E-02  0.9059373E-01
         -1   -1    0    0    0  501 -0.00000000000E+00  0.00000000000E+00  0.49484243375E+03  0.49484243375E+03  0.00000000000E+00 0.  1.
          2   -1    0    0  501    0  0.00000000000E+00 -0.00000000000E+00 -0.80598938715E+03  0.80598938715E+03  0.00000000000E+00 0. -1.
         24    2    1    2    0    0 -0.98831506200E+02  0.20171985981E+03  0.13329224567E+03  0.27304750094E+03  0.79558447392E+02 0.  0.
        254    2    1    2    0    0  0.98831506200E+02 -0.20171985981E+03 -0.44443919907E+03  0.10277843200E+04  0.89908611279E+03 0.  0.
         23    2    4    4    0    0  0.29185431609E+03  0.19875087141E+02  0.16392663055E+03  0.34608814131E+03  0.85621845587E+02 0.  0.
         23    2    4    4    0    0 -0.19302280989E+03 -0.22159494695E+03 -0.60836582962E+03  0.68169617864E+03  0.90766577928E+02 0.  0.
          2    1    3    3  502    0 -0.21942744291E+01  0.60497311620E+02  0.82239196557E+01  0.61093145344E+02  0.00000000000E+00 0. -1.
         -1    1    3    3    0  502 -0.96637231771E+02  0.14122254819E+03  0.12506832602E+03  0.21195435559E+03  0.00000000000E+00 0.  1.
         13    1    5    5    0    0  0.10230147914E+03 -0.12252115100E+02  0.99738832512E+02  0.14339993609E+03  0.00000000000E+00 0.  1.
        -13    1    5    5    0    0  0.18955283695E+03  0.32127202240E+02  0.64187798038E+02  0.20268820522E+03  0.00000000000E+00 0. -1.
          1    1    6    6  503    0 -0.15048547108E+03 -0.13651768069E+03 -0.33007146958E+03  0.38759531625E+03  0.00000000000E+00 0. -1.
         -1    1    6    6    0  503 -0.42537338810E+02 -0.85077266256E+02 -0.27829436005E+03  0.29410086239E+03  0.00000000000E+00 0.  1.
<mgrwt>
<rscale>  0 0.12630720E+04</rscale>
<asrwt>0</asrwt>
<pdfrwt beam="1">  1        2 0.12399837E+00 0.12630720E+04</pdfrwt>
<pdfrwt beam="2">  1       -1 0.76129605E-01 0.12630720E+04</pdfrwt>
<totfact> 0.66315950E+01</totfact>
</mgrwt>
</event>
<event>
12    7  0.1707730E-007  0.2023134E+04  0.7818608E-02  0.8595880E-01
         -1   -1    0    0    0  501 -0.00000000000E+00  0.00000000000E+00  0.53622272910E+03  0.53622272910E+03  0.00000000000E+00 0.  1.
          2   -1    0    0  501    0  0.00000000000E+00 -0.00000000000E+00 -0.19082892408E+04  0.19082892408E+04  0.00000000000E+00 0. -1.
         24    2    1    2    0    0  0.88961945047E+02  0.80725124089E+03 -0.57344574672E+03  0.99737252771E+03  0.79643838496E+02 0.  0.
        254    2    1    2    0    0 -0.88961945047E+02 -0.80725124089E+03 -0.79862076502E+03  0.14471394422E+04  0.89266379191E+03 0.  0.
         23    2    4    4    0    0 -0.20816027638E+03 -0.93933649879E+03 -0.50328982951E+03  0.10896229575E+04  0.91070184415E+02 0.  0.
         23    2    4    4    0    0  0.11919833134E+03  0.13208525790E+03 -0.29533093551E+03  0.35751648470E+03  0.94567001717E+02 0.  0.
          2    1    3    3  502    0  0.29897109819E+02  0.11385666874E+03 -0.11120774674E+03  0.16193931310E+03  0.00000000000E+00 0. -1.
         -3    1    3    3    0  502  0.59064835228E+02  0.69339457214E+03 -0.46223799999E+03  0.83543321461E+03  0.00000000000E+00 0.  1.
         13    1    5    5    0    0  0.86842428003E+01 -0.21134354358E+02 -0.93884236405E+01  0.24702621432E+02  0.00000000000E+00 0. -1.
        -13    1    5    5    0    0 -0.21684451919E+03 -0.91820214443E+03 -0.49390140587E+03  0.10649203361E+04  0.00000000000E+00 0.  1.
          4    1    6    6  503    0  0.52322227869E+02  0.16413006410E+02 -0.15189430675E+03  0.16148957468E+03  0.00000000000E+00 0. -1.
         -4    1    6    6    0  503  0.66876103469E+02  0.11567225149E+03 -0.14343662876E+03  0.19602691002E+03  0.00000000000E+00 0.  1.
<mgrwt>
<rscale>  0 0.20231343E+04</rscale>
<asrwt>0</asrwt>
<pdfrwt beam="1">  1        2 0.29358296E+00 0.20231343E+04</pdfrwt>
<pdfrwt beam="2">  1       -1 0.82495803E-01 0.20231343E+04</pdfrwt>
<totfact> 0.11585938E+01</totfact>
</mgrwt>
</event>
<event>
12    7  0.1707730E-007  0.1734547E+04  0.7818608E-02  0.8741902E-01
          2   -1    0    0  501    0  0.00000000000E+00  0.00000000000E+00  0.23810612032E+04  0.23810612032E+04  0.00000000000E+00 0. -1.
         -1   -1    0    0    0  501 -0.00000000000E+00 -0.00000000000E+00 -0.31589428765E+03  0.31589428765E+03  0.00000000000E+00 0.  1.
         24    2    1    2    0    0  0.24454529450E+03  0.53937718687E+03  0.10805052858E+04  0.12346830281E+04  0.78869236208E+02 0.  0.
        254    2    1    2    0    0 -0.24454529450E+03 -0.53937718687E+03  0.98466162978E+03  0.14622724628E+04  0.90440703200E+03 0.  0.
         23    2    4    4    0    0 -0.25076635899E+03  0.64125346564E+02  0.76639215099E+03  0.81386761497E+03  0.89597649073E+02 0.  0.
         23    2    4    4    0    0  0.62210644945E+01 -0.60350253343E+03  0.21826947879E+03  0.64840484783E+03  0.92375710131E+02 0.  0.
          2    1    3    3  502    0  0.23524216195E+03  0.48090569639E+03  0.93212019404E+03  0.10749219598E+04  0.00000000000E+00 0. -1.
         -1    1    3    3    0  502  0.93031325466E+01  0.58471490475E+02  0.14838509176E+03  0.15976106825E+03  0.00000000000E+00 0.  1.
         13    1    5    5    0    0 -0.14918582769E+03  0.81278667055E+01  0.52835578747E+03  0.54907404924E+03  0.00000000000E+00 0. -1.
        -13    1    5    5    0    0 -0.10158053130E+03  0.55997479859E+02  0.23803636352E+03  0.26479356572E+03  0.00000000000E+00 0.  1.
          3    1    6    6  503    0  0.13537242958E+02 -0.16410722842E+03  0.18589963231E+02  0.16571066984E+03  0.00000000000E+00 0. -1.
         -3    1    6    6    0  503 -0.73161784634E+01 -0.43939530501E+03  0.19967951556E+03  0.48269417799E+03  0.00000000000E+00 0.  1.
<mgrwt>
<rscale>  0 0.17345474E+04</rscale>
<asrwt>0</asrwt>
<pdfrwt beam="1">  1        2 0.36631710E+00 0.17345474E+04</pdfrwt>
<pdfrwt beam="2">  1       -1 0.48599123E-01 0.17345474E+04</pdfrwt>
<totfact> 0.18680021E+01</totfact>
</mgrwt>
</event>
<event>
12    7  0.1707730E-007  0.2052808E+04  0.7818608E-02  0.8582322E-01
          2   -1    0    0  501    0  0.00000000000E+00  0.00000000000E+00  0.15880735126E+04  0.15880735126E+04  0.00000000000E+00 0. -1.
         -1   -1    0    0    0  501 -0.00000000000E+00 -0.00000000000E+00 -0.66338572605E+03  0.66338572605E+03  0.00000000000E+00 0.  1.
         24    2    1    2    0    0  0.79137626982E+02 -0.65182810491E+03  0.90112969759E+03  0.11177949116E+04  0.79297479194E+02 0.  0.
        254    2    1    2    0    0 -0.79137626982E+02  0.65182810491E+03  0.23558088977E+02  0.11336643270E+04  0.92384911132E+03 0.  0.
         23    2    4    4    0    0 -0.28637073154E+03  0.10184062611E+03 -0.31591797617E+03  0.44879927211E+03  0.96108844378E+02 0.  0.
         23    2    4    4    0    0  0.20723310456E+03  0.54998747880E+03  0.33947606515E+03  0.68486505493E+03  0.91456865208E+02 0.  0.
          4    1    3    3  502    0  0.58808821564E+02 -0.49620968685E+03  0.62511539949E+03  0.80028232113E+03  0.00000000000E+00 0. -1.
         -3    1    3    3    0  502  0.20328805419E+02 -0.15561841806E+03  0.27601429810E+03  0.31751259050E+03  0.00000000000E+00 0.  1.
         13    1    5    5    0    0 -0.15828309338E+03  0.52809019916E+02 -0.10479603646E+03  0.19703943639E+03  0.00000000000E+00 0. -1.
        -13    1    5    5    0    0 -0.12808763816E+03  0.49031606192E+02 -0.21112193971E+03  0.25175983572E+03  0.00000000000E+00 0.  1.
          4    1    6    6  503    0 -0.52291194965E+01  0.35880229237E+01 -0.16965448282E+01  0.65647439831E+01  0.00000000000E+00 0. -1.
         -4    1    6    6    0  503  0.21246222405E+03  0.54639945588E+03  0.34117260998E+03  0.67830031095E+03  0.00000000000E+00 0.  1.
<mgrwt>
<rscale>  0 0.20528081E+04</rscale>
<asrwt>0</asrwt>
<pdfrwt beam="1">  1        2 0.24431900E+00 0.20528081E+04</pdfrwt>
<pdfrwt beam="2">  1       -1 0.10205934E+00 0.20528081E+04</pdfrwt>
<totfact> 0.10853024E+01</totfact>
</mgrwt>
</event>
<event>
12    7  0.1707730E-007  0.1161954E+04  0.7818608E-02  0.9146826E-01
          2   -1    0    0  501    0  0.00000000000E+00  0.00000000000E+00  0.16793007416E+04  0.16793007416E+04  0.00000000000E+00 0. -1.
         -1   -1    0    0    0  501 -0.00000000000E+00 -0.00000000000E+00 -0.20099676430E+03  0.20099676430E+03  0.00000000000E+00 0.  1.
         24    2    1    2    0    0 -0.54075232735E+01 -0.53032528097E+02  0.14518688134E+02  0.96760473125E+02  0.79436178847E+02 0.  0.
        254    2    1    2    0    0  0.54075232735E+01  0.53032528097E+02  0.14637852892E+04  0.17835370328E+04  0.10175928872E+04 0.  0.
         23    2    4    4    0    0  0.45569054076E+03 -0.41383944229E+02  0.37746732906E+03  0.60012889600E+03  0.91140592076E+02 0.  0.
         23    2    4    4    0    0 -0.45028301749E+03  0.94416472326E+02  0.10863179601E+04  0.11834081368E+04  0.93267580978E+02 0.  0.
          2    1    3    3  502    0  0.36428615173E+00 -0.49092406478E+02  0.44326710843E+02  0.66144193792E+02  0.00000000000E+00 0. -1.
         -1    1    3    3    0  502 -0.57718094252E+01 -0.39401216187E+01 -0.29808022708E+02  0.30616279333E+02  0.00000000000E+00 0.  1.
         13    1    5    5    0    0  0.24094042014E+03  0.15358232137E+02  0.23046765233E+03  0.33377162870E+03  0.00000000000E+00 0.  1.
        -13    1    5    5    0    0  0.21475012062E+03 -0.56742176366E+02  0.14699967673E+03  0.26635726730E+03  0.00000000000E+00 0. -1.
          1    1    6    6  503    0 -0.11030969780E+03  0.88774018080E+01  0.36506366495E+03  0.38146889409E+03  0.00000000000E+00 0. -1.
         -1    1    6    6    0  503 -0.33997331969E+03  0.85539070518E+02  0.72125429516E+03  0.80193924269E+03  0.00000000000E+00 0.  1.
<mgrwt>
<rscale>  0 0.11619536E+04</rscale>
<asrwt>0</asrwt>
<pdfrwt beam="1">  1        2 0.25835395E+00 0.11619536E+04</pdfrwt>
<pdfrwt beam="2">  1       -1 0.30922580E-01 0.11619536E+04</pdfrwt>
<totfact> 0.10976665E+02</totfact>
</mgrwt>
</event>
<event>
12    7  0.1707730E-007  0.1334833E+04  0.7818608E-02  0.9002390E-01
         -1   -1    0    0    0  501 -0.00000000000E+00  0.00000000000E+00  0.11053788443E+03  0.11053788443E+03  0.00000000000E+00 0.  1.
          2   -1    0    0  501    0  0.00000000000E+00 -0.00000000000E+00 -0.40297902236E+04  0.40297902236E+04  0.00000000000E+00 0. -1.
         24    2    1    2    0    0 -0.33300002383E+03 -0.96928769161E+02 -0.75478251601E+03  0.83454197967E+03  0.80495137698E+02 0.  0.
        254    2    1    2    0    0  0.33300002383E+03  0.96928769161E+02 -0.31644698232E+04  0.33057861284E+04  0.89110519170E+03 0.  0.
         23    2    4    4    0    0  0.41806934776E+02 -0.25169581491E+03 -0.30612093066E+03  0.41010781252E+03  0.96849319363E+02 0.  0.
         23    2    4    4    0    0  0.29119308905E+03  0.34862458407E+03 -0.28583488925E+04  0.28956783159E+04  0.91989140357E+02 0.  0.
          2    1    3    3  502    0 -0.23121287033E+03 -0.51180883810E+02 -0.58772317902E+03  0.63363823230E+03  0.00000000000E+00 0. -1.
         -1    1    3    3    0  502 -0.10178715350E+03 -0.45747885350E+02 -0.16705933699E+03  0.20090374737E+03  0.00000000000E+00 0.  1.
         13    1    5    5    0    0 -0.24660219474E+02 -0.31484072457E+02 -0.68975013060E+02  0.79730330927E+02  0.00000000000E+00 0.  1.
        -13    1    5    5    0    0  0.66467154251E+02 -0.22021174245E+03 -0.23714591760E+03  0.33037748159E+03  0.00000000000E+00 0. -1.
          1    1    6    6  503    0  0.27996992689E+03  0.30886296416E+03 -0.24464465261E+04  0.24817091078E+04  0.00000000000E+00 0. -1.
         -1    1    6    6    0  503  0.11223162157E+02  0.39761619906E+02 -0.41190236640E+03  0.41396920807E+03  0.00000000000E+00 0.  1.
<mgrwt>
<rscale>  0 0.13348326E+04</rscale>
<asrwt>0</asrwt>
<pdfrwt beam="1">  1        2 0.61996777E+00 0.13348326E+04</pdfrwt>
<pdfrwt beam="2">  1       -1 0.17005827E-01 0.13348326E+04</pdfrwt>
<totfact> 0.99677015E+00</totfact>
</mgrwt>
</event>
<event>
12    7  0.1707730E-007  0.1510700E+04  0.7818608E-02  0.8877369E-01
          2   -1    0    0  501    0  0.00000000000E+00  0.00000000000E+00  0.11002688950E+04  0.11002688950E+04  0.00000000000E+00 0. -1.
         -1   -1    0    0    0  501 -0.00000000000E+00 -0.00000000000E+00 -0.51855833596E+03  0.51855833596E+03  0.00000000000E+00 0.  1.
         24    2    1    2    0    0 -0.32222786949E+03 -0.23563519907E+03 -0.12097247169E+03  0.42400837993E+03  0.76118463065E+02 0.  0.
        254    2    1    2    0    0  0.32222786949E+03  0.23563519907E+03  0.70268303072E+03  0.11948188510E+04  0.88004198661E+03 0.  0.
         23    2    4    4    0    0  0.39970571835E+03 -0.23916569350E+03  0.39419632557E+03  0.61648261041E+03  0.87722150060E+02 0.  0.
         23    2    4    4    0    0 -0.77477848859E+02  0.47480089258E+03  0.30848670514E+03  0.57833624062E+03  0.88713332177E+02 0.  0.
          4    1    3    3  502    0 -0.12307587881E+03 -0.52156448095E+02 -0.59582628856E+02  0.14634909184E+03  0.00000000000E+00 0. -1.
         -3    1    3    3    0  502 -0.19915199069E+03 -0.18347875098E+03 -0.61389842835E+02  0.27765928808E+03  0.00000000000E+00 0.  1.
         13    1    5    5    0    0  0.42477472844E+01 -0.40783834098E+01 -0.47299187344E+01  0.75530589474E+01  0.00000000000E+00 0.  1.
        -13    1    5    5    0    0  0.39545797107E+03 -0.23508731009E+03  0.39892624431E+03  0.60892955146E+03  0.00000000000E+00 0. -1.
          4    1    6    6  503    0 -0.50713823467E+02  0.32602539330E+03  0.16095715853E+03  0.36711259288E+03  0.00000000000E+00 0. -1.
         -4    1    6    6    0  503 -0.26764025392E+02  0.14877549927E+03  0.14752954661E+03  0.21122364774E+03  0.00000000000E+00 0.  1.
<mgrwt>
<rscale>  0 0.15107000E+04</rscale>
<asrwt>0</asrwt>
<pdfrwt beam="1">  1        2 0.16927214E+00 0.15107000E+04</pdfrwt>
<pdfrwt beam="2">  1       -1 0.79778206E-01 0.15107000E+04</pdfrwt>
<totfact> 0.37635123E+01</totfact>
</mgrwt>
</event>
<event>
12    7  0.1707730E-007  0.1661024E+04  0.7818608E-02  0.8783911E-01
         -1   -1    0    0    0  501 -0.00000000000E+00  0.00000000000E+00  0.21728807635E+03  0.21728807635E+03  0.00000000000E+00 0.  1.
          2   -1    0    0  501    0  0.00000000000E+00 -0.00000000000E+00 -0.31743581506E+04  0.31743581506E+04  0.00000000000E+00 0. -1.
         24    2    1    2    0    0  0.42003567230E+03  0.57428969840E+02 -0.18377966618E+04  0.18876455460E+04  0.77337472662E+02 0.  0.
        254    2    1    2    0    0 -0.42003567230E+03 -0.57428969840E+02 -0.11192734125E+04  0.15040006810E+04  0.91077825175E+03 0.  0.
         23    2    4    4    0    0 -0.44882554711E+03  0.17184569940E+03 -0.11541050755E+04  0.12535982022E+04  0.92599195759E+02 0.  0.
         23    2    4    4    0    0  0.28789874808E+02 -0.22927466924E+03  0.34831663038E+02  0.25040247877E+03  0.89957911141E+02 0.  0.
          2    1    3    3  502    0  0.29692549438E+03  0.64133338172E+01 -0.13166181318E+04  0.13496996647E+04  0.00000000000E+00 0. -1.
         -1    1    3    3    0  502  0.12311017792E+03  0.51015636023E+02 -0.52117853003E+03  0.53794588129E+03  0.00000000000E+00 0.  1.
         13    1    5    5    0    0 -0.29325991413E+02 -0.11622458406E+02 -0.71143605765E+02  0.77823569393E+02  0.00000000000E+00 0. -1.
        -13    1    5    5    0    0 -0.41949955570E+03  0.18346815781E+03 -0.10829614698E+04  0.11757746328E+04  0.00000000000E+00 0.  1.
          3    1    6    6  503    0  0.51710632838E+02 -0.79604856498E+02 -0.46985445590E+00  0.94927042984E+02  0.00000000000E+00 0. -1.
         -3    1    6    6    0  503 -0.22920758030E+02 -0.14966981274E+03  0.35301517494E+02  0.15547543579E+03  0.00000000000E+00 0.  1.
<mgrwt>
<rscale>  0 0.16610240E+04</rscale>
<asrwt>0</asrwt>
<pdfrwt beam="1">  1        2 0.48836276E+00 0.16610240E+04</pdfrwt>
<pdfrwt beam="2">  1       -1 0.33428937E-01 0.16610240E+04</pdfrwt>
<totfact> 0.12423130E+01</totfact>
</mgrwt>
</event>
<event>
12    7  0.1707730E-007  0.1917992E+04  0.7818608E-02  0.8645952E-01
          2   -1    0    0  501    0  0.00000000000E+00  0.00000000000E+00  0.22124348039E+04  0.22124348039E+04  0.00000000000E+00 0. -1.
         -1   -1    0    0    0  501 -0.00000000000E+00 -0.00000000000E+00 -0.41568389404E+03  0.41568389404E+03  0.00000000000E+00 0.  1.
         24    2    1    2    0    0  0.70118914035E+03 -0.26192695696E+03  0.77002655813E+03  0.10764680858E+04  0.74637110418E+02 0.  0.
        254    2    1    2    0    0 -0.70118914035E+03  0.26192695696E+03  0.10267243517E+04  0.15516506121E+04  0.89060922198E+03 0.  0.
         23    2    4    4    0    0 -0.53383766998E+03 -0.53990079315E+02  0.10497848103E+04  0.11824472401E+04  0.90750984357E+02 0.  0.
         23    2    4    4    0    0 -0.16735147037E+03  0.31591703627E+03 -0.23060458626E+02  0.36920337195E+03  0.89270693204E+02 0.  0.
          4    1    3    3  502    0  0.14798453303E+03 -0.86853043186E+02  0.19049140058E+03  0.25637832752E+03  0.00000000000E+00 0. -1.
         -3    1    3    3    0  502  0.55320460732E+03 -0.17507391377E+03  0.57953515755E+03  0.82008975831E+03  0.00000000000E+00 0.  1.
         13    1    5    5    0    0 -0.19743141397E+03  0.18849389329E+02  0.34028849901E+03  0.39386637995E+03  0.00000000000E+00 0.  1.
        -13    1    5    5    0    0 -0.33640625602E+03 -0.72839468644E+02  0.70949631131E+03  0.78858086018E+03  0.00000000000E+00 0. -1.
          4    1    6    6  503    0 -0.29479488594E+02  0.71538795144E+01 -0.17443665617E+01  0.30385211116E+02  0.00000000000E+00 0. -1.
         -4    1    6    6    0  503 -0.13787198177E+03  0.30876315676E+03 -0.21316092064E+02  0.33881816083E+03  0.00000000000E+00 0.  1.
<mgrwt>
<rscale>  0 0.19179922E+04</rscale>
<asrwt>0</asrwt>
<pdfrwt beam="1">  1        2 0.34037458E+00 0.19179922E+04</pdfrwt>
<pdfrwt beam="2">  1       -1 0.63951369E-01 0.19179922E+04</pdfrwt>
<totfact> 0.13418127E+01</totfact>
</mgrwt>
</event>
<event>
12    7  0.1707730E-007  0.2510686E+04  0.7818608E-02  0.8399188E-01
          2   -1    0    0  501    0  0.00000000000E+00  0.00000000000E+00  0.13339569781E+04  0.13339569781E+04  0.00000000000E+00 0. -1.
         -1   -1    0    0    0  501 -0.00000000000E+00 -0.00000000000E+00 -0.11813623790E+04  0.11813623790E+04  0.00000000000E+00 0.  1.
         24    2    1    2    0    0 -0.48214000954E+03 -0.89549472824E+03 -0.33038516166E+03  0.10724228388E+04  0.81034517687E+02 0.  0.
        254    2    1    2    0    0  0.48214000954E+03  0.89549472824E+03  0.48297976070E+03  0.14428965183E+04  0.90239188609E+03 0.  0.
         23    2    4    4    0    0  0.23339378398E+03  0.53975877413E+03 -0.20180342455E+03  0.62700878992E+03  0.81260124425E+02 0.  0.
         23    2    4    4    0    0  0.24874622557E+03  0.35573595411E+03  0.68478318526E+03  0.81588772835E+03  0.91225109921E+02 0.  0.
          2    1    3    3  502    0 -0.47808766431E+03 -0.87496333856E+03 -0.31247476327E+03  0.10448775700E+04  0.00000000000E+00 0. -1.
         -1    1    3    3    0  502 -0.40523452340E+01 -0.20531389683E+02 -0.17910398390E+02  0.27545268826E+02  0.00000000000E+00 0.  1.
         13    1    5    5    0    0  0.13347330941E+03  0.39411347757E+03 -0.15749366910E+03  0.44490989350E+03  0.00000000000E+00 0. -1.
        -13    1    5    5    0    0  0.99920474570E+02  0.14564529656E+03 -0.44309755457E+02  0.18209889642E+03  0.00000000000E+00 0.  1.
          4    1    6    6  503    0  0.19248850721E+03  0.19832548273E+03  0.42297638729E+03  0.50526611475E+03  0.00000000000E+00 0. -1.
         -4    1    6    6    0  503  0.56257718356E+02  0.15741047137E+03  0.26180679796E+03  0.31062161360E+03  0.00000000000E+00 0.  1.
<mgrwt>
<rscale>  0 0.25106864E+04</rscale>
<asrwt>0</asrwt>
<pdfrwt beam="1">  1        2 0.20522415E+00 0.25106864E+04</pdfrwt>
<pdfrwt beam="2">  1       -1 0.18174806E+00 0.25106864E+04</pdfrwt>
<totfact> 0.32427354E+00</totfact>
</mgrwt>
</event>
<event>
12    7  0.1707730E-007  0.1597219E+04  0.7818608E-02  0.8822258E-01
         -1   -1    0    0    0  501 -0.00000000000E+00  0.00000000000E+00  0.24745965808E+04  0.24745965808E+04  0.00000000000E+00 0.  1.
          2   -1    0    0  501    0  0.00000000000E+00 -0.00000000000E+00 -0.25772987825E+03  0.25772987825E+03  0.00000000000E+00 0. -1.
         24    2    1    2    0    0  0.31266771241E+03 -0.25932783035E+03  0.13785841433E+04  0.14393585043E+04  0.79035699175E+02 0.  0.
        254    2    1    2    0    0 -0.31266771241E+03  0.25932783035E+03  0.83828255930E+03  0.12929679548E+04  0.89668080214E+03 0.  0.
         23    2    4    4    0    0 -0.26555998017E+03  0.34437981471E+03  0.99364665509E+03  0.10881999009E+04  0.87896469462E+02 0.  0.
         23    2    4    4    0    0 -0.47107732237E+02 -0.85051984355E+02 -0.15536409579E+03  0.20476805388E+03  0.91317989194E+02 0.  0.
          2    1    3    3  502    0  0.18071510554E+03 -0.12662605665E+03  0.86633728099E+03  0.89399798211E+03  0.00000000000E+00 0. -1.
         -1    1    3    3    0  502  0.13195260687E+03 -0.13270177370E+03  0.51224686229E+03  0.54536052216E+03  0.00000000000E+00 0.  1.
         13    1    5    5    0    0 -0.15117478699E+02  0.24955009157E+01  0.74442618238E+02  0.76003086103E+02  0.00000000000E+00 0.  1.
        -13    1    5    5    0    0 -0.25044250147E+03  0.34188431379E+03  0.91920403685E+03  0.10121968148E+04  0.00000000000E+00 0. -1.
          4    1    6    6  503    0 -0.60711613442E+01 -0.82916687772E+02 -0.13586607348E+03  0.15928473259E+03  0.00000000000E+00 0. -1.
         -4    1    6    6    0  503 -0.41036570893E+02 -0.21352965830E+01 -0.19498022305E+02  0.45483321294E+02  0.00000000000E+00 0.  1.
<mgrwt>
<rscale>  0 0.15972194E+04</rscale>
<asrwt>0</asrwt>
<pdfrwt beam="1">  1        2 0.39650752E-01 0.15972194E+04</pdfrwt>
<pdfrwt beam="2">  1       -1 0.38070715E+00 0.15972194E+04</pdfrwt>
<totfact> 0.13896694E+00</totfact>
</mgrwt>
</event>
<event>
12    7  0.1707730E-007  0.1928922E+04  0.7818608E-02  0.8640592E-01
          2   -1    0    0  501    0  0.00000000000E+00  0.00000000000E+00  0.18393817971E+04  0.18393817971E+04  0.00000000000E+00 0. -1.
         -1   -1    0    0    0  501 -0.00000000000E+00 -0.00000000000E+00 -0.50570532948E+03  0.50570532948E+03  0.00000000000E+00 0.  1.
         24    2    1    2    0    0 -0.28205763869E+03  0.43101777839E+03  0.11898266107E+04  0.12990341232E+04  0.80432909344E+02 0.  0.
        254    2    1    2    0    0  0.28205763869E+03 -0.43101777839E+03  0.14384985694E+03  0.10460530034E+04  0.89900014890E+03 0.  0.
         23    2    4    4    0    0 -0.13882793998E+03 -0.69748605531E+01  0.36625895281E+03  0.40208018422E+03  0.90559419333E+02 0.  0.
         23    2    4    4    0    0  0.42088557867E+03 -0.42404291784E+03 -0.22240909587E+03  0.64397281917E+03  0.90984171153E+02 0.  0.
          2    1    3    3  502    0 -0.26949078828E+03  0.41299506397E+03  0.10832859122E+04  0.11902514757E+04  0.00000000000E+00 0. -1.
         -1    1    3    3    0  502 -0.12566850415E+02  0.18022714416E+02  0.10654069841E+03  0.10878264743E+03  0.00000000000E+00 0.  1.
         13    1    5    5    0    0  0.52507166206E+01  0.13725284429E+02  0.11628364598E+02  0.18739592336E+02  0.00000000000E+00 0.  1.
        -13    1    5    5    0    0 -0.14407865660E+03 -0.20700144983E+02  0.35463058821E+03  0.38334059189E+03  0.00000000000E+00 0. -1.
          1    1    6    6  503    0  0.29756718502E+03 -0.28236661470E+03 -0.19482380936E+03  0.45412933333E+03  0.00000000000E+00 0. -1.
         -1    1    6    6    0  503  0.12331839366E+03 -0.14167630314E+03 -0.27585286511E+02  0.18984348584E+03  0.00000000000E+00 0.  1.
<mgrwt>
<rscale>  0 0.19289222E+04</rscale>
<asrwt>0</asrwt>
<pdfrwt beam="1">  1        2 0.28298181E+00 0.19289222E+04</pdfrwt>
<pdfrwt beam="2">  1       -1 0.77800821E-01 0.19289222E+04</pdfrwt>
<totfact> 0.14449817E+01</totfact>
</mgrwt>
</event>
<event>
12    7  0.1707730E-007  0.1246153E+04  0.7818608E-02  0.9073392E-01
         -1   -1    0    0    0  501 -0.00000000000E+00  0.00000000000E+00  0.30603566899E+03  0.30603566899E+03  0.00000000000E+00 0.  1.
          2   -1    0    0  501    0  0.00000000000E+00 -0.00000000000E+00 -0.12685581579E+04  0.12685581579E+04  0.00000000000E+00 0. -1.
         24    2    1    2    0    0 -0.17325619575E+03 -0.23811211036E+03 -0.20447125920E+03  0.36701585887E+03  0.78594264143E+02 0.  0.
        254    2    1    2    0    0  0.17325619575E+03  0.23811211036E+03 -0.75805122972E+03  0.12075779680E+04  0.89268572045E+03 0.  0.
         23    2    4    4    0    0  0.23936727341E+03  0.51448458139E+03 -0.69758408228E+03  0.90387542068E+03  0.91521299050E+02 0.  0.
         23    2    4    4    0    0 -0.66111077657E+02 -0.27637247102E+03 -0.60467147431E+02  0.30370254734E+03  0.88467756929E+02 0.  0.
          4    1    3    3  502    0 -0.16028682415E+03 -0.16487667661E+03 -0.16299896273E+03  0.28185962169E+03  0.00000000000E+00 0. -1.
         -3    1    3    3    0  502 -0.12969371602E+02 -0.73235433756E+02 -0.41472296465E+02  0.85156237184E+02  0.00000000000E+00 0.  1.
         13    1    5    5    0    0  0.13329072882E+02  0.14492922262E+01 -0.24191632159E+02  0.27658627919E+02  0.00000000000E+00 0. -1.
        -13    1    5    5    0    0  0.22603820053E+03  0.51303528916E+03 -0.67339245013E+03  0.87621679276E+03  0.00000000000E+00 0.  1.
          4    1    6    6  503    0 -0.31846568643E+02 -0.88672627459E+02 -0.62191666627E+02  0.11289305644E+03  0.00000000000E+00 0.  1.
         -4    1    6    6    0  503 -0.34264509014E+02 -0.18769984356E+03  0.17245191962E+01  0.19080949090E+03  0.00000000000E+00 0. -1.
<mgrwt>
<rscale>  0 0.12461526E+04</rscale>
<asrwt>0</asrwt>
<pdfrwt beam="1">  1        2 0.19516279E+00 0.12461526E+04</pdfrwt>
<pdfrwt beam="2">  1       -1 0.47082412E-01 0.12461526E+04</pdfrwt>
<totfact> 0.86975935E+01</totfact>
</mgrwt>
</event>
<event>
12    7  0.1707730E-007  0.1384503E+04  0.7818608E-02  0.8965113E-01
          2   -1    0    0  501    0  0.00000000000E+00  0.00000000000E+00  0.11882443697E+04  0.11882443697E+04  0.00000000000E+00 0. -1.
         -1   -1    0    0    0  501 -0.00000000000E+00 -0.00000000000E+00 -0.40329434449E+03  0.40329434449E+03  0.00000000000E+00 0.  1.
         24    2    1    2    0    0  0.15581142220E+03 -0.36052672927E+02 -0.18920517582E+03  0.25842620732E+03  0.73542583323E+02 0.  0.
        254    2    1    2    0    0 -0.15581142220E+03  0.36052672927E+02  0.97415520108E+03  0.13331125069E+04  0.89589821173E+03 0.  0.
         23    2    4    4    0    0  0.80468333779E+02  0.42513515175E+03  0.41189008240E+03  0.60392754970E+03  0.88656614585E+02 0.  0.
         23    2    4    4    0    0 -0.23627975597E+03 -0.38908247882E+03  0.56226511867E+03  0.72918495721E+03  0.91407547504E+02 0.  0.
          2    1    3    3  502    0  0.42016950477E+01 -0.22682273451E+02 -0.17348879312E+02  0.28863876794E+02  0.00000000000E+00 0. -1.
         -1    1    3    3    0  502  0.15160972715E+03 -0.13370399476E+02 -0.17185629651E+03  0.22956233053E+03  0.00000000000E+00 0.  1.
         13    1    5    5    0    0  0.47943036821E+02  0.39249666477E+03  0.36347490253E+03  0.53709046855E+03  0.00000000000E+00 0.  1.
        -13    1    5    5    0    0  0.32525296958E+02  0.32638486971E+02  0.48415179872E+02  0.66837081145E+02  0.00000000000E+00 0. -1.
          2    1    6    6  503    0 -0.21779422542E+02 -0.10066570031E+02  0.58741389342E+02  0.63452579934E+02  0.00000000000E+00 0. -1.
         -2    1    6    6    0  503 -0.21450033343E+03 -0.37901590879E+03  0.50352372933E+03  0.66573237728E+03  0.00000000000E+00 0.  1.
<mgrwt>
<rscale>  0 0.13845031E+04</rscale>
<asrwt>0</asrwt>
<pdfrwt beam="1">  1        2 0.18280682E+00 0.13845031E+04</pdfrwt>
<pdfrwt beam="2">  1       -1 0.62045285E-01 0.13845031E+04</pdfrwt>
<totfact> 0.56352801E+01</totfact>
</mgrwt>
</event>
<event>
12    7  0.1707730E-007  0.1837152E+04  0.7818608E-02  0.8686788E-01
         -1   -1    0    0    0  501 -0.00000000000E+00  0.00000000000E+00  0.16134664205E+04  0.16134664205E+04  0.00000000000E+00 0.  1.
          2   -1    0    0  501    0  0.00000000000E+00 -0.00000000000E+00 -0.52296229521E+03  0.52296229521E+03  0.00000000000E+00 0. -1.
         24    2    1    2    0    0 -0.63367530229E+03  0.16691038155E+03  0.69422243237E+03  0.95794944401E+03  0.79491430163E+02 0.  0.
        254    2    1    2    0    0  0.63367530229E+03 -0.16691038155E+03  0.39628169292E+03  0.11784792717E+04  0.89575149984E+03 0.  0.
         23    2    4    4    0    0  0.57183787721E+02  0.31600716135E+03  0.22341131166E+03  0.40210330302E+03  0.92972794557E+02 0.  0.
         23    2    4    4    0    0  0.57649151457E+03 -0.48291754290E+03  0.17287038127E+03  0.77637596867E+03  0.85578364077E+02 0.  0.
          4    1    3    3  502    0 -0.13326153688E+02  0.79839508414E+01  0.37950509974E+02  0.41006963439E+02  0.00000000000E+00 0. -1.
         -3    1    3    3    0  502 -0.62034914861E+03  0.15892643071E+03  0.65627192239E+03  0.91694248057E+03  0.00000000000E+00 0.  1.
         13    1    5    5    0    0  0.81971812093E+02  0.20957745840E+03  0.14887467322E+03  0.26982542018E+03  0.00000000000E+00 0.  1.
        -13    1    5    5    0    0 -0.24788024372E+02  0.10642970294E+03  0.74536638435E+02  0.13227788285E+03  0.00000000000E+00 0. -1.
          2    1    6    6  503    0  0.10268946707E+02 -0.22520275130E+02 -0.49649999821E+01  0.25244113833E+02  0.00000000000E+00 0. -1.
         -2    1    6    6    0  503  0.56622256787E+03 -0.46039726777E+03  0.17783538125E+03  0.75113185484E+03  0.00000000000E+00 0.  1.
<mgrwt>
<rscale>  0 0.18371523E+04</rscale>
<asrwt>0</asrwt>
<pdfrwt beam="1">  1        2 0.80455738E-01 0.18371523E+04</pdfrwt>
<pdfrwt beam="2">  1       -1 0.24822560E+00 0.18371523E+04</pdfrwt>
<totfact> 0.44999195E+00</totfact>
</mgrwt>
</event>
<event>
12    7  0.1707730E-007  0.1670687E+04  0.7818608E-02  0.8778262E-01
         -1   -1    0    0    0  501 -0.00000000000E+00  0.00000000000E+00  0.25643063509E+04  0.25643063509E+04  0.00000000000E+00 0.  1.
          2   -1    0    0  501    0  0.00000000000E+00 -0.00000000000E+00 -0.27211973242E+03  0.27211973242E+03  0.00000000000E+00 0. -1.
         24    2    1    2    0    0  0.47668180319E+03  0.33823594382E+03  0.83389721054E+03  0.10214433490E+04  0.79579282678E+02 0.  0.
        254    2    1    2    0    0 -0.47668180319E+03 -0.33823594382E+03  0.14582894080E+04  0.18149827344E+04  0.90880428779E+03 0.  0.
         23    2    4    4    0    0 -0.58869886523E+02  0.29295237329E+03  0.34940342454E+03  0.46872646308E+03  0.91296153026E+02 0.  0.
         23    2    4    4    0    0 -0.41781191667E+03 -0.63118831711E+03  0.11088859834E+04  0.13462562713E+04  0.99057227841E+02 0.  0.
          2    1    3    3  502    0  0.22120805048E+03  0.11947391831E+03  0.31418135355E+03  0.40238904268E+03  0.00000000000E+00 0. -1.
         -3    1    3    3    0  502  0.25547375271E+03  0.21876202551E+03  0.51971585700E+03  0.61905430630E+03  0.00000000000E+00 0.  1.
         13    1    5    5    0    0 -0.92727695660E+01  0.21711408759E+02  0.79291882369E+02  0.82731929358E+02  0.00000000000E+00 0. -1.
        -13    1    5    5    0    0 -0.49597116957E+02  0.27124096453E+03  0.27011154217E+03  0.38599453372E+03  0.00000000000E+00 0.  1.
          2    1    6    6  503    0 -0.10645886595E+02 -0.65389467442E+02  0.10161660501E+03  0.12130561309E+03  0.00000000000E+00 0. -1.
         -2    1    6    6    0  503 -0.40716603007E+03 -0.56579884967E+03  0.10072693784E+04  0.12249506582E+04  0.00000000000E+00 0.  1.
<mgrwt>
<rscale>  0 0.16706865E+04</rscale>
<asrwt>0</asrwt>
<pdfrwt beam="1">  1        2 0.41864576E-01 0.16706865E+04</pdfrwt>
<pdfrwt beam="2">  1       -1 0.39450865E+00 0.16706865E+04</pdfrwt>
<totfact> 0.10470695E+00</totfact>
</mgrwt>
</event>
<event>
12    7  0.1707730E-007  0.1870284E+04  0.7818608E-02  0.8669791E-01
         -1   -1    0    0    0  501 -0.00000000000E+00  0.00000000000E+00  0.34850963782E+03  0.34850963782E+03  0.00000000000E+00 0.  1.
          2   -1    0    0  501    0  0.00000000000E+00 -0.00000000000E+00 -0.25092281288E+04  0.25092281288E+04  0.00000000000E+00 0. -1.
         24    2    1    2    0    0  0.10228068575E+03 -0.70678944096E+03 -0.91440176098E+03  0.11629467318E+04  0.79384305319E+02 0.  0.
        254    2    1    2    0    0 -0.10228068575E+03  0.70678944096E+03 -0.12463167300E+04  0.16947910348E+04  0.89944349889E+03 0.  0.
         23    2    4    4    0    0 -0.93605391878E+02  0.91094669959E+03 -0.94247911472E+03  0.13174818659E+04  0.94370156818E+02 0.  0.
         23    2    4    4    0    0 -0.86752938758E+01 -0.20415725862E+03 -0.30383761523E+03  0.37730916886E+03  0.91046501864E+02 0.  0.
          4    1    3    3  502    0  0.18538667618E+01 -0.73962791768E+02 -0.13529869220E+03  0.15420657411E+03  0.00000000000E+00 0. -1.
         -3    1    3    3    0  502  0.10042681899E+03 -0.63282664920E+03 -0.77910306878E+03  0.10087401577E+04  0.00000000000E+00 0.  1.
         13    1    5    5    0    0 -0.96304807523E+02  0.50288581959E+03 -0.50287438844E+03  0.71767082569E+03  0.00000000000E+00 0. -1.
        -13    1    5    5    0    0  0.26994156455E+01  0.40806088000E+03 -0.43960472628E+03  0.59981104025E+03  0.00000000000E+00 0.  1.
          1    1    6    6  503    0  0.39710625671E+02 -0.65143172000E+02 -0.11175841253E+03  0.13531633094E+03  0.00000000000E+00 0. -1.
         -1    1    6    6    0  503 -0.48385919546E+02 -0.13901408662E+03 -0.19207920270E+03  0.24199283791E+03  0.00000000000E+00 0.  1.
<mgrwt>
<rscale>  0 0.18702836E+04</rscale>
<asrwt>0</asrwt>
<pdfrwt beam="1">  1        2 0.38603510E+00 0.18702836E+04</pdfrwt>
<pdfrwt beam="2">  1       -1 0.53616867E-01 0.18702836E+04</pdfrwt>
<totfact> 0.12912422E+01</totfact>
</mgrwt>
</event>
<event>
12    7  0.1707730E-007  0.2071323E+04  0.7818608E-02  0.8573982E-01
         -1   -1    0    0    0  501 -0.00000000000E+00  0.00000000000E+00  0.98097573405E+03  0.98097573405E+03  0.00000000000E+00 0.  1.
          2   -1    0    0  501    0  0.00000000000E+00 -0.00000000000E+00 -0.10933962020E+04  0.10933962020E+04  0.00000000000E+00 0. -1.
         24    2    1    2    0    0  0.21672136699E+03 -0.26240367569E+03 -0.81408204002E+03  0.88593479586E+03  0.79542785450E+02 0.  0.
        254    2    1    2    0    0 -0.21672136699E+03  0.26240367569E+03  0.70166157202E+03  0.11884371402E+04  0.89678873471E+03 0.  0.
         23    2    4    4    0    0  0.18501052966E+03 -0.20608591769E+03  0.68467312142E+02  0.29969599997E+03  0.91812951196E+02 0.  0.
         23    2    4    4    0    0 -0.40173189665E+03  0.46848959338E+03  0.63319425988E+03  0.88874114026E+03  0.89748692179E+02 0.  0.
          4    1    3    3  502    0  0.18055899156E+03 -0.24958621682E+03 -0.75570133502E+03  0.81607557053E+03  0.00000000000E+00 0. -1.
         -3    1    3    3    0  502  0.36162375428E+02 -0.12817458866E+02 -0.58380704994E+02  0.69859225332E+02  0.00000000000E+00 0.  1.
         13    1    5    5    0    0  0.13709295686E+03 -0.11720172192E+03  0.81424189367E+02  0.19789042689E+03  0.00000000000E+00 0.  1.
        -13    1    5    5    0    0  0.47917572803E+02 -0.88884195777E+02 -0.12956877226E+02  0.10180557308E+03  0.00000000000E+00 0. -1.
          1    1    6    6  503    0 -0.10545264988E+03  0.89153470654E+02  0.18662246370E+03  0.23215629790E+03  0.00000000000E+00 0. -1.
         -1    1    6    6    0  503 -0.29627924677E+03  0.37933612273E+03  0.44657179618E+03  0.65658484236E+03  0.00000000000E+00 0.  1.
<mgrwt>
<rscale>  0 0.20713234E+04</rscale>
<asrwt>0</asrwt>
<pdfrwt beam="1">  1        2 0.16821480E+00 0.20713234E+04</pdfrwt>
<pdfrwt beam="2">  1       -1 0.15091934E+00 0.20713234E+04</pdfrwt>
<totfact> 0.79506656E+00</totfact>
</mgrwt>
</event>
<event>
12    7  0.1707730E-007  0.2163301E+04  0.7818608E-02  0.8533860E-01
          2   -1    0    0  501    0  0.00000000000E+00  0.00000000000E+00  0.10990634170E+04  0.10990634170E+04  0.00000000000E+00 0. -1.
         -1   -1    0    0    0  501 -0.00000000000E+00 -0.00000000000E+00 -0.10645137531E+04  0.10645137531E+04  0.00000000000E+00 0.  1.
         24    2    1    2    0    0  0.12565698282E+03  0.26397712587E+03 -0.83454762437E+03  0.88788125558E+03  0.79936139267E+02 0.  0.
        254    2    1    2    0    0 -0.12565698282E+03 -0.26397712587E+03  0.86909728826E+03  0.12756959145E+04  0.88690268324E+03 0.  0.
         23    2    4    4    0    0 -0.44711758560E+03  0.71223795156E+02  0.42316527498E+03  0.62603979612E+03  0.88713088207E+02 0.  0.
         23    2    4    4    0    0  0.32146060278E+03 -0.33520092102E+03  0.44593201328E+03  0.64965611840E+03  0.86609093731E+02 0.  0.
          2    1    3    3  502    0  0.52257931856E+01 -0.28659066313E+01 -0.38269809114E+01  0.70829455832E+01  0.00000000000E+00 0. -1.
         -1    1    3    3    0  502  0.12043118964E+03  0.26684303250E+03 -0.83072064345E+03  0.88079831000E+03  0.00000000000E+00 0.  1.
         13    1    5    5    0    0 -0.32695151476E+03  0.19719193835E+02  0.33389454493E+03  0.46773037826E+03  0.00000000000E+00 0. -1.
        -13    1    5    5    0    0 -0.12016607085E+03  0.51504601322E+02  0.89270730048E+02  0.15830941786E+03  0.00000000000E+00 0.  1.
          3    1    6    6  503    0  0.25918076671E+03 -0.21450307487E+03  0.32589448479E+03  0.46839454969E+03  0.00000000000E+00 0. -1.
         -3    1    6    6    0  503  0.62279836064E+02 -0.12069784615E+03  0.12003752849E+03  0.18126156871E+03  0.00000000000E+00 0.  1.
<mgrwt>
<rscale>  0 0.21633013E+04</rscale>
<asrwt>0</asrwt>
<pdfrwt beam="1">  1        2 0.16908668E+00 0.21633013E+04</pdfrwt>
<pdfrwt beam="2">  1       -1 0.16377135E+00 0.21633013E+04</pdfrwt>
<totfact> 0.62425578E+00</totfact>
</mgrwt>
</event>
<event>
12    7  0.1707730E-007  0.1461801E+04  0.7818608E-02  0.8910260E-01
         -1   -1    0    0    0  501 -0.00000000000E+00  0.00000000000E+00  0.31716127545E+03  0.31716127545E+03  0.00000000000E+00 0.  1.
          2   -1    0    0  501    0  0.00000000000E+00 -0.00000000000E+00 -0.16843658534E+04  0.16843658534E+04  0.00000000000E+00 0. -1.
         24    2    1    2    0    0  0.36705829314E+03  0.92179566111E+02 -0.79858708028E+03  0.88724639698E+03  0.78968229010E+02 0.  0.
        254    2    1    2    0    0 -0.36705829314E+03 -0.92179566111E+02 -0.56861749769E+03  0.11142807319E+04  0.88037879791E+03 0.  0.
         23    2    4    4    0    0  0.86142010960E+02 -0.37476667339E+03 -0.12840852968E+03  0.41625412084E+03  0.94383457661E+02 0.  0.
         23    2    4    4    0    0 -0.45320030410E+03  0.28258710728E+03 -0.44020896801E+03  0.69802661105E+03  0.90615811989E+02 0.  0.
          2    1    3    3  502    0  0.22233299363E+03  0.80358927375E+02 -0.56131345888E+03  0.60906675856E+03  0.00000000000E+00 0. -1.
         -1    1    3    3    0  502  0.14472529951E+03  0.11820638736E+02 -0.23727362140E+03  0.27817963842E+03  0.00000000000E+00 0.  1.
         13    1    5    5    0    0 -0.56464061090E+00 -0.72030789840E+02  0.91517280985E+01  0.72612035029E+02  0.00000000000E+00 0. -1.
        -13    1    5    5    0    0  0.86706651571E+02 -0.30273588356E+03 -0.13756025778E+03  0.34364208581E+03  0.00000000000E+00 0.  1.
          4    1    6    6  503    0 -0.11161852527E+03  0.70205278186E+02 -0.16238737917E+03  0.20918206707E+03  0.00000000000E+00 0.  1.
         -4    1    6    6    0  503 -0.34158177883E+03  0.21238182910E+03 -0.27782158884E+03  0.48884454399E+03  0.00000000000E+00 0. -1.
<mgrwt>
<rscale>  0 0.14618011E+04</rscale>
<asrwt>0</asrwt>
<pdfrwt beam="1">  1        2 0.25913321E+00 0.14618011E+04</pdfrwt>
<pdfrwt beam="2">  1       -1 0.48794042E-01 0.14618011E+04</pdfrwt>
<totfact> 0.46438227E+01</totfact>
</mgrwt>
</event>
<event>
12    7  0.1707730E-007  0.1526211E+04  0.7818608E-02  0.8867208E-01
          2   -1    0    0  501    0  0.00000000000E+00  0.00000000000E+00  0.20674082489E+04  0.20674082489E+04  0.00000000000E+00 0. -1.
         -1   -1    0    0    0  501 -0.00000000000E+00 -0.00000000000E+00 -0.28167156421E+03  0.28167156421E+03  0.00000000000E+00 0.  1.
         24    2    1    2    0    0 -0.13780828952E+02 -0.48640557849E+03  0.70365653951E+03  0.86137107140E+03  0.10023621608E+03 0.  0.
        254    2    1    2    0    0  0.13780828952E+02  0.48640557849E+03  0.10820801452E+04  0.14877087418E+04  0.89755198266E+03 0.  0.
         23    2    4    4    0    0  0.31119597118E+03 -0.93203117817E+01  0.74380283956E+03  0.81171603969E+03  0.93329868071E+02 0.  0.
         23    2    4    4    0    0 -0.29741514223E+03  0.49572589027E+03  0.33827730566E+03  0.67599270206E+03  0.91294428083E+02 0.  0.
          4    1    3    3  502    0  0.16207165392E+02 -0.43251854963E+03  0.64110734584E+03  0.77353319055E+03  0.00000000000E+00 0. -1.
         -3    1    3    3    0  502 -0.29987994344E+02 -0.53887028856E+02  0.62549193673E+02  0.87837880854E+02  0.00000000000E+00 0.  1.
         13    1    5    5    0    0  0.21255454512E+03 -0.36681200168E+02  0.57710538687E+03  0.61609704808E+03  0.00000000000E+00 0.  1.
        -13    1    5    5    0    0  0.98641426061E+02  0.27360888386E+02  0.16669745269E+03  0.19561899162E+03  0.00000000000E+00 0. -1.
          2    1    6    6  503    0 -0.12698578493E+03  0.23984147006E+03  0.20871843705E+03  0.34236341262E+03  0.00000000000E+00 0. -1.
         -2    1    6    6    0  503 -0.17042935730E+03  0.25588442022E+03  0.12955886861E+03  0.33362928944E+03  0.00000000000E+00 0.  1.
<mgrwt>
<rscale>  0 0.15262111E+04</rscale>
<asrwt>0</asrwt>
<pdfrwt beam="1">  1        2 0.31806280E+00 0.15262111E+04</pdfrwt>
<pdfrwt beam="2">  1       -1 0.43334088E-01 0.15262111E+04</pdfrwt>
<totfact> 0.35380001E+01</totfact>
</mgrwt>
</event>
<event>
12    7  0.1707730E-007  0.2113638E+04  0.7818608E-02  0.8555260E-01
         -1   -1    0    0    0  501 -0.00000000000E+00  0.00000000000E+00  0.28480582267E+03  0.28480582267E+03  0.00000000000E+00 0.  1.
          2   -1    0    0  501    0  0.00000000000E+00 -0.00000000000E+00 -0.39215001192E+04  0.39215001192E+04  0.00000000000E+00 0. -1.
         24    2    1    2    0    0 -0.27867836486E+03  0.22272441750E+02 -0.31702354189E+04  0.31837019431E+04  0.86068338914E+02 0.  0.
        254    2    1    2    0    0  0.27867836486E+03 -0.22272441750E+02 -0.46645887764E+03  0.10226039987E+04  0.86601233302E+03 0.  0.
         23    2    4    4    0    0 -0.94165423018E+01 -0.84968827269E+02  0.22932899464E+03  0.26135656613E+03  0.91690206655E+02 0.  0.
         23    2    4    4    0    0  0.28809490716E+03  0.62696385520E+02 -0.69578787228E+03  0.76124743258E+03  0.91909619256E+02 0.  0.
          4    1    3    3  502    0 -0.25821648499E+03  0.13414583740E+01 -0.29873144536E+04  0.29984538011E+04  0.00000000000E+00 0. -1.
         -3    1    3    3    0  502 -0.20461879867E+02  0.20930983376E+02 -0.18292096522E+03  0.18524814199E+03  0.00000000000E+00 0.  1.
         13    1    5    5    0    0  0.23839864461E+02  0.88051573921E+01  0.38213970050E+02  0.45893108864E+02  0.00000000000E+00 0.  1.
        -13    1    5    5    0    0 -0.33256406762E+02 -0.93773984662E+02  0.19111502459E+03  0.21546345726E+03  0.00000000000E+00 0. -1.
          2    1    6    6  503    0  0.13248581264E+03  0.41753073520E+01 -0.21552377380E+03  0.25302256977E+03  0.00000000000E+00 0. -1.
         -2    1    6    6    0  503  0.15560909452E+03  0.58521078168E+02 -0.48026409848E+03  0.50822486281E+03  0.00000000000E+00 0.  1.
<mgrwt>
<rscale>  0 0.21136377E+04</rscale>
<asrwt>0</asrwt>
<pdfrwt beam="1">  1        2 0.60330764E+00 0.21136377E+04</pdfrwt>
<pdfrwt beam="2">  1       -1 0.43816286E-01 0.21136377E+04</pdfrwt>
<totfact> 0.21485153E+00</totfact>
</mgrwt>
</event>
<event>
12    7  0.1707730E-007  0.2620194E+04  0.7818608E-02  0.8361374E-01
          2   -1    0    0  501    0  0.00000000000E+00  0.00000000000E+00  0.91768603175E+03  0.91768603175E+03  0.00000000000E+00 0. -1.
         -1   -1    0    0    0  501 -0.00000000000E+00 -0.00000000000E+00 -0.18703068292E+04  0.18703068292E+04  0.00000000000E+00 0.  1.
         24    2    1    2    0    0  0.42154767863E+03 -0.20673358609E+03 -0.15413816662E+04  0.16150420575E+04  0.10982798189E+03 0.  0.
        254    2    1    2    0    0 -0.42154767863E+03  0.20673358609E+03  0.58876086874E+03  0.11729508034E+04  0.89929583885E+03 0.  0.
         23    2    4    4    0    0  0.18494126971E+03  0.23214785203E+03  0.44515358931E+03  0.54259159242E+03  0.90266381575E+02 0.  0.
         23    2    4    4    0    0 -0.60648894834E+03 -0.25414265934E+02  0.14360727943E+03  0.63035921103E+03  0.90856782085E+02 0.  0.
          4    1    3    3  502    0  0.29202230752E+03 -0.18016998773E+03 -0.98118001711E+03  0.10394481606E+04  0.00000000000E+00 0. -1.
         -3    1    3    3    0  502  0.12952537111E+03 -0.26563598367E+02 -0.56020164905E+03  0.57559389687E+03  0.00000000000E+00 0.  1.
         13    1    5    5    0    0  0.11821508489E+02  0.45711278276E+02  0.12524403719E+03  0.13384818966E+03  0.00000000000E+00 0.  1.
        -13    1    5    5    0    0  0.17311976122E+03  0.18643657375E+03  0.31990955213E+03  0.40874340276E+03  0.00000000000E+00 0. -1.
          1    1    6    6  503    0 -0.59764059135E+03 -0.24529447897E+02  0.15302359235E+03  0.61740763686E+03  0.00000000000E+00 0. -1.
         -1    1    6    6    0  503 -0.88483569917E+01 -0.88481803749E+00 -0.94163129170E+01  0.12951574165E+02  0.00000000000E+00 0.  1.
<mgrwt>
<rscale>  0 0.26201942E+04</rscale>
<asrwt>0</asrwt>
<pdfrwt beam="1">  1        2 0.14118247E+00 0.26201942E+04</pdfrwt>
<pdfrwt beam="2">  1       -1 0.28773951E+00 0.26201942E+04</pdfrwt>
<totfact> 0.11390028E+00</totfact>
</mgrwt>
</event>
<event>
12    7  0.1707730E-007  0.2197616E+04  0.7818608E-02  0.8519421E-01
          2   -1    0    0  501    0  0.00000000000E+00  0.00000000000E+00  0.93642075966E+03  0.93642075966E+03  0.00000000000E+00 0. -1.
         -1   -1    0    0    0  501 -0.00000000000E+00 -0.00000000000E+00 -0.12893550834E+04  0.12893550834E+04  0.00000000000E+00 0.  1.
         24    2    1    2    0    0  0.44018327126E+03  0.36644236025E+03  0.57615886507E+03  0.81639815846E+03  0.80657297640E+02 0.  0.
        254    2    1    2    0    0 -0.44018327126E+03 -0.36644236025E+03 -0.92909318878E+03  0.14093776846E+04  0.89167818671E+03 0.  0.
         23    2    4    4    0    0 -0.19668936472E+03 -0.57106662123E+03 -0.88531821412E+03  0.10756025351E+04  0.91261608951E+02 0.  0.
         23    2    4    4    0    0 -0.24349390653E+03  0.20462426098E+03 -0.43774974663E+02  0.33377514943E+03  0.91264622231E+02 0.  0.
          4    1    3    3  502    0  0.26715239826E+03  0.24154317930E+03  0.41154930731E+03  0.54688787124E+03  0.00000000000E+00 0. -1.
         -3    1    3    3    0  502  0.17303087300E+03  0.12489918096E+03  0.16460955775E+03  0.26951028722E+03  0.00000000000E+00 0.  1.
         13    1    5    5    0    0 -0.32069685029E+02 -0.20854552064E+03 -0.34560039218E+03  0.40491891775E+03  0.00000000000E+00 0. -1.
        -13    1    5    5    0    0 -0.16461967970E+03 -0.36252110059E+03 -0.53971782195E+03  0.67068361740E+03  0.00000000000E+00 0.  1.
          2    1    6    6  503    0 -0.23941804310E+03  0.16997130322E+03 -0.51341113736E+02  0.29807239597E+03  0.00000000000E+00 0. -1.
         -2    1    6    6    0  503 -0.40758634358E+01  0.34652957764E+02  0.75661390725E+01  0.35702753465E+02  0.00000000000E+00 0.  1.
<mgrwt>
<rscale>  0 0.21976159E+04</rscale>
<asrwt>0</asrwt>
<pdfrwt beam="1">  1        2 0.14406473E+00 0.21976159E+04</pdfrwt>
<pdfrwt beam="2">  1       -1 0.19836232E+00 0.21976159E+04</pdfrwt>
<totfact> 0.44647564E+00</totfact>
</mgrwt>
</event>
<event>
12    7  0.1707730E-007  0.1966081E+04  0.7818608E-02  0.8622645E-01
          2   -1    0    0  501    0  0.00000000000E+00  0.00000000000E+00  0.87747821703E+03  0.87747821703E+03  0.00000000000E+00 0. -1.
         -1   -1    0    0    0  501 -0.00000000000E+00 -0.00000000000E+00 -0.11013023795E+04  0.11013023795E+04  0.00000000000E+00 0.  1.
         24    2    1    2    0    0  0.75381589269E+03  0.95494001325E+02 -0.24537335460E+03  0.80221222846E+03  0.77323165861E+02 0.  0.
        254    2    1    2    0    0 -0.75381589269E+03 -0.95494001325E+02  0.21549192098E+02  0.11765683681E+04  0.89804858042E+03 0.  0.
         23    2    4    4    0    0 -0.31361239324E+03  0.48723927385E+02  0.43711157589E+03  0.54769073920E+03  0.90398350284E+02 0.  0.
         23    2    4    4    0    0 -0.44020349945E+03 -0.14421792871E+03 -0.41556238380E+03  0.62887762891E+03  0.90647920150E+02 0.  0.
          4    1    3    3  502    0  0.66671271221E+03  0.68098540423E+02 -0.23556998834E+03  0.71037769619E+03  0.00000000000E+00 0. -1.
         -3    1    3    3    0  502  0.87103180477E+02  0.27395460902E+02 -0.98033662582E+01  0.91834532270E+02  0.00000000000E+00 0.  1.
         13    1    5    5    0    0 -0.58785590985E+02  0.20325169347E+02  0.36701024444E+02  0.72220657790E+02  0.00000000000E+00 0. -1.
        -13    1    5    5    0    0 -0.25482680225E+03  0.28398758038E+02  0.40041055145E+03  0.47547008141E+03  0.00000000000E+00 0.  1.
          4    1    6    6  503    0 -0.12753273219E+02  0.99964992431E+01 -0.64873513191E+01  0.17454561067E+02  0.00000000000E+00 0. -1.
         -4    1    6    6    0  503 -0.42745022623E+03 -0.15421442795E+03 -0.40907503248E+03  0.61142306784E+03  0.00000000000E+00 0.  1.
<mgrwt>
<rscale>  0 0.19660812E+04</rscale>
<asrwt>0</asrwt>
<pdfrwt beam="1">  1        2 0.13499665E+00 0.19660812E+04</pdfrwt>
<pdfrwt beam="2">  1       -1 0.16943113E+00 0.19660812E+04</pdfrwt>
<totfact> 0.80229296E+00</totfact>
</mgrwt>
</event>
<event>
12    7  0.1707730E-007  0.1497452E+04  0.7818608E-02  0.8886149E-01
          2   -1    0    0  501    0  0.00000000000E+00  0.00000000000E+00  0.87358064848E+03  0.87358064848E+03  0.00000000000E+00 0. -1.
         -1   -1    0    0    0  501 -0.00000000000E+00 -0.00000000000E+00 -0.64171573818E+03  0.64171573818E+03  0.00000000000E+00 0.  1.
         24    2    1    2    0    0  0.35011359673E+03 -0.16925829391E+02 -0.25633416242E+03  0.44161594601E+03  0.80320773357E+02 0.  0.
        254    2    1    2    0    0 -0.35011359673E+03  0.16925829391E+02  0.48819907272E+03  0.10736804406E+04  0.88971081802E+03 0.  0.
         23    2    4    4    0    0 -0.23306962249E+03 -0.83143841795E+02 -0.22039727635E+03  0.34307393580E+03  0.88828028505E+02 0.  0.
         23    2    4    4    0    0 -0.11704397424E+03  0.10006967119E+03  0.70859634907E+03  0.73060650484E+03  0.89240394438E+02 0.  0.
          4    1    3    3  502    0  0.10645797520E+03 -0.37310828097E+02 -0.58358626612E+02  0.12700837641E+03  0.00000000000E+00 0. -1.
         -3    1    3    3    0  502  0.24365562153E+03  0.20384998706E+02 -0.19797553581E+03  0.31460756960E+03  0.00000000000E+00 0.  1.
         13    1    5    5    0    0 -0.12289295923E+03 -0.44710514725E+02 -0.17361739909E+03  0.21735848459E+03  0.00000000000E+00 0.  1.
        -13    1    5    5    0    0 -0.11017666327E+03 -0.38433327070E+02 -0.46779877255E+02  0.12571545122E+03  0.00000000000E+00 0. -1.
          2    1    6    6  503    0 -0.53094569903E+01  0.58271354009E+02  0.21836241945E+03  0.22606611259E+03  0.00000000000E+00 0. -1.
         -2    1    6    6    0  503 -0.11173451725E+03  0.41798317177E+02  0.49023392962E+03  0.50454039225E+03  0.00000000000E+00 0.  1.
<mgrwt>
<rscale>  0 0.14974518E+04</rscale>
<asrwt>0</asrwt>
<pdfrwt beam="1">  1        2 0.13439702E+00 0.14974518E+04</pdfrwt>
<pdfrwt beam="2">  1       -1 0.98725498E-01 0.14974518E+04</pdfrwt>
<totfact> 0.33100411E+01</totfact>
</mgrwt>
</event>
<event>
12    7  0.1707730E-007  0.1972483E+04  0.7818608E-02  0.8619595E-01
         -3   -1    0    0    0  501 -0.00000000000E+00  0.00000000000E+00  0.17757345360E+04  0.17757345360E+04  0.00000000000E+00 0.  1.
          4   -1    0    0  501    0  0.00000000000E+00 -0.00000000000E+00 -0.54775796004E+03  0.54775796004E+03  0.00000000000E+00 0. -1.
         24    2    1    2    0    0  0.41602438284E+03 -0.61108364132E+03  0.77917853915E+03  0.10770136224E+04  0.79621875576E+02 0.  0.
        254    2    1    2    0    0 -0.41602438284E+03  0.61108364132E+03  0.44879803683E+03  0.12464788737E+04  0.89765828741E+03 0.  0.
         23    2    4    4    0    0 -0.42812373619E+03 -0.60923850962E+02  0.34538868022E+03  0.56054520397E+03  0.88971546919E+02 0.  0.
         23    2    4    4    0    0  0.12099353360E+02  0.67200749228E+03  0.10340935662E+03  0.68593366975E+03  0.89838968327E+02 0.  0.
          4    1    3    3  502    0  0.40328641904E+03 -0.55970761550E+03  0.71063624524E+03  0.99041224936E+03  0.00000000000E+00 0. -1.
         -3    1    3    3    0  502  0.12737963790E+02 -0.51376025814E+02  0.68542293911E+02  0.86601372995E+02  0.00000000000E+00 0.  1.
         13    1    5    5    0    0 -0.35354533380E+03 -0.69872776267E+02  0.31790294339E+03  0.48056091115E+03  0.00000000000E+00 0. -1.
        -13    1    5    5    0    0 -0.74578402396E+02  0.89489253046E+01  0.27485736827E+02  0.79984292815E+02  0.00000000000E+00 0.  1.
          2    1    6    6  503    0  0.52257523796E+01  0.59927000404E+03  0.63406549769E+02  0.60263773262E+03  0.00000000000E+00 0. -1.
         -2    1    6    6    0  503  0.68736009799E+01  0.72737488240E+02  0.40002806849E+02  0.83295937126E+02  0.00000000000E+00 0.  1.
<mgrwt>
<rscale>  0 0.19724834E+04</rscale>
<asrwt>0</asrwt>
<pdfrwt beam="1">  1        4 0.84270456E-01 0.19724834E+04</pdfrwt>
<pdfrwt beam="2">  1       -3 0.27318993E+00 0.19724834E+04</pdfrwt>
<totfact> 0.14148676E-01</totfact>
</mgrwt>
</event>
<event>
12    7  0.1707730E-007  0.2684910E+04  0.7818608E-02  0.8339918E-01
         -1   -1    0    0    0  501 -0.00000000000E+00  0.00000000000E+00  0.12497635496E+04  0.12497635496E+04  0.00000000000E+00 0.  1.
          2   -1    0    0  501    0  0.00000000000E+00 -0.00000000000E+00 -0.14420211254E+04  0.14420211254E+04  0.00000000000E+00 0. -1.
         24    2    1    2    0    0 -0.43556797753E+03 -0.63794148752E+03  0.82509877929E+03  0.11330456583E+04  0.79471149624E+02 0.  0.
        254    2    1    2    0    0  0.43556797753E+03  0.63794148752E+03 -0.10173563551E+04  0.15587390167E+04  0.89328862323E+03 0.  0.
         23    2    4    4    0    0  0.69445709990E+03  0.53944646225E+03 -0.71215468131E+03  0.11354430032E+04  0.93772993349E+02 0.  0.
         23    2    4    4    0    0 -0.25888912238E+03  0.98495025273E+02 -0.30520167376E+03  0.42329601343E+03  0.96470750166E+02 0.  0.
          4    1    3    3  502    0 -0.10546470139E+01 -0.16230870359E+02  0.78940977140E+01  0.18079552308E+02  0.00000000000E+00 0. -1.
         -3    1    3    3    0  502 -0.43451333051E+03 -0.62171061716E+03  0.81720468157E+03  0.11149661060E+04  0.00000000000E+00 0.  1.
         13    1    5    5    0    0  0.50166174971E+03  0.39724119918E+03 -0.56950393977E+03  0.85662116414E+03  0.00000000000E+00 0.  1.
        -13    1    5    5    0    0  0.19279535020E+03  0.14220526306E+03 -0.14265074154E+03  0.27882183911E+03  0.00000000000E+00 0. -1.
          2    1    6    6  503    0 -0.16099219214E+02 -0.14768831933E+02 -0.44011548950E+02  0.49135727296E+02  0.00000000000E+00 0. -1.
         -2    1    6    6    0  503 -0.24278990316E+03  0.11326385721E+03 -0.26119012481E+03  0.37416028614E+03  0.00000000000E+00 0.  1.
<mgrwt>
<rscale>  0 0.26849100E+04</rscale>
<asrwt>0</asrwt>
<pdfrwt beam="1">  1        2 0.22184940E+00 0.26849100E+04</pdfrwt>
<pdfrwt beam="2">  1       -1 0.19227132E+00 0.26849100E+04</pdfrwt>
<totfact> 0.23334911E+00</totfact>
</mgrwt>
</event>
<event>
12    7  0.1707730E-007  0.1173695E+04  0.7818608E-02  0.9136198E-01
          2   -1    0    0  501    0  0.00000000000E+00  0.00000000000E+00  0.23187524786E+04  0.23187524786E+04  0.00000000000E+00 0. -1.
         -1   -1    0    0    0  501 -0.00000000000E+00 -0.00000000000E+00 -0.14852372473E+03  0.14852372473E+03  0.00000000000E+00 0.  1.
         24    2    1    2    0    0 -0.15322015977E+02  0.23584024155E+03  0.40689227363E+03  0.47678707604E+03  0.76871385015E+02 0.  0.
        254    2    1    2    0    0  0.15322015977E+02 -0.23584024155E+03  0.17633364803E+04  0.19904891273E+04  0.89265673113E+03 0.  0.
         23    2    4    4    0    0  0.40646563953E+02  0.23007898465E+03  0.13104276988E+04  0.13342114681E+04  0.91164717211E+02 0.  0.
         23    2    4    4    0    0 -0.25324547976E+02 -0.46591922620E+03  0.45290878149E+03  0.65627765917E+03  0.88611192901E+02 0.  0.
          2    1    3    3  502    0  0.23241316442E+02  0.17069024102E+03  0.29694528043E+03  0.34329552391E+03  0.00000000000E+00 0. -1.
         -3    1    3    3    0  502 -0.38563332419E+02  0.65150000521E+02  0.10994699320E+03  0.13349155213E+03  0.00000000000E+00 0.  1.
         13    1    5    5    0    0  0.60859378988E+02  0.21989856541E+03  0.11932212135E+04  0.12148399513E+04  0.00000000000E+00 0.  1.
        -13    1    5    5    0    0 -0.20212815035E+02  0.10180419241E+02  0.11720648531E+03  0.11937151682E+03  0.00000000000E+00 0. -1.
          3    1    6    6  503    0 -0.46940707946E+02 -0.15639258000E+03  0.13279712311E+03  0.21046886955E+03  0.00000000000E+00 0. -1.
         -3    1    6    6    0  503  0.21616159970E+02 -0.30952664620E+03  0.32011165837E+03  0.44580878962E+03  0.00000000000E+00 0.  1.
<mgrwt>
<rscale>  0 0.11736946E+04</rscale>
<asrwt>0</asrwt>
<pdfrwt beam="1">  1        2 0.35673113E+00 0.11736946E+04</pdfrwt>
<pdfrwt beam="2">  1       -1 0.22849805E-01 0.11736946E+04</pdfrwt>
<totfact> 0.81730052E+01</totfact>
</mgrwt>
</event>
<event>
12    7  0.1707730E-007  0.1614699E+04  0.7818608E-02  0.8811568E-01
         -1   -1    0    0    0  501 -0.00000000000E+00  0.00000000000E+00  0.57511116142E+03  0.57511116142E+03  0.00000000000E+00 0.  1.
          2   -1    0    0  501    0  0.00000000000E+00 -0.00000000000E+00 -0.11333696878E+04  0.11333696878E+04  0.00000000000E+00 0. -1.
         24    2    1    2    0    0  0.21333052819E+03 -0.40984790887E+02  0.34373177876E+03  0.41458532736E+03  0.80868971745E+02 0.  0.
        254    2    1    2    0    0 -0.21333052819E+03  0.40984790887E+02 -0.90199030513E+03  0.12938955219E+04  0.90188105845E+03 0.  0.
         23    2    4    4    0    0 -0.17330513916E+03  0.37846821284E+03 -0.13036135931E+03  0.44619790589E+03  0.93944812683E+02 0.  0.
         23    2    4    4    0    0 -0.40025389023E+02 -0.33748342195E+03 -0.77162894582E+03  0.84769761596E+03  0.87652302976E+02 0.  0.
          2    1    3    3  502    0  0.11374627234E+03  0.17608773886E+02  0.19217878014E+03  0.22401108661E+03  0.00000000000E+00 0. -1.
         -1    1    3    3    0  502  0.99584255849E+02 -0.58593564773E+02  0.15155299862E+03  0.19057424075E+03  0.00000000000E+00 0.  1.
         13    1    5    5    0    0 -0.17390831237E+03  0.38238194343E+03 -0.13389099814E+03  0.44089324235E+03  0.00000000000E+00 0. -1.
        -13    1    5    5    0    0  0.60317320678E+00 -0.39137305847E+01  0.35296388291E+01  0.53046635399E+01  0.00000000000E+00 0.  1.
          1    1    6    6  503    0 -0.67882068993E+02 -0.22695300919E+03 -0.51159430159E+03  0.56377688237E+03  0.00000000000E+00 0. -1.
         -1    1    6    6    0  503  0.27856679970E+02 -0.11053041277E+03 -0.26003464422E+03  0.28392073359E+03  0.00000000000E+00 0.  1.
<mgrwt>
<rscale>  0 0.16146994E+04</rscale>
<asrwt>0</asrwt>
<pdfrwt beam="1">  1        2 0.17436457E+00 0.16146994E+04</pdfrwt>
<pdfrwt beam="2">  1       -1 0.88478641E-01 0.16146994E+04</pdfrwt>
<totfact> 0.28477591E+01</totfact>
</mgrwt>
</event>
<event>
12    7  0.1707730E-007  0.1114667E+04  0.7818608E-02  0.9191013E-01
          2   -1    0    0  501    0  0.00000000000E+00  0.00000000000E+00  0.31727013386E+04  0.31727013386E+04  0.00000000000E+00 0. -1.
         -1   -1    0    0    0  501 -0.00000000000E+00 -0.00000000000E+00 -0.97904126512E+02  0.97904126512E+02  0.00000000000E+00 0.  1.
         24    2    1    2    0    0 -0.67714865788E+02  0.78394434767E+02  0.40422736406E+03  0.42531055082E+03  0.82208955303E+02 0.  0.
        254    2    1    2    0    0  0.67714865788E+02 -0.78394434767E+02  0.26705698481E+04  0.28452949143E+04  0.97623196304E+03 0.  0.
         23    2    4    4    0    0  0.93731645775E+02 -0.44052657928E+03  0.68630928908E+03  0.82614342925E+03  0.92969010632E+02 0.  0.
         23    2    4    4    0    0 -0.26016779987E+02  0.36213214452E+03  0.19842605590E+04  0.20191514851E+04  0.88691548817E+02 0.  0.
          4    1    3    3  502    0  0.17192473266E+02  0.13619915795E+02  0.11324897252E+03  0.11535342656E+03  0.00000000000E+00 0. -1.
         -3    1    3    3    0  502 -0.84907339054E+02  0.64774518972E+02  0.29097839154E+03  0.30995712426E+03  0.00000000000E+00 0.  1.
         13    1    5    5    0    0  0.52518208846E+02 -0.39488309411E+03  0.59150729729E+03  0.71314213381E+03  0.00000000000E+00 0.  1.
        -13    1    5    5    0    0  0.41213436929E+02 -0.45643485172E+02  0.94801991797E+02  0.11300129544E+03  0.00000000000E+00 0. -1.
          1    1    6    6  503    0 -0.13951106624E+02  0.15306433838E+03  0.10847965150E+04  0.10956307790E+04  0.00000000000E+00 0. -1.
         -1    1    6    6    0  503 -0.12065673363E+02  0.20906780613E+03  0.89946404399E+03  0.92352070603E+03  0.00000000000E+00 0.  1.
<mgrwt>
<rscale>  0 0.11146669E+04</rscale>
<asrwt>0</asrwt>
<pdfrwt beam="1">  1        2 0.48810782E+00 0.11146669E+04</pdfrwt>
<pdfrwt beam="2">  1       -1 0.15062176E-01 0.11146669E+04</pdfrwt>
<totfact> 0.51004437E+01</totfact>
</mgrwt>
</event>
<event>
12    7  0.1707730E-007  0.1812460E+04  0.7818608E-02  0.8699701E-01
         -1   -1    0    0    0  501 -0.00000000000E+00  0.00000000000E+00  0.53301726067E+03  0.53301726067E+03  0.00000000000E+00 0.  1.
          2   -1    0    0  501    0  0.00000000000E+00 -0.00000000000E+00 -0.15407616620E+04  0.15407616620E+04  0.00000000000E+00 0. -1.
         24    2    1    2    0    0  0.65578594389E+03 -0.53985362822E+02 -0.57824149739E+03  0.87963032852E+03  0.80104069434E+02 0.  0.
        254    2    1    2    0    0 -0.65578594389E+03  0.53985362822E+02 -0.42950290392E+03  0.11941485941E+04  0.89919324774E+03 0.  0.
         23    2    4    4    0    0 -0.21795257894E+03 -0.31704183685E+03  0.97298215831E+02  0.40941197214E+03  0.10065966000E+03 0.  0.
         23    2    4    4    0    0 -0.43783336495E+03  0.37102719967E+03 -0.52680111975E+03  0.78473662199E+03  0.94514061189E+02 0.  0.
          2    1    3    3  502    0  0.38934670472E+03 -0.60950498489E+01 -0.38010956221E+03  0.54416108404E+03  0.00000000000E+00 0. -1.
         -1    1    3    3    0  502  0.26643923917E+03 -0.47890312973E+02 -0.19813193518E+03  0.33546924447E+03  0.00000000000E+00 0.  1.
         13    1    5    5    0    0 -0.21542388292E+03 -0.28520647811E+03  0.63692548569E+02  0.36305223485E+03  0.00000000000E+00 0. -1.
        -13    1    5    5    0    0 -0.25286960209E+01 -0.31835358733E+02  0.33605667262E+02  0.46359737287E+02  0.00000000000E+00 0.  1.
          1    1    6    6  503    0 -0.38679175181E+03  0.35717548272E+03 -0.49710241976E+03  0.72408079691E+03  0.00000000000E+00 0. -1.
         -1    1    6    6    0  503 -0.51041613145E+02  0.13851716944E+02 -0.29698699990E+02  0.60655825078E+02  0.00000000000E+00 0.  1.
<mgrwt>
<rscale>  0 0.18124597E+04</rscale>
<asrwt>0</asrwt>
<pdfrwt beam="1">  1        2 0.23704026E+00 0.18124597E+04</pdfrwt>
<pdfrwt beam="2">  1       -1 0.82002655E-01 0.18124597E+04</pdfrwt>
<totfact> 0.19140139E+01</totfact>
</mgrwt>
</event>
<event>
12    7  0.1707730E-007  0.2765808E+04  0.7818608E-02  0.8313963E-01
          2   -1    0    0  501    0  0.00000000000E+00  0.00000000000E+00  0.22727959996E+04  0.22727959996E+04  0.00000000000E+00 0. -1.
         -1   -1    0    0    0  501 -0.00000000000E+00 -0.00000000000E+00 -0.84144061870E+03  0.84144061870E+03  0.00000000000E+00 0.  1.
         24    2    1    2    0    0 -0.55778975841E+03 -0.77940327809E+03  0.15180734985E+04  0.17970981875E+04  0.80099089338E+02 0.  0.
        254    2    1    2    0    0  0.55778975841E+03  0.77940327809E+03 -0.86718117573E+02  0.13171384308E+04  0.89929679729E+03 0.  0.
         23    2    4    4    0    0  0.78870810115E+03  0.66502071815E+03 -0.11627384617E+03  0.10422009318E+04  0.91379158510E+02 0.  0.
         23    2    4    4    0    0 -0.23091834275E+03  0.11438255994E+03  0.29555728601E+02  0.27493749901E+03  0.91161594076E+02 0.  0.
          4    1    3    3  502    0 -0.52325103935E+03 -0.73296811557E+03  0.13857856895E+04  0.16527056259E+04  0.00000000000E+00 0. -1.
         -1    1    3    3    0  502 -0.34538719054E+02 -0.46435162519E+02  0.13228780900E+03  0.14439256159E+03  0.00000000000E+00 0.  1.
         13    1    5    5    0    0  0.60745349587E+03  0.50047481156E+03 -0.50346725354E+02  0.78867583924E+03  0.00000000000E+00 0. -1.
        -13    1    5    5    0    0  0.18125460528E+03  0.16454590660E+03 -0.65927120820E+02  0.25352509259E+03  0.00000000000E+00 0.  1.
          4    1    6    6  503    0 -0.44496521920E+02  0.14227382653E+02 -0.29473565697E+02  0.55236310114E+02  0.00000000000E+00 0. -1.
         -4    1    6    6    0  503 -0.18642182083E+03  0.10015517729E+03  0.59029294298E+02  0.21970118890E+03  0.00000000000E+00 0.  1.
<mgrwt>
<rscale>  0 0.27658076E+04</rscale>
<asrwt>0</asrwt>
<pdfrwt beam="1">  1        2 0.34966092E+00 0.27658076E+04</pdfrwt>
<pdfrwt beam="2">  1       -1 0.12945240E+00 0.27658076E+04</pdfrwt>
<totfact> 0.23889737E+00</totfact>
</mgrwt>
</event>
<event>
12    7  0.1707730E-007  0.1987843E+04  0.7818608E-02  0.8612325E-01
          2   -1    0    0  501    0  0.00000000000E+00  0.00000000000E+00  0.25703685643E+04  0.25703685643E+04  0.00000000000E+00 0. -1.
         -1   -1    0    0    0  501 -0.00000000000E+00 -0.00000000000E+00 -0.38433412237E+03  0.38433412237E+03  0.00000000000E+00 0.  1.
         24    2    1    2    0    0  0.33968910922E+03  0.38986535122E+03  0.17757623789E+04  0.18512533365E+04  0.80144909504E+02 0.  0.
        254    2    1    2    0    0 -0.33968910922E+03 -0.38986535122E+03  0.41027206304E+03  0.11034493502E+04  0.88424748782E+03 0.  0.
         23    2    4    4    0    0 -0.29486628361E+03  0.88397426585E+02  0.51143761148E+03  0.60396640152E+03  0.91906221145E+02 0.  0.
         23    2    4    4    0    0 -0.44822825605E+02 -0.47826277780E+03 -0.10116554844E+03  0.49948294867E+03  0.92219181820E+02 0.  0.
          2    1    3    3  502    0  0.30932024209E+03  0.31060538309E+03  0.14952015863E+04  0.15581343010E+04  0.00000000000E+00 0. -1.
         -1    1    3    3    0  502  0.30368867131E+02  0.79259968127E+02  0.28056079258E+03  0.29311903550E+03  0.00000000000E+00 0.  1.
         13    1    5    5    0    0 -0.71238937850E+02 -0.16346609575E+02  0.95699739711E+02  0.12041859529E+03  0.00000000000E+00 0.  1.
        -13    1    5    5    0    0 -0.22362734576E+03  0.10474403616E+03  0.41573787177E+03  0.48354780623E+03  0.00000000000E+00 0. -1.
          2    1    6    6  503    0  0.14851978348E+02 -0.30655051244E+03 -0.53337558904E+02  0.31151034193E+03  0.00000000000E+00 0. -1.
         -2    1    6    6    0  503 -0.59674803953E+02 -0.17171226536E+03 -0.47827989540E+02  0.18797260674E+03  0.00000000000E+00 0.  1.
<mgrwt>
<rscale>  0 0.19878434E+04</rscale>
<asrwt>0</asrwt>
<pdfrwt beam="1">  1        2 0.39544131E+00 0.19878434E+04</pdfrwt>
<pdfrwt beam="2">  1       -1 0.59128328E-01 0.19878434E+04</pdfrwt>
<totfact> 0.97292679E+00</totfact>
</mgrwt>
</event>
<event>
12    7  0.1707730E-007  0.1549258E+04  0.7818608E-02  0.8852342E-01
         -1   -1    0    0    0  501 -0.00000000000E+00  0.00000000000E+00  0.22098373488E+03  0.22098373488E+03  0.00000000000E+00 0.  1.
          2   -1    0    0  501    0  0.00000000000E+00 -0.00000000000E+00 -0.27153585931E+04  0.27153585931E+04  0.00000000000E+00 0. -1.
         24    2    1    2    0    0 -0.30240780583E+03  0.19290713748E+03 -0.14663245170E+03  0.39548744075E+03  0.79029078094E+02 0.  0.
        254    2    1    2    0    0  0.30240780583E+03 -0.19290713748E+03 -0.23477424065E+04  0.25408548872E+04  0.90298699096E+03 0.  0.
         23    2    4    4    0    0 -0.28597949525E+03 -0.83754185287E+02 -0.12374801269E+04  0.12763277602E+04  0.94108723261E+02 0.  0.
         23    2    4    4    0    0  0.58838730108E+03 -0.10915295219E+03 -0.11102622796E+04  0.12645271270E+04  0.90733358368E+02 0.  0.
          2    1    3    3  502    0 -0.16877787254E+03  0.90878509095E+02 -0.11755402949E+03  0.22486401118E+03  0.00000000000E+00 0. -1.
         -1    1    3    3    0  502 -0.13362993328E+03  0.10202862838E+03 -0.29078422210E+02  0.17062342957E+03  0.00000000000E+00 0.  1.
         13    1    5    5    0    0 -0.12813909086E+03 -0.86252111542E+02 -0.63336269760E+03  0.65192588540E+03  0.00000000000E+00 0. -1.
        -13    1    5    5    0    0 -0.15784040439E+03  0.24979262543E+01 -0.60411742928E+03  0.62440187481E+03  0.00000000000E+00 0.  1.
          3    1    6    6  503    0  0.33147525712E+03 -0.31844191271E+02 -0.68599772451E+03  0.76255017975E+03  0.00000000000E+00 0. -1.
         -3    1    6    6    0  503  0.25691204395E+03 -0.77308760921E+02 -0.42426455509E+03  0.50197694723E+03  0.00000000000E+00 0.  1.
<mgrwt>
<rscale>  0 0.15492580E+04</rscale>
<asrwt>0</asrwt>
<pdfrwt beam="1">  1        2 0.41774749E+00 0.15492580E+04</pdfrwt>
<pdfrwt beam="2">  1       -1 0.33997496E-01 0.15492580E+04</pdfrwt>
<totfact> 0.23392160E+01</totfact>
</mgrwt>
</event>
<event>
12    7  0.1707730E-007  0.3131993E+04  0.7818608E-02  0.8207012E-01
         -1   -1    0    0    0  501 -0.00000000000E+00  0.00000000000E+00  0.12861344743E+04  0.12861344743E+04  0.00000000000E+00 0.  1.
          2   -1    0    0  501    0  0.00000000000E+00 -0.00000000000E+00 -0.19067567581E+04  0.19067567581E+04  0.00000000000E+00 0. -1.
         24    2    1    2    0    0 -0.53135223109E+03  0.11559911825E+04 -0.96484529568E+03  0.15986977635E+04  0.79103014958E+02 0.  0.
        254    2    1    2    0    0  0.53135223109E+03 -0.11559911825E+04  0.34422301191E+03  0.15941934689E+04  0.89683472665E+03 0.  0.
         23    2    4    4    0    0  0.71473187078E+03 -0.52331391568E+03  0.16496984660E+03  0.90556787284E+03  0.90216520482E+02 0.  0.
         23    2    4    4    0    0 -0.18337963970E+03 -0.63267726680E+03  0.17925316531E+03  0.68862559607E+03  0.90359825741E+02 0.  0.
          4    1    3    3  502    0 -0.50179747465E+03  0.10598293728E+04 -0.90861184551E+03  0.14834468278E+04  0.00000000000E+00 0. -1.
         -3    1    3    3    0  502 -0.29554756439E+02  0.96161809695E+02 -0.56233450173E+02  0.11525093575E+03  0.00000000000E+00 0.  1.
         13    1    5    5    0    0  0.20513960570E+03 -0.13216992472E+03  0.84007179733E+02  0.25808594126E+03  0.00000000000E+00 0.  1.
        -13    1    5    5    0    0  0.50959226508E+03 -0.39114399095E+03  0.80962666863E+02  0.64748193157E+03  0.00000000000E+00 0. -1.
          3    1    6    6  503    0 -0.17872703587E+03 -0.55433243823E+03  0.18166243978E+03  0.61010576743E+03  0.00000000000E+00 0. -1.
         -3    1    6    6    0  503 -0.46526038239E+01 -0.78344828574E+02 -0.24092744681E+01  0.78519828643E+02  0.00000000000E+00 0.  1.
<mgrwt>
<rscale>  0 0.31319934E+04</rscale>
<asrwt>0</asrwt>
<pdfrwt beam="1">  1        2 0.29334719E+00 0.31319934E+04</pdfrwt>
<pdfrwt beam="2">  1       -1 0.19786684E+00 0.31319934E+04</pdfrwt>
<totfact> 0.11292838E+00</totfact>
</mgrwt>
</event>
<event>
12    7  0.1707730E-007  0.2727560E+04  0.7818608E-02  0.8326118E-01
          2   -1    0    0  501    0  0.00000000000E+00  0.00000000000E+00  0.19475305411E+04  0.19475305411E+04  0.00000000000E+00 0. -1.
         -1   -1    0    0    0  501 -0.00000000000E+00 -0.00000000000E+00 -0.95500192385E+03  0.95500192385E+03  0.00000000000E+00 0.  1.
         24    2    1    2    0    0 -0.32974035200E+03  0.85174693362E+03 -0.41110682068E+03  0.10047977146E+04  0.80050549618E+02 0.  0.
        254    2    1    2    0    0  0.32974035200E+03 -0.85174693362E+03  0.14036354379E+04  0.18977347504E+04  0.89275035791E+03 0.  0.
         23    2    4    4    0    0  0.23019094309E+03 -0.10197889208E+04  0.12517604581E+04  0.16336242967E+04  0.94163607593E+02 0.  0.
         23    2    4    4    0    0  0.99549408910E+02  0.16804198717E+03  0.15187497979E+03  0.26411045368E+03  0.92412812894E+02 0.  0.
          4    1    3    3  502    0 -0.18682137693E+03  0.52087473225E+03 -0.28878121594E+03  0.62418531244E+03  0.00000000000E+00 0. -1.
         -3    1    3    3    0  502 -0.14291897507E+03  0.33087220137E+03 -0.12232560474E+03  0.38061240212E+03  0.00000000000E+00 0.  1.
         13    1    5    5    0    0  0.45864390460E+02 -0.40429137614E+03  0.46678733419E+03  0.61922974290E+03  0.00000000000E+00 0.  1.
        -13    1    5    5    0    0  0.18432655263E+03 -0.61549754466E+03  0.78497312395E+03  0.10143945538E+04  0.00000000000E+00 0. -1.
          4    1    6    6  503    0  0.55149940504E+02  0.16106487816E+03  0.11006387995E+03  0.20272510595E+03  0.00000000000E+00 0. -1.
         -4    1    6    6    0  503  0.44399468406E+02  0.69771090122E+01  0.41811099843E+02  0.61385347722E+02  0.00000000000E+00 0.  1.
<mgrwt>
<rscale>  0 0.27275597E+04</rscale>
<asrwt>0</asrwt>
<pdfrwt beam="1">  1        2 0.29962008E+00 0.27275597E+04</pdfrwt>
<pdfrwt beam="2">  1       -1 0.14692337E+00 0.27275597E+04</pdfrwt>
<totfact> 0.26251466E+00</totfact>
</mgrwt>
</event>
<event>
12    7  0.1707730E-007  0.1172731E+04  0.7818608E-02  0.9137066E-01
          2   -1    0    0  501    0  0.00000000000E+00  0.00000000000E+00  0.12463622903E+04  0.12463622903E+04  0.00000000000E+00 0. -1.
         -1   -1    0    0    0  501 -0.00000000000E+00 -0.00000000000E+00 -0.27586220421E+03  0.27586220421E+03  0.00000000000E+00 0.  1.
         24    2    1    2    0    0 -0.11384304610E+03 -0.61329566244E+02  0.43517326438E+03  0.45978513493E+03  0.72835742803E+02 0.  0.
        254    2    1    2    0    0  0.11384304610E+03  0.61329566244E+02  0.53532682168E+03  0.10624393596E+04  0.90855986697E+03 0.  0.
         23    2    4    4    0    0 -0.33797470903E+03 -0.79260675905E+02  0.24020590017E+02  0.36016346790E+03  0.92906276316E+02 0.  0.
         23    2    4    4    0    0  0.45181775513E+03  0.14059024215E+03  0.51130623166E+03  0.70227589165E+03  0.88614137824E+02 0.  0.
          4    1    3    3  502    0 -0.99420962973E+02 -0.68735436595E+02  0.42177790671E+03  0.43875470449E+03  0.00000000000E+00 0. -1.
         -3    1    3    3    0  502 -0.14422083127E+02  0.74058703515E+01  0.13395357669E+02  0.21030430439E+02  0.00000000000E+00 0.  1.
         13    1    5    5    0    0  0.45427576099E+01 -0.83613712135E+01 -0.48170823179E+00  0.95279178256E+01  0.00000000000E+00 0. -1.
        -13    1    5    5    0    0 -0.34251746664E+03 -0.70899304692E+02  0.24502298248E+02  0.35063555008E+03  0.00000000000E+00 0.  1.
          1    1    6    6  503    0  0.10589871948E+03  0.46239928075E+01  0.15204338301E+03  0.18534592096E+03  0.00000000000E+00 0. -1.
         -1    1    6    6    0  503  0.34591903565E+03  0.13596624934E+03  0.35926284865E+03  0.51692997069E+03  0.00000000000E+00 0.  1.
<mgrwt>
<rscale>  0 0.11727306E+04</rscale>
<asrwt>0</asrwt>
<pdfrwt beam="1">  1        2 0.19174804E+00 0.11727306E+04</pdfrwt>
<pdfrwt beam="2">  1       -1 0.42440340E-01 0.11727306E+04</pdfrwt>
<totfact> 0.10931381E+02</totfact>
</mgrwt>
</event>
<event>
12    7  0.1707730E-007  0.2809569E+04  0.7818608E-02  0.8300304E-01
          2   -1    0    0  501    0  0.00000000000E+00  0.00000000000E+00  0.27604114216E+04  0.27604114216E+04  0.00000000000E+00 0. -1.
         -1   -1    0    0    0  501 -0.00000000000E+00 -0.00000000000E+00 -0.71490042226E+03  0.71490042226E+03  0.00000000000E+00 0.  1.
         24    2    1    2    0    0  0.59035332934E+02  0.76741084168E+03  0.21470336748E+04  0.22821796786E+04  0.78650582421E+02 0.  0.
        254    2    1    2    0    0 -0.59035332934E+02 -0.76741084168E+03 -0.10152267547E+03  0.11931321653E+04  0.90600934860E+03 0.  0.
         23    2    4    4    0    0 -0.86105296214E+02 -0.91922238084E+03 -0.24915325372E+03  0.96063172938E+03  0.91389650207E+02 0.  0.
         23    2    4    4    0    0  0.27069963280E+02  0.15181153916E+03  0.14763057825E+03  0.23250043591E+03  0.92098527292E+02 0.  0.
          2    1    3    3  502    0  0.59164415615E+02  0.72479184127E+03  0.20717264802E+04  0.21956489360E+04  0.00000000000E+00 0. -1.
         -1    1    3    3    0  502 -0.12908268044E+00  0.42619000412E+02  0.75307194627E+02  0.86530742635E+02  0.00000000000E+00 0.  1.
         13    1    5    5    0    0 -0.99156218624E+02 -0.63066289995E+03 -0.15697372321E+03  0.65742558426E+03  0.00000000000E+00 0.  1.
        -13    1    5    5    0    0  0.13050922410E+02 -0.28855948089E+03 -0.92179530508E+02  0.30320614511E+03  0.00000000000E+00 0. -1.
          1    1    6    6  503    0 -0.28577981225E+02  0.67242954631E+02  0.34853613680E+02  0.80951160245E+02  0.00000000000E+00 0. -1.
         -1    1    6    6    0  503  0.55647944505E+02  0.84568584532E+02  0.11277696457E+03  0.15154927567E+03  0.00000000000E+00 0.  1.
<mgrwt>
<rscale>  0 0.28095689E+04</rscale>
<asrwt>0</asrwt>
<pdfrwt beam="1">  1        2 0.42467867E+00 0.28095689E+04</pdfrwt>
<pdfrwt beam="2">  1       -1 0.10998468E+00 0.28095689E+04</pdfrwt>
<totfact> 0.18426952E+00</totfact>
</mgrwt>
</event>
<event>
12    7  0.1707730E-007  0.2976407E+04  0.7818608E-02  0.8250500E-01
          2   -1    0    0  501    0  0.00000000000E+00  0.00000000000E+00  0.14450045538E+04  0.14450045538E+04  0.00000000000E+00 0. -1.
         -1   -1    0    0    0  501 -0.00000000000E+00 -0.00000000000E+00 -0.15326935276E+04  0.15326935276E+04  0.00000000000E+00 0.  1.
         24    2    1    2    0    0 -0.47232865851E+03  0.55420723773E+03  0.10981745507E+04  0.13200574505E+04  0.79525497748E+02 0.  0.
        254    2    1    2    0    0  0.47232865851E+03 -0.55420723773E+03 -0.11858635245E+04  0.16576406310E+04  0.90069980496E+03 0.  0.
         23    2    4    4    0    0 -0.14376206925E+03 -0.18544152190E+03 -0.79788011484E+03  0.83659450694E+03  0.90673043247E+02 0.  0.
         23    2    4    4    0    0  0.61609072776E+03 -0.36876571583E+03 -0.38798340966E+03  0.82104612402E+03  0.89608446008E+02 0.  0.
          4    1    3    3  502    0 -0.39454822578E+03  0.46300977622E+03  0.96646785286E+03  0.11419748097E+04  0.00000000000E+00 0. -1.
         -3    1    3    3    0  502 -0.77780432726E+02  0.91197461505E+02  0.13170669784E+03  0.17808264081E+03  0.00000000000E+00 0.  1.
         13    1    5    5    0    0  0.88457464414E+01 -0.14844650206E+02 -0.24002026712E+02  0.29575465442E+02  0.00000000000E+00 0. -1.
        -13    1    5    5    0    0 -0.15260781569E+03 -0.17059687170E+03 -0.77387808813E+03  0.80701904149E+03  0.00000000000E+00 0.  1.
          2    1    6    6  503    0  0.14273059230E+03 -0.85127601162E+02 -0.48382415455E+02  0.17308838373E+03  0.00000000000E+00 0. -1.
         -2    1    6    6    0  503  0.47336013546E+03 -0.28363811466E+03 -0.33960099421E+03  0.64795774029E+03  0.00000000000E+00 0.  1.
<mgrwt>
<rscale>  0 0.29764066E+04</rscale>
<asrwt>0</asrwt>
<pdfrwt beam="1">  1        2 0.22230839E+00 0.29764066E+04</pdfrwt>
<pdfrwt beam="2">  1       -1 0.23579900E+00 0.29764066E+04</pdfrwt>
<totfact> 0.11510718E+00</totfact>
</mgrwt>
</event>
<event>
12    7  0.1707730E-007  0.3905832E+04  0.7818608E-02  0.8023817E-01
          2   -1    0    0  501    0  0.00000000000E+00  0.00000000000E+00  0.21302626930E+04  0.21302626930E+04  0.00000000000E+00 0. -1.
         -1   -1    0    0    0  501 -0.00000000000E+00 -0.00000000000E+00 -0.17903336142E+04  0.17903336142E+04  0.00000000000E+00 0.  1.
         24    2    1    2    0    0 -0.43281709111E+03 -0.67357257295E+03 -0.15121461355E+04  0.17128480658E+04  0.78942486607E+02 0.  0.
        254    2    1    2    0    0  0.43281709111E+03  0.67357257295E+03  0.18520752143E+04  0.22077482414E+04  0.89606866513E+03 0.  0.
         23    2    4    4    0    0  0.98788970319E+02  0.68399024415E+03  0.63839103857E+03  0.94551364498E+03  0.94079859590E+02 0.  0.
         23    2    4    4    0    0  0.33402812079E+03 -0.10417671194E+02  0.12136841757E+04  0.12622345964E+04  0.92323261709E+02 0.  0.
          4    1    3    3  502    0 -0.60398051643E+02 -0.15260596437E+03 -0.30493926337E+03  0.34630111081E+03  0.00000000000E+00 0. -1.
         -3    1    3    3    0  502 -0.37241903947E+03 -0.52096660859E+03 -0.12072068721E+04  0.13665469550E+04  0.00000000000E+00 0.  1.
         13    1    5    5    0    0  0.48929394768E+02  0.23143799304E+03  0.27675618093E+03  0.36407638481E+03  0.00000000000E+00 0.  1.
        -13    1    5    5    0    0  0.49859575551E+02  0.45255225111E+03  0.36163485764E+03  0.58143726018E+03  0.00000000000E+00 0. -1.
          4    1    6    6  503    0  0.25952900506E+03  0.26103680186E+02  0.98549083593E+03  0.10194257669E+04  0.00000000000E+00 0. -1.
         -4    1    6    6    0  503  0.74499115729E+02 -0.36521351380E+02  0.22819333976E+03  0.24280882945E+03  0.00000000000E+00 0.  1.
<mgrwt>
<rscale>  0 0.39058320E+04</rscale>
<asrwt>0</asrwt>
<pdfrwt beam="1">  1        2 0.32773272E+00 0.39058320E+04</pdfrwt>
<pdfrwt beam="2">  1       -1 0.27543594E+00 0.39058320E+04</pdfrwt>
<totfact> 0.24341261E-01</totfact>
</mgrwt>
</event>
<event>
12    7  0.1707730E-007  0.1471305E+04  0.7818608E-02  0.8903762E-01
         -1   -1    0    0    0  501 -0.00000000000E+00  0.00000000000E+00  0.37772185022E+03  0.37772185022E+03  0.00000000000E+00 0.  1.
          2   -1    0    0  501    0  0.00000000000E+00 -0.00000000000E+00 -0.14327602311E+04  0.14327602311E+04  0.00000000000E+00 0. -1.
         24    2    1    2    0    0 -0.19008643610E+03 -0.36053824554E+03 -0.14190336595E+03  0.43859597014E+03  0.78161243999E+02 0.  0.
        254    2    1    2    0    0  0.19008643610E+03  0.36053824554E+03 -0.91313501489E+03  0.13718861111E+04  0.93922056346E+03 0.  0.
         23    2    4    4    0    0  0.27275598891E+03 -0.14710234291E+03 -0.76190991780E+03  0.82761621550E+03  0.91689413420E+02 0.  0.
         23    2    4    4    0    0 -0.82669552803E+02  0.50764058845E+03 -0.15122509709E+03  0.54426989564E+03  0.93954602357E+02 0.  0.
          4    1    3    3  502    0 -0.40821501305E+02 -0.75576006861E+02 -0.65335766159E+02  0.10792075853E+03  0.00000000000E+00 0. -1.
         -3    1    3    3    0  502 -0.14926493480E+03 -0.28496223868E+03 -0.76567599796E+02  0.33067521161E+03  0.00000000000E+00 0.  1.
         13    1    5    5    0    0  0.32958399412E+01 -0.26315164035E+02 -0.44401353505E+02  0.51718764604E+02  0.00000000000E+00 0. -1.
        -13    1    5    5    0    0  0.26946014897E+03 -0.12078717887E+03 -0.71750856430E+03  0.77589745089E+03  0.00000000000E+00 0.  1.
          3    1    6    6  503    0  0.10680008769E+02  0.21919057052E+03 -0.71110157098E+02  0.23068425008E+03  0.00000000000E+00 0. -1.
         -3    1    6    6    0  503 -0.93349561573E+02  0.28845001793E+03 -0.80114939988E+02  0.31358564556E+03  0.00000000000E+00 0.  1.
<mgrwt>
<rscale>  0 0.14713053E+04</rscale>
<asrwt>0</asrwt>
<pdfrwt beam="1">  1        2 0.22042465E+00 0.14713053E+04</pdfrwt>
<pdfrwt beam="2">  1       -1 0.58111054E-01 0.14713053E+04</pdfrwt>
<totfact> 0.45882581E+01</totfact>
</mgrwt>
</event>
<event>
12    7  0.1707730E-007  0.1745050E+04  0.7818608E-02  0.8736080E-01
         -1   -1    0    0    0  501 -0.00000000000E+00  0.00000000000E+00  0.32542121315E+03  0.32542121315E+03  0.00000000000E+00 0.  1.
          2   -1    0    0  501    0  0.00000000000E+00 -0.00000000000E+00 -0.23394295640E+04  0.23394295640E+04  0.00000000000E+00 0. -1.
         24    2    1    2    0    0 -0.31001071219E+03 -0.49621458471E+03 -0.11409763363E+04  0.12848689373E+04  0.82009941167E+02 0.  0.
        254    2    1    2    0    0  0.31001071219E+03  0.49621458471E+03 -0.87303201459E+03  0.13799818398E+04  0.89433183104E+03 0.  0.
         23    2    4    4    0    0 -0.51908784433E+02  0.29270281700E+03 -0.90159407642E+03  0.95367608886E+03  0.90866621239E+02 0.  0.
         23    2    4    4    0    0  0.36191949662E+03  0.20351176771E+03  0.28562061824E+02  0.42630575097E+03  0.92293230012E+02 0.  0.
          4    1    3    3  502    0 -0.21646375671E+03 -0.27031996763E+03 -0.67196442144E+03  0.75595345528E+03  0.00000000000E+00 0. -1.
         -3    1    3    3    0  502 -0.93546955479E+02 -0.22589461708E+03 -0.46901191482E+03  0.52891548205E+03  0.00000000000E+00 0.  1.
         13    1    5    5    0    0 -0.34961987156E+02  0.23776969104E+03 -0.81532948228E+03  0.85001113593E+03  0.00000000000E+00 0.  1.
        -13    1    5    5    0    0 -0.16946797277E+02  0.54933125955E+02 -0.86264594133E+02  0.10366495293E+03  0.00000000000E+00 0. -1.
          3    1    6    6  503    0  0.11494229095E+03  0.27910896629E+02 -0.18214029987E+02  0.11967664470E+03  0.00000000000E+00 0. -1.
         -3    1    6    6    0  503  0.24697720567E+03  0.17560087108E+03  0.46776091811E+02  0.30662910627E+03  0.00000000000E+00 0.  1.
<mgrwt>
<rscale>  0 0.17450502E+04</rscale>
<asrwt>0</asrwt>
<pdfrwt beam="1">  1        2 0.35991224E+00 0.17450502E+04</pdfrwt>
<pdfrwt beam="2">  1       -1 0.50064803E-01 0.17450502E+04</pdfrwt>
<totfact> 0.18628303E+01</totfact>
</mgrwt>
</event>
<event>
12    7  0.1707730E-007  0.1820983E+04  0.7818608E-02  0.8695220E-01
          2   -1    0    0  501    0  0.00000000000E+00  0.00000000000E+00  0.18517959659E+04  0.18517959659E+04  0.00000000000E+00 0. -1.
         -1   -1    0    0    0  501 -0.00000000000E+00 -0.00000000000E+00 -0.44767049497E+03  0.44767049497E+03  0.00000000000E+00 0.  1.
         24    2    1    2    0    0 -0.22076804873E+03 -0.35350291130E+03 -0.14440454940E+03  0.44841360633E+03  0.80741865324E+02 0.  0.
        254    2    1    2    0    0  0.22076804873E+03  0.35350291130E+03  0.15485300203E+04  0.18510528545E+04  0.92452615256E+03 0.  0.
         23    2    4    4    0    0  0.30928223597E+03 -0.24709171390E+02  0.88134102507E+02  0.33714998729E+03  0.98165417894E+02 0.  0.
         23    2    4    4    0    0 -0.88514187244E+02  0.37821208269E+03  0.14603959178E+04  0.15139028672E+04  0.90920370712E+02 0.  0.
          4    1    3    3  502    0 -0.21136053276E+02 -0.94757529553E+02 -0.43488152352E+02  0.10638111463E+03  0.00000000000E+00 0. -1.
         -3    1    3    3    0  502 -0.19963199545E+03 -0.25874538175E+03 -0.10091639705E+03  0.34203249170E+03  0.00000000000E+00 0.  1.
         13    1    5    5    0    0  0.25940166769E+03  0.14573325805E+02  0.85814405392E+02  0.27361600684E+03  0.00000000000E+00 0. -1.
        -13    1    5    5    0    0  0.49880568280E+02 -0.39282497195E+02  0.23196971151E+01  0.63533980455E+02  0.00000000000E+00 0.  1.
          1    1    6    6  503    0 -0.86250034338E+02  0.29670676015E+03  0.12647320709E+04  0.13019297912E+04  0.00000000000E+00 0. -1.
         -1    1    6    6    0  503 -0.22641529056E+01  0.81505322543E+02  0.19566384690E+03  0.21197307606E+03  0.00000000000E+00 0.  1.
<mgrwt>
<rscale>  0 0.18209826E+04</rscale>
<asrwt>0</asrwt>
<pdfrwt beam="1">  1        2 0.28489168E+00 0.18209826E+04</pdfrwt>
<pdfrwt beam="2">  1       -1 0.68872385E-01 0.18209826E+04</pdfrwt>
<totfact> 0.18491361E+01</totfact>
</mgrwt>
</event>
<event>
12    7  0.1707730E-007  0.1444443E+04  0.7818608E-02  0.8922262E-01
         -1   -1    0    0    0  501 -0.00000000000E+00  0.00000000000E+00  0.25492859237E+03  0.25492859237E+03  0.00000000000E+00 0.  1.
          2   -1    0    0  501    0  0.00000000000E+00 -0.00000000000E+00 -0.20460778110E+04  0.20460778110E+04  0.00000000000E+00 0. -1.
         24    2    1    2    0    0 -0.10939156750E+03 -0.24616201106E+03 -0.11025344451E+04  0.11377880313E+04  0.80107121223E+02 0.  0.
        254    2    1    2    0    0  0.10939156750E+03  0.24616201106E+03 -0.68861477355E+03  0.11632183721E+04  0.89795569158E+03 0.  0.
         23    2    4    4    0    0  0.13674400331E+03  0.55247624677E+03 -0.59872547009E+03  0.83035227168E+03  0.84165199825E+02 0.  0.
         23    2    4    4    0    0 -0.27352435817E+02 -0.30631423571E+03 -0.89889303454E+02  0.33286610038E+03  0.90239609742E+02 0.  0.
          4    1    3    3  502    0 -0.77125494100E+02 -0.21461103611E+03 -0.10014515524E+04  0.10270888231E+04  0.00000000000E+00 0. -1.
         -3    1    3    3    0  502 -0.32266073396E+02 -0.31550974949E+02 -0.10108289265E+03  0.11069920822E+03  0.00000000000E+00 0.  1.
         13    1    5    5    0    0  0.58668798727E+02  0.99889280038E+02 -0.12996530996E+03  0.17410019530E+03  0.00000000000E+00 0. -1.
        -13    1    5    5    0    0  0.78075204586E+02  0.45258696673E+03 -0.46876016013E+03  0.65625207638E+03  0.00000000000E+00 0.  1.
          4    1    6    6  503    0 -0.50749192072E+01 -0.17722772864E+02 -0.33115026679E+02  0.37900613121E+02  0.00000000000E+00 0. -1.
         -4    1    6    6    0  503 -0.22277516610E+02 -0.28859146285E+03 -0.56774276774E+02  0.29496548726E+03  0.00000000000E+00 0.  1.
<mgrwt>
<rscale>  0 0.14444428E+04</rscale>
<asrwt>0</asrwt>
<pdfrwt beam="1">  1        2 0.31478120E+00 0.14444428E+04</pdfrwt>
<pdfrwt beam="2">  1       -1 0.39219784E-01 0.14444428E+04</pdfrwt>
<totfact> 0.43976013E+01</totfact>
</mgrwt>
</event>
<event>
12    7  0.1707730E-007  0.1527526E+04  0.7818608E-02  0.8866352E-01
          2   -1    0    0  501    0  0.00000000000E+00  0.00000000000E+00  0.12754053758E+04  0.12754053758E+04  0.00000000000E+00 0. -1.
         -1   -1    0    0    0  501 -0.00000000000E+00 -0.00000000000E+00 -0.45737130014E+03  0.45737130014E+03  0.00000000000E+00 0.  1.
         24    2    1    2    0    0  0.31697164424E+03  0.19607575416E+03 -0.90840294750E+02  0.39149704832E+03  0.78110531142E+02 0.  0.
        254    2    1    2    0    0 -0.31697164424E+03 -0.19607575416E+03  0.90887437043E+03  0.13412796276E+04  0.91326978142E+03 0.  0.
         23    2    4    4    0    0 -0.52545117656E+03 -0.39412810727E+03  0.48991778015E+03  0.82518353324E+03  0.97326914729E+02 0.  0.
         23    2    4    4    0    0  0.20847953232E+03  0.19805235311E+03  0.41895659028E+03  0.51609609439E+03  0.90233608712E+02 0.  0.
          4    1    3    3  502    0  0.20892945814E+02  0.89134908430E+00  0.94711854646E+01  0.22956764625E+02  0.00000000000E+00 0. -1.
         -3    1    3    3    0  502  0.29607869842E+03  0.19518440507E+03 -0.10031148021E+03  0.36854028370E+03  0.00000000000E+00 0.  1.
         13    1    5    5    0    0 -0.17814560814E+03 -0.16760212255E+03  0.13498184619E+03  0.27936790793E+03  0.00000000000E+00 0.  1.
        -13    1    5    5    0    0 -0.34730556842E+03 -0.22652598472E+03  0.35493593396E+03  0.54581562530E+03  0.00000000000E+00 0. -1.
          1    1    6    6  503    0  0.15833301227E+03  0.13439387454E+03  0.22664045074E+03  0.30740356244E+03  0.00000000000E+00 0. -1.
         -1    1    6    6    0  503  0.50146520055E+02  0.63658478566E+02  0.19231613953E+03  0.20869253195E+03  0.00000000000E+00 0.  1.
<mgrwt>
<rscale>  0 0.15275259E+04</rscale>
<asrwt>0</asrwt>
<pdfrwt beam="1">  1        2 0.19621621E+00 0.15275259E+04</pdfrwt>
<pdfrwt beam="2">  1       -1 0.70364816E-01 0.15275259E+04</pdfrwt>
<totfact> 0.38345603E+01</totfact>
</mgrwt>
</event>
<event>
12    7  0.1707730E-007  0.9219501E+03  0.7818608E-02  0.9398551E-01
          2   -1    0    0  501    0  0.00000000000E+00  0.00000000000E+00  0.85442038992E+03  0.85442038992E+03  0.00000000000E+00 0. -1.
         -1   -1    0    0    0  501 -0.00000000000E+00 -0.00000000000E+00 -0.24870428004E+03  0.24870428004E+03  0.00000000000E+00 0.  1.
         24    2    1    2    0    0  0.61989844347E+02  0.50561633255E+01  0.22174929341E+02  0.10438798443E+03  0.80850591906E+02 0.  0.
        254    2    1    2    0    0 -0.61989844347E+02 -0.50561633255E+01  0.58354118054E+03  0.99873668553E+03  0.80813758238E+03 0.  0.
         23    2    4    4    0    0  0.32389135129E+03 -0.17151805400E+03  0.31316568950E+03  0.49059110198E+03  0.91010054250E+02 0.  0.
         23    2    4    4    0    0 -0.38588119564E+03  0.16646189067E+03  0.27037549103E+03  0.50814558355E+03  0.92169245045E+02 0.  0.
          2    1    3    3  502    0 -0.10894456791E+02 -0.34391152013E+01  0.28533170037E+02  0.30735297209E+02  0.00000000000E+00 0. -1.
         -1    1    3    3    0  502  0.72884301139E+02  0.84952785267E+01 -0.63582406953E+01  0.73652687218E+02  0.00000000000E+00 0.  1.
         13    1    5    5    0    0  0.28467699053E+03 -0.14723214895E+03  0.30743478222E+03  0.44411084195E+03  0.00000000000E+00 0. -1.
        -13    1    5    5    0    0  0.39214360767E+02 -0.24285905049E+02  0.57309072805E+01  0.46480260032E+02  0.00000000000E+00 0.  1.
          1    1    6    6  503    0 -0.34398360441E+03  0.11463590224E+03  0.21528265577E+03  0.42167847000E+03  0.00000000000E+00 0. -1.
         -1    1    6    6    0  503 -0.41897591226E+02  0.51825988432E+02  0.55092835260E+02  0.86467113543E+02  0.00000000000E+00 0.  1.
<mgrwt>
<rscale>  0 0.92195012E+03</rscale>
<asrwt>0</asrwt>
<pdfrwt beam="1">  1        2 0.13144929E+00 0.92195012E+03</pdfrwt>
<pdfrwt beam="2">  1       -1 0.38262197E-01 0.92195012E+03</pdfrwt>
<totfact> 0.23764790E+02</totfact>
</mgrwt>
</event>
<event>
12    7  0.1707730E-007  0.2318695E+04  0.7818608E-02  0.8470586E-01
          2   -1    0    0  501    0  0.00000000000E+00  0.00000000000E+00  0.54759547445E+03  0.54759547445E+03  0.00000000000E+00 0. -1.
         -1   -1    0    0    0  501 -0.00000000000E+00 -0.00000000000E+00 -0.24545247957E+04  0.24545247957E+04  0.00000000000E+00 0.  1.
         24    2    1    2    0    0  0.44890096635E+03 -0.66910621385E+03 -0.15491423805E+04  0.17479973157E+04  0.80232770887E+02 0.  0.
        254    2    1    2    0    0 -0.44890096635E+03  0.66910621385E+03 -0.35778694073E+03  0.12541229545E+04  0.89196282824E+03 0.  0.
         23    2    4    4    0    0 -0.36849614004E+03 -0.11196792259E+03 -0.21703851648E+03  0.45143228702E+03  0.91428503332E+02 0.  0.
         23    2    4    4    0    0 -0.80404826319E+02  0.78107413644E+03 -0.14074842425E+03  0.80269066744E+03  0.89221331282E+02 0.  0.
          2    1    3    3  502    0  0.12722518241E+03 -0.20683855474E+03 -0.39274985564E+03  0.46175846920E+03  0.00000000000E+00 0. -1.
         -1    1    3    3    0  502  0.32167578395E+03 -0.46226765911E+03 -0.11563925249E+04  0.12862388465E+04  0.00000000000E+00 0.  1.
         13    1    5    5    0    0 -0.16176063592E+02 -0.25781892175E+02 -0.32322741390E+02  0.44397416686E+02  0.00000000000E+00 0. -1.
        -13    1    5    5    0    0 -0.35232007644E+03 -0.86186030420E+02 -0.18471577509E+03  0.40703487034E+03  0.00000000000E+00 0.  1.
          4    1    6    6  503    0  0.42147730426E+01  0.29740555150E+03 -0.26897036243E+02  0.29864908661E+03  0.00000000000E+00 0. -1.
         -4    1    6    6    0  503 -0.84619599362E+02  0.48366858495E+03 -0.11385138801E+03  0.50404158084E+03  0.00000000000E+00 0.  1.
<mgrwt>
<rscale>  0 0.23186950E+04</rscale>
<asrwt>0</asrwt>
<pdfrwt beam="1">  1        2 0.84245455E-01 0.23186950E+04</pdfrwt>
<pdfrwt beam="2">  1       -1 0.37761921E+00 0.23186950E+04</pdfrwt>
<totfact> 0.58099149E-01</totfact>
</mgrwt>
</event>
<event>
12    7  0.1728462E-007  0.1900640E+04  0.7818608E-02  0.8654538E-01
         -1   -1    0    0    0  501 -0.00000000000E+00  0.00000000000E+00  0.40366761898E+03  0.40366761898E+03  0.00000000000E+00 0.  1.
          2   -1    0    0  501    0  0.00000000000E+00 -0.00000000000E+00 -0.22372577111E+04  0.22372577111E+04  0.00000000000E+00 0. -1.
         24    2    1    2    0    0  0.46060365772E+03 -0.17506973496E+03  0.47423652235E+02  0.50138163738E+03  0.79557538341E+02 0.  0.
        254    2    1    2    0    0 -0.46060365772E+03  0.17506973496E+03 -0.18810137444E+04  0.21395436927E+04  0.89254095982E+03 0.  0.
         23    2    4    4    0    0 -0.38704394000E+03 -0.76657983044E+02 -0.23101972511E+03  0.46615887223E+03  0.90854405078E+02 0.  0.
         23    2    4    4    0    0 -0.73559717726E+02  0.25172771801E+03 -0.16499940193E+04  0.16733848205E+04  0.94649974841E+02 0.  0.
          4    1    3    3  502    0  0.11994534970E+03 -0.76392314189E+02  0.35251583390E+02  0.14651056861E+03  0.00000000000E+00 0. -1.
         -3    1    3    3    0  502  0.34065830802E+03 -0.98677420776E+02  0.12172068844E+02  0.35487106878E+03  0.00000000000E+00 0.  1.
         13    1    5    5    0    0 -0.30819708243E+03 -0.93915470473E+02 -0.16555653606E+03  0.36223545360E+03  0.00000000000E+00 0.  1.
        -13    1    5    5    0    0 -0.78846857562E+02  0.17257487429E+02 -0.65463189046E+02  0.10392341863E+03  0.00000000000E+00 0. -1.
          3    1    6    6  503    0 -0.23412503342E+02  0.11222609023E+02 -0.75515612454E+02  0.79854242156E+02  0.00000000000E+00 0. -1.
         -3    1    6    6    0  503 -0.50147214384E+02  0.24050510899E+03 -0.15744784068E+04  0.15935305784E+04  0.00000000000E+00 0.  1.
<mgrwt>
<rscale>  0 0.19006404E+04</rscale>
<asrwt>0</asrwt>
<pdfrwt beam="1">  1        2 0.34419349E+00 0.19006404E+04</pdfrwt>
<pdfrwt beam="2">  1       -1 0.62102711E-01 0.19006404E+04</pdfrwt>
<totfact> 0.13799684E+01</totfact>
</mgrwt>
</event>
<event>
12    7  0.1707730E-007  0.2459009E+04  0.7818608E-02  0.8417736E-01
          2   -1    0    0  501    0  0.00000000000E+00  0.00000000000E+00  0.67131673642E+03  0.67131673642E+03  0.00000000000E+00 0. -1.
         -1   -1    0    0    0  501 -0.00000000000E+00 -0.00000000000E+00 -0.22518158853E+04  0.22518158853E+04  0.00000000000E+00 0.  1.
         24    2    1    2    0    0 -0.78134579388E+03  0.49643775875E+03 -0.13133732038E+04  0.16089989011E+04  0.83526003281E+02 0.  0.
        254    2    1    2    0    0  0.78134579388E+03 -0.49643775875E+03 -0.26712594506E+03  0.13141337206E+04  0.89366630645E+03 0.  0.
         23    2    4    4    0    0  0.15378040081E+03  0.13503542954E+03  0.20253901545E+03  0.30361407115E+03  0.96314446044E+02 0.  0.
         23    2    4    4    0    0  0.62756539306E+03 -0.63147318829E+03 -0.46966496051E+03  0.10105196495E+04  0.89264084455E+02 0.  0.
          2    1    3    3  502    0 -0.42449955732E+02  0.25222155598E+02 -0.41862109222E+02  0.64734782483E+02  0.00000000000E+00 0. -1.
         -1    1    3    3    0  502 -0.73889583814E+03  0.47121560315E+03 -0.12715110946E+04  0.15442641186E+04  0.00000000000E+00 0.  1.
         13    1    5    5    0    0  0.54468554241E+02  0.87343733165E+02  0.47369896809E+02  0.11331221579E+03  0.00000000000E+00 0. -1.
        -13    1    5    5    0    0  0.99311846572E+02  0.47691696372E+02  0.15516911864E+03  0.19030185536E+03  0.00000000000E+00 0.  1.
          1    1    6    6  503    0  0.10727220539E+03 -0.75483328989E+02 -0.45186274036E+02  0.13873304713E+03  0.00000000000E+00 0. -1.
         -1    1    6    6    0  503  0.52029318767E+03 -0.55598985930E+03 -0.42447868648E+03  0.87178660236E+03  0.00000000000E+00 0.  1.
<mgrwt>
<rscale>  0 0.24590093E+04</rscale>
<asrwt>0</asrwt>
<pdfrwt beam="1">  1        2 0.10327950E+00 0.24590093E+04</pdfrwt>
<pdfrwt beam="2">  1       -1 0.34643322E+00 0.24590093E+04</pdfrwt>
<totfact> 0.72375090E-01</totfact>
</mgrwt>
</event>
<event>
12    7  0.1707730E-007  0.3409935E+04  0.7818608E-02  0.8135472E-01
          2   -1    0    0  501    0  0.00000000000E+00  0.00000000000E+00  0.20249023766E+04  0.20249023766E+04  0.00000000000E+00 0. -1.
         -1   -1    0    0    0  501 -0.00000000000E+00 -0.00000000000E+00 -0.14355822561E+04  0.14355822561E+04  0.00000000000E+00 0.  1.
         24    2    1    2    0    0 -0.15057612406E+04  0.48936427082E+03  0.20664977857E+03  0.15980555098E+04  0.65444466861E+02 0.  0.
        254    2    1    2    0    0  0.15057612406E+04 -0.48936427082E+03  0.38267034200E+03  0.18624291229E+04  0.90300129792E+03 0.  0.
         23    2    4    4    0    0  0.64901443749E+03 -0.32407408755E+03  0.61328842540E+03  0.95443238779E+03  0.92599869492E+02 0.  0.
         23    2    4    4    0    0  0.85674680306E+03 -0.16529018327E+03 -0.23061808340E+03  0.90799673511E+03  0.99686715884E+02 0.  0.
          2    1    3    3  502    0 -0.13101860263E+04  0.44224184609E+03  0.16503223099E+03  0.13926237508E+04  0.00000000000E+00 0. -1.
         -1    1    3    3    0  502 -0.19557521422E+03  0.47122424726E+02  0.41617547577E+02  0.20543175897E+03  0.00000000000E+00 0.  1.
         13    1    5    5    0    0  0.94930586580E+02 -0.23753671382E+02  0.53742790037E+02  0.11164381153E+03  0.00000000000E+00 0.  1.
        -13    1    5    5    0    0  0.55408385091E+03 -0.30032041617E+03  0.55954563537E+03  0.84278857626E+03  0.00000000000E+00 0. -1.
          1    1    6    6  503    0  0.74570549389E+03 -0.15185816231E+03 -0.23375384616E+03  0.79610203220E+03  0.00000000000E+00 0. -1.
         -1    1    6    6    0  503  0.11104130917E+03 -0.13432020962E+02  0.31357627603E+01  0.11189470290E+03  0.00000000000E+00 0.  1.
<mgrwt>
<rscale>  0 0.34099349E+04</rscale>
<asrwt>0</asrwt>
<pdfrwt beam="1">  1        2 0.31152345E+00 0.34099349E+04</pdfrwt>
<pdfrwt beam="2">  1       -1 0.22085881E+00 0.34099349E+04</pdfrwt>
<totfact> 0.66169366E-01</totfact>
</mgrwt>
</event>
<event>
12    7  0.1707730E-007  0.3383848E+04  0.7818608E-02  0.8141882E-01
         -1   -1    0    0    0  501 -0.00000000000E+00  0.00000000000E+00  0.10455417348E+04  0.10455417348E+04  0.00000000000E+00 0.  1.
          2   -1    0    0  501    0  0.00000000000E+00 -0.00000000000E+00 -0.27379180048E+04  0.27379180048E+04  0.00000000000E+00 0. -1.
         24    2    1    2    0    0  0.16705519044E+03 -0.13836317071E+04  0.11038931993E+02  0.13960340118E+04  0.80280550345E+02 0.  0.
        254    2    1    2    0    0 -0.16705519044E+03  0.13836317071E+04 -0.17034152020E+04  0.23874257278E+04  0.92511302966E+03 0.  0.
         23    2    4    4    0    0 -0.47752247609E+03  0.40354959616E+03 -0.53246390119E+03  0.82631470869E+03  0.91641693603E+02 0.  0.
         23    2    4    4    0    0  0.31046728564E+03  0.98008211090E+03 -0.11709513008E+04  0.15611110191E+04  0.94814478692E+02 0.  0.
          4    1    3    3  502    0 -0.17930572198E+01 -0.71908103375E+02 -0.13859121684E+02  0.73253434316E+02  0.00000000000E+00 0. -1.
         -3    1    3    3    0  502  0.16884824766E+03 -0.13117236037E+04  0.24898053678E+02  0.13227805775E+04  0.00000000000E+00 0.  1.
         13    1    5    5    0    0 -0.85751834314E+02  0.79116810699E+02 -0.14930321679E+03  0.18948429319E+03  0.00000000000E+00 0.  1.
        -13    1    5    5    0    0 -0.39177064177E+03  0.32443278546E+03 -0.38316068440E+03  0.63683041550E+03  0.00000000000E+00 0. -1.
          3    1    6    6  503    0  0.13123656238E+03  0.45410742480E+03 -0.60770194340E+03  0.76989495425E+03  0.00000000000E+00 0. -1.
         -3    1    6    6    0  503  0.17923072326E+03  0.52597468610E+03 -0.56324935742E+03  0.79121606480E+03  0.00000000000E+00 0.  1.
<mgrwt>
<rscale>  0 0.33838484E+04</rscale>
<asrwt>0</asrwt>
<pdfrwt beam="1">  1        2 0.42121815E+00 0.33838484E+04</pdfrwt>
<pdfrwt beam="2">  1       -1 0.16085258E+00 0.33838484E+04</pdfrwt>
<totfact> 0.68361472E-01</totfact>
</mgrwt>
</event>
<event>
12    7  0.1707730E-007  0.1750193E+04  0.7818608E-02  0.8733244E-01
         -1   -1    0    0    0  501 -0.00000000000E+00  0.00000000000E+00  0.44122017826E+03  0.44122017826E+03  0.00000000000E+00 0.  1.
          2   -1    0    0  501    0  0.00000000000E+00 -0.00000000000E+00 -0.17356272982E+04  0.17356272982E+04  0.00000000000E+00 0. -1.
         24    2    1    2    0    0 -0.26060135768E+03 -0.10361628129E+03 -0.11953578125E+04  0.12307658555E+04  0.85175641771E+02 0.  0.
        254    2    1    2    0    0  0.26060135768E+03  0.10361628129E+03 -0.99049307412E+02  0.94608162087E+03  0.89811484047E+03 0.  0.
         23    2    4    4    0    0  0.28104119380E+03 -0.35039782116E+03  0.45858211032E+02  0.46048281077E+03  0.90435932094E+02 0.  0.
         23    2    4    4    0    0 -0.20439836117E+02  0.45401410244E+03 -0.14490751844E+03  0.48559881010E+03  0.90892372337E+02 0.  0.
          4    1    3    3  502    0 -0.10685953197E+03 -0.68829635091E+02 -0.68233499366E+03  0.69407313866E+03  0.00000000000E+00 0. -1.
         -3    1    3    3    0  502 -0.15374182572E+03 -0.34786646195E+02 -0.51302281881E+03  0.53669271688E+03  0.00000000000E+00 0.  1.
         13    1    5    5    0    0  0.81042511998E+01  0.41061298739E+01 -0.47094688782E+01  0.10233195355E+02  0.00000000000E+00 0. -1.
        -13    1    5    5    0    0  0.27293694260E+03 -0.35450395103E+03  0.50567679910E+02  0.45024961542E+03  0.00000000000E+00 0.  1.
          4    1    6    6  503    0 -0.52960188757E+02  0.24176743411E+03 -0.95340886599E+02  0.26522850232E+03  0.00000000000E+00 0. -1.
         -4    1    6    6    0  503  0.32520352640E+02  0.21224666833E+03 -0.49566631845E+02  0.22037030777E+03  0.00000000000E+00 0.  1.
<mgrwt>
<rscale>  0 0.17501929E+04</rscale>
<asrwt>0</asrwt>
<pdfrwt beam="1">  1        2 0.26701959E+00 0.17501929E+04</pdfrwt>
<pdfrwt beam="2">  1       -1 0.67880026E-01 0.17501929E+04</pdfrwt>
<totfact> 0.22227476E+01</totfact>
</mgrwt>
</event>
<event>
12    7  0.1707730E-007  0.1623043E+04  0.7818608E-02  0.8806516E-01
          2   -1    0    0  501    0  0.00000000000E+00  0.00000000000E+00  0.22732791338E+04  0.22732791338E+04  0.00000000000E+00 0. -1.
         -1   -1    0    0    0  501 -0.00000000000E+00 -0.00000000000E+00 -0.28969912791E+03  0.28969912791E+03  0.00000000000E+00 0.  1.
         24    2    1    2    0    0  0.11419991469E+03 -0.41257740027E+03  0.12768473658E+03  0.45375034154E+03  0.79525145516E+02 0.  0.
        254    2    1    2    0    0 -0.11419991469E+03  0.41257740027E+03  0.18558952693E+04  0.21092279202E+04  0.90621930947E+03 0.  0.
         23    2    4    4    0    0 -0.28446766870E+03  0.23316607618E+02  0.15485704925E+04  0.15771416539E+04  0.88542122924E+02 0.  0.
         23    2    4    4    0    0  0.17026775401E+03  0.38926079265E+03  0.30732477685E+03  0.53208626630E+03  0.90289554041E+02 0.  0.
          2    1    3    3  502    0  0.28797388931E+02 -0.51379204222E+02 -0.61076751902E+01  0.59214997526E+02  0.00000000000E+00 0. -1.
         -1    1    3    3    0  502  0.85402525756E+02 -0.36119819604E+03  0.13379241177E+03  0.39453534402E+03  0.00000000000E+00 0.  1.
         13    1    5    5    0    0 -0.34187656194E+02 -0.24295630954E+02  0.16081092465E+03  0.16619033367E+03  0.00000000000E+00 0. -1.
        -13    1    5    5    0    0 -0.25028001251E+03  0.47612238572E+02  0.13877595678E+04  0.14109513202E+04  0.00000000000E+00 0.  1.
          3    1    6    6  503    0  0.20024279785E+02  0.33980275161E+02  0.66571103971E+02  0.77377921688E+02  0.00000000000E+00 0. -1.
         -3    1    6    6    0  503  0.15024347423E+03  0.35528051749E+03  0.24075367288E+03  0.45470834461E+03  0.00000000000E+00 0.  1.
<mgrwt>
<rscale>  0 0.16230428E+04</rscale>
<asrwt>0</asrwt>
<pdfrwt beam="1">  1        2 0.34973524E+00 0.16230428E+04</pdfrwt>
<pdfrwt beam="2">  1       -1 0.44569098E-01 0.16230428E+04</pdfrwt>
<totfact> 0.25543913E+01</totfact>
</mgrwt>
</event>
<event>
12    7  0.1707730E-007  0.1673999E+04  0.7818608E-02  0.8776334E-01
          2   -1    0    0  501    0  0.00000000000E+00  0.00000000000E+00  0.20607738229E+04  0.20607738229E+04  0.00000000000E+00 0. -1.
         -1   -1    0    0    0  501 -0.00000000000E+00 -0.00000000000E+00 -0.33995378560E+03  0.33995378560E+03  0.00000000000E+00 0.  1.
         24    2    1    2    0    0 -0.25100603083E+03 -0.22500587162E+03  0.13088621126E+04  0.13539459165E+04  0.80111454144E+02 0.  0.
        254    2    1    2    0    0  0.25100603083E+03  0.22500587162E+03  0.41195792473E+03  0.10467816921E+04  0.90133839893E+03 0.  0.
         23    2    4    4    0    0 -0.31385236821E+03  0.20978657738E+03  0.18412640461E+03  0.42998941202E+03  0.92057832346E+02 0.  0.
         23    2    4    4    0    0  0.56485839904E+03  0.15219294234E+02  0.22783152013E+03  0.61679228008E+03  0.96067045966E+02 0.  0.
          4    1    3    3  502    0 -0.12138408893E+03 -0.12215857786E+03  0.81844580009E+03  0.83636734924E+03  0.00000000000E+00 0. -1.
         -3    1    3    3    0  502 -0.12962194190E+03 -0.10284729375E+03  0.49041631252E+03  0.51757856721E+03  0.00000000000E+00 0.  1.
         13    1    5    5    0    0 -0.19140750521E+03  0.10459797251E+03  0.15076263537E+03  0.26515456083E+03  0.00000000000E+00 0. -1.
        -13    1    5    5    0    0 -0.12244486299E+03  0.10518860487E+03  0.33363769233E+02  0.16483485119E+03  0.00000000000E+00 0.  1.
          2    1    6    6  503    0  0.55428109315E+03  0.19995163302E+02  0.23583095211E+03  0.60269691782E+03  0.00000000000E+00 0. -1.
         -2    1    6    6    0  503  0.10577305892E+02 -0.47758690680E+01 -0.79994319799E+01  0.14095362262E+02  0.00000000000E+00 0.  1.
<mgrwt>
<rscale>  0 0.16739986E+04</rscale>
<asrwt>0</asrwt>
<pdfrwt beam="1">  1        2 0.31704212E+00 0.16739986E+04</pdfrwt>
<pdfrwt beam="2">  1       -1 0.52300584E-01 0.16739986E+04</pdfrwt>
<totfact> 0.24720122E+01</totfact>
</mgrwt>
</event>
<event>
12    7  0.1707730E-007  0.1560702E+04  0.7818608E-02  0.8845061E-01
         -1   -1    0    0    0  501 -0.00000000000E+00  0.00000000000E+00  0.97087194373E+03  0.97087194373E+03  0.00000000000E+00 0.  1.
          2   -1    0    0  501    0  0.00000000000E+00 -0.00000000000E+00 -0.62721725833E+03  0.62721725833E+03  0.00000000000E+00 0. -1.
         24    2    1    2    0    0 -0.28679599199E+02  0.23249087246E+03 -0.35157725772E+03  0.43017991941E+03  0.81078170490E+02 0.  0.
        254    2    1    2    0    0  0.28679599199E+02 -0.23249087246E+03  0.69523194311E+03  0.11679092826E+04  0.90872994480E+03 0.  0.
         23    2    4    4    0    0  0.11117576887E+03 -0.53341671801E+03  0.22564916935E+03  0.59690907312E+03  0.92138196828E+02 0.  0.
         23    2    4    4    0    0 -0.82496169666E+02  0.30092584555E+03  0.46958277377E+03  0.57100020952E+03  0.90395106758E+02 0.  0.
          2    1    3    3  502    0 -0.32955637629E+02  0.23759166212E+03 -0.33261692198E+03  0.41008522132E+03  0.00000000000E+00 0. -1.
         -1    1    3    3    0  502  0.42760384298E+01 -0.51007896597E+01 -0.18960335741E+02  0.20094698087E+02  0.00000000000E+00 0.  1.
         13    1    5    5    0    0  0.77126641578E+02 -0.49620745413E+03  0.20391141074E+03  0.54198728749E+03  0.00000000000E+00 0. -1.
        -13    1    5    5    0    0  0.34049127287E+02 -0.37209263882E+02  0.21737758612E+02  0.54921785633E+02  0.00000000000E+00 0.  1.
          1    1    6    6  503    0 -0.22507793345E+02  0.21760946450E+03  0.27921671302E+03  0.35471460729E+03  0.00000000000E+00 0. -1.
         -1    1    6    6    0  503 -0.59988376322E+02  0.83316381054E+02  0.19036606075E+03  0.21628560223E+03  0.00000000000E+00 0.  1.
<mgrwt>
<rscale>  0 0.15607019E+04</rscale>
<asrwt>0</asrwt>
<pdfrwt beam="1">  1        2 0.96494963E-01 0.15607019E+04</pdfrwt>
<pdfrwt beam="2">  1       -1 0.14936491E+00 0.15607019E+04</pdfrwt>
<totfact> 0.18221628E+01</totfact>
</mgrwt>
</event>
<event>
12    7  0.1707730E-007  0.1360480E+04  0.7818608E-02  0.8982933E-01
         -1   -1    0    0    0  501 -0.00000000000E+00  0.00000000000E+00  0.78150891437E+03  0.78150891437E+03  0.00000000000E+00 0.  1.
          2   -1    0    0  501    0  0.00000000000E+00 -0.00000000000E+00 -0.59209329987E+03  0.59209329987E+03  0.00000000000E+00 0. -1.
         24    2    1    2    0    0 -0.23091608628E+03 -0.28084915817E+03  0.15651606862E+03  0.40421476928E+03  0.81815716201E+02 0.  0.
        254    2    1    2    0    0  0.23091608628E+03  0.28084915817E+03  0.32899545882E+02  0.96938744497E+03  0.89801511668E+03 0.  0.
         23    2    4    4    0    0 -0.67295201221E+02 -0.20093133219E+03 -0.24109728663E+03  0.33362110422E+03  0.90956556641E+02 0.  0.
         23    2    4    4    0    0  0.29821128750E+03  0.48178049037E+03  0.27399683251E+03  0.63576634074E+03  0.89900850403E+02 0.  0.
          2    1    3    3  502    0 -0.10104777470E+03 -0.87779633453E+02  0.22594734551E+02  0.13574401957E+03  0.00000000000E+00 0. -1.
         -1    1    3    3    0  502 -0.12986831158E+03 -0.19306952472E+03  0.13392133407E+03  0.26847074970E+03  0.00000000000E+00 0.  1.
         13    1    5    5    0    0 -0.25503630745E+02 -0.71569452929E+02 -0.15523602311E+03  0.17283183921E+03  0.00000000000E+00 0.  1.
        -13    1    5    5    0    0 -0.41791570475E+02 -0.12936187927E+03 -0.85861263527E+02  0.16078926502E+03  0.00000000000E+00 0. -1.
          1    1    6    6  503    0 -0.84334971487E+00  0.25311377616E+02  0.43547593013E+00  0.25329167275E+02  0.00000000000E+00 0. -1.
         -1    1    6    6    0  503  0.29905463721E+03  0.45646911275E+03  0.27356135658E+03  0.61043717347E+03  0.00000000000E+00 0.  1.
<mgrwt>
<rscale>  0 0.13604796E+04</rscale>
<asrwt>0</asrwt>
<pdfrwt beam="1">  1        2 0.91091277E-01 0.13604796E+04</pdfrwt>
<pdfrwt beam="2">  1       -1 0.12023214E+00 0.13604796E+04</pdfrwt>
<totfact> 0.34652135E+01</totfact>
</mgrwt>
</event>
<event>
12    7  0.1707730E-007  0.1498259E+04  0.7818608E-02  0.8885612E-01
         -1   -1    0    0    0  501 -0.00000000000E+00  0.00000000000E+00  0.48385308248E+03  0.48385308248E+03  0.00000000000E+00 0.  1.
          2   -1    0    0  501    0  0.00000000000E+00 -0.00000000000E+00 -0.11598456501E+04  0.11598456501E+04  0.00000000000E+00 0. -1.
         24    2    1    2    0    0  0.83654457783E+00  0.31835079386E+03 -0.61229153504E+03  0.69480947570E+03  0.80692972878E+02 0.  0.
        254    2    1    2    0    0 -0.83654457783E+00 -0.31835079386E+03 -0.63701032594E+02  0.94888925690E+03  0.89161935406E+03 0.  0.
         23    2    4    4    0    0  0.11463314109E+03  0.98856580598E+00  0.36462723631E+03  0.39521404273E+03  0.10049569049E+03 0.  0.
         23    2    4    4    0    0 -0.11546968567E+03 -0.31933935967E+03 -0.42832826891E+03  0.55367521417E+03  0.88205792878E+02 0.  0.
          4    1    3    3  502    0  0.19200818027E+01  0.32058662454E+03 -0.58234028814E+03  0.66475535480E+03  0.00000000000E+00 0. -1.
         -3    1    3    3    0  502 -0.10835372249E+01 -0.22358306731E+01 -0.29951246906E+02  0.30054120898E+02  0.00000000000E+00 0.  1.
         13    1    5    5    0    0  0.67316646925E+02 -0.38483361228E+01  0.71596654071E+02  0.98348469832E+02  0.00000000000E+00 0. -1.
        -13    1    5    5    0    0  0.47316494170E+02  0.48369019288E+01  0.29303058224E+03  0.29686557290E+03  0.00000000000E+00 0.  1.
          3    1    6    6  503    0 -0.19021185792E+02 -0.45157916028E+02 -0.21070415315E+02  0.53338591005E+02  0.00000000000E+00 0. -1.
         -3    1    6    6    0  503 -0.96448499881E+02 -0.27418144364E+03 -0.40725785359E+03  0.50033662316E+03  0.00000000000E+00 0.  1.
<mgrwt>
<rscale>  0 0.14982588E+04</rscale>
<asrwt>0</asrwt>
<pdfrwt beam="1">  1        2 0.17843779E+00 0.14982588E+04</pdfrwt>
<pdfrwt beam="2">  1       -1 0.74438936E-01 0.14982588E+04</pdfrwt>
<totfact> 0.40083242E+01</totfact>
</mgrwt>
</event>
<event>
12    7  0.1707730E-007  0.1943674E+04  0.7818608E-02  0.8633417E-01
         -1   -1    0    0    0  501 -0.00000000000E+00  0.00000000000E+00  0.38548250639E+03  0.38548250639E+03  0.00000000000E+00 0.  1.
          2   -1    0    0  501    0  0.00000000000E+00 -0.00000000000E+00 -0.24500903778E+04  0.24500903778E+04  0.00000000000E+00 0. -1.
         24    2    1    2    0    0 -0.15120572901E+03  0.59800570816E+03 -0.16754919717E+03  0.64422304581E+03  0.80477324810E+02 0.  0.
        254    2    1    2    0    0  0.15120572901E+03 -0.59800570816E+03 -0.18970586742E+04  0.21913498384E+04  0.90703280051E+03 0.  0.
         23    2    4    4    0    0  0.29729090365E+03 -0.51871946888E+02 -0.13935815427E+04  0.14289015977E+04  0.92831456810E+02 0.  0.
         23    2    4    4    0    0 -0.14608517464E+03 -0.54613376127E+03 -0.50347713149E+03  0.76244824067E+03  0.90747640903E+02 0.  0.
          2    1    3    3  502    0 -0.68535210916E+02  0.28289429881E+03 -0.12063985727E+03  0.31508766177E+03  0.00000000000E+00 0. -1.
         -1    1    3    3    0  502 -0.82670518092E+02  0.31511140934E+03 -0.46909339907E+02  0.32913538404E+03  0.00000000000E+00 0.  1.
         13    1    5    5    0    0  0.27751309874E+03 -0.21663309495E+02 -0.12703565595E+04  0.13004955237E+04  0.00000000000E+00 0.  1.
        -13    1    5    5    0    0  0.19777804905E+02 -0.30208637393E+02 -0.12322498326E+03  0.12840607400E+03  0.00000000000E+00 0. -1.
          4    1    6    6  503    0 -0.11396469512E+03 -0.37257040399E+03 -0.29141422164E+03  0.48653767196E+03  0.00000000000E+00 0. -1.
         -4    1    6    6    0  503 -0.32120479526E+02 -0.17356335727E+03 -0.21206290985E+03  0.27591056872E+03  0.00000000000E+00 0.  1.
<mgrwt>
<rscale>  0 0.19436738E+04</rscale>
<asrwt>0</asrwt>
<pdfrwt beam="1">  1        2 0.37693699E+00 0.19436738E+04</pdfrwt>
<pdfrwt beam="2">  1       -1 0.59304999E-01 0.19436738E+04</pdfrwt>
<totfact> 0.11399549E+01</totfact>
</mgrwt>
</event>
<event>
12    7  0.1707730E-007  0.1515704E+04  0.7818608E-02  0.8874076E-01
          2   -1    0    0  501    0  0.00000000000E+00  0.00000000000E+00  0.14985698043E+04  0.14985698043E+04  0.00000000000E+00 0. -1.
         -1   -1    0    0    0  501 -0.00000000000E+00 -0.00000000000E+00 -0.38325874409E+03  0.38325874409E+03  0.00000000000E+00 0.  1.
         24    2    1    2    0    0 -0.15807514087E+03 -0.45657285083E+03  0.30835762066E+03  0.57820657653E+03  0.76104563961E+02 0.  0.
        254    2    1    2    0    0  0.15807514087E+03  0.45657285083E+03  0.80695343959E+03  0.13036219719E+04  0.90266819688E+03 0.  0.
         23    2    4    4    0    0 -0.86918238528E+01  0.33742850348E+02  0.83337474698E+03  0.83917994655E+03  0.92170418484E+02 0.  0.
         23    2    4    4    0    0  0.16676696472E+03  0.42283000048E+03 -0.26421307392E+02  0.46444202534E+03  0.91716299469E+02 0.  0.
          4    1    3    3  502    0 -0.10441364926E+03 -0.38332695423E+03  0.23599025726E+03  0.46209648939E+03  0.00000000000E+00 0. -1.
         -3    1    3    3    0  502 -0.53661491608E+02 -0.73245896601E+02  0.72367363396E+02  0.11611008714E+03  0.00000000000E+00 0.  1.
         13    1    5    5    0    0 -0.27136085162E+02  0.60235947939E+02  0.58371545904E+03  0.58744231518E+03  0.00000000000E+00 0.  1.
        -13    1    5    5    0    0  0.18444261309E+02 -0.26493097590E+02  0.24965928794E+03  0.25173763138E+03  0.00000000000E+00 0. -1.
          4    1    6    6  503    0  0.63959684440E+00  0.81424254432E+02  0.13984858037E+02  0.82618972084E+02  0.00000000000E+00 0. -1.
         -4    1    6    6    0  503  0.16612736787E+03  0.34140574605E+03 -0.40406165429E+02  0.38182305325E+03  0.00000000000E+00 0.  1.
<mgrwt>
<rscale>  0 0.15157044E+04</rscale>
<asrwt>0</asrwt>
<pdfrwt beam="1">  1        2 0.23054920E+00 0.15157044E+04</pdfrwt>
<pdfrwt beam="2">  1       -1 0.58962884E-01 0.15157044E+04</pdfrwt>
<totfact> 0.40770268E+01</totfact>
</mgrwt>
</event>
<event>
12    7  0.1707730E-007  0.1191579E+04  0.7818608E-02  0.9120260E-01
          2   -1    0    0  501    0  0.00000000000E+00  0.00000000000E+00  0.53391423036E+04  0.53391423036E+04  0.00000000000E+00 0. -1.
         -1   -1    0    0    0  501 -0.00000000000E+00 -0.00000000000E+00 -0.66483548315E+02  0.66483548315E+02  0.00000000000E+00 0.  1.
         24    2    1    2    0    0  0.47793606631E+02  0.12757478212E+03  0.18653219197E+04  0.18720111963E+04  0.80252733028E+02 0.  0.
        254    2    1    2    0    0 -0.47793606631E+02 -0.12757478212E+03  0.34073368356E+04  0.35336146557E+04  0.92624438960E+03 0.  0.
         23    2    4    4    0    0 -0.47130762773E+03 -0.22393175761E+02  0.20218884321E+04  0.20782434465E+04  0.91818607111E+02 0.  0.
         23    2    4    4    0    0  0.42351402110E+03 -0.10518160636E+03  0.13854484035E+04  0.14553712092E+04  0.90613361552E+02 0.  0.
          4    1    3    3  502    0  0.69695946596E+02  0.10450215105E+03  0.15538404315E+04  0.15589093339E+04  0.00000000000E+00 0. -1.
         -3    1    3    3    0  502 -0.21902339965E+02  0.23072631068E+02  0.31148148812E+03  0.31310186241E+03  0.00000000000E+00 0.  1.
         13    1    5    5    0    0 -0.39727709852E+03  0.13881615208E+02  0.16293385164E+04  0.16771302255E+04  0.00000000000E+00 0.  1.
        -13    1    5    5    0    0 -0.74030529217E+02 -0.36274790969E+02  0.39254991570E+03  0.40111322097E+03  0.00000000000E+00 0. -1.
          3    1    6    6  503    0  0.32018378235E+03 -0.44996122304E+02  0.10795827842E+04  0.11269610878E+04  0.00000000000E+00 0. -1.
         -3    1    6    6    0  503  0.10333023875E+03 -0.60185484051E+02  0.30586561932E+03  0.32841012136E+03  0.00000000000E+00 0.  1.
<mgrwt>
<rscale>  0 0.11915790E+04</rscale>
<asrwt>0</asrwt>
<pdfrwt beam="1">  1        2 0.82140617E+00 0.11915790E+04</pdfrwt>
<pdfrwt beam="2">  1       -1 0.10228242E-01 0.11915790E+04</pdfrwt>
<totfact> 0.85678954E-01</totfact>
</mgrwt>
</event>
<event>
12    7  0.1707730E-007  0.1696621E+04  0.7818608E-02  0.8763294E-01
         -1   -1    0    0    0  501 -0.00000000000E+00  0.00000000000E+00  0.33647858812E+03  0.33647858812E+03  0.00000000000E+00 0.  1.
          2   -1    0    0  501    0  0.00000000000E+00 -0.00000000000E+00 -0.21387129885E+04  0.21387129885E+04  0.00000000000E+00 0. -1.
         24    2    1    2    0    0  0.58141226177E+02 -0.12502647057E+03 -0.15044688826E+04  0.15128134808E+04  0.78523808750E+02 0.  0.
        254    2    1    2    0    0 -0.58141226177E+02  0.12502647057E+03 -0.29776551783E+03  0.96237809584E+03  0.90470728703E+03 0.  0.
         23    2    4    4    0    0  0.34221516117E+03  0.79767155474E+02 -0.39632587415E+03  0.53765074291E+03  0.92304426781E+02 0.  0.
         23    2    4    4    0    0 -0.40035638735E+03  0.45259315092E+02  0.98560356315E+02  0.42472735293E+03  0.91353916147E+02 0.  0.
          4    1    3    3  502    0  0.27254256528E+02 -0.84845359492E+02 -0.12599514857E+04  0.12630990761E+04  0.00000000000E+00 0. -1.
         -3    1    3    3    0  502  0.30886969649E+02 -0.40181111074E+02 -0.24451739684E+03  0.24971440475E+03  0.00000000000E+00 0.  1.
         13    1    5    5    0    0  0.18536166859E+03  0.87966309525E+02 -0.20392186499E+03  0.28927693792E+03  0.00000000000E+00 0. -1.
        -13    1    5    5    0    0  0.15685349258E+03 -0.81991540511E+01 -0.19240400916E+03  0.24837380499E+03  0.00000000000E+00 0.  1.
          4    1    6    6  503    0 -0.40226724877E+03  0.46864145530E+02  0.88741645685E+02  0.41459651138E+03  0.00000000000E+00 0. -1.
         -4    1    6    6    0  503  0.19108614194E+01 -0.16048304373E+01  0.98187106300E+01  0.10130841551E+02  0.00000000000E+00 0.  1.
<mgrwt>
<rscale>  0 0.16966215E+04</rscale>
<asrwt>0</asrwt>
<pdfrwt beam="1">  1        2 0.32903277E+00 0.16966215E+04</pdfrwt>
<pdfrwt beam="2">  1       -1 0.51765936E-01 0.16966215E+04</pdfrwt>
<totfact> 0.22766839E+01</totfact>
</mgrwt>
</event>
<event>
12    7  0.1707730E-007  0.2251440E+04  0.7818608E-02  0.8497318E-01
         -1   -1    0    0    0  501 -0.00000000000E+00  0.00000000000E+00  0.49632812570E+03  0.49632812570E+03  0.00000000000E+00 0.  1.
          2   -1    0    0  501    0  0.00000000000E+00 -0.00000000000E+00 -0.25532409675E+04  0.25532409675E+04  0.00000000000E+00 0. -1.
         24    2    1    2    0    0  0.46337595956E+03 -0.82335501922E+03 -0.13170316796E+04  0.16227634234E+04  0.78472388649E+02 0.  0.
        254    2    1    2    0    0 -0.46337595956E+03  0.82335501922E+03 -0.73988116218E+03  0.14268056698E+04  0.77182868404E+03 0.  0.
         23    2    4    4    0    0 -0.20710555781E+03  0.84212161365E+03 -0.75396968712E+03  0.11527824615E+04  0.91518250955E+02 0.  0.
         23    2    4    4    0    0 -0.25627040175E+03 -0.18766594438E+02  0.14088524939E+02  0.27402320822E+03  0.94146312878E+02 0.  0.
          4    1    3    3  502    0  0.36582309657E+03 -0.70831017918E+03 -0.11053416224E+04  0.13628315927E+04  0.00000000000E+00 0. -1.
         -3    1    3    3    0  502  0.97552862988E+02 -0.11504484003E+03 -0.21169005718E+03  0.25993183069E+03  0.00000000000E+00 0.  1.
         13    1    5    5    0    0 -0.15174392341E+03  0.63331828219E+03 -0.61627133936E+03  0.89660951845E+03  0.00000000000E+00 0.  1.
        -13    1    5    5    0    0 -0.55361634399E+02  0.20880333146E+03 -0.13769834776E+03  0.25617294309E+03  0.00000000000E+00 0. -1.
          1    1    6    6  503    0 -0.53585355935E+01 -0.19427151211E+02 -0.89587826954E+01  0.22054203574E+02  0.00000000000E+00 0. -1.
         -1    1    6    6    0  503 -0.25091186616E+03  0.66055677333E+00  0.23047307634E+02  0.25196900465E+03  0.00000000000E+00 0.  1.
<mgrwt>
<rscale>  0 0.22514398E+04</rscale>
<asrwt>0</asrwt>
<pdfrwt beam="1">  1        2 0.39280631E+00 0.22514398E+04</pdfrwt>
<pdfrwt beam="2">  1       -1 0.76358172E-01 0.22514398E+04</pdfrwt>
<totfact> 0.57805082E+00</totfact>
</mgrwt>
</event>
<event>
12    7  0.1707730E-007  0.1090529E+04  0.7818608E-02  0.9214472E-01
         -1   -1    0    0    0  501 -0.00000000000E+00  0.00000000000E+00  0.36777902724E+03  0.36777902724E+03  0.00000000000E+00 0.  1.
          2   -1    0    0  501    0  0.00000000000E+00 -0.00000000000E+00 -0.80840259024E+03  0.80840259024E+03  0.00000000000E+00 0. -1.
         24    2    1    2    0    0  0.28586552399E+02  0.72098167314E+02 -0.23863310324E+03  0.26301552449E+03  0.78842066519E+02 0.  0.
        254    2    1    2    0    0 -0.28586552399E+02 -0.72098167314E+02 -0.20199045976E+03  0.91316609299E+03  0.88716223479E+03 0.  0.
         23    2    4    4    0    0 -0.22092583785E+03 -0.40722623817E+03 -0.20808338037E+03  0.51679146934E+03  0.95568272541E+02 0.  0.
         23    2    4    4    0    0  0.19233928545E+03  0.33512807086E+03  0.60929206065E+01  0.39637462365E+03  0.88150405500E+02 0.  0.
          2    1    3    3  502    0  0.34915323672E+02  0.82827814043E+02 -0.23220995518E+03  0.24899997970E+03  0.00000000000E+00 0. -1.
         -3    1    3    3    0  502 -0.63287712738E+01 -0.10729646729E+02 -0.64231480599E+01  0.14015544790E+02  0.00000000000E+00 0.  1.
         13    1    5    5    0    0  0.59218915967E+01 -0.40156808613E+01  0.36118461043E+01  0.80149812940E+01  0.00000000000E+00 0. -1.
        -13    1    5    5    0    0 -0.22684772944E+03 -0.40321055731E+03 -0.21169522647E+03  0.50877648805E+03  0.00000000000E+00 0.  1.
          1    1    6    6  503    0  0.87888040046E+02  0.14725993158E+03 -0.40996092349E+02  0.17632491208E+03  0.00000000000E+00 0. -1.
         -1    1    6    6    0  503  0.10445124540E+03  0.18786813927E+03  0.47089012955E+02  0.22004971157E+03  0.00000000000E+00 0.  1.
<mgrwt>
<rscale>  0 0.10905293E+04</rscale>
<asrwt>0</asrwt>
<pdfrwt beam="1">  1        2 0.12436963E+00 0.10905293E+04</pdfrwt>
<pdfrwt beam="2">  1       -1 0.56581389E-01 0.10905293E+04</pdfrwt>
<totfact> 0.12176582E+02</totfact>
</mgrwt>
</event>
<event>
12    7  0.1707730E-007  0.1658577E+04  0.7818608E-02  0.8785348E-01
          2   -1    0    0  501    0  0.00000000000E+00  0.00000000000E+00  0.14812443641E+04  0.14812443641E+04  0.00000000000E+00 0. -1.
         -1   -1    0    0    0  501 -0.00000000000E+00 -0.00000000000E+00 -0.46428519343E+03  0.46428519343E+03  0.00000000000E+00 0.  1.
         24    2    1    2    0    0 -0.46862408256E+03  0.19406025095E+03  0.43559775197E+02  0.51530085303E+03  0.79809794923E+02 0.  0.
        254    2    1    2    0    0  0.46862408256E+03 -0.19406025095E+03  0.97339939548E+03  0.14302287045E+04  0.91694048463E+03 0.  0.
         23    2    4    4    0    0  0.56899315025E+03  0.85764004022E+02  0.95378495731E+03  0.11185505906E+04  0.10169075460E+03 0.  0.
         23    2    4    4    0    0 -0.10036906769E+03 -0.27982425497E+03  0.19614438177E+02  0.31167811390E+03  0.91558489934E+02 0.  0.
          4    1    3    3  502    0 -0.10510070173E+03  0.75798687308E+02  0.28775439371E+02  0.13273893330E+03  0.00000000000E+00 0. -1.
         -3    1    3    3    0  502 -0.36352338083E+03  0.11826156364E+03  0.14784335827E+02  0.38256191974E+03  0.00000000000E+00 0.  1.
         13    1    5    5    0    0  0.70057040517E+02 -0.13675167680E+02  0.16694907165E+03  0.18156814605E+03  0.00000000000E+00 0. -1.
        -13    1    5    5    0    0  0.49893610973E+03  0.99439171702E+02  0.78683588566E+03  0.93698244457E+03  0.00000000000E+00 0.  1.
          3    1    6    6  503    0 -0.45758439539E+02 -0.28935932100E+02  0.71831900720E+01  0.54614294605E+02  0.00000000000E+00 0. -1.
         -3    1    6    6    0  503 -0.54610628151E+02 -0.25088832287E+03  0.12431248105E+02  0.25706381929E+03  0.00000000000E+00 0.  1.
<mgrwt>
<rscale>  0 0.16585775E+04</rscale>
<asrwt>0</asrwt>
<pdfrwt beam="1">  1        2 0.22788375E+00 0.16585775E+04</pdfrwt>
<pdfrwt beam="2">  1       -1 0.71428492E-01 0.16585775E+04</pdfrwt>
<totfact> 0.28003741E+01</totfact>
</mgrwt>
</event>
<event>
12    7  0.1707730E-007  0.1076858E+04  0.7818608E-02  0.9228046E-01
         -3   -1    0    0    0  501 -0.00000000000E+00  0.00000000000E+00  0.85635998866E+03  0.85635998866E+03  0.00000000000E+00 0.  1.
          4   -1    0    0  501    0  0.00000000000E+00 -0.00000000000E+00 -0.33853245027E+03  0.33853245027E+03  0.00000000000E+00 0. -1.
         24    2    1    2    0    0  0.15985305397E+03  0.58742196880E+02  0.53062721227E+02  0.19607221910E+03  0.81394214545E+02 0.  0.
        254    2    1    2    0    0 -0.15985305397E+03 -0.58742196880E+02  0.46476481717E+03  0.99882021983E+03  0.86754357338E+03 0.  0.
         23    2    4    4    0    0 -0.20758287691E+03 -0.21178369530E+03 -0.15895090809E+03  0.34820265151E+03  0.89647704685E+02 0.  0.
         23    2    4    4    0    0  0.47729822937E+02  0.15304149842E+03  0.62371572526E+03  0.65061756833E+03  0.92639505871E+02 0.  0.
          2    1    3    3  502    0  0.58819323235E+02  0.54268988349E+02 -0.36684496394E+01  0.80114252197E+02  0.00000000000E+00 0. -1.
         -1    1    3    3    0  502  0.10103373073E+03  0.44732085307E+01  0.56731170866E+02  0.11595796690E+03  0.00000000000E+00 0.  1.
         13    1    5    5    0    0 -0.16121543494E+03 -0.18655977950E+03 -0.92517611229E+02  0.26335238024E+03  0.00000000000E+00 0. -1.
        -13    1    5    5    0    0 -0.46367441964E+02 -0.25223915799E+02 -0.66433296858E+02  0.84850271267E+02  0.00000000000E+00 0.  1.
          1    1    6    6  503    0  0.42975074571E+02  0.67409457228E+02  0.15802608405E+03  0.17709640086E+03  0.00000000000E+00 0. -1.
         -1    1    6    6    0  503  0.47547483661E+01  0.85632041190E+02  0.46568964121E+03  0.47352116746E+03  0.00000000000E+00 0.  1.
<mgrwt>
<rscale>  0 0.10768577E+04</rscale>
<asrwt>0</asrwt>
<pdfrwt beam="1">  1        4 0.52081916E-01 0.10768577E+04</pdfrwt>
<pdfrwt beam="2">  1       -3 0.13174769E+00 0.10768577E+04</pdfrwt>
<totfact> 0.36120415E+00</totfact>
</mgrwt>
</event>
<event>
12    7  0.1707730E-007  0.1982250E+04  0.7818608E-02  0.8614965E-01
         -1   -1    0    0    0  501 -0.00000000000E+00  0.00000000000E+00  0.29112010094E+03  0.29112010094E+03  0.00000000000E+00 0.  1.
          2   -1    0    0  501    0  0.00000000000E+00 -0.00000000000E+00 -0.33743067063E+04  0.33743067063E+04  0.00000000000E+00 0. -1.
         24    2    1    2    0    0 -0.66791018460E+03 -0.88376724873E+02 -0.19494767899E+04  0.20642862376E+04  0.83087038191E+02 0.  0.
        254    2    1    2    0    0  0.66791018460E+03  0.88376724873E+02 -0.11337098154E+04  0.16011405696E+04  0.90798607811E+03 0.  0.
         23    2    4    4    0    0  0.36524197578E+03 -0.39974122528E+03 -0.55441015544E+03  0.78014161291E+03  0.89752814311E+02 0.  0.
         23    2    4    4    0    0  0.30266820882E+03  0.48811795015E+03 -0.57929965996E+03  0.82099895673E+03  0.92649948973E+02 0.  0.
          4    1    3    3  502    0 -0.53991950717E+03 -0.51212290359E+02 -0.16394115164E+04  0.17267906338E+04  0.00000000000E+00 0. -1.
         -3    1    3    3    0  502 -0.12799067743E+03 -0.37164434513E+02 -0.31006527350E+03  0.33749560372E+03  0.00000000000E+00 0.  1.
         13    1    5    5    0    0  0.73876868438E+02 -0.62921034298E+02 -0.57220372208E+02  0.11265442398E+03  0.00000000000E+00 0.  1.
        -13    1    5    5    0    0  0.29136510734E+03 -0.33682019098E+03 -0.49718978323E+03  0.66748718893E+03  0.00000000000E+00 0. -1.
          1    1    6    6  503    0  0.25950663319E+03  0.37639263031E+03 -0.49916889434E+03  0.67689341103E+03  0.00000000000E+00 0. -1.
         -1    1    6    6    0  503  0.43161575628E+02  0.11172531984E+03 -0.80130765618E+02  0.14410554570E+03  0.00000000000E+00 0.  1.
<mgrwt>
<rscale>  0 0.19822497E+04</rscale>
<asrwt>0</asrwt>
<pdfrwt beam="1">  1        2 0.51912410E+00 0.19822497E+04</pdfrwt>
<pdfrwt beam="2">  1       -1 0.44787708E-01 0.19822497E+04</pdfrwt>
<totfact> 0.52190857E+00</totfact>
</mgrwt>
</event>
<event>
12    7  0.1707730E-007  0.1864103E+04  0.7818608E-02  0.8672934E-01
         -1   -1    0    0    0  501 -0.00000000000E+00  0.00000000000E+00  0.10933801150E+04  0.10933801150E+04  0.00000000000E+00 0.  1.
          2   -1    0    0  501    0  0.00000000000E+00 -0.00000000000E+00 -0.79452726083E+03  0.79452726083E+03  0.00000000000E+00 0. -1.
         24    2    1    2    0    0 -0.47155093872E+03 -0.49087101262E+03 -0.91850566954E+02  0.69178484372E+03  0.82553646191E+02 0.  0.
        254    2    1    2    0    0  0.47155093872E+03  0.49087101262E+03  0.39070342117E+03  0.11961225322E+04  0.90263243337E+03 0.  0.
         23    2    4    4    0    0  0.28337286851E+03 -0.22035632382E+03  0.33339908437E+02  0.37303465517E+03  0.95844730724E+02 0.  0.
         23    2    4    4    0    0  0.18817807021E+03  0.71122733645E+03  0.35736351274E+03  0.82308787698E+03  0.92247833450E+02 0.  0.
          2    1    3    3  502    0 -0.41620003984E+03 -0.39887039712E+03 -0.95631917230E+02  0.58435052020E+03  0.00000000000E+00 0. -1.
         -1    1    3    3    0  502 -0.55350898888E+02 -0.92000615500E+02  0.37813502763E+01  0.10743432352E+03  0.00000000000E+00 0.  1.
         13    1    5    5    0    0  0.21725856868E+03 -0.19643967296E+03  0.57888843450E+02  0.29856481536E+03  0.00000000000E+00 0.  1.
        -13    1    5    5    0    0  0.66114299839E+02 -0.23916650866E+02 -0.24548935013E+02  0.74469839815E+02  0.00000000000E+00 0. -1.
          2    1    6    6  503    0  0.48457277414E+01  0.26231452594E+01  0.13140697517E+02  0.14249206982E+02  0.00000000000E+00 0. -1.
         -2    1    6    6    0  503  0.18333234247E+03  0.70860419119E+03  0.34422281522E+03  0.80883867000E+03  0.00000000000E+00 0.  1.
<mgrwt>
<rscale>  0 0.18641033E+04</rscale>
<asrwt>0</asrwt>
<pdfrwt beam="1">  1        2 0.12223496E+00 0.18641033E+04</pdfrwt>
<pdfrwt beam="2">  1       -1 0.16821233E+00 0.18641033E+04</pdfrwt>
<totfact> 0.94530653E+00</totfact>
</mgrwt>
</event>
<event>
12    7  0.1802394E-007  0.3270593E+04  0.7818608E-02  0.8170419E-01
         -1   -1    0    0    0  501 -0.00000000000E+00  0.00000000000E+00  0.16703759675E+04  0.16703759675E+04  0.00000000000E+00 0.  1.
          2   -1    0    0  501    0  0.00000000000E+00 -0.00000000000E+00 -0.16009538977E+04  0.16009538977E+04  0.00000000000E+00 0. -1.
         24    2    1    2    0    0 -0.98420666893E+03 -0.84470024511E+03 -0.74050257480E+03  0.14954849482E+04  0.77135566882E+02 0.  0.
        254    2    1    2    0    0  0.98420666893E+03  0.84470024511E+03  0.80992464465E+03  0.17758449171E+04  0.90303154331E+03 0.  0.
         23    2    4    4    0    0  0.77626907971E+03  0.10251141284E+04  0.68618393586E+03  0.14603192070E+04  0.90725586143E+02 0.  0.
         23    2    4    4    0    0  0.20793758922E+03 -0.18041388334E+03  0.12374070878E+03  0.31552571009E+03  0.91964669335E+02 0.  0.
          2    1    3    3  502    0 -0.89422138857E+03 -0.78539005123E+03 -0.65950291571E+03  0.13606665720E+04  0.00000000000E+00 0. -1.
         -1    1    3    3    0  502 -0.89985280365E+02 -0.59310193873E+02 -0.80999659095E+02  0.13481837617E+03  0.00000000000E+00 0.  1.
         13    1    5    5    0    0  0.55835791177E+03  0.80158660343E+03  0.51774818010E+03  0.11056074432E+04  0.00000000000E+00 0.  1.
        -13    1    5    5    0    0  0.21791116793E+03  0.22352752501E+03  0.16843575576E+03  0.35471176378E+03  0.00000000000E+00 0. -1.
          3    1    6    6  503    0  0.21412665535E+03 -0.18096167831E+03  0.11133336031E+03  0.30164958257E+03  0.00000000000E+00 0.  1.
         -3    1    6    6    0  503 -0.61890661285E+01  0.54779496893E+00  0.12407348471E+02  0.13876127520E+02  0.00000000000E+00 0. -1.
<mgrwt>
<rscale>  0 0.32705932E+04</rscale>
<asrwt>0</asrwt>
<pdfrwt beam="1">  1        2 0.24630060E+00 0.32705932E+04</pdfrwt>
<pdfrwt beam="2">  1       -1 0.25698092E+00 0.32705932E+04</pdfrwt>
<totfact> 0.66636552E-01</totfact>
</mgrwt>
</event>
<event>
12    7  0.1707730E-007  0.2502196E+04  0.7818608E-02  0.8402204E-01
          2   -1    0    0  501    0  0.00000000000E+00  0.00000000000E+00  0.15538813539E+04  0.15538813539E+04  0.00000000000E+00 0. -1.
         -1   -1    0    0    0  501 -0.00000000000E+00 -0.00000000000E+00 -0.10073135692E+04  0.10073135692E+04  0.00000000000E+00 0.  1.
         24    2    1    2    0    0 -0.10364785755E+04  0.31071476004E+03  0.34022793113E+03  0.11372035567E+04  0.81519229066E+02 0.  0.
        254    2    1    2    0    0  0.10364785755E+04 -0.31071476004E+03  0.20633985354E+03  0.14239913664E+04  0.90240998259E+03 0.  0.
         23    2    4    4    0    0  0.28085644156E+02  0.22327091299E+03 -0.55287619814E+02  0.24980263376E+03  0.93305578252E+02 0.  0.
         23    2    4    4    0    0  0.10083929314E+04 -0.53398567303E+03  0.26162747336E+03  0.11741887326E+04  0.90957363190E+02 0.  0.
          4    1    3    3  502    0 -0.53915443031E+02 -0.15274675603E+01  0.21673782025E+02  0.58128830899E+02  0.00000000000E+00 0. -1.
         -3    1    3    3    0  502 -0.98256313250E+03  0.31224222760E+03  0.31855414910E+03  0.10790747258E+04  0.00000000000E+00 0.  1.
         13    1    5    5    0    0  0.43148469525E+02  0.10140539800E+03  0.10135237210E+02  0.11066873180E+03  0.00000000000E+00 0. -1.
        -13    1    5    5    0    0 -0.15062825369E+02  0.12186551499E+03 -0.65422857023E+02  0.13913390196E+03  0.00000000000E+00 0.  1.
          1    1    6    6  503    0  0.71190857431E+03 -0.42127866622E+03  0.17771057841E+03  0.84609135587E+03  0.00000000000E+00 0. -1.
         -1    1    6    6    0  503  0.29648435706E+03 -0.11270700680E+03  0.83916894942E+02  0.32809737674E+03  0.00000000000E+00 0.  1.
<mgrwt>
<rscale>  0 0.25021957E+04</rscale>
<asrwt>0</asrwt>
<pdfrwt beam="1">  1        2 0.23905867E+00 0.25021957E+04</pdfrwt>
<pdfrwt beam="2">  1       -1 0.15497132E+00 0.25021957E+04</pdfrwt>
<totfact> 0.38381537E+00</totfact>
</mgrwt>
</event>
<event>
12    7  0.1707730E-007  0.1766761E+04  0.7818608E-02  0.8724178E-01
          2   -1    0    0  501    0  0.00000000000E+00  0.00000000000E+00  0.14850940649E+04  0.14850940649E+04  0.00000000000E+00 0. -1.
         -1   -1    0    0    0  501 -0.00000000000E+00 -0.00000000000E+00 -0.52546265325E+03  0.52546265325E+03  0.00000000000E+00 0.  1.
         24    2    1    2    0    0 -0.21936901671E+03  0.40718165983E+03 -0.16337501345E+03  0.49687840502E+03  0.79228055408E+02 0.  0.
        254    2    1    2    0    0  0.21936901671E+03 -0.40718165983E+03  0.11230064251E+04  0.15136783132E+04  0.90341515112E+03 0.  0.
         23    2    4    4    0    0  0.50472227677E+03 -0.47416208409E+03  0.86369086410E+03  0.11108283142E+04  0.91669930634E+02 0.  0.
         23    2    4    4    0    0 -0.28535326006E+03  0.66980424265E+02  0.25931556104E+03  0.40284999900E+03  0.95554702842E+02 0.  0.
          4    1    3    3  502    0 -0.30916157675E+02  0.50732817424E+02  0.56591440329E+01  0.59679590149E+02  0.00000000000E+00 0. -1.
         -3    1    3    3    0  502 -0.18845285904E+03  0.35644884240E+03 -0.16903415748E+03  0.43719881487E+03  0.00000000000E+00 0.  1.
         13    1    5    5    0    0  0.29658436058E+03 -0.21850392701E+03  0.43477388511E+03  0.56985487646E+03  0.00000000000E+00 0.  1.
        -13    1    5    5    0    0  0.20813791619E+03 -0.25565815708E+03  0.42891697900E+03  0.54097343771E+03  0.00000000000E+00 0. -1.
          3    1    6    6  503    0 -0.51369072246E+02 -0.23402846178E+02  0.60807566861E+02  0.82970084851E+02  0.00000000000E+00 0. -1.
         -3    1    6    6    0  503 -0.23398418782E+03  0.90383270443E+02  0.19850799418E+03  0.31987991415E+03  0.00000000000E+00 0.  1.
<mgrwt>
<rscale>  0 0.17667614E+04</rscale>
<asrwt>0</asrwt>
<pdfrwt beam="1">  1        2 0.22847601E+00 0.17667614E+04</pdfrwt>
<pdfrwt beam="2">  1       -1 0.80840409E-01 0.17667614E+04</pdfrwt>
<totfact> 0.21295932E+01</totfact>
</mgrwt>
</event>
<event>
12    7  0.1707730E-007  0.1642676E+04  0.7818608E-02  0.8794751E-01
          4   -1    0    0  501    0  0.00000000000E+00  0.00000000000E+00  0.53139678266E+03  0.53139678266E+03  0.00000000000E+00 0. -1.
         -3   -1    0    0    0  501 -0.00000000000E+00 -0.00000000000E+00 -0.12694771068E+04  0.12694771068E+04  0.00000000000E+00 0.  1.
         24    2    1    2    0    0 -0.88362343741E+02  0.55558496942E+03 -0.35319811349E+03  0.66911040838E+03  0.80481483515E+02 0.  0.
        254    2    1    2    0    0  0.88362343741E+02 -0.55558496942E+03 -0.38488221065E+03  0.11317634811E+04  0.90347755866E+03 0.  0.
         23    2    4    4    0    0 -0.35358720459E+03 -0.50979625529E+02 -0.38900599329E+02  0.37159178418E+03  0.94574647615E+02 0.  0.
         23    2    4    4    0    0  0.44194954833E+03 -0.50460534389E+03 -0.34598161133E+03  0.76017169691E+03  0.90618855920E+02 0.  0.
          4    1    3    3  502    0 -0.54780612369E+02  0.26051357824E+03 -0.21181615160E+03  0.34019747503E+03  0.00000000000E+00 0. -1.
         -3    1    3    3    0  502 -0.33581731372E+02  0.29507139118E+03 -0.14138196190E+03  0.32891293335E+03  0.00000000000E+00 0.  1.
         13    1    5    5    0    0 -0.27226232012E+03  0.23121475077E+01 -0.31284346719E+02  0.27406354616E+03  0.00000000000E+00 0. -1.
        -13    1    5    5    0    0 -0.81324884473E+02 -0.53291773037E+02 -0.76162526099E+01  0.97528238022E+02  0.00000000000E+00 0.  1.
          1    1    6    6  503    0  0.20257154276E+03 -0.28274455259E+03 -0.21217047096E+03  0.40742609232E+03  0.00000000000E+00 0. -1.
         -1    1    6    6    0  503  0.23937800558E+03 -0.22186079130E+03 -0.13381114036E+03  0.35274560458E+03  0.00000000000E+00 0.  1.
<mgrwt>
<rscale>  0 0.16426759E+04</rscale>
<asrwt>0</asrwt>
<pdfrwt beam="1">  1        4 0.81753352E-01 0.16426759E+04</pdfrwt>
<pdfrwt beam="2">  1       -3 0.19530417E+00 0.16426759E+04</pdfrwt>
<totfact> 0.45348840E-01</totfact>
</mgrwt>
</event>
<event>
12    7  0.1707730E-007  0.1622351E+04  0.7818608E-02  0.8806933E-01
          2   -1    0    0  501    0  0.00000000000E+00  0.00000000000E+00  0.12830116015E+04  0.12830116015E+04  0.00000000000E+00 0. -1.
         -1   -1    0    0    0  501 -0.00000000000E+00 -0.00000000000E+00 -0.51286017566E+03  0.51286017566E+03  0.00000000000E+00 0.  1.
         24    2    1    2    0    0 -0.41092922644E+03 -0.28501149486E+03  0.53090122884E+03  0.73386730921E+03  0.81306404411E+02 0.  0.
        254    2    1    2    0    0  0.41092922644E+03  0.28501149486E+03  0.23925019704E+03  0.10620044680E+04  0.90582473574E+03 0.  0.
         23    2    4    4    0    0 -0.15366687192E+03 -0.18929612994E+03 -0.49285764741E+02  0.26505035257E+03  0.91520874430E+02 0.  0.
         23    2    4    4    0    0  0.56459609836E+03  0.47430762480E+03  0.28853596178E+03  0.79695411541E+03  0.90257318800E+02 0.  0.
          2    1    3    3  502    0 -0.41180148033E+03 -0.28863515050E+03  0.52604807410E+03  0.72774809211E+03  0.00000000000E+00 0. -1.
         -1    1    3    3    0  502  0.87225388504E+00  0.36236556386E+01  0.48531547315E+01  0.61192170966E+01  0.00000000000E+00 0.  1.
         13    1    5    5    0    0 -0.13854587272E+03 -0.13068260153E+03 -0.58463736821E+01  0.19054417146E+03  0.00000000000E+00 0.  1.
        -13    1    5    5    0    0 -0.15120999205E+02 -0.58613528406E+02 -0.43439391059E+02  0.74506181118E+02  0.00000000000E+00 0. -1.
          2    1    6    6  503    0  0.49050419422E+03  0.41090031225E+03  0.28188293002E+03  0.69920770690E+03  0.00000000000E+00 0.  1.
         -2    1    6    6    0  503  0.74091904148E+02  0.63407312550E+02  0.66530317597E+01  0.97746408510E+02  0.00000000000E+00 0. -1.
<mgrwt>
<rscale>  0 0.16223508E+04</rscale>
<asrwt>0</asrwt>
<pdfrwt beam="1">  1        2 0.19738640E+00 0.16223508E+04</pdfrwt>
<pdfrwt beam="2">  1       -1 0.78901566E-01 0.16223508E+04</pdfrwt>
<totfact> 0.29656618E+01</totfact>
</mgrwt>
</event>
<event>
12    7  0.1707730E-007  0.1526871E+04  0.7818608E-02  0.8866778E-01
          2   -1    0    0  501    0  0.00000000000E+00  0.00000000000E+00  0.35302831380E+03  0.35302831380E+03  0.00000000000E+00 0. -1.
         -1   -1    0    0    0  501 -0.00000000000E+00 -0.00000000000E+00 -0.16509553803E+04  0.16509553803E+04  0.00000000000E+00 0.  1.
         24    2    1    2    0    0  0.11827077150E+03  0.12921811999E+03  0.18225456151E+03  0.26243030359E+03  0.70481494924E+02 0.  0.
        254    2    1    2    0    0 -0.11827077150E+03 -0.12921811999E+03 -0.14801816281E+04  0.17415533906E+04  0.90076926134E+03 0.  0.
         23    2    4    4    0    0 -0.39584525711E+03 -0.27924482201E+03 -0.47582302187E+03  0.68502001233E+03  0.90408688490E+02 0.  0.
         23    2    4    4    0    0  0.27757448561E+03  0.15002670202E+03 -0.10043586062E+04  0.10565333782E+04  0.89280250298E+02 0.  0.
          2    1    3    3  502    0  0.11696367425E+03  0.87651362966E+02  0.12969146630E+03  0.19540506379E+03  0.00000000000E+00 0. -1.
         -1    1    3    3    0  502  0.13070972553E+01  0.41566757025E+02  0.52563095209E+02  0.67025239804E+02  0.00000000000E+00 0.  1.
         13    1    5    5    0    0 -0.59139084420E+02 -0.58871181917E+02 -0.42441634274E+02  0.93619120302E+02  0.00000000000E+00 0.  1.
        -13    1    5    5    0    0 -0.33670617269E+03 -0.22037364009E+03 -0.43338138760E+03  0.59140089203E+03  0.00000000000E+00 0. -1.
          1    1    6    6  503    0  0.17692020101E+03  0.95977746836E+02 -0.49175618852E+03  0.53135358694E+03  0.00000000000E+00 0. -1.
         -1    1    6    6    0  503  0.10065428460E+03  0.54048955180E+02 -0.51260241767E+03  0.52517979127E+03  0.00000000000E+00 0.  1.
<mgrwt>
<rscale>  0 0.15268713E+04</rscale>
<asrwt>0</asrwt>
<pdfrwt beam="1">  1        2 0.54312049E-01 0.15268713E+04</pdfrwt>
<pdfrwt beam="2">  1       -1 0.25399313E+00 0.15268713E+04</pdfrwt>
<totfact> 0.66352947E+00</totfact>
</mgrwt>
</event>
<event>
12    7  0.1707730E-007  0.2078536E+04  0.7818608E-02  0.8570758E-01
         -1   -1    0    0    0  501 -0.00000000000E+00  0.00000000000E+00  0.86299048630E+03  0.86299048630E+03  0.00000000000E+00 0.  1.
          2   -1    0    0  501    0  0.00000000000E+00 -0.00000000000E+00 -0.12515522179E+04  0.12515522179E+04  0.00000000000E+00 0. -1.
         24    2    1    2    0    0  0.70980528717E+03 -0.24738146959E+03  0.24568580477E+03  0.79493435645E+03  0.80857771496E+02 0.  0.
        254    2    1    2    0    0 -0.70980528717E+03  0.24738146959E+03 -0.63424753636E+03  0.13196083477E+04  0.87981538795E+03 0.  0.
         23    2    4    4    0    0 -0.69201366051E+03  0.64277808751E+02 -0.53919110512E+02  0.70311867738E+03  0.91945967680E+02 0.  0.
         23    2    4    4    0    0 -0.17791626657E+02  0.18310366084E+03 -0.58032842585E+03  0.61648967037E+03  0.97133615357E+02 0.  0.
          2    1    3    3  502    0  0.26586532456E+03 -0.99456860382E+02  0.13377388803E+03  0.31380167463E+03  0.00000000000E+00 0. -1.
         -1    1    3    3    0  502  0.44393996261E+03 -0.14792460921E+03  0.11191191674E+03  0.48113268182E+03  0.00000000000E+00 0.  1.
         13    1    5    5    0    0 -0.55689080875E+03  0.32189349161E+02 -0.74313038638E+02  0.56274857155E+03  0.00000000000E+00 0. -1.
        -13    1    5    5    0    0 -0.13512285176E+03  0.32088459590E+02  0.20393928126E+02  0.14037010583E+03  0.00000000000E+00 0.  1.
          4    1    6    6  503    0 -0.10133801822E+02  0.32286428747E+02 -0.26179500222E+03  0.26397297325E+03  0.00000000000E+00 0.  1.
         -4    1    6    6    0  503 -0.76578248357E+01  0.15081723209E+03 -0.31853342363E+03  0.35251669711E+03  0.00000000000E+00 0. -1.
<mgrwt>
<rscale>  0 0.20785357E+04</rscale>
<asrwt>0</asrwt>
<pdfrwt beam="1">  1        2 0.19254649E+00 0.20785357E+04</pdfrwt>
<pdfrwt beam="2">  1       -1 0.13276777E+00 0.20785357E+04</pdfrwt>
<totfact> 0.89299128E+00</totfact>
</mgrwt>
</event>
<event>
12    7  0.1707730E-007  0.2503952E+04  0.7818608E-02  0.8401579E-01
          2   -1    0    0  501    0  0.00000000000E+00  0.00000000000E+00  0.38119501330E+04  0.38119501330E+04  0.00000000000E+00 0. -1.
         -1   -1    0    0    0  501 -0.00000000000E+00 -0.00000000000E+00 -0.41119201110E+03  0.41119201110E+03  0.00000000000E+00 0.  1.
         24    2    1    2    0    0 -0.54127955827E+03 -0.55023458199E+03  0.18891302751E+03  0.79861690383E+03  0.79744414843E+02 0.  0.
        254    2    1    2    0    0  0.54127955827E+03  0.55023458199E+03  0.32118450944E+04  0.34245252403E+04  0.90315145767E+03 0.  0.
         23    2    4    4    0    0  0.29453320610E+03 -0.21344156654E+03  0.86879835801E+03  0.94623098710E+03  0.90749006827E+02 0.  0.
         23    2    4    4    0    0  0.24674635218E+03  0.76367614853E+03  0.23430467364E+04  0.24782942532E+04  0.89383299947E+02 0.  0.
          2    1    3    3  502    0 -0.30676890365E+02 -0.63454545438E+02  0.15809035934E+02  0.72232101979E+02  0.00000000000E+00 0. -1.
         -1    1    3    3    0  502 -0.51060266791E+03 -0.48678003655E+03  0.17310399157E+03  0.72638480185E+03  0.00000000000E+00 0.  1.
         13    1    5    5    0    0  0.25114271104E+03 -0.14026372479E+03  0.62513429971E+03  0.68814203946E+03  0.00000000000E+00 0. -1.
        -13    1    5    5    0    0  0.43390495059E+02 -0.73177841750E+02  0.24366405830E+03  0.25808894763E+03  0.00000000000E+00 0.  1.
          4    1    6    6  503    0  0.20118354654E+03  0.70176601155E+03  0.20901470222E+04  0.22139703992E+04  0.00000000000E+00 0. -1.
         -4    1    6    6    0  503  0.45562805637E+02  0.61910136986E+02  0.25289971423E+03  0.26432385397E+03  0.00000000000E+00 0.  1.
<mgrwt>
<rscale>  0 0.25039516E+04</rscale>
<asrwt>0</asrwt>
<pdfrwt beam="1">  1        2 0.58645384E+00 0.25039516E+04</pdfrwt>
<pdfrwt beam="2">  1       -1 0.63260312E-01 0.25039516E+04</pdfrwt>
<totfact> 0.12389618E+00</totfact>
</mgrwt>
</event>
<event>
12    7  0.1707730E-007  0.1082609E+04  0.7818608E-02  0.9222311E-01
          2   -1    0    0  501    0  0.00000000000E+00  0.00000000000E+00  0.31996763738E+03  0.31996763738E+03  0.00000000000E+00 0. -1.
         -1   -1    0    0    0  501 -0.00000000000E+00 -0.00000000000E+00 -0.91574978450E+03  0.91574978450E+03  0.00000000000E+00 0.  1.
         24    2    1    2    0    0 -0.59498924978E+02  0.19167162129E+02 -0.22993599628E+03  0.25135187865E+03  0.79998139586E+02 0.  0.
        254    2    1    2    0    0  0.59498924978E+02 -0.19167162129E+02 -0.36584615085E+03  0.98436554324E+03  0.91171520468E+03 0.  0.
         23    2    4    4    0    0  0.43990129134E+03 -0.13563931887E+03 -0.56989474224E+02  0.47265170183E+03  0.90778081763E+02 0.  0.
         23    2    4    4    0    0 -0.38040236636E+03  0.11647215674E+03 -0.30885667663E+03  0.51171384140E+03  0.90481407813E+02 0.  0.
          2    1    3    3  502    0 -0.18337620999E+02 -0.29855706288E+02 -0.56522604752E+02  0.66501401413E+02  0.00000000000E+00 0. -1.
         -1    1    3    3    0  502 -0.41161303979E+02  0.49022868418E+02 -0.17341339152E+03  0.18485047723E+03  0.00000000000E+00 0.  1.
         13    1    5    5    0    0  0.26612775895E+03 -0.11381100764E+03 -0.32761378263E+01  0.28946098636E+03  0.00000000000E+00 0. -1.
        -13    1    5    5    0    0  0.17377353239E+03 -0.21828311234E+02 -0.53713336398E+02  0.18319071548E+03  0.00000000000E+00 0.  1.
          3    1    6    6  503    0 -0.34779675409E+03  0.11990622295E+03 -0.30651573439E+03  0.47884442138E+03  0.00000000000E+00 0. -1.
         -3    1    6    6    0  503 -0.32605612271E+02 -0.34340662025E+01 -0.23409422335E+01  0.32869420025E+02  0.00000000000E+00 0.  1.
<mgrwt>
<rscale>  0 0.10826085E+04</rscale>
<asrwt>0</asrwt>
<pdfrwt beam="1">  1        2 0.49225791E-01 0.10826085E+04</pdfrwt>
<pdfrwt beam="2">  1       -1 0.14088458E+00 0.10826085E+04</pdfrwt>
<totfact> 0.47973469E+01</totfact>
</mgrwt>
</event>
<event>
12    7  0.1707730E-007  0.2029595E+04  0.7818608E-02  0.8592908E-01
          2   -1    0    0  501    0  0.00000000000E+00  0.00000000000E+00  0.20047814196E+04  0.20047814196E+04  0.00000000000E+00 0. -1.
         -1   -1    0    0    0  501 -0.00000000000E+00 -0.00000000000E+00 -0.51367870392E+03  0.51367870392E+03  0.00000000000E+00 0.  1.
         24    2    1    2    0    0 -0.14741556994E+03  0.16132822528E+03 -0.36930827524E+03  0.43654147567E+03  0.80135580651E+02 0.  0.
        254    2    1    2    0    0  0.14741556994E+03 -0.16132822528E+03  0.18604109910E+04  0.20819186479E+04  0.90856923488E+03 0.  0.
         23    2    4    4    0    0 -0.37107467116E+03 -0.11084314431E+03  0.66954824611E+03  0.77893352978E+03  0.91978126380E+02 0.  0.
         23    2    4    4    0    0  0.51849024110E+03 -0.50485080973E+02  0.11908627449E+04  0.13029851181E+04  0.90748374096E+02 0.  0.
          2    1    3    3  502    0 -0.82327606087E+01  0.59378629162E+02 -0.85889341043E+02  0.10474053109E+03  0.00000000000E+00 0. -1.
         -1    1    3    3    0  502 -0.13918280933E+03  0.10194959612E+03 -0.28341893420E+03  0.33180094458E+03  0.00000000000E+00 0.  1.
         13    1    5    5    0    0 -0.15593134225E+03 -0.52800438514E+02  0.37538044908E+03  0.40989382937E+03  0.00000000000E+00 0.  1.
        -13    1    5    5    0    0 -0.21514332891E+03 -0.58042705796E+02  0.29416779702E+03  0.36903970041E+03  0.00000000000E+00 0. -1.
          3    1    6    6  503    0  0.40846420217E+03 -0.76799056581E+01  0.97067552401E+03  0.10531443198E+04  0.00000000000E+00 0. -1.
         -3    1    6    6    0  503  0.11002603893E+03 -0.42805175315E+02  0.22018722085E+03  0.24984079832E+03  0.00000000000E+00 0.  1.
<mgrwt>
<rscale>  0 0.20295946E+04</rscale>
<asrwt>0</asrwt>
<pdfrwt beam="1">  1        2 0.30842791E+00 0.20295946E+04</pdfrwt>
<pdfrwt beam="2">  1       -1 0.79027494E-01 0.20295946E+04</pdfrwt>
<totfact> 0.11218086E+01</totfact>
</mgrwt>
</event>
<event>
12    7  0.1707730E-007  0.1753604E+04  0.7818608E-02  0.8731369E-01
          2   -1    0    0  501    0  0.00000000000E+00  0.00000000000E+00  0.13490995771E+04  0.13490995771E+04  0.00000000000E+00 0. -1.
         -1   -1    0    0    0  501 -0.00000000000E+00 -0.00000000000E+00 -0.56984815434E+03  0.56984815434E+03  0.00000000000E+00 0.  1.
         24    2    1    2    0    0 -0.42637951303E+03 -0.35890084695E+03 -0.69385108367E+02  0.56576131250E+03  0.68280761404E+02 0.  0.
        254    2    1    2    0    0  0.42637951303E+03  0.35890084695E+03  0.84863653114E+03  0.13531864190E+04  0.89460617894E+03 0.  0.
         23    2    4    4    0    0 -0.50444568957E+02 -0.59268264006E+02  0.68056697044E+03  0.69108149234E+03  0.91459532868E+02 0.  0.
         23    2    4    4    0    0  0.47682408199E+03  0.41816911096E+03  0.16806956070E+03  0.66210492662E+03  0.88932255621E+02 0.  0.
          2    1    3    3  502    0 -0.39663953203E+02 -0.11276659175E+02 -0.60384469793E+00  0.41240233441E+02  0.00000000000E+00 0. -1.
         -1    1    3    3    0  502 -0.38671555983E+03 -0.34762418778E+03 -0.68781263669E+02  0.52452107906E+03  0.00000000000E+00 0.  1.
         13    1    5    5    0    0 -0.53553710999E+02 -0.10018147879E+02  0.17939433312E+03  0.18748517276E+03  0.00000000000E+00 0.  1.
        -13    1    5    5    0    0  0.31091420421E+01 -0.49250116127E+02  0.50117263732E+03  0.50359631959E+03  0.00000000000E+00 0. -1.
          3    1    6    6  503    0  0.44934569934E+03  0.37597083318E+03  0.13315695640E+03  0.60082975954E+03  0.00000000000E+00 0. -1.
         -3    1    6    6    0  503  0.27478382653E+02  0.42198277779E+02  0.34912604303E+02  0.61275167074E+02  0.00000000000E+00 0.  1.
<mgrwt>
<rscale>  0 0.17536042E+04</rscale>
<asrwt>0</asrwt>
<pdfrwt beam="1">  1        2 0.20755378E+00 0.17536042E+04</pdfrwt>
<pdfrwt beam="2">  1       -1 0.87668947E-01 0.17536042E+04</pdfrwt>
<totfact> 0.21398857E+01</totfact>
</mgrwt>
</event>
<event>
12    7  0.1707730E-007  0.1676879E+04  0.7818608E-02  0.8774662E-01
         -1   -1    0    0    0  501 -0.00000000000E+00  0.00000000000E+00  0.10709061828E+04  0.10709061828E+04  0.00000000000E+00 0.  1.
          2   -1    0    0  501    0  0.00000000000E+00 -0.00000000000E+00 -0.65643561806E+03  0.65643561806E+03  0.00000000000E+00 0. -1.
         24    2    1    2    0    0 -0.21682031348E+03  0.36647622819E+02 -0.42231140054E+03  0.48361636664E+03  0.84757149929E+02 0.  0.
        254    2    1    2    0    0  0.21682031348E+03 -0.36647622819E+02  0.83678196532E+03  0.12437254343E+04  0.89347344770E+03 0.  0.
         23    2    4    4    0    0 -0.31807365155E+03  0.74882606851E+02  0.47010702924E+03  0.57938270125E+03  0.88912557897E+02 0.  0.
         23    2    4    4    0    0  0.53489396503E+03 -0.11153022967E+03  0.36667493609E+03  0.66434273301E+03  0.91379495480E+02 0.  0.
          4    1    3    3  502    0 -0.20706042150E+03  0.11067366908E+02 -0.38563244290E+03  0.43784573285E+03  0.00000000000E+00 0. -1.
         -3    1    3    3    0  502 -0.97598919791E+01  0.25580255911E+02 -0.36678957642E+02  0.45770633791E+02  0.00000000000E+00 0.  1.
         13    1    5    5    0    0 -0.20332733234E+02 -0.15032559428E+02  0.56353818285E+02  0.61766906342E+02  0.00000000000E+00 0. -1.
        -13    1    5    5    0    0 -0.29774091832E+03  0.89915166278E+02  0.41375321095E+03  0.51761579491E+03  0.00000000000E+00 0.  1.
          2    1    6    6  503    0  0.32932782372E+03 -0.37719802532E+02  0.18104014444E+03  0.37769714439E+03  0.00000000000E+00 0. -1.
         -2    1    6    6    0  503  0.20556614131E+03 -0.73810427137E+02  0.18563479165E+03  0.28664558862E+03  0.00000000000E+00 0.  1.
<mgrwt>
<rscale>  0 0.16768792E+04</rscale>
<asrwt>0</asrwt>
<pdfrwt beam="1">  1        2 0.10099010E+00 0.16768792E+04</pdfrwt>
<pdfrwt beam="2">  1       -1 0.16475480E+00 0.16768792E+04</pdfrwt>
<totfact> 0.13014335E+01</totfact>
</mgrwt>
</event>
<event>
12    7  0.1707730E-007  0.1290839E+04  0.7818608E-02  0.9036862E-01
         -1   -1    0    0    0  501 -0.00000000000E+00  0.00000000000E+00  0.30974041591E+03  0.30974041591E+03  0.00000000000E+00 0.  1.
          2   -1    0    0  501    0  0.00000000000E+00 -0.00000000000E+00 -0.13448877520E+04  0.13448877520E+04  0.00000000000E+00 0. -1.
         24    2    1    2    0    0  0.15223712370E+02  0.27981939690E+03 -0.58204687686E+02  0.29730321258E+03  0.80441023350E+02 0.  0.
        254    2    1    2    0    0 -0.15223712370E+02 -0.27981939690E+03 -0.97694264844E+03  0.13573249554E+04  0.89965740138E+03 0.  0.
         23    2    4    4    0    0 -0.34660867687E+03  0.28035655465E+02 -0.11116114179E+03  0.37643437718E+03  0.91774005159E+02 0.  0.
         23    2    4    4    0    0  0.33138496450E+03 -0.30785505237E+03 -0.86578150665E+03  0.98089057820E+03  0.89319545367E+02 0.  0.
          2    1    3    3  502    0  0.72103154737E+01  0.64124163585E+02  0.20268722172E+02  0.67636662419E+02  0.00000000000E+00 0. -1.
         -1    1    3    3    0  502  0.80133968960E+01  0.21569523332E+03 -0.78473409858E+02  0.22966655016E+03  0.00000000000E+00 0.  1.
         13    1    5    5    0    0 -0.26222449878E+03  0.40692789316E+02 -0.46575653699E+02  0.26941952858E+03  0.00000000000E+00 0.  1.
        -13    1    5    5    0    0 -0.84384178082E+02 -0.12657133851E+02 -0.64585488095E+02  0.10701484860E+03  0.00000000000E+00 0. -1.
          1    1    6    6  503    0  0.17016568674E+03 -0.13763783419E+03 -0.32905064684E+03  0.39518965388E+03  0.00000000000E+00 0. -1.
         -1    1    6    6    0  503  0.16121927776E+03 -0.17021721818E+03 -0.53673085981E+03  0.58570092432E+03  0.00000000000E+00 0.  1.
<mgrwt>
<rscale>  0 0.12908386E+04</rscale>
<asrwt>0</asrwt>
<pdfrwt beam="1">  1        2 0.20690581E+00 0.12908386E+04</pdfrwt>
<pdfrwt beam="2">  1       -1 0.47652372E-01 0.12908386E+04</pdfrwt>
<totfact> 0.76504282E+01</totfact>
</mgrwt>
</event>
<event>
12    7  0.1707730E-007  0.1843212E+04  0.7818608E-02  0.8683652E-01
         -1   -1    0    0    0  501 -0.00000000000E+00  0.00000000000E+00  0.51833007356E+03  0.51833007356E+03  0.00000000000E+00 0.  1.
          2   -1    0    0  501    0  0.00000000000E+00 -0.00000000000E+00 -0.16386416203E+04  0.16386416203E+04  0.00000000000E+00 0. -1.
         24    2    1    2    0    0  0.12190758926E+03 -0.68720603565E+03 -0.54231954989E+03  0.88736506442E+03  0.78693504178E+02 0.  0.
        254    2    1    2    0    0 -0.12190758926E+03  0.68720603565E+03 -0.57799199682E+03  0.12696066294E+04  0.88922024791E+03 0.  0.
         23    2    4    4    0    0 -0.23063130392E+03  0.71968580923E+03 -0.97481391160E+02  0.76733025129E+03  0.90302993145E+02 0.  0.
         23    2    4    4    0    0  0.10872371466E+03 -0.32479773571E+02 -0.48051060566E+03  0.50227637812E+03  0.92278578466E+02 0.  0.
          4    1    3    3  502    0  0.90554451348E+02 -0.51316618212E+03 -0.44655542449E+03  0.68625897901E+03  0.00000000000E+00 0. -1.
         -3    1    3    3    0  502  0.31353137915E+02 -0.17403985353E+03 -0.95764125403E+02  0.20110608541E+03  0.00000000000E+00 0.  1.
         13    1    5    5    0    0  0.41816074403E+01  0.72364366868E+02 -0.71694859442E+01  0.72838787481E+02  0.00000000000E+00 0. -1.
        -13    1    5    5    0    0 -0.23481291136E+03  0.64732144236E+03 -0.90311905215E+02  0.69449146381E+03  0.00000000000E+00 0.  1.
          2    1    6    6  503    0  0.28124271215E+02 -0.27075202367E+02 -0.46055301263E+02  0.60374928480E+02  0.00000000000E+00 0.  1.
         -2    1    6    6    0  503  0.80599443443E+02 -0.54045712043E+01 -0.43445530440E+03  0.44190144964E+03  0.00000000000E+00 0. -1.
<mgrwt>
<rscale>  0 0.18432116E+04</rscale>
<asrwt>0</asrwt>
<pdfrwt beam="1">  1        2 0.25209871E+00 0.18432116E+04</pdfrwt>
<pdfrwt beam="2">  1       -1 0.79743088E-01 0.18432116E+04</pdfrwt>
<totfact> 0.17860405E+01</totfact>
</mgrwt>
</event>
<event>
12    7  0.1707730E-007  0.2178324E+04  0.7818608E-02  0.8527505E-01
          2   -1    0    0  501    0  0.00000000000E+00  0.00000000000E+00  0.20935419042E+04  0.20935419042E+04  0.00000000000E+00 0. -1.
         -1   -1    0    0    0  501 -0.00000000000E+00 -0.00000000000E+00 -0.56663493834E+03  0.56663493834E+03  0.00000000000E+00 0.  1.
         24    2    1    2    0    0  0.17544434936E+03  0.59890829062E+02 -0.44178102111E+03  0.48583252920E+03  0.80592460501E+02 0.  0.
        254    2    1    2    0    0 -0.17544434936E+03 -0.59890829062E+02  0.19686879870E+04  0.21743443133E+04  0.90425282512E+03 0.  0.
         23    2    4    4    0    0 -0.49515997972E+03 -0.14973665361E+03  0.15234798441E+04  0.16113808402E+04  0.89179065921E+02 0.  0.
         23    2    4    4    0    0  0.31971563036E+03  0.89845824551E+02  0.44520814286E+03  0.56296347313E+03  0.91799918978E+02 0.  0.
          4    1    3    3  502    0  0.31634867413E+02  0.31119237913E+01 -0.22478162194E+02  0.38932206225E+02  0.00000000000E+00 0. -1.
         -3    1    3    3    0  502  0.14380948194E+03  0.56778905271E+02 -0.41930285892E+03  0.44690032298E+03  0.00000000000E+00 0.  1.
         13    1    5    5    0    0 -0.65916434592E+02 -0.18781351921E+01  0.27867759984E+03  0.28637337235E+03  0.00000000000E+00 0. -1.
        -13    1    5    5    0    0 -0.42924354512E+03 -0.14785851842E+03  0.12448022443E+04  0.13250074679E+04  0.00000000000E+00 0.  1.
          4    1    6    6  503    0  0.14937631348E+03  0.38988707869E+02  0.28271211792E+03  0.32211728297E+03  0.00000000000E+00 0. -1.
         -4    1    6    6    0  503  0.17033931688E+03  0.50857116683E+02  0.16249602494E+03  0.24084619016E+03  0.00000000000E+00 0.  1.
<mgrwt>
<rscale>  0 0.21783241E+04</rscale>
<asrwt>0</asrwt>
<pdfrwt beam="1">  1        2 0.32208337E+00 0.21783241E+04</pdfrwt>
<pdfrwt beam="2">  1       -1 0.87174607E-01 0.21783241E+04</pdfrwt>
<totfact> 0.80004402E+00</totfact>
</mgrwt>
</event>
<event>
12    7  0.1707730E-007  0.1130972E+04  0.7818608E-02  0.9175519E-01
          2   -1    0    0  501    0  0.00000000000E+00  0.00000000000E+00  0.11173636467E+04  0.11173636467E+04  0.00000000000E+00 0. -1.
         -1   -1    0    0    0  501 -0.00000000000E+00 -0.00000000000E+00 -0.28618655724E+03  0.28618655724E+03  0.00000000000E+00 0.  1.
         24    2    1    2    0    0  0.29906370977E+03 -0.67272717564E+02  0.15985338951E+03  0.35487423959E+03  0.80111789113E+02 0.  0.
        254    2    1    2    0    0 -0.29906370977E+03  0.67272717564E+02  0.67132370000E+03  0.10486759644E+04  0.74503761455E+03 0.  0.
         23    2    4    4    0    0  0.61846518572E+02  0.19186336881E+03  0.61322465905E+03  0.65149419942E+03  0.88111663569E+02 0.  0.
         23    2    4    4    0    0 -0.36091022835E+03 -0.12459065125E+03  0.58099040944E+02  0.39718176497E+03  0.92729890355E+02 0.  0.
          2    1    3    3  502    0  0.14800522010E+03 -0.13210514405E+02  0.11610680497E+03  0.18857585484E+03  0.00000000000E+00 0. -1.
         -1    1    3    3    0  502  0.15105848967E+03 -0.54062203159E+02  0.43746584545E+02  0.16629838475E+03  0.00000000000E+00 0.  1.
         13    1    5    5    0    0 -0.16461388393E+02  0.46220142738E+02  0.21049946199E+03  0.21614185713E+03  0.00000000000E+00 0. -1.
        -13    1    5    5    0    0  0.78307906965E+02  0.14564322608E+03  0.40272519706E+03  0.43535234230E+03  0.00000000000E+00 0.  1.
          1    1    6    6  503    0 -0.78406033113E+02  0.19092494004E+00  0.39482505356E+02  0.87786164684E+02  0.00000000000E+00 0. -1.
         -1    1    6    6    0  503 -0.28250419523E+03 -0.12478157619E+03  0.18616535588E+02  0.30939560029E+03  0.00000000000E+00 0.  1.
<mgrwt>
<rscale>  0 0.11309721E+04</rscale>
<asrwt>0</asrwt>
<pdfrwt beam="1">  1        2 0.17190210E+00 0.11309721E+04</pdfrwt>
<pdfrwt beam="2">  1       -1 0.44028702E-01 0.11309721E+04</pdfrwt>
<totfact> 0.12244172E+02</totfact>
</mgrwt>
</event>
<event>
12    7  0.1707730E-007  0.1564681E+04  0.7818608E-02  0.8842545E-01
         -1   -1    0    0    0  501 -0.00000000000E+00  0.00000000000E+00  0.69368349543E+03  0.69368349543E+03  0.00000000000E+00 0.  1.
          2   -1    0    0  501    0  0.00000000000E+00 -0.00000000000E+00 -0.88232798423E+03  0.88232798423E+03  0.00000000000E+00 0. -1.
         24    2    1    2    0    0 -0.42172165364E+03  0.16535467878E+03 -0.31931232071E+03  0.56016701421E+03  0.81457981219E+02 0.  0.
        254    2    1    2    0    0  0.42172165364E+03 -0.16535467878E+03  0.13066783191E+03  0.10158444655E+04  0.89981918893E+03 0.  0.
         23    2    4    4    0    0  0.22972418287E+03 -0.45230990090E+03 -0.17663121278E+03  0.54466528520E+03  0.90023557619E+02 0.  0.
         23    2    4    4    0    0  0.19199747077E+03  0.28695522212E+03  0.30729904470E+03  0.47117918026E+03  0.91492014703E+02 0.  0.
          2    1    3    3  502    0 -0.30776897147E+03  0.10185337280E+03 -0.26558801673E+03  0.41908572390E+03  0.00000000000E+00 0. -1.
         -1    1    3    3    0  502 -0.11395268217E+03  0.63501305981E+02 -0.53724303983E+02  0.14108129031E+03  0.00000000000E+00 0.  1.
         13    1    5    5    0    0  0.32287585598E+02 -0.14060375555E+03 -0.28416410395E+02  0.14703535846E+03  0.00000000000E+00 0. -1.
        -13    1    5    5    0    0  0.19743659728E+03 -0.31170614535E+03 -0.14821480239E+03  0.39762992674E+03  0.00000000000E+00 0.  1.
          3    1    6    6  503    0 -0.63822833844E+01  0.30508164624E+01 -0.14187457306E+01  0.72148362237E+01  0.00000000000E+00 0. -1.
         -3    1    6    6    0  503  0.19837975415E+03  0.28390440566E+03  0.30871779043E+03  0.46396434403E+03  0.00000000000E+00 0.  1.
<mgrwt>
<rscale>  0 0.15646806E+04</rscale>
<asrwt>0</asrwt>
<pdfrwt beam="1">  1        2 0.13574277E+00 0.15646806E+04</pdfrwt>
<pdfrwt beam="2">  1       -1 0.10672054E+00 0.15646806E+04</pdfrwt>
<totfact> 0.27122431E+01</totfact>
</mgrwt>
</event>
<event>
12    7  0.1707730E-007  0.2078750E+04  0.7818608E-02  0.8570662E-01
         -1   -1    0    0    0  501 -0.00000000000E+00  0.00000000000E+00  0.92437172151E+03  0.92437172151E+03  0.00000000000E+00 0.  1.
          2   -1    0    0  501    0  0.00000000000E+00 -0.00000000000E+00 -0.11686862045E+04  0.11686862045E+04  0.00000000000E+00 0. -1.
         24    2    1    2    0    0  0.50239458334E+03 -0.67513033966E+03 -0.92032178935E+02  0.85028394130E+03  0.79445364665E+02 0.  0.
        254    2    1    2    0    0 -0.50239458334E+03  0.67513033966E+03 -0.15228230404E+03  0.12427739847E+04  0.90171835070E+03 0.  0.
         23    2    4    4    0    0 -0.24323969207E+03  0.65467608124E+03  0.25675100793E+03  0.74958700867E+03  0.90516762806E+02 0.  0.
         23    2    4    4    0    0 -0.25915489127E+03  0.20454258421E+02 -0.40903331196E+03  0.49318697602E+03  0.91353755566E+02 0.  0.
          2    1    3    3  502    0  0.50266671655E+02 -0.11288385761E+03 -0.64096493711E+01  0.12373595756E+03  0.00000000000E+00 0. -1.
         -1    1    3    3    0  502  0.45212791169E+03 -0.56224648206E+03 -0.85622529564E+02  0.72654798374E+03  0.00000000000E+00 0.  1.
         13    1    5    5    0    0 -0.48131143534E+02  0.90451936361E+02  0.69864871544E+02  0.12401314465E+03  0.00000000000E+00 0. -1.
        -13    1    5    5    0    0 -0.19510854853E+03  0.56422414488E+03  0.18688613638E+03  0.62557386402E+03  0.00000000000E+00 0.  1.
          4    1    6    6  503    0 -0.28699016375E+02  0.33199094329E+02 -0.51961146195E+02  0.68013043741E+02  0.00000000000E+00 0. -1.
         -4    1    6    6    0  503 -0.23045587490E+03 -0.12744835908E+02 -0.35707216577E+03  0.42517393227E+03  0.00000000000E+00 0.  1.
<mgrwt>
<rscale>  0 0.20787501E+04</rscale>
<asrwt>0</asrwt>
<pdfrwt beam="1">  1        2 0.17979788E+00 0.20787501E+04</pdfrwt>
<pdfrwt beam="2">  1       -1 0.14221103E+00 0.20787501E+04</pdfrwt>
<totfact> 0.83752242E+00</totfact>
</mgrwt>
</event>
<event>
12    7  0.1707730E-007  0.1314305E+04  0.7818608E-02  0.9018298E-01
          2   -1    0    0  501    0  0.00000000000E+00  0.00000000000E+00  0.87290144182E+03  0.87290144182E+03  0.00000000000E+00 0. -1.
         -1   -1    0    0    0  501 -0.00000000000E+00 -0.00000000000E+00 -0.49472866856E+03  0.49472866856E+03  0.00000000000E+00 0.  1.
         24    2    1    2    0    0  0.21766062066E+03  0.20927320633E+03 -0.10173498264E+03  0.32899679902E+03  0.81960151285E+02 0.  0.
        254    2    1    2    0    0 -0.21766062066E+03 -0.20927320633E+03  0.47990775590E+03  0.10386333114E+04  0.87021622636E+03 0.  0.
         23    2    4    4    0    0 -0.89753090041E+02 -0.37716845393E+03  0.64207710729E+03  0.75594637091E+03  0.94235047520E+02 0.  0.
         23    2    4    4    0    0 -0.12790753062E+03  0.16789524760E+03 -0.16216935139E+03  0.28268694045E+03  0.95204291992E+02 0.  0.
          4    1    3    3  502    0  0.25326457394E+02  0.54383358413E+02  0.45159901376E+01  0.60161227409E+02  0.00000000000E+00 0. -1.
         -3    1    3    3    0  502  0.19233416327E+03  0.15488984792E+03 -0.10625097278E+03  0.26883557161E+03  0.00000000000E+00 0.  1.
         13    1    5    5    0    0  0.79658462174E+01 -0.52776786896E+02  0.46674236766E+02  0.70903655185E+02  0.00000000000E+00 0. -1.
        -13    1    5    5    0    0 -0.97718936258E+02 -0.32439166703E+03  0.59540287053E+03  0.68504271573E+03  0.00000000000E+00 0.  1.
          4    1    6    6  503    0 -0.13012717126E+03  0.16190796467E+03 -0.11969992814E+03  0.23974015625E+03  0.00000000000E+00 0. -1.
         -4    1    6    6    0  503  0.22196406403E+01  0.59872829311E+01 -0.42469423251E+02  0.42946784196E+02  0.00000000000E+00 0.  1.
<mgrwt>
<rscale>  0 0.13143049E+04</rscale>
<asrwt>0</asrwt>
<pdfrwt beam="1">  1        2 0.13429253E+00 0.13143049E+04</pdfrwt>
<pdfrwt beam="2">  1       -1 0.76112103E-01 0.13143049E+04</pdfrwt>
<totfact> 0.59301434E+01</totfact>
</mgrwt>
</event>
<event>
12    7  0.1976576E-007  0.2806896E+04  0.7818608E-02  0.8301131E-01
         -1   -1    0    0    0  501 -0.00000000000E+00  0.00000000000E+00  0.13128968531E+04  0.13128968531E+04  0.00000000000E+00 0.  1.
          2   -1    0    0  501    0  0.00000000000E+00 -0.00000000000E+00 -0.15002446492E+04  0.15002446492E+04  0.00000000000E+00 0. -1.
         24    2    1    2    0    0  0.88802272871E+03  0.55461316860E+03  0.61605201884E+03  0.12173100742E+04  0.78381076966E+02 0.  0.
        254    2    1    2    0    0 -0.88802272871E+03 -0.55461316860E+03 -0.80339981496E+03  0.15958314282E+04  0.89724386374E+03 0.  0.
         23    2    4    4    0    0 -0.66750297844E+03 -0.78303306949E+03 -0.50691646375E+03  0.11507369334E+04  0.92358944184E+02 0.  0.
         23    2    4    4    0    0 -0.22051975027E+03  0.22841990089E+03 -0.29648335121E+03  0.44509449477E+03  0.96964531391E+02 0.  0.
          4    1    3    3  502    0  0.16218700243E+03  0.12340671159E+03  0.14912766168E+03  0.25253296755E+03  0.00000000000E+00 0. -1.
         -3    1    3    3    0  502  0.72583572628E+03  0.43120645701E+03  0.46692435716E+03  0.96477710660E+03  0.00000000000E+00 0.  1.
         13    1    5    5    0    0 -0.20365254155E+01 -0.25763101797E+01 -0.11012943337E+02  0.11492159539E+02  0.00000000000E+00 0.  1.
        -13    1    5    5    0    0 -0.66546645303E+03 -0.78045675931E+03 -0.49590352041E+03  0.11392447739E+04  0.00000000000E+00 0. -1.
          3    1    6    6  503    0 -0.14110159888E+03  0.19485897812E+03 -0.18144888103E+03  0.30133599020E+03  0.00000000000E+00 0. -1.
         -3    1    6    6    0  503 -0.79418151390E+02  0.33560922767E+02 -0.11503447018E+03  0.14375850457E+03  0.00000000000E+00 0.  1.
<mgrwt>
<rscale>  0 0.28068961E+04</rscale>
<asrwt>0</asrwt>
<pdfrwt beam="1">  1        2 0.23080687E+00 0.28068961E+04</pdfrwt>
<pdfrwt beam="2">  1       -1 0.20198413E+00 0.28068961E+04</pdfrwt>
<totfact> 0.18328553E+00</totfact>
</mgrwt>
</event>
<event>
12    7  0.1707730E-007  0.1083124E+04  0.7818608E-02  0.9221798E-01
          2   -1    0    0  501    0  0.00000000000E+00  0.00000000000E+00  0.22082723452E+03  0.22082723452E+03  0.00000000000E+00 0. -1.
         -1   -1    0    0    0  501 -0.00000000000E+00 -0.00000000000E+00 -0.13281404500E+04  0.13281404500E+04  0.00000000000E+00 0.  1.
         24    2    1    2    0    0  0.10529617288E+03 -0.79918093084E+02 -0.91922294984E+02  0.18035200947E+03  0.81258558823E+02 0.  0.
        254    2    1    2    0    0 -0.10529617288E+03  0.79918093084E+02 -0.10153909205E+04  0.13686156750E+04  0.90808367397E+03 0.  0.
         23    2    4    4    0    0 -0.10169802211E+02 -0.37122327728E+03 -0.21076198587E+03  0.43670396863E+03  0.91540128160E+02 0.  0.
         23    2    4    4    0    0 -0.95126370665E+02  0.45114137036E+03 -0.80462893462E+03  0.93191170641E+03  0.91946417326E+02 0.  0.
          4    1    3    3  502    0 -0.19307609974E+01  0.42101032101E+01 -0.30517822155E+02  0.30867301083E+02  0.00000000000E+00 0. -1.
         -3    1    3    3    0  502  0.10722693387E+03 -0.84128196294E+02 -0.61404472828E+02  0.14948470839E+03  0.00000000000E+00 0.  1.
         13    1    5    5    0    0  0.57887296786E+01 -0.70107581303E+02 -0.84103475629E+02  0.10964477626E+03  0.00000000000E+00 0.  1.
        -13    1    5    5    0    0 -0.15958531890E+02 -0.30111569598E+03 -0.12665851024E+03  0.32705919238E+03  0.00000000000E+00 0. -1.
          2    1    6    6  503    0 -0.52359652154E+02  0.39665462563E+03 -0.66590372262E+03  0.77685532308E+03  0.00000000000E+00 0. -1.
         -2    1    6    6    0  503 -0.42766718511E+02  0.54486744734E+02 -0.13872521200E+03  0.15505638332E+03  0.00000000000E+00 0.  1.
<mgrwt>
<rscale>  0 0.10831243E+04</rscale>
<asrwt>0</asrwt>
<pdfrwt beam="1">  1        2 0.33973420E-01 0.10831243E+04</pdfrwt>
<pdfrwt beam="2">  1       -1 0.20432930E+00 0.10831243E+04</pdfrwt>
<totfact> 0.24822658E+01</totfact>
</mgrwt>
</event>
<event>
12    7  0.1707730E-007  0.1281728E+04  0.7818608E-02  0.9044182E-01
         -1   -1    0    0    0  501 -0.00000000000E+00  0.00000000000E+00  0.19605237774E+03  0.19605237774E+03  0.00000000000E+00 0.  1.
          2   -1    0    0  501    0  0.00000000000E+00 -0.00000000000E+00 -0.20948823280E+04  0.20948823280E+04  0.00000000000E+00 0. -1.
         24    2    1    2    0    0 -0.31386255797E+03 -0.32799543532E+02 -0.59558995778E+03  0.67844174665E+03  0.77267654575E+02 0.  0.
        254    2    1    2    0    0  0.31386255797E+03  0.32799543532E+02 -0.13032399925E+04  0.16124929591E+04  0.89560792190E+03 0.  0.
         23    2    4    4    0    0  0.15456594244E+03  0.20598426062E+03 -0.13308635451E+04  0.13586122269E+04  0.91155150014E+02 0.  0.
         23    2    4    4    0    0  0.15929661553E+03 -0.17318471709E+03  0.27623552582E+02  0.25388073218E+03  0.91235999254E+02 0.  0.
          2    1    3    3  502    0 -0.27493598341E+03 -0.15874024927E+02 -0.55567946449E+03  0.62017856049E+03  0.00000000000E+00 0. -1.
         -1    1    3    3    0  502 -0.38926574554E+02 -0.16925518604E+02 -0.39910493290E+02  0.58263186158E+02  0.00000000000E+00 0.  1.
         13    1    5    5    0    0  0.15693102573E+03  0.21351025933E+03 -0.12798970356E+04  0.13070387903E+04  0.00000000000E+00 0. -1.
        -13    1    5    5    0    0 -0.23650832904E+01 -0.75259987059E+01 -0.50966509476E+02  0.51573436609E+02  0.00000000000E+00 0.  1.
          4    1    6    6  503    0  0.15518425105E+03 -0.17528568604E+03  0.85600482042E+01  0.23426587017E+03  0.00000000000E+00 0. -1.
         -4    1    6    6    0  503  0.41123644842E+01  0.21009689499E+01  0.19063504378E+02  0.19614862001E+02  0.00000000000E+00 0.  1.
<mgrwt>
<rscale>  0 0.12817280E+04</rscale>
<asrwt>0</asrwt>
<pdfrwt beam="1">  1        2 0.32228959E+00 0.12817280E+04</pdfrwt>
<pdfrwt beam="2">  1       -1 0.30161904E-01 0.12817280E+04</pdfrwt>
<totfact> 0.66933605E+01</totfact>
</mgrwt>
</event>
<event>
12    7  0.1707730E-007  0.1397927E+04  0.7818608E-02  0.8955320E-01
         -1   -1    0    0    0  501 -0.00000000000E+00  0.00000000000E+00  0.15354039944E+04  0.15354039944E+04  0.00000000000E+00 0.  1.
          2   -1    0    0  501    0  0.00000000000E+00 -0.00000000000E+00 -0.31818985483E+03  0.31818985483E+03  0.00000000000E+00 0. -1.
         24    2    1    2    0    0 -0.20700955286E+03  0.19649549690E+03 -0.11660077750E+02  0.29673051930E+03  0.80309453952E+02 0.  0.
        254    2    1    2    0    0  0.20700955286E+03 -0.19649549690E+03  0.12288742173E+04  0.15568633299E+04  0.91226539494E+03 0.  0.
         23    2    4    4    0    0  0.30875219794E+03 -0.12009901646E+02  0.18168444476E+02  0.32462795738E+03  0.97882893634E+02 0.  0.
         23    2    4    4    0    0 -0.10174264508E+03 -0.18448559525E+03  0.12107057728E+04  0.12322353725E+04  0.90603776399E+02 0.  0.
          4    1    3    3  502    0 -0.14736200724E+03  0.13195010370E+03  0.28957888046E+02  0.19991235661E+03  0.00000000000E+00 0. -1.
         -3    1    3    3    0  502 -0.59647545617E+02  0.64545393201E+02 -0.40617965796E+02  0.96818162691E+02  0.00000000000E+00 0.  1.
         13    1    5    5    0    0  0.15043531683E+03 -0.47220711984E+02  0.35191257749E+02  0.16155186416E+03  0.00000000000E+00 0.  1.
        -13    1    5    5    0    0  0.15831688111E+03  0.35210810338E+02 -0.17022813273E+02  0.16307609322E+03  0.00000000000E+00 0. -1.
          1    1    6    6  503    0 -0.98430254310E+02 -0.15308749546E+03  0.80568271931E+03  0.82598361995E+03  0.00000000000E+00 0. -1.
         -1    1    6    6    0  503 -0.33123907720E+01 -0.31398099796E+02  0.40502305349E+03  0.40625175256E+03  0.00000000000E+00 0.  1.
<mgrwt>
<rscale>  0 0.13979270E+04</rscale>
<asrwt>0</asrwt>
<pdfrwt beam="1">  1        2 0.48952286E-01 0.13979270E+04</pdfrwt>
<pdfrwt beam="2">  1       -1 0.23621600E+00 0.13979270E+04</pdfrwt>
<totfact> 0.98455719E+00</totfact>
</mgrwt>
</event>
<event>
12    7  0.1707730E-007  0.1455543E+04  0.7818608E-02  0.8914566E-01
         -1   -1    0    0    0  501 -0.00000000000E+00  0.00000000000E+00  0.12849824276E+03  0.12849824276E+03  0.00000000000E+00 0.  1.
          2   -1    0    0  501    0  0.00000000000E+00 -0.00000000000E+00 -0.41218593548E+04  0.41218593548E+04  0.00000000000E+00 0. -1.
         24    2    1    2    0    0  0.15279643301E+02  0.25331455762E+03 -0.18344306483E+03  0.32350454155E+03  0.81253293892E+02 0.  0.
        254    2    1    2    0    0 -0.15279643301E+02 -0.25331455762E+03 -0.38099180472E+04  0.39268530560E+04  0.91667751391E+03 0.  0.
         23    2    4    4    0    0 -0.52494591548E+02 -0.18127730686E+03 -0.13247355285E+03  0.24737565438E+03  0.89600937781E+02 0.  0.
         23    2    4    4    0    0  0.37214948247E+02 -0.72037250757E+02 -0.36774444943E+04  0.36794774016E+04  0.91551199808E+02 0.  0.
          4    1    3    3  502    0  0.27088199805E+02  0.39478186004E+02 -0.58373647814E+02  0.75496890651E+02  0.00000000000E+00 0. -1.
         -1    1    3    3    0  502 -0.11808556504E+02  0.21383637161E+03 -0.12506941702E+03  0.24800765090E+03  0.00000000000E+00 0.  1.
         13    1    5    5    0    0 -0.68801929151E+02 -0.81521300755E+02 -0.81014705809E+02  0.13395077637E+03  0.00000000000E+00 0. -1.
        -13    1    5    5    0    0  0.16307337604E+02 -0.99756006105E+02 -0.51458847038E+02  0.11342487801E+03  0.00000000000E+00 0.  1.
          3    1    6    6  503    0  0.65726218321E+02 -0.32465322204E+02 -0.21003419254E+04  0.21016208356E+04  0.00000000000E+00 0. -1.
         -3    1    6    6    0  503 -0.28511270074E+02 -0.39571928553E+02 -0.15771025689E+04  0.15778565660E+04  0.00000000000E+00 0.  1.
<mgrwt>
<rscale>  0 0.14555435E+04</rscale>
<asrwt>0</asrwt>
<pdfrwt beam="1">  1        2 0.63413219E+00 0.14555435E+04</pdfrwt>
<pdfrwt beam="2">  1       -1 0.19768961E-01 0.14555435E+04</pdfrwt>
<totfact> 0.64261352E+00</totfact>
</mgrwt>
</event>
<event>
12    7  0.1707730E-007  0.2449380E+04  0.7818608E-02  0.8421244E-01
         -1   -1    0    0    0  501 -0.00000000000E+00  0.00000000000E+00  0.71981997387E+03  0.71981997387E+03  0.00000000000E+00 0.  1.
          2   -1    0    0  501    0  0.00000000000E+00 -0.00000000000E+00 -0.20836672155E+04  0.20836672155E+04  0.00000000000E+00 0. -1.
         24    2    1    2    0    0 -0.22859859629E+03 -0.64016562292E+03 -0.15040261962E+04  0.16524543352E+04  0.80257013585E+02 0.  0.
        254    2    1    2    0    0  0.22859859629E+03  0.64016562292E+03  0.14017895449E+03  0.11510328542E+04  0.91823588972E+03 0.  0.
         23    2    4    4    0    0  0.57573192578E+03  0.37624009872E+03  0.11880666699E+03  0.70388290218E+03  0.91171561386E+02 0.  0.
         23    2    4    4    0    0 -0.34713332949E+03  0.26392552420E+03  0.21372287495E+02  0.44714995203E+03  0.96581955646E+02 0.  0.
          4    1    3    3  502    0 -0.22630048442E+03 -0.57311620998E+03 -0.13835584314E+04  0.15145652949E+04  0.00000000000E+00 0. -1.
         -3    1    3    3    0  502 -0.22981118701E+01 -0.67049412939E+02 -0.12046776471E+03  0.13788904028E+03  0.00000000000E+00 0.  1.
         13    1    5    5    0    0  0.52232979847E+03  0.34653031596E+03  0.81038242012E+02  0.63204341221E+03  0.00000000000E+00 0. -1.
        -13    1    5    5    0    0  0.53402127310E+02  0.29709782758E+02  0.37768424982E+02  0.71839489964E+02  0.00000000000E+00 0.  1.
          1    1    6    6  503    0 -0.29064613514E+03  0.22336452898E+03 -0.18429570942E+02  0.36702389263E+03  0.00000000000E+00 0. -1.
         -1    1    6    6    0  503 -0.56487194354E+02  0.40560995220E+02  0.39801858437E+02  0.80126059395E+02  0.00000000000E+00 0.  1.
<mgrwt>
<rscale>  0 0.24493797E+04</rscale>
<asrwt>0</asrwt>
<pdfrwt beam="1">  1        2 0.32056418E+00 0.24493797E+04</pdfrwt>
<pdfrwt beam="2">  1       -1 0.11074154E+00 0.24493797E+04</pdfrwt>
<totfact> 0.45925472E+00</totfact>
</mgrwt>
</event>
<event>
12    7  0.1707730E-007  0.1527113E+04  0.7818608E-02  0.8866621E-01
          4   -1    0    0  501    0  0.00000000000E+00  0.00000000000E+00  0.12255199122E+04  0.12255199122E+04  0.00000000000E+00 0. -1.
         -3   -1    0    0    0  501 -0.00000000000E+00 -0.00000000000E+00 -0.47573155718E+03  0.47573155718E+03  0.00000000000E+00 0.  1.
         24    2    1    2    0    0  0.22951714886E+03  0.27185498056E+03  0.65225441286E+03  0.74721894141E+03  0.79480030386E+02 0.  0.
        254    2    1    2    0    0 -0.22951714886E+03 -0.27185498056E+03  0.97533942116E+02  0.95403252793E+03  0.87981926690E+03 0.  0.
         23    2    4    4    0    0  0.16757416494E+03  0.15832465683E+03 -0.17339501868E+03  0.30232614052E+03  0.90484612097E+02 0.  0.
         23    2    4    4    0    0 -0.39709131380E+03 -0.43017963739E+03  0.27092896080E+03  0.65170638740E+03  0.92642763684E+02 0.  0.
          4    1    3    3  502    0  0.21335771478E+03  0.26336067229E+03  0.64273937457E+03  0.72663213650E+03  0.00000000000E+00 0. -1.
         -3    1    3    3    0  502  0.16159434083E+02  0.84943082736E+01  0.95150382853E+01  0.20586804913E+02  0.00000000000E+00 0.  1.
         13    1    5    5    0    0  0.14077325811E+02 -0.71108237129E+01 -0.32912893507E+02  0.36496485788E+02  0.00000000000E+00 0.  1.
        -13    1    5    5    0    0  0.15349683912E+03  0.16543548054E+03 -0.14048212518E+03  0.26582965474E+03  0.00000000000E+00 0. -1.
          2    1    6    6  503    0 -0.27771945453E+03 -0.27205095466E+03  0.22176463689E+03  0.44757052130E+03  0.00000000000E+00 0. -1.
         -2    1    6    6    0  503 -0.11937185927E+03 -0.15812868273E+03  0.49164323910E+02  0.20413586611E+03  0.00000000000E+00 0.  1.
<mgrwt>
<rscale>  0 0.15271130E+04</rscale>
<asrwt>0</asrwt>
<pdfrwt beam="1">  1        4 0.18854152E+00 0.15271130E+04</pdfrwt>
<pdfrwt beam="2">  1       -3 0.73189471E-01 0.15271130E+04</pdfrwt>
<totfact> 0.61276497E-01</totfact>
</mgrwt>
</event>
<event>
12    7  0.1707730E-007  0.1949454E+04  0.7818608E-02  0.8630624E-01
         -1   -1    0    0    0  501 -0.00000000000E+00  0.00000000000E+00  0.87128781315E+03  0.87128781315E+03  0.00000000000E+00 0.  1.
          2   -1    0    0  501    0  0.00000000000E+00 -0.00000000000E+00 -0.10904465026E+04  0.10904465026E+04  0.00000000000E+00 0. -1.
         24    2    1    2    0    0  0.13250564797E+03 -0.72045717491E+03 -0.34104562839E+03  0.81184243452E+03  0.78483948822E+02 0.  0.
        254    2    1    2    0    0 -0.13250564797E+03  0.72045717491E+03  0.12188693889E+03  0.11498918813E+04  0.87793998949E+03 0.  0.
         23    2    4    4    0    0  0.28162320152E+03  0.16237874793E+03 -0.18459036008E+03  0.38498781233E+03  0.91997441241E+02 0.  0.
         23    2    4    4    0    0 -0.41412884949E+03  0.55807842698E+03  0.30647729897E+03  0.76490406895E+03  0.90529913704E+02 0.  0.
          2    1    3    3  502    0  0.12636293813E+03 -0.67064293748E+03 -0.29410086892E+03  0.74311833703E+03  0.00000000000E+00 0. -1.
         -3    1    3    3    0  502  0.61427098382E+01 -0.49814237427E+02 -0.46944759467E+02  0.68724097491E+02  0.00000000000E+00 0.  1.
         13    1    5    5    0    0  0.30248974062E+02  0.53244300771E+02 -0.53006748180E+02  0.80991798036E+02  0.00000000000E+00 0.  1.
        -13    1    5    5    0    0  0.25137422746E+03  0.10913444716E+03 -0.13158361190E+03  0.30399601430E+03  0.00000000000E+00 0. -1.
          4    1    6    6  503    0 -0.47723976350E+02  0.77138408253E+02  0.74269200042E+02  0.11723406511E+03  0.00000000000E+00 0.  1.
         -4    1    6    6    0  503 -0.36640487314E+03  0.48094001872E+03  0.23220809892E+03  0.64767000384E+03  0.00000000000E+00 0. -1.
<mgrwt>
<rscale>  0 0.19494540E+04</rscale>
<asrwt>0</asrwt>
<pdfrwt beam="1">  1        2 0.16776100E+00 0.19494540E+04</pdfrwt>
<pdfrwt beam="2">  1       -1 0.13404428E+00 0.19494540E+04</pdfrwt>
<totfact> 0.11023424E+01</totfact>
</mgrwt>
</event>
<event>
12    7  0.1707730E-007  0.2852046E+04  0.7818608E-02  0.8287290E-01
         -1   -1    0    0    0  501 -0.00000000000E+00  0.00000000000E+00  0.55700567557E+03  0.55700567557E+03  0.00000000000E+00 0.  1.
          2   -1    0    0  501    0  0.00000000000E+00 -0.00000000000E+00 -0.36508443244E+04  0.36508443244E+04  0.00000000000E+00 0. -1.
         24    2    1    2    0    0 -0.16884291108E+03 -0.70241520637E+03  0.13705565340E+03  0.73963120202E+03  0.79843672959E+02 0.  0.
        254    2    1    2    0    0  0.16884291108E+03  0.70241520637E+03 -0.32308943022E+04  0.34682187980E+04  0.10334256565E+04 0.  0.
         23    2    4    4    0    0  0.70307852607E+02  0.34454353178E+03 -0.29994638000E+04  0.30213416247E+04  0.89825865498E+02 0.  0.
         23    2    4    4    0    0  0.98535058476E+02  0.35787167458E+03 -0.23143050224E+03  0.44687717328E+03  0.91421208803E+02 0.  0.
          4    1    3    3  502    0 -0.63756655573E+02 -0.25846014226E+03  0.11541310720E+02  0.26645779801E+03  0.00000000000E+00 0. -1.
         -3    1    3    3    0  502 -0.10508625551E+03 -0.44395506411E+03  0.12551434268E+03  0.47317340401E+03  0.00000000000E+00 0.  1.
         13    1    5    5    0    0 -0.56752257087E+01  0.53079419905E+01 -0.17076660829E+02  0.18761523928E+02  0.00000000000E+00 0. -1.
        -13    1    5    5    0    0  0.75983078316E+02  0.33923558979E+03 -0.29823871392E+04  0.30025801008E+04  0.00000000000E+00 0.  1.
          3    1    6    6  503    0  0.10223212150E+02  0.19172345127E+02 -0.45763340262E+02  0.50659413699E+02  0.00000000000E+00 0. -1.
         -3    1    6    6    0  503  0.88311846326E+02  0.33869932945E+03 -0.18566716198E+03  0.39621775959E+03  0.00000000000E+00 0.  1.
<mgrwt>
<rscale>  0 0.28520456E+04</rscale>
<asrwt>0</asrwt>
<pdfrwt beam="1">  1        2 0.56166835E+00 0.28520456E+04</pdfrwt>
<pdfrwt beam="2">  1       -1 0.85693181E-01 0.28520456E+04</pdfrwt>
<totfact> 0.83990288E-01</totfact>
</mgrwt>
</event>
<event>
12    7  0.1707730E-007  0.5053785E+04  0.7818608E-02  0.7820264E-01
         -1   -1    0    0    0  501 -0.00000000000E+00  0.00000000000E+00  0.19588149713E+04  0.19588149713E+04  0.00000000000E+00 0.  1.
          2   -1    0    0  501    0  0.00000000000E+00 -0.00000000000E+00 -0.32597186892E+04  0.32597186892E+04  0.00000000000E+00 0. -1.
         24    2    1    2    0    0  0.18927310795E+04 -0.34305078901E+03 -0.21900715078E+04  0.29154516481E+04  0.57708925654E+02 0.  0.
        254    2    1    2    0    0 -0.18927310795E+04  0.34305078901E+03  0.88916778993E+03  0.23030820123E+04  0.90191607920E+03 0.  0.
         23    2    4    4    0    0 -0.34999356745E+03  0.41410120193E+03  0.40413103914E+03  0.68221229443E+03  0.90091149287E+02 0.  0.
         23    2    4    4    0    0 -0.15427375120E+04 -0.71050412923E+02  0.48503675078E+03  0.16208697179E+04  0.82890292979E+02 0.  0.
          4    1    3    3  502    0  0.10727002583E+04 -0.17916636861E+03 -0.12010983781E+04  0.16203159401E+04  0.00000000000E+00 0. -1.
         -3    1    3    3    0  502  0.82003082112E+03 -0.16388442040E+03 -0.98897312974E+03  0.12951357080E+04  0.00000000000E+00 0.  1.
         13    1    5    5    0    0 -0.22860071995E+03  0.26444566616E+03  0.20559118353E+03  0.40553364134E+03  0.00000000000E+00 0. -1.
        -13    1    5    5    0    0 -0.12139284750E+03  0.14965553577E+03  0.19853985561E+03  0.27667865309E+03  0.00000000000E+00 0.  1.
          1    1    6    6  503    0 -0.11045765215E+04 -0.25055278559E+02  0.31818676572E+03  0.11497651398E+04  0.00000000000E+00 0.  1.
         -1    1    6    6    0  503 -0.43816099050E+03 -0.45995134365E+02  0.16684998506E+03  0.47110457809E+03  0.00000000000E+00 0. -1.
<mgrwt>
<rscale>  0 0.50537850E+04</rscale>
<asrwt>0</asrwt>
<pdfrwt beam="1">  1        2 0.50149518E+00 0.50537850E+04</pdfrwt>
<pdfrwt beam="2">  1       -1 0.30135615E+00 0.50537850E+04</pdfrwt>
<totfact> 0.31545018E-02</totfact>
</mgrwt>
</event>
<event>
12    7  0.1801237E-007  0.2627047E+04  0.7818608E-02  0.8359072E-01
         -1   -1    0    0    0  501 -0.00000000000E+00  0.00000000000E+00  0.13286752549E+04  0.13286752549E+04  0.00000000000E+00 0.  1.
          2   -1    0    0  501    0  0.00000000000E+00 -0.00000000000E+00 -0.12985441845E+04  0.12985441845E+04  0.00000000000E+00 0. -1.
         24    2    1    2    0    0  0.16241059802E+03  0.65579988653E+03 -0.92874814823E+03  0.11515133774E+04  0.83422070860E+02 0.  0.
        254    2    1    2    0    0 -0.16241059802E+03 -0.65579988653E+03  0.95887921869E+03  0.14757060620E+04  0.89543750869E+03 0.  0.
         23    2    4    4    0    0  0.16392971850E+03  0.90181217304E+02 -0.71160695561E+01  0.20869836622E+03  0.92188746898E+02 0.  0.
         23    2    4    4    0    0 -0.32634031652E+03 -0.74598110383E+03  0.96599528825E+03  0.12670076958E+04  0.95790369534E+02 0.  0.
          4    1    3    3  502    0  0.16726653436E+03  0.57009056244E+03 -0.79245664860E+03  0.99043873249E+03  0.00000000000E+00 0. -1.
         -3    1    3    3    0  502 -0.48559363404E+01  0.85709324084E+02 -0.13629149963E+03  0.16107464488E+03  0.00000000000E+00 0.  1.
         13    1    5    5    0    0  0.99426170049E+02  0.37753232496E+02 -0.47270859533E+02  0.11638472415E+03  0.00000000000E+00 0. -1.
        -13    1    5    5    0    0  0.64503548447E+02  0.52427984807E+02  0.40154789977E+02  0.92313642065E+02  0.00000000000E+00 0.  1.
          3    1    6    6  503    0 -0.62452533047E+02 -0.18077641609E+03  0.28797023679E+03  0.34569826261E+03  0.00000000000E+00 0. -1.
         -3    1    6    6    0  503 -0.26388778347E+03 -0.56520468774E+03  0.67802505145E+03  0.92130943320E+03  0.00000000000E+00 0.  1.
<mgrwt>
<rscale>  0 0.26270467E+04</rscale>
<asrwt>0</asrwt>
<pdfrwt beam="1">  1        2 0.19977603E+00 0.26270467E+04</pdfrwt>
<pdfrwt beam="2">  1       -1 0.20441158E+00 0.26270467E+04</pdfrwt>
<totfact> 0.23377199E+00</totfact>
</mgrwt>
</event>
<event>
12    7  0.1707730E-007  0.1240240E+04  0.7818608E-02  0.9078346E-01
          2   -1    0    0  501    0  0.00000000000E+00  0.00000000000E+00  0.16382845633E+04  0.16382845633E+04  0.00000000000E+00 0. -1.
         -1   -1    0    0    0  501 -0.00000000000E+00 -0.00000000000E+00 -0.23472639086E+03  0.23472639086E+03  0.00000000000E+00 0.  1.
         24    2    1    2    0    0 -0.57999259161E+02  0.98830160412E+02  0.73361295685E+03  0.74705228961E+03  0.82266872312E+02 0.  0.
        254    2    1    2    0    0  0.57999259161E+02 -0.98830160412E+02  0.66994521559E+03  0.11259586646E+04  0.89767756335E+03 0.  0.
         23    2    4    4    0    0 -0.34992591533E+03 -0.13754814706E+03  0.57814590281E+03  0.69578899024E+03  0.92206263409E+02 0.  0.
         23    2    4    4    0    0  0.40792517449E+03  0.38717986649E+02  0.91799312774E+02  0.43016967432E+03  0.93363828144E+02 0.  0.
          4    1    3    3  502    0 -0.76397294067E+02  0.95407980803E+02  0.62506607315E+03  0.63690409415E+03  0.00000000000E+00 0. -1.
         -3    1    3    3    0  502  0.18398034906E+02  0.34221796085E+01  0.10854688370E+03  0.11014819545E+03  0.00000000000E+00 0.  1.
         13    1    5    5    0    0 -0.97998762854E+02 -0.21373940091E+02  0.22779806088E+03  0.24890271066E+03  0.00000000000E+00 0.  1.
        -13    1    5    5    0    0 -0.25192715248E+03 -0.11617420697E+03  0.35034784194E+03  0.44688627957E+03  0.00000000000E+00 0. -1.
          2    1    6    6  503    0  0.28730151914E+03  0.67815078339E+02  0.51134154246E+02  0.29959263923E+03  0.00000000000E+00 0. -1.
         -2    1    6    6    0  503  0.12062365535E+03 -0.29097091690E+02  0.40665158527E+02  0.13057703509E+03  0.00000000000E+00 0.  1.
<mgrwt>
<rscale>  0 0.12402397E+04</rscale>
<asrwt>0</asrwt>
<pdfrwt beam="1">  1        2 0.25204377E+00 0.12402397E+04</pdfrwt>
<pdfrwt beam="2">  1       -1 0.36111753E-01 0.12402397E+04</pdfrwt>
<totfact> 0.87286588E+01</totfact>
</mgrwt>
</event>
<event>
12    7  0.1707730E-007  0.1634190E+04  0.7818608E-02  0.8799815E-01
         -1   -1    0    0    0  501 -0.00000000000E+00  0.00000000000E+00  0.23445956018E+03  0.23445956018E+03  0.00000000000E+00 0.  1.
          2   -1    0    0  501    0  0.00000000000E+00 -0.00000000000E+00 -0.28475874074E+04  0.28475874074E+04  0.00000000000E+00 0. -1.
         24    2    1    2    0    0  0.41465810326E+03 -0.40586976210E+02 -0.10740096640E+04  0.11547808729E+04  0.80208856697E+02 0.  0.
        254    2    1    2    0    0 -0.41465810326E+03  0.40586976210E+02 -0.15391181832E+04  0.19272660947E+04  0.10825346058E+04 0.  0.
         23    2    4    4    0    0  0.27054854550E+03 -0.16555289843E+03 -0.91693517732E+03  0.97454829163E+03  0.91487571070E+02 0.  0.
         23    2    4    4    0    0 -0.68520664876E+03  0.20613987464E+03 -0.62218300588E+03  0.95271780309E+03  0.92507946167E+02 0.  0.
          4    1    3    3  502    0  0.29388852583E+03 -0.43756636737E+02 -0.84734680389E+03  0.89793190996E+03  0.00000000000E+00 0. -1.
         -1    1    3    3    0  502  0.12076957743E+03  0.31696605271E+01 -0.22666286013E+03  0.25684896290E+03  0.00000000000E+00 0.  1.
         13    1    5    5    0    0  0.22897091400E+03 -0.17176021644E+03 -0.76113654448E+03  0.81317777316E+03  0.00000000000E+00 0.  1.
        -13    1    5    5    0    0  0.41577631502E+02  0.62073180100E+01 -0.15579863284E+03  0.16137051848E+03  0.00000000000E+00 0. -1.
          2    1    6    6  503    0 -0.58120342242E+03  0.20338329432E+03 -0.50819592993E+03  0.79838918194E+03  0.00000000000E+00 0.  1.
         -2    1    6    6    0  503 -0.10400322634E+03  0.27565803281E+01 -0.11398707595E+03  0.15432862115E+03  0.00000000000E+00 0. -1.
<mgrwt>
<rscale>  0 0.16341898E+04</rscale>
<asrwt>0</asrwt>
<pdfrwt beam="1">  1        2 0.43809040E+00 0.16341898E+04</pdfrwt>
<pdfrwt beam="2">  1       -1 0.36070699E-01 0.16341898E+04</pdfrwt>
<totfact> 0.17391696E+01</totfact>
</mgrwt>
</event>
<event>
12    7  0.1707730E-007  0.1727118E+04  0.7818608E-02  0.8746047E-01
          2   -1    0    0  501    0  0.00000000000E+00  0.00000000000E+00  0.17350903338E+04  0.17350903338E+04  0.00000000000E+00 0. -1.
         -1   -1    0    0    0  501 -0.00000000000E+00 -0.00000000000E+00 -0.42979561622E+03  0.42979561622E+03  0.00000000000E+00 0.  1.
         24    2    1    2    0    0 -0.16617637391E+03 -0.37483639199E+03 -0.10561620601E+03  0.43126197249E+03  0.81946311273E+02 0.  0.
        254    2    1    2    0    0  0.16617637391E+03  0.37483639199E+03  0.14109109236E+04  0.17336239776E+04  0.92014431106E+03 0.  0.
         23    2    4    4    0    0  0.30812891636E+03 -0.92133650125E+02  0.10958848334E+04  0.11456879421E+04  0.90582856827E+02 0.  0.
         23    2    4    4    0    0 -0.14195254245E+03  0.46697004212E+03  0.31502609019E+03  0.58793603545E+03  0.90641048873E+02 0.  0.
          2    1    3    3  502    0 -0.11298710517E+02 -0.62195342248E-01  0.25191874251E+01  0.11576313441E+02  0.00000000000E+00 0. -1.
         -1    1    3    3    0  502 -0.15487766339E+03 -0.37477419665E+03 -0.10813539344E+03  0.41968565904E+03  0.00000000000E+00 0.  1.
         13    1    5    5    0    0  0.39082386419E+02 -0.54664229412E+01  0.59113668745E+02  0.71075597363E+02  0.00000000000E+00 0.  1.
        -13    1    5    5    0    0  0.26904652994E+03 -0.86667227184E+02  0.10367711647E+04  0.10746123448E+04  0.00000000000E+00 0. -1.
          3    1    6    6  503    0 -0.54557285570E+02  0.24024169696E+03  0.20799168579E+03  0.32241760455E+03  0.00000000000E+00 0. -1.
         -3    1    6    6    0  503 -0.87395256884E+02  0.22672834516E+03  0.10703440440E+03  0.26551843090E+03  0.00000000000E+00 0.  1.
<mgrwt>
<rscale>  0 0.17271181E+04</rscale>
<asrwt>0</asrwt>
<pdfrwt beam="1">  1        2 0.26693697E+00 0.17271181E+04</pdfrwt>
<pdfrwt beam="2">  1       -1 0.66122403E-01 0.17271181E+04</pdfrwt>
<totfact> 0.23505543E+01</totfact>
</mgrwt>
</event>
<event>
12    7  0.1707730E-007  0.1831864E+04  0.7818608E-02  0.8689535E-01
         -1   -1    0    0    0  501 -0.00000000000E+00  0.00000000000E+00  0.91015024256E+03  0.91015024256E+03  0.00000000000E+00 0.  1.
          2   -1    0    0  501    0  0.00000000000E+00 -0.00000000000E+00 -0.92175097233E+03  0.92175097233E+03  0.00000000000E+00 0. -1.
         24    2    1    2    0    0  0.68033267757E+03 -0.15673142074E+03  0.22160285392E+02  0.70498757590E+03  0.95389273568E+02 0.  0.
        254    2    1    2    0    0 -0.68033267757E+03  0.15673142074E+03 -0.33761015166E+02  0.11269136390E+04  0.88395545882E+03 0.  0.
         23    2    4    4    0    0 -0.85785907271E+03  0.99048728607E+02  0.10523255024E+03  0.87477454823E+03  0.91781160014E+02 0.  0.
         23    2    4    4    0    0  0.17752639514E+03  0.57682692135E+02 -0.13899356540E+03  0.25213909076E+03  0.97015441684E+02 0.  0.
          2    1    3    3  502    0  0.16390372550E+03 -0.62085991072E+02 -0.28297962847E+02  0.17753837957E+03  0.00000000000E+00 0. -1.
         -1    1    3    3    0  502  0.51642895207E+03 -0.94645429670E+02  0.50458248239E+02  0.52744919633E+03  0.00000000000E+00 0.  1.
         13    1    5    5    0    0 -0.57813543668E+02 -0.16252745211E+02  0.47643801224E+01  0.60243313955E+02  0.00000000000E+00 0.  1.
        -13    1    5    5    0    0 -0.80004552904E+03  0.11530147382E+03  0.10046817011E+03  0.81453123427E+03  0.00000000000E+00 0. -1.
          4    1    6    6  503    0  0.93657240051E+02 -0.97394473900E+01 -0.29637423601E+02  0.98716322496E+02  0.00000000000E+00 0. -1.
         -4    1    6    6    0  503  0.83869155086E+02  0.67422139525E+02 -0.10935614180E+03  0.15342276827E+03  0.00000000000E+00 0.  1.
<mgrwt>
<rscale>  0 0.18318645E+04</rscale>
<asrwt>0</asrwt>
<pdfrwt beam="1">  1        2 0.14180784E+00 0.18318645E+04</pdfrwt>
<pdfrwt beam="2">  1       -1 0.14002311E+00 0.18318645E+04</pdfrwt>
<totfact> 0.12763876E+01</totfact>
</mgrwt>
</event>
<event>
12    7  0.1707730E-007  0.1887781E+04  0.7818608E-02  0.8660962E-01
          2   -1    0    0  501    0  0.00000000000E+00  0.00000000000E+00  0.29178632641E+04  0.29178632641E+04  0.00000000000E+00 0. -1.
         -1   -1    0    0    0  501 -0.00000000000E+00 -0.00000000000E+00 -0.30533631032E+03  0.30533631032E+03  0.00000000000E+00 0.  1.
         24    2    1    2    0    0  0.13841601339E+03  0.67090031370E+03  0.15928860313E+04  0.17358995968E+04  0.82433473984E+02 0.  0.
        254    2    1    2    0    0 -0.13841601339E+03 -0.67090031370E+03  0.10196409225E+04  0.14872999777E+04  0.83852691613E+03 0.  0.
         23    2    4    4    0    0 -0.33978260294E+03 -0.63512656445E+02  0.11640663165E+03  0.37660851211E+03  0.93794417264E+02 0.  0.
         23    2    4    4    0    0  0.20136658955E+03 -0.60738765726E+03  0.90323429081E+03  0.11106914655E+04  0.91296648062E+02 0.  0.
          2    1    3    3  502    0  0.84445899313E+02  0.52072919869E+03  0.11525732136E+04  0.12675626300E+04  0.00000000000E+00 0. -1.
         -1    1    3    3    0  502  0.53970114081E+02  0.15017111501E+03  0.44031281772E+03  0.46833696677E+03  0.00000000000E+00 0.  1.
         13    1    5    5    0    0 -0.21000562180E+02 -0.15621133330E+02  0.35758661426E+02  0.44313940079E+02  0.00000000000E+00 0. -1.
        -13    1    5    5    0    0 -0.31878204077E+03 -0.47891523115E+02  0.80647970225E+02  0.33229457203E+03  0.00000000000E+00 0.  1.
          1    1    6    6  503    0  0.42116760396E+02 -0.19251682752E+03  0.21693863320E+03  0.29308517697E+03  0.00000000000E+00 0. -1.
         -1    1    6    6    0  503  0.15924982915E+03 -0.41487082974E+03  0.68629565761E+03  0.81760628857E+03  0.00000000000E+00 0.  1.
<mgrwt>
<rscale>  0 0.18877813E+04</rscale>
<asrwt>0</asrwt>
<pdfrwt beam="1">  1        2 0.44890202E+00 0.18877813E+04</pdfrwt>
<pdfrwt beam="2">  1       -1 0.46974819E-01 0.18877813E+04</pdfrwt>
<totfact> 0.94696679E+00</totfact>
</mgrwt>
</event>
<event>
12    7  0.1707730E-007  0.2700111E+04  0.7818608E-02  0.8334969E-01
         -1   -1    0    0    0  501 -0.00000000000E+00  0.00000000000E+00  0.81989187176E+03  0.81989187176E+03  0.00000000000E+00 0.  1.
          2   -1    0    0  501    0  0.00000000000E+00 -0.00000000000E+00 -0.22230373947E+04  0.22230373947E+04  0.00000000000E+00 0. -1.
         24    2    1    2    0    0 -0.26042279509E+03  0.11481231258E+04 -0.94720172699E+03  0.15131701233E+04  0.80535495758E+02 0.  0.
        254    2    1    2    0    0  0.26042279509E+03 -0.11481231258E+04 -0.45594379600E+03  0.15297591432E+04  0.86387009838E+03 0.  0.
         23    2    4    4    0    0 -0.30965225572E+03 -0.36217383815E+03 -0.14553136266E+03  0.50654756842E+03  0.91414731022E+02 0.  0.
         23    2    4    4    0    0  0.57007505082E+03 -0.78594928770E+03 -0.31041243334E+03  0.10232115748E+04  0.88905577070E+02 0.  0.
          2    1    3    3  502    0 -0.12559532152E+03  0.55461719848E+03 -0.50920281923E+03  0.76332295442E+03  0.00000000000E+00 0. -1.
         -3    1    3    3    0  502 -0.13482747358E+03  0.59350592736E+03 -0.43799890776E+03  0.74984716886E+03  0.00000000000E+00 0.  1.
         13    1    5    5    0    0 -0.12147366853E+02 -0.21562902461E+02  0.12191353701E+02  0.27588881620E+02  0.00000000000E+00 0.  1.
        -13    1    5    5    0    0 -0.29750488887E+03 -0.34061093568E+03 -0.15772271636E+03  0.47895868680E+03  0.00000000000E+00 0. -1.
          3    1    6    6  503    0  0.38436492623E+03 -0.57986209085E+03 -0.25041469129E+03  0.73938079400E+03  0.00000000000E+00 0. -1.
         -3    1    6    6    0  503  0.18571012459E+03 -0.20608719685E+03 -0.59997742052E+02  0.28383078080E+03  0.00000000000E+00 0.  1.
<mgrwt>
<rscale>  0 0.27001113E+04</rscale>
<asrwt>0</asrwt>
<pdfrwt beam="1">  1        2 0.34200575E+00 0.27001113E+04</pdfrwt>
<pdfrwt beam="2">  1       -1 0.12613721E+00 0.27001113E+04</pdfrwt>
<totfact> 0.27354992E+00</totfact>
</mgrwt>
</event>
<event>
12    7  0.1707730E-007  0.2739853E+04  0.7818608E-02  0.8322189E-01
         -1   -1    0    0    0  501 -0.00000000000E+00  0.00000000000E+00  0.84822860795E+03  0.84822860795E+03  0.00000000000E+00 0.  1.
          2   -1    0    0  501    0  0.00000000000E+00 -0.00000000000E+00 -0.22124913419E+04  0.22124913419E+04  0.00000000000E+00 0. -1.
         24    2    1    2    0    0  0.10249988521E+04 -0.12042548522E+03 -0.13197897482E+04  0.16773011595E+04  0.79807617400E+02 0.  0.
        254    2    1    2    0    0 -0.10249988521E+04  0.12042548522E+03 -0.44472985673E+02  0.13834187903E+04  0.92018734972E+03 0.  0.
         23    2    4    4    0    0 -0.52169573033E+03 -0.37371238501E+03  0.10662375406E+03  0.65691832822E+03  0.91354711224E+02 0.  0.
         23    2    4    4    0    0 -0.50330312179E+03  0.49413787024E+03 -0.15109673974E+03  0.72650046209E+03  0.86524155331E+02 0.  0.
          2    1    3    3  502    0  0.82022347442E+03 -0.70339877864E+02 -0.10808457141E+04  0.13586543726E+04  0.00000000000E+00 0. -1.
         -1    1    3    3    0  502  0.20477537769E+03 -0.50085607359E+02 -0.23894403410E+03  0.31864678690E+03  0.00000000000E+00 0.  1.
         13    1    5    5    0    0 -0.18586227222E+03 -0.13246324813E+03  0.82583112450E+02  0.24271643290E+03  0.00000000000E+00 0.  1.
        -13    1    5    5    0    0 -0.33583345810E+03 -0.24124913689E+03  0.24040641612E+02  0.41420189531E+03  0.00000000000E+00 0. -1.
          3    1    6    6  503    0 -0.41627485802E+03  0.36427471642E+03 -0.10067333042E+03  0.56224189269E+03  0.00000000000E+00 0. -1.
         -3    1    6    6    0  503 -0.87028263773E+02  0.12986315382E+03 -0.50423409311E+02  0.16425856940E+03  0.00000000000E+00 0.  1.
<mgrwt>
<rscale>  0 0.27398529E+04</rscale>
<asrwt>0</asrwt>
<pdfrwt beam="1">  1        2 0.34038327E+00 0.27398529E+04</pdfrwt>
<pdfrwt beam="2">  1       -1 0.13049671E+00 0.27398529E+04</pdfrwt>
<totfact> 0.25376183E+00</totfact>
</mgrwt>
</event>
<event>
12    7  0.1707730E-007  0.1446852E+04  0.7818608E-02  0.8920586E-01
          2   -1    0    0  501    0  0.00000000000E+00  0.00000000000E+00  0.91558762294E+03  0.91558762294E+03  0.00000000000E+00 0. -1.
         -1   -1    0    0    0  501 -0.00000000000E+00 -0.00000000000E+00 -0.57159459349E+03  0.57159459349E+03  0.00000000000E+00 0.  1.
         24    2    1    2    0    0 -0.55164186155E+02  0.18150863309E+03 -0.33086755231E+03  0.38962576818E+03  0.79664488567E+02 0.  0.
        254    2    1    2    0    0  0.55164186155E+02 -0.18150863309E+03  0.67486058175E+03  0.10975564483E+04  0.84451458304E+03 0.  0.
         23    2    4    4    0    0  0.37332540644E+03 -0.90750522207E+01  0.78533580032E+02  0.39420301597E+03  0.98864953048E+02 0.  0.
         23    2    4    4    0    0 -0.31816122028E+03 -0.17243358087E+03  0.59632700172E+03  0.70335343228E+03  0.90223366227E+02 0.  0.
          2    1    3    3  502    0 -0.35759258203E+02  0.38492533298E+02 -0.44129441484E+02  0.68613462765E+02  0.00000000000E+00 0. -1.
         -1    1    3    3    0  502 -0.19404927952E+02  0.14301609980E+03 -0.28673811082E+03  0.32101230542E+03  0.00000000000E+00 0.  1.
         13    1    5    5    0    0  0.17217388035E+03 -0.35725037112E+02  0.75253194355E+02  0.19126726487E+03  0.00000000000E+00 0. -1.
        -13    1    5    5    0    0  0.20115152609E+03  0.26649984891E+02  0.32803856765E+01  0.20293575110E+03  0.00000000000E+00 0.  1.
          3    1    6    6  503    0 -0.59732820967E+02 -0.56908026646E+01  0.14775208932E+03  0.15947123576E+03  0.00000000000E+00 0. -1.
         -3    1    6    6    0  503 -0.25842839932E+03 -0.16674277821E+03  0.44857491240E+03  0.54388219652E+03  0.00000000000E+00 0.  1.
<mgrwt>
<rscale>  0 0.14468517E+04</rscale>
<asrwt>0</asrwt>
<pdfrwt beam="1">  1        2 0.14085963E+00 0.14468517E+04</pdfrwt>
<pdfrwt beam="2">  1       -1 0.87937630E-01 0.14468517E+04</pdfrwt>
<totfact> 0.40287820E+01</totfact>
</mgrwt>
</event>
<event>
12    7  0.1707730E-007  0.2027124E+04  0.7818608E-02  0.8594043E-01
         -1   -1    0    0    0  501 -0.00000000000E+00  0.00000000000E+00  0.27700621979E+03  0.27700621979E+03  0.00000000000E+00 0.  1.
          2   -1    0    0  501    0  0.00000000000E+00 -0.00000000000E+00 -0.37086089019E+04  0.37086089019E+04  0.00000000000E+00 0. -1.
         24    2    1    2    0    0  0.63139757745E+03 -0.31731786409E+03 -0.21260031009E+04  0.22416005651E+04  0.74366531555E+02 0.  0.
        254    2    1    2    0    0 -0.63139757745E+03  0.31731786409E+03 -0.13055995813E+04  0.17440145566E+04  0.91522837551E+03 0.  0.
         23    2    4    4    0    0  0.36968039426E+02 -0.63590831338E+02 -0.82450195145E+03  0.83289276114E+03  0.92176210899E+02 0.  0.
         23    2    4    4    0    0 -0.66836561688E+03  0.38090869543E+03 -0.48109762985E+03  0.91112179547E+03  0.82969661118E+02 0.  0.
          4    1    3    3  502    0  0.58429029447E+03 -0.31402313966E+03 -0.19842581796E+04  0.20921965022E+04  0.00000000000E+00 0. -1.
         -3    1    3    3    0  502  0.47107282981E+02 -0.32947244270E+01 -0.14174492121E+03  0.14940406289E+03  0.00000000000E+00 0.  1.
         13    1    5    5    0    0  0.29422827150E+02 -0.60256095618E+01 -0.70135249550E+02  0.76295242037E+02  0.00000000000E+00 0. -1.
        -13    1    5    5    0    0  0.75452122760E+01 -0.57565221777E+02 -0.75436670190E+03  0.75659751911E+03  0.00000000000E+00 0.  1.
          2    1    6    6  503    0 -0.60800901022E+03  0.36341492558E+03 -0.42010880830E+03  0.82355131926E+03  0.00000000000E+00 0.  1.
         -2    1    6    6    0  503 -0.60356606655E+02  0.17493769851E+02 -0.60988821549E+02  0.87570476214E+02  0.00000000000E+00 0. -1.
<mgrwt>
<rscale>  0 0.20271238E+04</rscale>
<asrwt>0</asrwt>
<pdfrwt beam="1">  1        2 0.57055519E+00 0.20271238E+04</pdfrwt>
<pdfrwt beam="2">  1       -1 0.42616343E-01 0.20271238E+04</pdfrwt>
<totfact> 0.33125101E+00</totfact>
</mgrwt>
</event>
<event>
12    7  0.1707730E-007  0.3266095E+04  0.7818608E-02  0.8171576E-01
         -1   -1    0    0    0  501 -0.00000000000E+00  0.00000000000E+00  0.17573716834E+04  0.17573716834E+04  0.00000000000E+00 0.  1.
          2   -1    0    0  501    0  0.00000000000E+00 -0.00000000000E+00 -0.15175188357E+04  0.15175188357E+04  0.00000000000E+00 0. -1.
         24    2    1    2    0    0  0.28624707742E+03  0.11959432510E+04  0.99175613934E+03  0.15819177266E+04  0.81644380566E+02 0.  0.
        254    2    1    2    0    0 -0.28624707742E+03 -0.11959432510E+04 -0.75190329171E+03  0.16929727925E+04  0.88802064565E+03 0.  0.
         23    2    4    4    0    0 -0.18131379247E+02 -0.10284081868E+04 -0.86273943026E+03  0.13455680884E+04  0.91005551150E+02 0.  0.
         23    2    4    4    0    0 -0.26811569817E+03 -0.16753506419E+03  0.11083613856E+03  0.34740470411E+03  0.91931243257E+02 0.  0.
          4    1    3    3  502    0  0.14905024081E+03  0.61022991447E+03  0.45430539486E+03  0.77523539302E+03  0.00000000000E+00 0. -1.
         -3    1    3    3    0  502  0.13719683661E+03  0.58571333653E+03  0.53745074448E+03  0.80668233358E+03  0.00000000000E+00 0.  1.
         13    1    5    5    0    0  0.17263141573E+02 -0.83414988598E+03 -0.71807812553E+03  0.11007907352E+04  0.00000000000E+00 0.  1.
        -13    1    5    5    0    0 -0.35394520820E+02 -0.19425830083E+03 -0.14466130473E+03  0.24477735319E+03  0.00000000000E+00 0. -1.
          3    1    6    6  503    0 -0.44372739477E+01 -0.22762718259E+01  0.23742554246E+02  0.24260661484E+02  0.00000000000E+00 0. -1.
         -3    1    6    6    0  503 -0.26367842423E+03 -0.16525879236E+03  0.87093584310E+02  0.32314404263E+03  0.00000000000E+00 0.  1.
<mgrwt>
<rscale>  0 0.32660953E+04</rscale>
<asrwt>0</asrwt>
<pdfrwt beam="1">  1        2 0.23346444E+00 0.32660953E+04</pdfrwt>
<pdfrwt beam="2">  1       -1 0.27036487E+00 0.32660953E+04</pdfrwt>
<totfact> 0.60794521E-01</totfact>
</mgrwt>
</event>
<event>
12    7  0.1707730E-007  0.2175286E+04  0.7818608E-02  0.8528785E-01
         -1   -1    0    0    0  501 -0.00000000000E+00  0.00000000000E+00  0.97569542291E+03  0.97569542291E+03  0.00000000000E+00 0.  1.
          2   -1    0    0  501    0  0.00000000000E+00 -0.00000000000E+00 -0.12124354743E+04  0.12124354743E+04  0.00000000000E+00 0. -1.
         24    2    1    2    0    0  0.86131619164E+03 -0.15966449935E+03 -0.31748773454E+03  0.93514558718E+03  0.79627088994E+02 0.  0.
        254    2    1    2    0    0 -0.86131619164E+03  0.15966449935E+03  0.80747683164E+02  0.12529853100E+04  0.89224081080E+03 0.  0.
         23    2    4    4    0    0 -0.10293626601E+04  0.19928756285E+03  0.47050425624E+02  0.10537783295E+04  0.94509293177E+02 0.  0.
         23    2    4    4    0    0  0.16804646844E+03 -0.39623063500E+02  0.33697257541E+02  0.19920698053E+03  0.93478945279E+02 0.  0.
          4    1    3    3  502    0  0.67381934351E+03 -0.96187384587E+02 -0.22711700609E+03  0.71754209291E+03  0.00000000000E+00 0. -1.
         -1    1    3    3    0  502  0.18749684813E+03 -0.63477114764E+02 -0.90370728449E+02  0.21760349427E+03  0.00000000000E+00 0.  1.
         13    1    5    5    0    0 -0.17615095696E+03  0.42133169954E+02 -0.26733993559E+02  0.18308214020E+03  0.00000000000E+00 0.  1.
        -13    1    5    5    0    0 -0.85321170311E+03  0.15715439290E+03  0.73784419183E+02  0.87069618929E+03  0.00000000000E+00 0. -1.
          1    1    6    6  503    0  0.27738972457E+01  0.43759679780E+01  0.27586473820E+02  0.28068792982E+02  0.00000000000E+00 0. -1.
         -1    1    6    6    0  503  0.16527257119E+03 -0.43999031478E+02  0.61107837208E+01  0.17113818755E+03  0.00000000000E+00 0.  1.
<mgrwt>
<rscale>  0 0.21752864E+04</rscale>
<asrwt>0</asrwt>
<pdfrwt beam="1">  1        2 0.18652853E+00 0.21752864E+04</pdfrwt>
<pdfrwt beam="2">  1       -1 0.15010699E+00 0.21752864E+04</pdfrwt>
<totfact> 0.67702355E+00</totfact>
</mgrwt>
</event>
<event>
12    7  0.1707730E-007  0.1278048E+04  0.7818608E-02  0.9047157E-01
          2   -1    0    0  501    0  0.00000000000E+00  0.00000000000E+00  0.17174261589E+04  0.17174261589E+04  0.00000000000E+00 0. -1.
         -1   -1    0    0    0  501 -0.00000000000E+00 -0.00000000000E+00 -0.23776960928E+03  0.23776960928E+03  0.00000000000E+00 0.  1.
         24    2    1    2    0    0  0.24141159788E+03  0.92533079109E+01  0.66296374693E+03  0.71101489781E+03  0.87498982069E+02 0.  0.
        254    2    1    2    0    0 -0.24141159788E+03 -0.92533079109E+01  0.81669280269E+03  0.12441808704E+04  0.90699157712E+03 0.  0.
         23    2    4    4    0    0 -0.15210141944E+03  0.42858020301E+03  0.53481627684E+03  0.70818299214E+03  0.93160443135E+02 0.  0.
         23    2    4    4    0    0 -0.89310178436E+02 -0.43783351092E+03  0.28187652585E+03  0.53599787825E+03  0.90359606030E+02 0.  0.
          4    1    3    3  502    0  0.22775210112E+03  0.21355721580E+02  0.53636622777E+03  0.58310875204E+03  0.00000000000E+00 0. -1.
         -3    1    3    3    0  502  0.13659496753E+02 -0.12102413669E+02  0.12659751916E+03  0.12790614577E+03  0.00000000000E+00 0.  1.
         13    1    5    5    0    0 -0.11404686910E+03  0.39591304886E+03  0.45411624012E+03  0.61316832122E+03  0.00000000000E+00 0. -1.
        -13    1    5    5    0    0 -0.38054550343E+02  0.32667154156E+02  0.80700036722E+02  0.95014670916E+02  0.00000000000E+00 0.  1.
          2    1    6    6  503    0 -0.76502960374E+02 -0.34518278842E+03  0.26282375422E+03  0.44054532814E+03  0.00000000000E+00 0. -1.
         -2    1    6    6    0  503 -0.12807218062E+02 -0.92650722504E+02  0.19052771634E+02  0.95452550107E+02  0.00000000000E+00 0.  1.
<mgrwt>
<rscale>  0 0.12780481E+04</rscale>
<asrwt>0</asrwt>
<pdfrwt beam="1">  1        2 0.26421940E+00 0.12780481E+04</pdfrwt>
<pdfrwt beam="2">  1       -1 0.36579941E-01 0.12780481E+04</pdfrwt>
<totfact> 0.76858841E+01</totfact>
</mgrwt>
</event>
<event>
12    7  0.1707730E-007  0.1036947E+04  0.7818608E-02  0.9268925E-01
         -1   -1    0    0    0  501 -0.00000000000E+00  0.00000000000E+00  0.16643158977E+03  0.16643158977E+03  0.00000000000E+00 0.  1.
          2   -1    0    0  501    0  0.00000000000E+00 -0.00000000000E+00 -0.16151669489E+04  0.16151669489E+04  0.00000000000E+00 0. -1.
         24    2    1    2    0    0  0.55448199944E+02 -0.18652066723E+02 -0.42714758804E+02  0.10962430314E+03  0.82283259225E+02 0.  0.
        254    2    1    2    0    0 -0.55448199944E+02  0.18652066723E+02 -0.14060206003E+04  0.16719742355E+04  0.90287402959E+03 0.  0.
         23    2    4    4    0    0  0.59409946489E+02 -0.42460113319E+03 -0.69533334060E+03  0.82227525202E+03  0.93981229495E+02 0.  0.
         23    2    4    4    0    0 -0.11485814643E+03  0.44325319992E+03 -0.71068725972E+03  0.84969898351E+03  0.85124546451E+02 0.  0.
          2    1    3    3  502    0  0.12973743367E+02  0.94783517779E+01 -0.54933022325E+02  0.57234553472E+02  0.00000000000E+00 0. -1.
         -1    1    3    3    0  502  0.42474456577E+02 -0.28130418501E+02  0.12218263521E+02  0.52389749665E+02  0.00000000000E+00 0.  1.
         13    1    5    5    0    0  0.80724586163E+02 -0.24334556624E+03 -0.40168912099E+03  0.47653716889E+03  0.00000000000E+00 0.  1.
        -13    1    5    5    0    0 -0.21314639674E+02 -0.18125556696E+03 -0.29364421961E+03  0.34573808313E+03  0.00000000000E+00 0. -1.
          3    1    6    6  503    0 -0.13992435564E+02  0.22058837505E+03 -0.32328472546E+03  0.39162230934E+03  0.00000000000E+00 0. -1.
         -3    1    6    6    0  503 -0.10086571087E+03  0.22266482486E+03 -0.38740253427E+03  0.45807667417E+03  0.00000000000E+00 0.  1.
<mgrwt>
<rscale>  0 0.10369471E+04</rscale>
<asrwt>0</asrwt>
<pdfrwt beam="1">  1        2 0.24848723E+00 0.10369471E+04</pdfrwt>
<pdfrwt beam="2">  1       -1 0.25604859E-01 0.10369471E+04</pdfrwt>
<totfact> 0.16684091E+02</totfact>
</mgrwt>
</event>
<event>
12    7  0.1707730E-007  0.1565216E+04  0.7818608E-02  0.8842207E-01
          2   -1    0    0  501    0  0.00000000000E+00  0.00000000000E+00  0.10039689804E+04  0.10039689804E+04  0.00000000000E+00 0. -1.
         -1   -1    0    0    0  501 -0.00000000000E+00 -0.00000000000E+00 -0.61005423864E+03  0.61005423864E+03  0.00000000000E+00 0.  1.
         24    2    1    2    0    0 -0.26226644278E+03  0.31957463808E+03 -0.12485424464E+03  0.43919448219E+03  0.79947323121E+02 0.  0.
        254    2    1    2    0    0  0.26226644278E+03 -0.31957463808E+03  0.51876898644E+03  0.11748287369E+04  0.96963377799E+03 0.  0.
         23    2    4    4    0    0  0.39036329622E+03 -0.23996167478E+03  0.75041858196E+03  0.88390641641E+03  0.90539474352E+02 0.  0.
         23    2    4    4    0    0 -0.12809685344E+03 -0.79612963303E+02 -0.23164959553E+03  0.29092232048E+03  0.90704099476E+02 0.  0.
          4    1    3    3  502    0 -0.70294548720E+02  0.11815691100E+03 -0.74676906433E+02  0.15645772449E+03  0.00000000000E+00 0. -1.
         -3    1    3    3    0  502 -0.19197189406E+03  0.20141772708E+03 -0.50177338206E+02  0.28273675771E+03  0.00000000000E+00 0.  1.
         13    1    5    5    0    0  0.33873461676E+03 -0.18635606904E+03  0.57005244934E+03  0.68878844361E+03  0.00000000000E+00 0. -1.
        -13    1    5    5    0    0  0.51628679456E+02 -0.53605605736E+02  0.18036613263E+03  0.19511797279E+03  0.00000000000E+00 0.  1.
          4    1    6    6  503    0 -0.11841405597E+03 -0.64044308961E+02 -0.23634430722E+03  0.27199667960E+03  0.00000000000E+00 0. -1.
         -4    1    6    6    0  503 -0.96827974708E+01 -0.15568654342E+02  0.46947116919E+01  0.18925640880E+02  0.00000000000E+00 0.  1.
<mgrwt>
<rscale>  0 0.15652163E+04</rscale>
<asrwt>0</asrwt>
<pdfrwt beam="1">  1        2 0.15445677E+00 0.15652163E+04</pdfrwt>
<pdfrwt beam="2">  1       -1 0.93854498E-01 0.15652163E+04</pdfrwt>
<totfact> 0.30231317E+01</totfact>
</mgrwt>
</event>
<event>
12    7  0.1707730E-007  0.1926110E+04  0.7818608E-02  0.8641968E-01
          2   -1    0    0  501    0  0.00000000000E+00  0.00000000000E+00  0.22274193189E+04  0.22274193189E+04  0.00000000000E+00 0. -1.
         -1   -1    0    0    0  501 -0.00000000000E+00 -0.00000000000E+00 -0.41639007682E+03  0.41639007682E+03  0.00000000000E+00 0.  1.
         24    2    1    2    0    0  0.73563918009E+02  0.22231311739E+03  0.16827868727E+04  0.17018195819E+04  0.97895138874E+02 0.  0.
        254    2    1    2    0    0 -0.73563918009E+02 -0.22231311739E+03  0.12824236933E+03  0.94198981376E+03  0.90336256938E+03 0.  0.
         23    2    4    4    0    0 -0.47149134690E+03 -0.10267347793E+03 -0.18661755206E+02  0.49178397005E+03  0.93044499125E+02 0.  0.
         23    2    4    4    0    0  0.39792742889E+03 -0.11963963946E+03  0.14690412453E+03  0.45020584372E+03  0.91894493398E+02 0.  0.
          4    1    3    3  502    0  0.69696835759E+02  0.21485749143E+03  0.13381404183E+04  0.13570708049E+04  0.00000000000E+00 0. -1.
         -3    1    3    3    0  502  0.38670822500E+01  0.74556259593E+01  0.34464645449E+03  0.34474877704E+03  0.00000000000E+00 0.  1.
         13    1    5    5    0    0 -0.22296595865E+02 -0.27387814988E+02  0.52119056360E+01  0.35698663243E+02  0.00000000000E+00 0. -1.
        -13    1    5    5    0    0 -0.44919475104E+03 -0.75285662945E+02 -0.23873660842E+02  0.45608530681E+03  0.00000000000E+00 0.  1.
          3    1    6    6  503    0  0.22564428760E+03 -0.21529039681E+02  0.90606744370E+02  0.24410740710E+03  0.00000000000E+00 0. -1.
         -3    1    6    6    0  503  0.17228314129E+03 -0.98110599777E+02  0.56297380164E+02  0.20609843662E+03  0.00000000000E+00 0.  1.
<mgrwt>
<rscale>  0 0.19261104E+04</rscale>
<asrwt>0</asrwt>
<pdfrwt beam="1">  1        2 0.34267989E+00 0.19261104E+04</pdfrwt>
<pdfrwt beam="2">  1       -1 0.64060013E-01 0.19261104E+04</pdfrwt>
<totfact> 0.13106142E+01</totfact>
</mgrwt>
</event>
<event>
12    7  0.1707730E-007  0.1291230E+04  0.7818608E-02  0.9036549E-01
         -1   -1    0    0    0  501 -0.00000000000E+00  0.00000000000E+00  0.38352116448E+03  0.38352116448E+03  0.00000000000E+00 0.  1.
          2   -1    0    0  501    0  0.00000000000E+00 -0.00000000000E+00 -0.10868212685E+04  0.10868212685E+04  0.00000000000E+00 0. -1.
         24    2    1    2    0    0 -0.14878201804E+03  0.28186274252E+01  0.14487372852E+03  0.22241827408E+03  0.79608152088E+02 0.  0.
        254    2    1    2    0    0  0.14878201804E+03 -0.28186274252E+01 -0.84817383255E+03  0.12479241589E+04  0.90320087612E+03 0.  0.
         23    2    4    4    0    0  0.13260359915E+03  0.43682132809E+03 -0.40328772431E+03  0.61614502115E+03  0.92720608962E+02 0.  0.
         23    2    4    4    0    0  0.16178418886E+02 -0.43963995552E+03 -0.44488610824E+03  0.63177913776E+03  0.87613913719E+02 0.  0.
          2    1    3    3  502    0 -0.78785288499E+02  0.12219951687E+01  0.12814608292E+03  0.15043282064E+03  0.00000000000E+00 0. -1.
         -1    1    3    3    0  502 -0.69996729537E+02  0.15966322565E+01  0.16727645596E+02  0.71985453445E+02  0.00000000000E+00 0.  1.
         13    1    5    5    0    0  0.14436128226E+03  0.42019844853E+03 -0.39370544716E+03  0.59364205974E+03  0.00000000000E+00 0. -1.
        -13    1    5    5    0    0 -0.11757683112E+02  0.16622879561E+02 -0.95822771518E+01  0.22502961416E+02  0.00000000000E+00 0.  1.
          1    1    6    6  503    0  0.10759366476E+02 -0.44629542565E+02 -0.88655353875E+02  0.99836525417E+02  0.00000000000E+00 0.  1.
         -1    1    6    6    0  503  0.54190524105E+01 -0.39501041295E+03 -0.35623075436E+03  0.53194261234E+03  0.00000000000E+00 0. -1.
<mgrwt>
<rscale>  0 0.12912304E+04</rscale>
<asrwt>0</asrwt>
<pdfrwt beam="1">  1        2 0.16720327E+00 0.12912304E+04</pdfrwt>
<pdfrwt beam="2">  1       -1 0.59003257E-01 0.12912304E+04</pdfrwt>
<totfact> 0.72292452E+01</totfact>
</mgrwt>
</event>
<event>
12    7  0.1707730E-007  0.1486622E+04  0.7818608E-02  0.8893398E-01
          2   -1    0    0  501    0  0.00000000000E+00  0.00000000000E+00  0.35379069951E+04  0.35379069951E+04  0.00000000000E+00 0. -1.
         -1   -1    0    0    0  501 -0.00000000000E+00 -0.00000000000E+00 -0.15616887440E+03  0.15616887440E+03  0.00000000000E+00 0.  1.
         24    2    1    2    0    0 -0.18330038480E+03 -0.25138419338E+03  0.19349019345E+04  0.19614245153E+04  0.80917174988E+02 0.  0.
        254    2    1    2    0    0  0.18330038480E+03  0.25138419338E+03  0.14468361862E+04  0.17326513542E+04  0.90108419243E+03 0.  0.
         23    2    4    4    0    0 -0.26338685438E+03  0.13712123938E+03  0.11145184866E+04  0.11571470358E+04  0.93074895904E+02 0.  0.
         23    2    4    4    0    0  0.44668723918E+03  0.11426295401E+03  0.33231769961E+03  0.57550431839E+03  0.90469081479E+02 0.  0.
          4    1    3    3  502    0 -0.17696453605E+03 -0.25023485765E+03  0.19270481716E+04  0.19512684558E+04  0.00000000000E+00 0. -1.
         -3    1    3    3    0  502 -0.63358487486E+01 -0.11493357301E+01  0.78537629341E+01  0.10156059482E+02  0.00000000000E+00 0.  1.
         13    1    5    5    0    0 -0.24020269360E+03  0.11764522575E+03  0.85475634150E+03  0.89562611423E+03  0.00000000000E+00 0. -1.
        -13    1    5    5    0    0 -0.23184160785E+02  0.19476013625E+02  0.25976214506E+03  0.26152092158E+03  0.00000000000E+00 0.  1.
          4    1    6    6  503    0  0.36771849018E+03  0.96849297118E+02  0.31263447755E+03  0.49227735163E+03  0.00000000000E+00 0. -1.
         -4    1    6    6    0  503  0.78968749007E+02  0.17413656890E+02  0.19683222056E+02  0.83226966762E+02  0.00000000000E+00 0.  1.
<mgrwt>
<rscale>  0 0.14866216E+04</rscale>
<asrwt>0</asrwt>
<pdfrwt beam="1">  1        2 0.54429332E+00 0.14866216E+04</pdfrwt>
<pdfrwt beam="2">  1       -1 0.24025983E-01 0.14866216E+04</pdfrwt>
<totfact> 0.12819071E+01</totfact>
</mgrwt>
</event>
<event>
12    7  0.1707730E-007  0.1611638E+04  0.7818608E-02  0.8813430E-01
          2   -1    0    0  501    0  0.00000000000E+00  0.00000000000E+00  0.22602872463E+04  0.22602872463E+04  0.00000000000E+00 0. -1.
         -1   -1    0    0    0  501 -0.00000000000E+00 -0.00000000000E+00 -0.28728384115E+03  0.28728384115E+03  0.00000000000E+00 0.  1.
         24    2    1    2    0    0 -0.65173386585E+01 -0.52150751730E+03  0.95508371026E+03  0.10909727839E+04  0.77615431833E+02 0.  0.
        254    2    1    2    0    0  0.65173386585E+01  0.52150751730E+03  0.10179196949E+04  0.14565983036E+04  0.90194542320E+03 0.  0.
         23    2    4    4    0    0 -0.36533152499E+03  0.53954971409E+03  0.66516725941E+03  0.93552772425E+03  0.90463377834E+02 0.  0.
         23    2    4    4    0    0  0.37184886365E+03 -0.18042196782E+02  0.35275243548E+03  0.52107057933E+03  0.92104123902E+02 0.  0.
          2    1    3    3  502    0  0.21799298060E+02 -0.30067794058E+03  0.60771338433E+03  0.67837894339E+03  0.00000000000E+00 0. -1.
         -1    1    3    3    0  502 -0.28316636718E+02 -0.22082957673E+03  0.34737032594E+03  0.41259384050E+03  0.00000000000E+00 0.  1.
         13    1    5    5    0    0 -0.18675873909E+03  0.20883009491E+03  0.31892275467E+03  0.42450036350E+03  0.00000000000E+00 0.  1.
        -13    1    5    5    0    0 -0.17857278590E+03  0.33071961917E+03  0.34624450474E+03  0.51102736075E+03  0.00000000000E+00 0. -1.
          4    1    6    6  503    0  0.33842050510E+03 -0.43836019171E+02  0.31153446095E+03  0.46206466561E+03  0.00000000000E+00 0. -1.
         -4    1    6    6    0  503  0.33428358552E+02  0.25793822389E+02  0.41217974531E+02  0.59005913715E+02  0.00000000000E+00 0.  1.
<mgrwt>
<rscale>  0 0.16116377E+04</rscale>
<asrwt>0</asrwt>
<pdfrwt beam="1">  1        2 0.34773649E+00 0.16116377E+04</pdfrwt>
<pdfrwt beam="2">  1       -1 0.44197516E-01 0.16116377E+04</pdfrwt>
<totfact> 0.26412233E+01</totfact>
</mgrwt>
</event>
<event>
12    7  0.1707730E-007  0.3217691E+04  0.7818608E-02  0.8184161E-01
          2   -1    0    0  501    0  0.00000000000E+00  0.00000000000E+00  0.24537730654E+04  0.24537730654E+04  0.00000000000E+00 0. -1.
         -1   -1    0    0    0  501 -0.00000000000E+00 -0.00000000000E+00 -0.10548587081E+04  0.10548587081E+04  0.00000000000E+00 0.  1.
         24    2    1    2    0    0  0.13004603165E+04  0.22300342711E+03 -0.69621630998E+02  0.13236903903E+04  0.79884381683E+02 0.  0.
        254    2    1    2    0    0 -0.13004603165E+04 -0.22300342711E+03  0.14685359883E+04  0.21849413833E+04  0.93618552436E+03 0.  0.
         23    2    4    4    0    0 -0.32987758656E+03 -0.20309208110E+03  0.10518156957E+04  0.11246208100E+04  0.91597451914E+02 0.  0.
         23    2    4    4    0    0 -0.97058272996E+03 -0.19911346007E+02  0.41672029264E+03  0.10603205732E+04  0.90535177245E+02 0.  0.
          4    1    3    3  502    0  0.58942298629E+03  0.61247062096E+02 -0.37334754031E+02  0.59377145708E+03  0.00000000000E+00 0. -1.
         -3    1    3    3    0  502  0.71103733023E+03  0.16175636501E+03 -0.32286876967E+02  0.72991893319E+03  0.00000000000E+00 0.  1.
         13    1    5    5    0    0 -0.14506697349E+02  0.87866762330E+01  0.30090667116E+02  0.34541253519E+02  0.00000000000E+00 0. -1.
        -13    1    5    5    0    0 -0.31537088921E+03 -0.21187875734E+03  0.10217250285E+04  0.10900795565E+04  0.00000000000E+00 0.  1.
          3    1    6    6  503    0 -0.59738185325E+02  0.20292568517E+02  0.22058215087E+02  0.66835648989E+02  0.00000000000E+00 0. -1.
         -3    1    6    6    0  503 -0.91084454464E+03 -0.40203914524E+02  0.39466207755E+03  0.99348492425E+03  0.00000000000E+00 0.  1.
<mgrwt>
<rscale>  0 0.32176910E+04</rscale>
<asrwt>0</asrwt>
<pdfrwt beam="1">  1        2 0.37750355E+00 0.32176910E+04</pdfrwt>
<pdfrwt beam="2">  1       -1 0.16228596E+00 0.32176910E+04</pdfrwt>
<totfact> 0.99344876E-01</totfact>
</mgrwt>
</event>
<event>
12    7  0.1707730E-007  0.2601077E+04  0.7818608E-02  0.8367835E-01
         -1   -1    0    0    0  501 -0.00000000000E+00  0.00000000000E+00  0.13343655637E+04  0.13343655637E+04  0.00000000000E+00 0.  1.
          2   -1    0    0  501    0  0.00000000000E+00 -0.00000000000E+00 -0.12675689436E+04  0.12675689436E+04  0.00000000000E+00 0. -1.
         24    2    1    2    0    0 -0.13967542088E+03 -0.11257690734E+04  0.19384486543E+03  0.11536702780E+04  0.80709656598E+02 0.  0.
        254    2    1    2    0    0  0.13967542088E+03  0.11257690734E+04 -0.12704824535E+03  0.14482642294E+04  0.89132642266E+03 0.  0.
         23    2    4    4    0    0  0.15155999610E+02  0.80241794678E+03  0.32529087325E+03  0.87090956120E+03  0.92547533387E+02 0.  0.
         23    2    4    4    0    0  0.12451942127E+03  0.32335112660E+03 -0.45233911860E+03  0.57735466819E+03  0.93095098246E+02 0.  0.
          4    1    3    3  502    0 -0.58514256653E+02 -0.23019768326E+03  0.26523298944E+02  0.23899451248E+03  0.00000000000E+00 0. -1.
         -3    1    3    3    0  502 -0.81161164227E+02 -0.89557139012E+03  0.16732156648E+03  0.91467576550E+03  0.00000000000E+00 0.  1.
         13    1    5    5    0    0  0.49308464847E+02  0.28198873685E+03  0.11005453746E+03  0.30669361524E+03  0.00000000000E+00 0. -1.
        -13    1    5    5    0    0 -0.34152465236E+02  0.52042920993E+03  0.21523633579E+03  0.56421594596E+03  0.00000000000E+00 0.  1.
          1    1    6    6  503    0  0.25543103848E+01  0.13018452014E+03 -0.15684393771E+03  0.20384934285E+03  0.00000000000E+00 0. -1.
         -1    1    6    6    0  503  0.12196511088E+03  0.19316660645E+03 -0.29549518089E+03  0.37350532534E+03  0.00000000000E+00 0.  1.
<mgrwt>
<rscale>  0 0.26010770E+04</rscale>
<asrwt>0</asrwt>
<pdfrwt beam="1">  1        2 0.19501061E+00 0.26010770E+04</pdfrwt>
<pdfrwt beam="2">  1       -1 0.20528701E+00 0.26010770E+04</pdfrwt>
<totfact> 0.24094578E+00</totfact>
</mgrwt>
</event>
<event>
12    7  0.1707730E-007  0.1085608E+04  0.7818608E-02  0.9219334E-01
         -1   -1    0    0    0  501 -0.00000000000E+00  0.00000000000E+00  0.14630933759E+03  0.14630933759E+03  0.00000000000E+00 0.  1.
          2   -1    0    0  501    0  0.00000000000E+00 -0.00000000000E+00 -0.20137904473E+04  0.20137904473E+04  0.00000000000E+00 0. -1.
         24    2    1    2    0    0  0.89161882932E+02 -0.11438636887E+03 -0.56767194269E+03  0.59129938869E+03  0.79683434874E+02 0.  0.
        254    2    1    2    0    0 -0.89161882932E+02  0.11438636887E+03 -0.12998091671E+04  0.15688003962E+04  0.86636985735E+03 0.  0.
         23    2    4    4    0    0 -0.33389298080E+03  0.67078527005E+02 -0.12499597723E+04  0.12986471718E+04  0.90005517363E+02 0.  0.
         23    2    4    4    0    0  0.24473109787E+03  0.47307841867E+02 -0.49849394767E+02  0.27015322441E+03  0.91468356996E+02 0.  0.
          4    1    3    3  502    0  0.75881672850E+02 -0.72271132774E+02 -0.49728973398E+03  0.50821080708E+03  0.00000000000E+00 0. -1.
         -3    1    3    3    0  502  0.13280210082E+02 -0.42115236098E+02 -0.70382208714E+02  0.83088581616E+02  0.00000000000E+00 0.  1.
         13    1    5    5    0    0 -0.17106124786E+03 -0.10075049354E+02 -0.56804659278E+03  0.59332991556E+03  0.00000000000E+00 0.  1.
        -13    1    5    5    0    0 -0.16283173295E+03  0.77153576359E+02 -0.68191317951E+03  0.70531725627E+03  0.00000000000E+00 0. -1.
          1    1    6    6  503    0  0.29057121643E+02 -0.89106081084E+01  0.20235845595E+02  0.36513075767E+02  0.00000000000E+00 0. -1.
         -1    1    6    6    0  503  0.21567397623E+03  0.56218449976E+02 -0.70085240362E+02  0.23364014864E+03  0.00000000000E+00 0.  1.
<mgrwt>
<rscale>  0 0.10856083E+04</rscale>
<asrwt>0</asrwt>
<pdfrwt beam="1">  1        2 0.30981391E+00 0.10856083E+04</pdfrwt>
<pdfrwt beam="2">  1       -1 0.22509129E-01 0.10856083E+04</pdfrwt>
<totfact> 0.12482345E+02</totfact>
</mgrwt>
</event>
<event>
12    7  0.1707730E-007  0.2814892E+04  0.7818608E-02  0.8298660E-01
          2   -1    0    0  501    0  0.00000000000E+00  0.00000000000E+00  0.11458862280E+04  0.11458862280E+04  0.00000000000E+00 0. -1.
         -1   -1    0    0    0  501 -0.00000000000E+00 -0.00000000000E+00 -0.17287099609E+04  0.17287099609E+04  0.00000000000E+00 0.  1.
         24    2    1    2    0    0  0.11800970642E+04 -0.99697247759E+02  0.18411443958E+03  0.12008544861E+04  0.74731170843E+02 0.  0.
        254    2    1    2    0    0 -0.11800970642E+04  0.99697247759E+02 -0.76693817240E+03  0.16737417028E+04  0.90036020865E+03 0.  0.
         23    2    4    4    0    0 -0.11971203295E+04  0.17128993718E+03 -0.88940460767E+03  0.15041746225E+04  0.95201959265E+02 0.  0.
         23    2    4    4    0    0  0.17023265308E+02 -0.71592689419E+02  0.12246643527E+03  0.16956708028E+03  0.91321751010E+02 0.  0.
          2    1    3    3  502    0  0.35685057613E+03 -0.34270277285E+02  0.21365625538E+02  0.35912849447E+03  0.00000000000E+00 0. -1.
         -1    1    3    3    0  502  0.82324648803E+03 -0.65426970475E+02  0.16274881404E+03  0.84172599163E+03  0.00000000000E+00 0.  1.
         13    1    5    5    0    0 -0.10242342821E+04  0.18005712144E+03 -0.76089324274E+03  0.12885786582E+04  0.00000000000E+00 0. -1.
        -13    1    5    5    0    0 -0.17288604739E+03 -0.87671842652E+01 -0.12851136493E+03  0.21559596429E+03  0.00000000000E+00 0.  1.
          2    1    6    6  503    0  0.52276250706E+02 -0.60722350616E+02  0.78452491430E+02  0.11213743204E+03  0.00000000000E+00 0. -1.
         -2    1    6    6    0  503 -0.35252985399E+02 -0.10870338803E+02  0.44013943839E+02  0.57429648244E+02  0.00000000000E+00 0.  1.
<mgrwt>
<rscale>  0 0.28148925E+04</rscale>
<asrwt>0</asrwt>
<pdfrwt beam="1">  1        2 0.17629019E+00 0.28148925E+04</pdfrwt>
<pdfrwt beam="2">  1       -1 0.26595538E+00 0.28148925E+04</pdfrwt>
<totfact> 0.11099278E+00</totfact>
</mgrwt>
</event>
<event>
12    7  0.1707730E-007  0.2286515E+04  0.7818608E-02  0.8483257E-01
          2   -1    0    0  501    0  0.00000000000E+00  0.00000000000E+00  0.40582931284E+04  0.40582931284E+04  0.00000000000E+00 0. -1.
         -1   -1    0    0    0  501 -0.00000000000E+00 -0.00000000000E+00 -0.32206593699E+03  0.32206593699E+03  0.00000000000E+00 0.  1.
         24    2    1    2    0    0 -0.49594314885E+03 -0.98124806077E+02  0.17874123947E+02  0.51121876565E+03  0.73736406059E+02 0.  0.
        254    2    1    2    0    0  0.49594314885E+03  0.98124806077E+02  0.37183530675E+04  0.38691402998E+04  0.94260757492E+03 0.  0.
         23    2    4    4    0    0  0.20767567834E+03  0.19614883606E+03  0.34205905314E+04  0.34337024951E+04  0.90937824342E+02 0.  0.
         23    2    4    4    0    0  0.28826747051E+03 -0.98024029981E+02  0.29776253606E+03  0.43543780467E+03  0.90756315703E+02 0.  0.
          2    1    3    3  502    0 -0.12076103640E+03 -0.29233340206E+02 -0.26954107954E+02  0.12713905784E+03  0.00000000000E+00 0. -1.
         -1    1    3    3    0  502 -0.37518211245E+03 -0.68891465871E+02  0.44828231900E+02  0.38407970781E+03  0.00000000000E+00 0.  1.
         13    1    5    5    0    0  0.19462443857E+03  0.13841014684E+03  0.25798214053E+04  0.25908520846E+04  0.00000000000E+00 0. -1.
        -13    1    5    5    0    0  0.13051239766E+02  0.57738689217E+02  0.84076912610E+03  0.84285041051E+03  0.00000000000E+00 0.  1.
          2    1    6    6  503    0  0.15991256536E+02  0.10887955405E+02  0.28732665778E+01  0.19558208490E+02  0.00000000000E+00 0. -1.
         -2    1    6    6    0  503  0.27227621398E+03 -0.10891198539E+03  0.29488926948E+03  0.41587959618E+03  0.00000000000E+00 0.  1.
<mgrwt>
<rscale>  0 0.22865152E+04</rscale>
<asrwt>0</asrwt>
<pdfrwt beam="1">  1        2 0.62435275E+00 0.22865152E+04</pdfrwt>
<pdfrwt beam="2">  1       -1 0.49548608E-01 0.22865152E+04</pdfrwt>
<totfact> 0.13009902E+00</totfact>
</mgrwt>
</event>
<event>
12    7  0.1707730E-007  0.1705495E+04  0.7818608E-02  0.8758237E-01
         -1   -1    0    0    0  501 -0.00000000000E+00  0.00000000000E+00  0.29977115469E+03  0.29977115469E+03  0.00000000000E+00 0.  1.
          2   -1    0    0  501    0  0.00000000000E+00 -0.00000000000E+00 -0.24257770675E+04  0.24257770675E+04  0.00000000000E+00 0. -1.
         24    2    1    2    0    0 -0.76454651156E+02  0.49318867523E+03 -0.13827797143E+04  0.14721794486E+04  0.78436008603E+02 0.  0.
        254    2    1    2    0    0  0.76454651156E+02 -0.49318867523E+03 -0.74322619851E+03  0.12533687736E+04  0.87719309019E+03 0.  0.
         23    2    4    4    0    0 -0.21350800892E+03  0.13861146125E+03 -0.66655938565E+02  0.27882223630E+03  0.92195543520E+02 0.  0.
         23    2    4    4    0    0  0.28996266008E+03 -0.63180013648E+03 -0.67657025994E+03  0.97454653731E+03  0.93508716474E+02 0.  0.
          2    1    3    3  502    0 -0.15257957624E+02  0.10535895442E+03 -0.39862888814E+03  0.41259944863E+03  0.00000000000E+00 0. -1.
         -1    1    3    3    0  502 -0.61196693531E+02  0.38782972081E+03 -0.98415082620E+03  0.10595800000E+04  0.00000000000E+00 0.  1.
         13    1    5    5    0    0 -0.28985828142E+02  0.11395363810E+02  0.21646267714E+02  0.37928794542E+02  0.00000000000E+00 0. -1.
        -13    1    5    5    0    0 -0.18452218078E+03  0.12721609744E+03 -0.88302206279E+02  0.24089344176E+03  0.00000000000E+00 0.  1.
          2    1    6    6  503    0  0.18471720570E+03 -0.49402900284E+03 -0.49122406276E+03  0.72075389806E+03  0.00000000000E+00 0.  1.
         -2    1    6    6    0  503  0.10524545437E+03 -0.13777113364E+03 -0.18534619718E+03  0.25379263925E+03  0.00000000000E+00 0. -1.
<mgrwt>
<rscale>  0 0.17054946E+04</rscale>
<asrwt>0</asrwt>
<pdfrwt beam="1">  1        2 0.37319647E+00 0.17054946E+04</pdfrwt>
<pdfrwt beam="2">  1       -1 0.46118639E-01 0.17054946E+04</pdfrwt>
<totfact> 0.19488930E+01</totfact>
</mgrwt>
</event>
<event>
12    7  0.1707730E-007  0.2153534E+04  0.7818608E-02  0.8538021E-01
         -1   -1    0    0    0  501 -0.00000000000E+00  0.00000000000E+00  0.94074254953E+03  0.94074254953E+03  0.00000000000E+00 0.  1.
          2   -1    0    0  501    0  0.00000000000E+00 -0.00000000000E+00 -0.12324591530E+04  0.12324591530E+04  0.00000000000E+00 0. -1.
         24    2    1    2    0    0 -0.86465862245E+02 -0.86554790977E+03 -0.29047328732E+03  0.92071856989E+03  0.81843905377E+02 0.  0.
        254    2    1    2    0    0  0.86465862245E+02  0.86554790977E+03 -0.12433161625E+01  0.12524831326E+04  0.90114533916E+03 0.  0.
         23    2    4    4    0    0 -0.12070245804E+03  0.95038257491E+03 -0.14225024027E+03  0.97284636175E+03  0.91644916145E+02 0.  0.
         23    2    4    4    0    0  0.20716832028E+03 -0.84834665137E+02  0.14100692411E+03  0.27963677090E+03  0.90543567713E+02 0.  0.
          4    1    3    3  502    0 -0.50893285914E+02 -0.30387090909E+03 -0.67854658706E+02  0.31548678364E+03  0.00000000000E+00 0. -1.
         -1    1    3    3    0  502 -0.35572576331E+02 -0.56167700068E+03 -0.22261862861E+03  0.60523178625E+03  0.00000000000E+00 0.  1.
         13    1    5    5    0    0 -0.18679169425E+02  0.47966688517E+03 -0.52263753696E+02  0.48286719918E+03  0.00000000000E+00 0. -1.
        -13    1    5    5    0    0 -0.10202328861E+03  0.47071568974E+03 -0.89986486572E+02  0.48997916257E+03  0.00000000000E+00 0.  1.
          4    1    6    6  503    0  0.14795956001E+02 -0.20045690719E+02 -0.97849023606E+01  0.26767411989E+02  0.00000000000E+00 0. -1.
         -4    1    6    6    0  503  0.19237236428E+03 -0.64788974418E+02  0.15079182647E+03  0.25286935891E+03  0.00000000000E+00 0.  1.
<mgrwt>
<rscale>  0 0.21535336E+04</rscale>
<asrwt>0</asrwt>
<pdfrwt beam="1">  1        2 0.18960910E+00 0.21535336E+04</pdfrwt>
<pdfrwt beam="2">  1       -1 0.14472962E+00 0.21535336E+04</pdfrwt>
<totfact> 0.72761127E+00</totfact>
</mgrwt>
</event>
<event>
12    7  0.1707730E-007  0.2938680E+04  0.7818608E-02  0.8261461E-01
         -1   -1    0    0    0  501 -0.00000000000E+00  0.00000000000E+00  0.77156164341E+03  0.77156164341E+03  0.00000000000E+00 0.  1.
          2   -1    0    0  501    0  0.00000000000E+00 -0.00000000000E+00 -0.27981695386E+04  0.27981695386E+04  0.00000000000E+00 0. -1.
         24    2    1    2    0    0  0.13005788721E+04  0.26710717619E+03 -0.84616729693E+03  0.15766208225E+04  0.82960697413E+02 0.  0.
        254    2    1    2    0    0 -0.13005788721E+04 -0.26710717619E+03 -0.11804405982E+04  0.19931103595E+04  0.90343635795E+03 0.  0.
         23    2    4    4    0    0 -0.61335364535E+03  0.27436022347E+03 -0.27749563076E+03  0.73259833468E+03  0.90665695793E+02 0.  0.
         23    2    4    4    0    0 -0.68722522679E+03 -0.54146739966E+03 -0.90294496747E+03  0.12605120248E+04  0.90086031953E+02 0.  0.
          2    1    3    3  502    0  0.70244705724E+03  0.12843164995E+03 -0.40941956303E+03  0.82313482220E+03  0.00000000000E+00 0. -1.
         -1    1    3    3    0  502  0.59813181491E+03  0.13867552623E+03 -0.43674773391E+03  0.75348600031E+03  0.00000000000E+00 0.  1.
         13    1    5    5    0    0 -0.30015340428E+03  0.15296270839E+03 -0.18432355910E+03  0.38401149814E+03  0.00000000000E+00 0.  1.
        -13    1    5    5    0    0 -0.31320024107E+03  0.12139751508E+03 -0.93172071658E+02  0.34858683654E+03  0.00000000000E+00 0. -1.
          1    1    6    6  503    0 -0.19839956644E+03 -0.12748353856E+03 -0.29165497102E+03  0.37506941049E+03  0.00000000000E+00 0. -1.
         -1    1    6    6    0  503 -0.48882566035E+03 -0.41398386110E+03 -0.61128999645E+03  0.88544261430E+03  0.00000000000E+00 0.  1.
<mgrwt>
<rscale>  0 0.29386802E+04</rscale>
<asrwt>0</asrwt>
<pdfrwt beam="1">  1        2 0.43048762E+00 0.29386802E+04</pdfrwt>
<pdfrwt beam="2">  1       -1 0.11870179E+00 0.29386802E+04</pdfrwt>
<totfact> 0.14404737E+00</totfact>
</mgrwt>
</event>
<event>
12    7  0.1707730E-007  0.2553144E+04  0.7818608E-02  0.8384293E-01
          2   -1    0    0  501    0  0.00000000000E+00  0.00000000000E+00  0.12925140419E+04  0.12925140419E+04  0.00000000000E+00 0. -1.
         -1   -1    0    0    0  501 -0.00000000000E+00 -0.00000000000E+00 -0.12608268223E+04  0.12608268223E+04  0.00000000000E+00 0.  1.
         24    2    1    2    0    0  0.54384474247E+03  0.93869110993E+03 -0.26084160117E+03  0.11185520261E+04  0.78817449800E+02 0.  0.
        254    2    1    2    0    0 -0.54384474247E+03 -0.93869110993E+03  0.29252882081E+03  0.14347888381E+04  0.89226554066E+03 0.  0.
         23    2    4    4    0    0 -0.40551162161E+03 -0.55946613560E+02 -0.13459845180E+03  0.44030857203E+03  0.90472076072E+02 0.  0.
         23    2    4    4    0    0 -0.13833312086E+03 -0.88274449637E+03  0.42712727260E+03  0.99448026604E+03  0.90440004027E+02 0.  0.
          4    1    3    3  502    0  0.32936226722E+03  0.62456350034E+03 -0.14375989085E+03  0.72057336562E+03  0.00000000000E+00 0. -1.
         -3    1    3    3    0  502  0.21448247526E+03  0.31412760959E+03 -0.11708171032E+03  0.39797866047E+03  0.00000000000E+00 0.  1.
         13    1    5    5    0    0  0.31480240115E+01 -0.67410694361E+01 -0.41592599172E+01  0.85235858286E+01  0.00000000000E+00 0. -1.
        -13    1    5    5    0    0 -0.40865964562E+03 -0.49205544124E+02 -0.13043919188E+03  0.43178498620E+03  0.00000000000E+00 0.  1.
          2    1    6    6  503    0 -0.72832391448E+01 -0.15070728983E+02 -0.33401390472E+01  0.17068361766E+02  0.00000000000E+00 0. -1.
         -2    1    6    6    0  503 -0.13104988172E+03 -0.86767376739E+03  0.43046741165E+03  0.97741190427E+03  0.00000000000E+00 0.  1.
<mgrwt>
<rscale>  0 0.25531442E+04</rscale>
<asrwt>0</asrwt>
<pdfrwt beam="1">  1        2 0.19884831E+00 0.25531442E+04</pdfrwt>
<pdfrwt beam="2">  1       -1 0.19397336E+00 0.25531442E+04</pdfrwt>
<totfact> 0.28001994E+00</totfact>
</mgrwt>
</event>
<event>
12    7  0.1707730E-007  0.1185791E+04  0.7818608E-02  0.9125385E-01
          2   -1    0    0  501    0  0.00000000000E+00  0.00000000000E+00  0.96511492305E+03  0.96511492305E+03  0.00000000000E+00 0. -1.
         -1   -1    0    0    0  501 -0.00000000000E+00 -0.00000000000E+00 -0.36423124650E+03  0.36423124650E+03  0.00000000000E+00 0.  1.
         24    2    1    2    0    0 -0.54400037502E+02  0.20081803452E+03  0.26146547154E+03  0.34371046038E+03  0.80532233882E+02 0.  0.
        254    2    1    2    0    0  0.54400037502E+02 -0.20081803452E+03  0.33941820501E+03  0.98563570917E+03  0.90165724432E+03 0.  0.
         23    2    4    4    0    0 -0.10316148830E+03 -0.18921331010E+03 -0.26582198620E+03  0.35336453782E+03  0.88097666555E+02 0.  0.
         23    2    4    4    0    0  0.15756152580E+03 -0.11604724420E+02  0.60524019121E+03  0.63227117135E+03  0.92145759669E+02 0.  0.
          4    1    3    3  502    0 -0.63905544132E+02  0.13220295641E+03  0.21477884819E+03  0.26017589029E+03  0.00000000000E+00 0. -1.
         -3    1    3    3    0  502  0.95055066300E+01  0.68615078111E+02  0.46686623347E+02  0.83534570090E+02  0.00000000000E+00 0.  1.
         13    1    5    5    0    0 -0.10581524384E+03 -0.14496792461E+03 -0.24672773095E+03  0.30510184893E+03  0.00000000000E+00 0. -1.
        -13    1    5    5    0    0  0.26537555448E+01 -0.44245385493E+02 -0.19094255246E+02  0.48262688894E+02  0.00000000000E+00 0.  1.
          4    1    6    6  503    0  0.10208640012E+02 -0.32290032853E+02  0.12511822136E+03  0.12962033740E+03  0.00000000000E+00 0.  1.
         -4    1    6    6    0  503  0.14735288579E+03  0.20685308433E+02  0.48012196985E+03  0.50265083395E+03  0.00000000000E+00 0. -1.
<mgrwt>
<rscale>  0 0.11857909E+04</rscale>
<asrwt>0</asrwt>
<pdfrwt beam="1">  1        2 0.14847922E+00 0.11857909E+04</pdfrwt>
<pdfrwt beam="2">  1       -1 0.56035577E-01 0.11857909E+04</pdfrwt>
<totfact> 0.96321911E+01</totfact>
</mgrwt>
</event>
<event>
12    7  0.1707730E-007  0.1208498E+04  0.7818608E-02  0.9105451E-01
         -1   -1    0    0    0  501 -0.00000000000E+00  0.00000000000E+00  0.39635490575E+03  0.39635490575E+03  0.00000000000E+00 0.  1.
          2   -1    0    0  501    0  0.00000000000E+00 -0.00000000000E+00 -0.92118603523E+03  0.92118603523E+03  0.00000000000E+00 0. -1.
         24    2    1    2    0    0 -0.16920412942E+03  0.20062827257E+03 -0.47646255689E+02  0.28776408091E+03  0.10796415801E+03 0.  0.
        254    2    1    2    0    0  0.16920412942E+03 -0.20062827257E+03 -0.47718487379E+03  0.10297768601E+04  0.87398697736E+03 0.  0.
         23    2    4    4    0    0  0.12441733957E+03  0.21712066273E+03  0.12206320487E+03  0.29240652031E+03  0.89336949629E+02 0.  0.
         23    2    4    4    0    0  0.44786789847E+02 -0.41774893530E+03 -0.59924807866E+03  0.73737033976E+03  0.89981824247E+02 0.  0.
          4    1    3    3  502    0 -0.17129530412E+03  0.21180161159E+03 -0.44993742707E+02  0.27609136308E+03  0.00000000000E+00 0. -1.
         -3    1    3    3    0  502  0.20911747001E+01 -0.11173339019E+02 -0.26525129816E+01  0.11672717831E+02  0.00000000000E+00 0.  1.
         13    1    5    5    0    0  0.12567782161E+03  0.22452296305E+03  0.12230680479E+03  0.28489371751E+03  0.00000000000E+00 0. -1.
        -13    1    5    5    0    0 -0.12604820428E+01 -0.74023003165E+01 -0.24359992694E+00  0.75128027980E+01  0.00000000000E+00 0.  1.
          4    1    6    6  503    0  0.48131061586E+02 -0.91550097472E+02 -0.14756089893E+03  0.18020055030E+03  0.00000000000E+00 0.  1.
         -4    1    6    6    0  503 -0.33442717390E+01 -0.32619883783E+03 -0.45168717973E+03  0.55716978946E+03  0.00000000000E+00 0. -1.
<mgrwt>
<rscale>  0 0.12084976E+04</rscale>
<asrwt>0</asrwt>
<pdfrwt beam="1">  1        2 0.14172093E+00 0.12084976E+04</pdfrwt>
<pdfrwt beam="2">  1       -1 0.60977678E-01 0.12084976E+04</pdfrwt>
<totfact> 0.87092146E+01</totfact>
</mgrwt>
</event>
<event>
12    7  0.1707730E-007  0.1576964E+04  0.7818608E-02  0.8834826E-01
          4   -1    0    0  501    0  0.00000000000E+00  0.00000000000E+00  0.10812677192E+04  0.10812677192E+04  0.00000000000E+00 0. -1.
         -3   -1    0    0    0  501 -0.00000000000E+00 -0.00000000000E+00 -0.57497677585E+03  0.57497677585E+03  0.00000000000E+00 0.  1.
         24    2    1    2    0    0  0.12353160239E+02  0.81976197343E+02  0.70583181864E+03  0.71517422299E+03  0.80018219881E+02 0.  0.
        254    2    1    2    0    0 -0.12353160239E+02 -0.81976197343E+02 -0.19954087530E+03  0.94107027207E+03  0.91592794398E+03 0.  0.
         23    2    4    4    0    0  0.32004131404E+03 -0.26251869331E+03 -0.32303518525E+03  0.53217622110E+03  0.86702320418E+02 0.  0.
         23    2    4    4    0    0 -0.33239447427E+03  0.18054249596E+03  0.12349430996E+03  0.40889405097E+03  0.94137245281E+02 0.  0.
          2    1    3    3  502    0 -0.13234260647E+02  0.78776720177E+02  0.37899547099E+03  0.38732219705E+03  0.00000000000E+00 0. -1.
         -1    1    3    3    0  502  0.25587420886E+02  0.31994771660E+01  0.32683634765E+03  0.32785202594E+03  0.00000000000E+00 0.  1.
         13    1    5    5    0    0  0.19022728509E+03 -0.10800638303E+03 -0.19601012236E+03  0.29372055910E+03  0.00000000000E+00 0. -1.
        -13    1    5    5    0    0  0.12981402895E+03 -0.15451231028E+03 -0.12702506289E+03  0.23845566200E+03  0.00000000000E+00 0.  1.
          4    1    6    6  503    0 -0.17752951082E+03  0.14225638949E+03  0.48446249819E+02  0.23259545714E+03  0.00000000000E+00 0.  1.
         -4    1    6    6    0  503 -0.15486496346E+03  0.38286106478E+02  0.75048060136E+02  0.17629859383E+03  0.00000000000E+00 0. -1.
<mgrwt>
<rscale>  0 0.15769640E+04</rscale>
<asrwt>0</asrwt>
<pdfrwt beam="1">  1        4 0.16634888E+00 0.15769640E+04</pdfrwt>
<pdfrwt beam="2">  1       -3 0.88457966E-01 0.15769640E+04</pdfrwt>
<totfact> 0.57215152E-01</totfact>
</mgrwt>
</event>
<event>
12    7  0.1707730E-007  0.1516329E+04  0.7818608E-02  0.8873666E-01
         -1   -1    0    0    0  501 -0.00000000000E+00  0.00000000000E+00  0.37615875215E+03  0.37615875215E+03  0.00000000000E+00 0.  1.
          2   -1    0    0  501    0  0.00000000000E+00 -0.00000000000E+00 -0.15281137582E+04  0.15281137582E+04  0.00000000000E+00 0. -1.
         24    2    1    2    0    0  0.31312698228E+03 -0.10473850193E+03  0.76010580240E+02  0.34803090748E+03  0.79556542392E+02 0.  0.
        254    2    1    2    0    0 -0.31312698228E+03  0.10473850193E+03 -0.12279655863E+04  0.15562416028E+04  0.89720108366E+03 0.  0.
         23    2    4    4    0    0 -0.81643086575E+02 -0.38651869933E+03 -0.51816130122E+03  0.65806314936E+03  0.92161141207E+02 0.  0.
         23    2    4    4    0    0 -0.23148389571E+03  0.49125720126E+03 -0.70980428504E+03  0.89817845346E+03  0.89353116571E+02 0.  0.
          2    1    3    3  502    0  0.28775831856E+02 -0.33345609794E+02  0.24380957550E+02  0.50342916906E+02  0.00000000000E+00 0. -1.
         -1    1    3    3    0  502  0.28435115042E+03 -0.71392892134E+02  0.51629622690E+02  0.29768799058E+03  0.00000000000E+00 0.  1.
         13    1    5    5    0    0 -0.76323056625E+02 -0.22616239009E+03 -0.25061542207E+03  0.34609641062E+03  0.00000000000E+00 0. -1.
        -13    1    5    5    0    0 -0.53200299496E+01 -0.16035630924E+03 -0.26754587915E+03  0.31196673874E+03  0.00000000000E+00 0.  1.
          3    1    6    6  503    0 -0.11059239565E+02  0.37212109360E+01 -0.35601510164E+02  0.37464939831E+02  0.00000000000E+00 0. -1.
         -3    1    6    6    0  503 -0.22042465614E+03  0.48753599033E+03 -0.67420277487E+03  0.86071351363E+03  0.00000000000E+00 0.  1.
<mgrwt>
<rscale>  0 0.15163289E+04</rscale>
<asrwt>0</asrwt>
<pdfrwt beam="1">  1        2 0.23509442E+00 0.15163289E+04</pdfrwt>
<pdfrwt beam="2">  1       -1 0.57870577E-01 0.15163289E+04</pdfrwt>
<totfact> 0.40703358E+01</totfact>
</mgrwt>
</event>
<event>
12    7  0.1707730E-007  0.1693478E+04  0.7818608E-02  0.8765093E-01
          2   -1    0    0  501    0  0.00000000000E+00  0.00000000000E+00  0.23660832687E+04  0.23660832687E+04  0.00000000000E+00 0. -1.
         -1   -1    0    0    0  501 -0.00000000000E+00 -0.00000000000E+00 -0.30301855612E+03  0.30301855612E+03  0.00000000000E+00 0.  1.
         24    2    1    2    0    0 -0.60404997000E+02 -0.36567062041E+02 -0.20306278960E+03  0.22935624752E+03  0.79899174366E+02 0.  0.
        254    2    1    2    0    0  0.60404997000E+02  0.36567062041E+02  0.22661275022E+04  0.24397455773E+04  0.90113190605E+03 0.  0.
         23    2    4    4    0    0 -0.18983224786E+03 -0.20416183376E+03  0.23261206759E+03  0.37500499127E+03  0.93819149415E+02 0.  0.
         23    2    4    4    0    0  0.25023724486E+03  0.24072889580E+03  0.20335154346E+04  0.20647405860E+04  0.86020839640E+02 0.  0.
          2    1    3    3  502    0  0.49631772878E+01  0.73237085955E+01 -0.96270811688E+02  0.96676465696E+02  0.00000000000E+00 0. -1.
         -1    1    3    3    0  502 -0.65368174288E+02 -0.43890770636E+02 -0.10679197791E+03  0.13267978182E+03  0.00000000000E+00 0.  1.
         13    1    5    5    0    0 -0.18629613355E+03 -0.21392955497E+03  0.22594669769E+03  0.36266239682E+03  0.00000000000E+00 0. -1.
        -13    1    5    5    0    0 -0.35361143077E+01  0.97677212079E+01  0.66653698921E+01  0.12342594451E+02  0.00000000000E+00 0.  1.
          1    1    6    6  503    0  0.23274149254E+03  0.24250121562E+03  0.19822022280E+04  0.20104977281E+04  0.00000000000E+00 0. -1.
         -1    1    6    6    0  503  0.17495752326E+02 -0.17723198194E+01  0.51313206597E+02  0.54242857947E+02  0.00000000000E+00 0.  1.
<mgrwt>
<rscale>  0 0.16934782E+04</rscale>
<asrwt>0</asrwt>
<pdfrwt beam="1">  1        2 0.36401280E+00 0.16934782E+04</pdfrwt>
<pdfrwt beam="2">  1       -1 0.46618241E-01 0.16934782E+04</pdfrwt>
<totfact> 0.20679721E+01</totfact>
</mgrwt>
</event>
<event>
12    7  0.1707730E-007  0.1070674E+04  0.7818608E-02  0.9234256E-01
          2   -1    0    0  501    0  0.00000000000E+00  0.00000000000E+00  0.16528666049E+04  0.16528666049E+04  0.00000000000E+00 0. -1.
         -1   -1    0    0    0  501 -0.00000000000E+00 -0.00000000000E+00 -0.17338705748E+03  0.17338705748E+03  0.00000000000E+00 0.  1.
         24    2    1    2    0    0 -0.86472258621E+01  0.10729075552E+02  0.46066758488E+03  0.46767153131E+03  0.79449039402E+02 0.  0.
        254    2    1    2    0    0  0.86472258621E+01 -0.10729075552E+02  0.10188119625E+04  0.13585821310E+04  0.89865327253E+03 0.  0.
         23    2    4    4    0    0  0.22418032405E+03 -0.34775607464E+03  0.26263976756E+03  0.49846611977E+03  0.91091821327E+02 0.  0.
         23    2    4    4    0    0 -0.21553309819E+03  0.33702699909E+03  0.75617219493E+03  0.86011601125E+03  0.89226957121E+02 0.  0.
          2    1    3    3  502    0 -0.26379398128E+02  0.27307773169E+02  0.40702335462E+03  0.40879040880E+03  0.00000000000E+00 0. -1.
         -1    1    3    3    0  502  0.17732172266E+02 -0.16578697617E+02  0.53644230267E+02  0.58881122517E+02  0.00000000000E+00 0.  1.
         13    1    5    5    0    0  0.47790200678E+02 -0.20829850534E+02  0.34939671990E+02  0.62758000549E+02  0.00000000000E+00 0. -1.
        -13    1    5    5    0    0  0.17639012338E+03 -0.32692622411E+03  0.22770009557E+03  0.43570811922E+03  0.00000000000E+00 0.  1.
          3    1    6    6  503    0  0.82599901300E+01  0.17085217254E+02  0.27199448872E+02  0.33165375085E+02  0.00000000000E+00 0. -1.
         -3    1    6    6    0  503 -0.22379308832E+03  0.31994178184E+03  0.72897274606E+03  0.82695063616E+03  0.00000000000E+00 0.  1.
<mgrwt>
<rscale>  0 0.10706740E+04</rscale>
<asrwt>0</asrwt>
<pdfrwt beam="1">  1        2 0.25428716E+00 0.10706740E+04</pdfrwt>
<pdfrwt beam="2">  1       -1 0.26674933E-01 0.10706740E+04</pdfrwt>
<totfact> 0.14782993E+02</totfact>
</mgrwt>
</event>
<event>
12    7  0.1707730E-007  0.1835617E+04  0.7818608E-02  0.8687585E-01
         -1   -1    0    0    0  501 -0.00000000000E+00  0.00000000000E+00  0.23501588191E+03  0.23501588191E+03  0.00000000000E+00 0.  1.
          2   -1    0    0  501    0  0.00000000000E+00 -0.00000000000E+00 -0.35843206078E+04  0.35843206078E+04  0.00000000000E+00 0. -1.
         24    2    1    2    0    0  0.68844347573E+02  0.68533913178E+03 -0.11459466647E+04  0.13392749887E+04  0.77681833359E+02 0.  0.
        254    2    1    2    0    0 -0.68844347573E+02 -0.68533913178E+03 -0.22033580612E+04  0.24800615010E+04  0.90636032203E+03 0.  0.
         23    2    4    4    0    0 -0.27378213534E+03  0.10872422121E+03 -0.50361410094E+03  0.59045219024E+03  0.90713904084E+02 0.  0.
         23    2    4    4    0    0  0.20493778777E+03 -0.79406335298E+03 -0.16997439603E+04  0.18896093108E+04  0.94645187884E+02 0.  0.
          4    1    3    3  502    0  0.49708155636E+02  0.55154241896E+03 -0.97570121417E+03  0.11219014217E+04  0.00000000000E+00 0. -1.
         -3    1    3    3    0  502  0.19136191938E+02  0.13379671282E+03 -0.17024545055E+03  0.21737356701E+03  0.00000000000E+00 0.  1.
         13    1    5    5    0    0 -0.99205652683E+02  0.77896268646E+02 -0.26196719423E+03  0.29075144203E+03  0.00000000000E+00 0. -1.
        -13    1    5    5    0    0 -0.17457648266E+03  0.30827952559E+02 -0.24164690671E+03  0.29970074821E+03  0.00000000000E+00 0.  1.
          2    1    6    6  503    0  0.61083155820E+02 -0.20031030127E+03 -0.34678859288E+03  0.40511442442E+03  0.00000000000E+00 0. -1.
         -2    1    6    6    0  503  0.14385463195E+03 -0.59375305171E+03 -0.13529553674E+04  0.14844948864E+04  0.00000000000E+00 0.  1.
<mgrwt>
<rscale>  0 0.18356168E+04</rscale>
<asrwt>0</asrwt>
<pdfrwt beam="1">  1        2 0.55143389E+00 0.18356168E+04</pdfrwt>
<pdfrwt beam="2">  1       -1 0.36156293E-01 0.18356168E+04</pdfrwt>
<totfact> 0.56050997E+00</totfact>
</mgrwt>
</event>
<event>
12    7  0.1707730E-007  0.2164601E+04  0.7818608E-02  0.8533308E-01
          2   -1    0    0  501    0  0.00000000000E+00  0.00000000000E+00  0.20252940514E+04  0.20252940514E+04  0.00000000000E+00 0. -1.
         -1   -1    0    0    0  501 -0.00000000000E+00 -0.00000000000E+00 -0.57837270765E+03  0.57837270765E+03  0.00000000000E+00 0.  1.
         24    2    1    2    0    0 -0.53586362081E+03 -0.23101470631E+03 -0.21925644903E+03  0.62854341317E+03  0.80472462108E+02 0.  0.
        254    2    1    2    0    0  0.53586362081E+03  0.23101470631E+03  0.16661777928E+04  0.19751233459E+04  0.88568966331E+03 0.  0.
         23    2    4    4    0    0  0.45209224909E+03 -0.10713085896E+03  0.29495093153E+03  0.55750967839E+03  0.89199590062E+02 0.  0.
         23    2    4    4    0    0  0.83771371721E+02  0.33814556526E+03  0.13712268613E+04  0.14176136675E+04  0.89472561305E+02 0.  0.
          4    1    3    3  502    0 -0.95578891831E+02 -0.76086123480E+02 -0.51231224868E+02  0.13247286949E+03  0.00000000000E+00 0. -1.
         -3    1    3    3    0  502 -0.44028472898E+03 -0.15492858283E+03 -0.16802522416E+03  0.49607054367E+03  0.00000000000E+00 0.  1.
         13    1    5    5    0    0  0.27573567215E+03 -0.99668925921E+02  0.15132217080E+03  0.32994310883E+03  0.00000000000E+00 0.  1.
        -13    1    5    5    0    0  0.17635657694E+03 -0.74619330347E+01  0.14362876072E+03  0.22756656956E+03  0.00000000000E+00 0. -1.
          4    1    6    6  503    0  0.76104446343E+02  0.24574601363E+03  0.11361753310E+04  0.11649366390E+04  0.00000000000E+00 0.  1.
         -4    1    6    6    0  503  0.76669253784E+01  0.92399551636E+02  0.23505153025E+03  0.25267702856E+03  0.00000000000E+00 0. -1.
<mgrwt>
<rscale>  0 0.21646014E+04</rscale>
<asrwt>0</asrwt>
<pdfrwt beam="1">  1        2 0.31158370E+00 0.21646014E+04</pdfrwt>
<pdfrwt beam="2">  1       -1 0.88980417E-01 0.21646014E+04</pdfrwt>
<totfact> 0.83594172E+00</totfact>
</mgrwt>
</event>
<event>
12    7  0.1707730E-007  0.2445820E+04  0.7818608E-02  0.8422546E-01
          2   -1    0    0  501    0  0.00000000000E+00  0.00000000000E+00  0.20947384767E+04  0.20947384767E+04  0.00000000000E+00 0. -1.
         -1   -1    0    0    0  501 -0.00000000000E+00 -0.00000000000E+00 -0.71393585406E+03  0.71393585406E+03  0.00000000000E+00 0.  1.
         24    2    1    2    0    0 -0.79055352626E+03 -0.57821124951E+03  0.13990244077E+03  0.99270359964E+03  0.81145652216E+02 0.  0.
        254    2    1    2    0    0  0.79055352626E+03  0.57821124951E+03  0.12409001819E+04  0.18159707311E+04  0.89365167039E+03 0.  0.
         23    2    4    4    0    0 -0.12324804504E+03  0.34377990169E+03  0.31141608730E+03  0.48856199252E+03  0.91313414639E+02 0.  0.
         23    2    4    4    0    0  0.91380157130E+03  0.23443134782E+03  0.92948409458E+03  0.13274087386E+04  0.89899436685E+02 0.  0.
          4    1    3    3  502    0 -0.12028295003E+03 -0.10335186502E+03  0.50427723983E+02  0.16641079117E+03  0.00000000000E+00 0. -1.
         -1    1    3    3    0  502 -0.67027057622E+03 -0.47485938449E+03  0.89474716790E+02  0.82629280847E+03  0.00000000000E+00 0.  1.
         13    1    5    5    0    0 -0.26381951817E+02  0.92895849302E+02  0.34502810599E+02  0.10254798944E+03  0.00000000000E+00 0. -1.
        -13    1    5    5    0    0 -0.96866093223E+02  0.25088405239E+03  0.27691327671E+03  0.38601400308E+03  0.00000000000E+00 0.  1.
          3    1    6    6  503    0  0.34202163855E+03  0.84047883405E+02  0.40876518656E+03  0.53956633113E+03  0.00000000000E+00 0. -1.
         -3    1    6    6    0  503  0.57177993274E+03  0.15038346441E+03  0.52071890802E+03  0.78784240748E+03  0.00000000000E+00 0.  1.
<mgrwt>
<rscale>  0 0.24458200E+04</rscale>
<asrwt>0</asrwt>
<pdfrwt beam="1">  1        2 0.32226746E+00 0.24458200E+04</pdfrwt>
<pdfrwt beam="2">  1       -1 0.10983629E+00 0.24458200E+04</pdfrwt>
<totfact> 0.46178047E+00</totfact>
</mgrwt>
</event>
<event>
12    7  0.1707730E-007  0.1539774E+04  0.7818608E-02  0.8858426E-01
         -1   -1    0    0    0  501 -0.00000000000E+00  0.00000000000E+00  0.24342536070E+03  0.24342536070E+03  0.00000000000E+00 0.  1.
          2   -1    0    0  501    0  0.00000000000E+00 -0.00000000000E+00 -0.24349380716E+04  0.24349380716E+04  0.00000000000E+00 0. -1.
         24    2    1    2    0    0 -0.34946543500E+03 -0.15139208908E+02 -0.12447987839E+04  0.12954089493E+04  0.78772124048E+02 0.  0.
        254    2    1    2    0    0  0.34946543500E+03  0.15139208908E+02 -0.94671392698E+03  0.13829544830E+04  0.94548429741E+03 0.  0.
         23    2    4    4    0    0  0.31906043081E+03 -0.42244216118E+03 -0.36871291296E+03  0.65140962921E+03  0.90157388973E+02 0.  0.
         23    2    4    4    0    0  0.30405004189E+02  0.43758137009E+03 -0.57800101402E+03  0.73154485381E+03  0.93117029570E+02 0.  0.
          4    1    3    3  502    0 -0.14338769125E+03 -0.27225067209E+02 -0.63716175186E+03  0.65366377620E+03  0.00000000000E+00 0. -1.
         -3    1    3    3    0  502 -0.20607774375E+03  0.12085858301E+02 -0.60763703203E+03  0.64174517305E+03  0.00000000000E+00 0.  1.
         13    1    5    5    0    0  0.27734994504E+03 -0.40648233387E+03 -0.33219955105E+03  0.59372335434E+03  0.00000000000E+00 0.  1.
        -13    1    5    5    0    0  0.41710485763E+02 -0.15959827311E+02 -0.36513361909E+02  0.57686274870E+02  0.00000000000E+00 0. -1.
          4    1    6    6  503    0 -0.13704169975E+02  0.31211419972E+03 -0.36514150707E+03  0.48055322091E+03  0.00000000000E+00 0. -1.
         -4    1    6    6    0  503  0.44109174164E+02  0.12546717037E+03 -0.21285950695E+03  0.25099163290E+03  0.00000000000E+00 0.  1.
<mgrwt>
<rscale>  0 0.15397736E+04</rscale>
<asrwt>0</asrwt>
<pdfrwt beam="1">  1        2 0.37460584E+00 0.15397736E+04</pdfrwt>
<pdfrwt beam="2">  1       -1 0.37450057E-01 0.15397736E+04</pdfrwt>
<totfact> 0.28661587E+01</totfact>
</mgrwt>
</event>
<event>
12    7  0.1707730E-007  0.1322216E+04  0.7818608E-02  0.9012131E-01
         -1   -1    0    0    0  501 -0.00000000000E+00  0.00000000000E+00  0.37672889356E+03  0.37672889356E+03  0.00000000000E+00 0.  1.
          2   -1    0    0  501    0  0.00000000000E+00 -0.00000000000E+00 -0.11601554906E+04  0.11601554906E+04  0.00000000000E+00 0. -1.
         24    2    1    2    0    0  0.18352787311E+03  0.17110157306E+03 -0.46647382782E+03  0.53571335887E+03  0.80204378380E+02 0.  0.
        254    2    1    2    0    0 -0.18352787311E+03 -0.17110157306E+03 -0.31695276917E+03  0.10011710252E+04  0.91592911046E+03 0.  0.
         23    2    4    4    0    0 -0.47643763530E+03 -0.11903298867E+03 -0.44141191141E+03  0.66663304235E+03  0.91615855066E+02 0.  0.
         23    2    4    4    0    0  0.29290976219E+03 -0.52068584391E+02  0.12445914224E+03  0.33453798289E+03  0.88984929327E+02 0.  0.
          2    1    3    3  502    0  0.17441356632E+03  0.12229218200E+03 -0.39334709483E+03  0.44732248648E+03  0.00000000000E+00 0. -1.
         -1    1    3    3    0  502  0.91143067947E+01  0.48809391062E+02 -0.73126732990E+02  0.88390872391E+02  0.00000000000E+00 0.  1.
         13    1    5    5    0    0 -0.24259917491E+02 -0.28781215537E+02 -0.23820379873E+02  0.44545622251E+02  0.00000000000E+00 0.  1.
        -13    1    5    5    0    0 -0.45217771781E+03 -0.90251773135E+02 -0.41759153154E+03  0.62208742010E+03  0.00000000000E+00 0. -1.
          1    1    6    6  503    0  0.15281882641E+03 -0.65574081874E+02  0.92218065503E+02  0.19015184860E+03  0.00000000000E+00 0. -1.
         -1    1    6    6    0  503  0.14009093578E+03  0.13505497483E+02  0.32241076740E+02  0.14438613430E+03  0.00000000000E+00 0.  1.
<mgrwt>
<rscale>  0 0.13222165E+04</rscale>
<asrwt>0</asrwt>
<pdfrwt beam="1">  1        2 0.17848546E+00 0.13222165E+04</pdfrwt>
<pdfrwt beam="2">  1       -1 0.57958291E-01 0.13222165E+04</pdfrwt>
<totfact> 0.67361575E+01</totfact>
</mgrwt>
</event>
<event>
12    7  0.1707730E-007  0.1162834E+04  0.7818608E-02  0.9146025E-01
         -1   -1    0    0    0  501 -0.00000000000E+00  0.00000000000E+00  0.33605318419E+03  0.33605318419E+03  0.00000000000E+00 0.  1.
          2   -1    0    0  501    0  0.00000000000E+00 -0.00000000000E+00 -0.10059291179E+04  0.10059291179E+04  0.00000000000E+00 0. -1.
         24    2    1    2    0    0  0.16518597432E+03  0.19317405585E+02  0.18344569160E+02  0.18497847275E+03  0.78872960466E+02 0.  0.
        254    2    1    2    0    0 -0.16518597432E+03 -0.19317405585E+02 -0.68822050286E+03  0.11570038293E+04  0.91506875820E+03 0.  0.
         23    2    4    4    0    0  0.30192391729E+03 -0.11023473413E+03 -0.23816679937E+02  0.33464027469E+03  0.90039606602E+02 0.  0.
         23    2    4    4    0    0 -0.46710989162E+03  0.90917328543E+02 -0.66440382293E+03  0.82236355464E+03  0.91606575095E+02 0.  0.
          4    1    3    3  502    0  0.56680652174E+02  0.13712596431E+02 -0.30550264120E+02  0.65833504157E+02  0.00000000000E+00 0. -1.
         -3    1    3    3    0  502  0.10850532215E+03  0.56048091541E+01  0.48894833280E+02  0.11914496859E+03  0.00000000000E+00 0.  1.
         13    1    5    5    0    0  0.29949948000E+02 -0.44604269680E+02  0.12313918361E+01  0.53740641834E+02  0.00000000000E+00 0.  1.
        -13    1    5    5    0    0  0.27197396929E+03 -0.65630464448E+02 -0.25048071773E+02  0.28089963285E+03  0.00000000000E+00 0. -1.
          3    1    6    6  503    0 -0.25277221213E+03  0.66012568223E+01 -0.31608663122E+03  0.40478157845E+03  0.00000000000E+00 0. -1.
         -3    1    6    6    0  503 -0.21433767949E+03  0.84316071721E+02 -0.34831719171E+03  0.41758197619E+03  0.00000000000E+00 0.  1.
<mgrwt>
<rscale>  0 0.11628339E+04</rscale>
<asrwt>0</asrwt>
<pdfrwt beam="1">  1        2 0.15475833E+00 0.11628339E+04</pdfrwt>
<pdfrwt beam="2">  1       -1 0.51700489E-01 0.11628339E+04</pdfrwt>
<totfact> 0.10602878E+02</totfact>
</mgrwt>
</event>
<event>
12    7  0.1707730E-007  0.1738105E+04  0.7818608E-02  0.8739925E-01
          2   -1    0    0  501    0  0.00000000000E+00  0.00000000000E+00  0.43497728643E+04  0.43497728643E+04  0.00000000000E+00 0. -1.
         -1   -1    0    0    0  501 -0.00000000000E+00 -0.00000000000E+00 -0.17363018608E+03  0.17363018608E+03  0.00000000000E+00 0.  1.
         24    2    1    2    0    0 -0.75174442417E+02  0.37415849213E+03  0.21492499018E+03  0.44491880460E+03  0.78193460484E+02 0.  0.
        254    2    1    2    0    0  0.75174442417E+02 -0.37415849213E+03  0.39612176880E+04  0.40784842457E+04  0.89282831330E+03 0.  0.
         23    2    4    4    0    0 -0.33490050261E+03 -0.92230635602E+02  0.26275700785E+04  0.26519623774E+04  0.90083833734E+02 0.  0.
         23    2    4    4    0    0  0.41007494502E+03 -0.28192785652E+03  0.13336476095E+04  0.14265218683E+04  0.93294788814E+02 0.  0.
          4    1    3    3  502    0 -0.37924863701E+02  0.47870334527E+02  0.30378578290E+02  0.68210865948E+02  0.00000000000E+00 0. -1.
         -3    1    3    3    0  502 -0.37249578716E+02  0.32628815760E+03  0.18454641189E+03  0.37670793865E+03  0.00000000000E+00 0.  1.
         13    1    5    5    0    0 -0.20360182491E+03 -0.37870974414E+02  0.12447873256E+04  0.12618967469E+04  0.00000000000E+00 0.  1.
        -13    1    5    5    0    0 -0.13129867770E+03 -0.54359661188E+02  0.13827827529E+04  0.13900656305E+04  0.00000000000E+00 0. -1.
          3    1    6    6  503    0  0.16520083446E+03 -0.99337918145E+02  0.39699593330E+03  0.44132200120E+03  0.00000000000E+00 0. -1.
         -3    1    6    6    0  503  0.24487411056E+03 -0.18258993838E+03  0.93665167619E+03  0.98519986710E+03  0.00000000000E+00 0.  1.
<mgrwt>
<rscale>  0 0.17381046E+04</rscale>
<asrwt>0</asrwt>
<pdfrwt beam="1">  1        2 0.66919574E+00 0.17381046E+04</pdfrwt>
<pdfrwt beam="2">  1       -1 0.26712340E-01 0.17381046E+04</pdfrwt>
<totfact> 0.23577094E+00</totfact>
</mgrwt>
</event>
<event>
12    7  0.1707730E-007  0.2275176E+04  0.7818608E-02  0.8487774E-01
          2   -1    0    0  501    0  0.00000000000E+00  0.00000000000E+00  0.10789886096E+04  0.10789886096E+04  0.00000000000E+00 0. -1.
         -1   -1    0    0    0  501 -0.00000000000E+00 -0.00000000000E+00 -0.11993699877E+04  0.11993699877E+04  0.00000000000E+00 0.  1.
         24    2    1    2    0    0  0.11710887598E+03 -0.27492098584E+03  0.86098400032E+03  0.91595772323E+03  0.91591837237E+02 0.  0.
        254    2    1    2    0    0 -0.11710887598E+03  0.27492098584E+03 -0.98136537843E+03  0.13624008741E+04  0.89652780124E+03 0.  0.
         23    2    4    4    0    0  0.37140096578E+03  0.10751236063E+03 -0.27634217478E+03  0.48389061377E+03  0.91035946018E+02 0.  0.
         23    2    4    4    0    0 -0.48850984176E+03  0.16740862521E+03 -0.70502320365E+03  0.87851026029E+03  0.89749910664E+02 0.  0.
          4    1    3    3  502    0  0.10345255939E+03 -0.20631587417E+03  0.75053658973E+03  0.78522216252E+03  0.00000000000E+00 0. -1.
         -3    1    3    3    0  502  0.13656316593E+02 -0.68605111664E+02  0.11044741059E+03  0.13073556071E+03  0.00000000000E+00 0.  1.
         13    1    5    5    0    0  0.31928591994E+03  0.12405374127E+03 -0.23740179160E+03  0.41676424997E+03  0.00000000000E+00 0.  1.
        -13    1    5    5    0    0  0.52115045837E+02 -0.16541380636E+02 -0.38940383173E+02  0.67126363804E+02  0.00000000000E+00 0. -1.
          1    1    6    6  503    0 -0.16603021952E+02 -0.98810196367E+01 -0.18227805519E+02  0.26562149405E+02  0.00000000000E+00 0. -1.
         -1    1    6    6    0  503 -0.47190681981E+03  0.17728964484E+03 -0.68679539813E+03  0.85194811089E+03  0.00000000000E+00 0.  1.
<mgrwt>
<rscale>  0 0.22751761E+04</rscale>
<asrwt>0</asrwt>
<pdfrwt beam="1">  1        2 0.16599825E+00 0.22751761E+04</pdfrwt>
<pdfrwt beam="2">  1       -1 0.18451846E+00 0.22751761E+04</pdfrwt>
<totfact> 0.44924006E+00</totfact>
</mgrwt>
</event>
<event>
12    7  0.1707730E-007  0.2071021E+04  0.7818608E-02  0.8574117E-01
         -1   -1    0    0    0  501 -0.00000000000E+00  0.00000000000E+00  0.10498810978E+04  0.10498810978E+04  0.00000000000E+00 0.  1.
          2   -1    0    0  501    0  0.00000000000E+00 -0.00000000000E+00 -0.10213370961E+04  0.10213370961E+04  0.00000000000E+00 0. -1.
         24    2    1    2    0    0 -0.51339698149E+03  0.65909280662E+03 -0.66330759646E+02  0.84190374807E+03  0.80139646802E+02 0.  0.
        254    2    1    2    0    0  0.51339698149E+03 -0.65909280662E+03  0.94874761336E+02  0.12293144458E+04  0.89679038688E+03 0.  0.
         23    2    4    4    0    0  0.50069092564E+02 -0.30579926233E+03 -0.36107106511E+03  0.48406236133E+03  0.89016586808E+02 0.  0.
         23    2    4    4    0    0  0.46332788892E+03 -0.35329354429E+03  0.45594582644E+03  0.74525208448E+03  0.89582429525E+02 0.  0.
          2    1    3    3  502    0 -0.39767512466E+03  0.47929230160E+03 -0.78602804311E+02  0.62773005026E+03  0.00000000000E+00 0. -1.
         -1    1    3    3    0  502 -0.11572185683E+03  0.17980050502E+03  0.12272044666E+02  0.21417369781E+03  0.00000000000E+00 0.  1.
         13    1    5    5    0    0  0.85920925334E+01 -0.67755208542E+02 -0.31010673316E+02  0.75008360855E+02  0.00000000000E+00 0.  1.
        -13    1    5    5    0    0  0.41477000030E+02 -0.23804405379E+03 -0.33006039179E+03  0.40905400048E+03  0.00000000000E+00 0. -1.
          1    1    6    6  503    0  0.35212538261E+03 -0.30562061494E+03  0.33459179173E+03  0.57388841463E+03  0.00000000000E+00 0. -1.
         -1    1    6    6    0  503  0.11120250631E+03 -0.47672929350E+02  0.12135403471E+03  0.17136366984E+03  0.00000000000E+00 0.  1.
<mgrwt>
<rscale>  0 0.20710215E+04</rscale>
<asrwt>0</asrwt>
<pdfrwt beam="1">  1        2 0.15712878E+00 0.20710215E+04</pdfrwt>
<pdfrwt beam="2">  1       -1 0.16152017E+00 0.20710215E+04</pdfrwt>
<totfact> 0.73189988E+00</totfact>
</mgrwt>
</event>
<event>
12    7  0.1707730E-007  0.1182435E+04  0.7818608E-02  0.9128372E-01
          2   -1    0    0  501    0  0.00000000000E+00  0.00000000000E+00  0.16083860790E+04  0.16083860790E+04  0.00000000000E+00 0. -1.
         -1   -1    0    0    0  501 -0.00000000000E+00 -0.00000000000E+00 -0.21732218731E+03  0.21732218731E+03  0.00000000000E+00 0.  1.
         24    2    1    2    0    0  0.10068304545E+03  0.17287683498E+03  0.59696418298E+02  0.22212656561E+03  0.75849015035E+02 0.  0.
        254    2    1    2    0    0 -0.10068304545E+03 -0.17287683498E+03  0.13313674734E+04  0.16035817007E+04  0.87115523637E+03 0.  0.
         23    2    4    4    0    0  0.73070002946E+02 -0.36796044981E+03  0.19071954180E+03  0.42993768521E+03  0.87967900914E+02 0.  0.
         23    2    4    4    0    0 -0.17375304839E+03  0.19508361483E+03  0.11406479316E+04  0.11736440155E+04  0.90082365655E+02 0.  0.
          2    1    3    3  502    0  0.73109235505E+01  0.80577949821E+01 -0.14975262986E+02  0.18510433940E+02  0.00000000000E+00 0. -1.
         -1    1    3    3    0  502  0.93372121896E+02  0.16481903999E+03  0.74671681284E+02  0.20361613167E+03  0.00000000000E+00 0.  1.
         13    1    5    5    0    0 -0.99175120869E+01 -0.16654291458E+02 -0.40015399292E+01  0.19792291221E+02  0.00000000000E+00 0. -1.
        -13    1    5    5    0    0  0.82987515033E+02 -0.35130615835E+03  0.19472108173E+03  0.41014539399E+03  0.00000000000E+00 0.  1.
          1    1    6    6  503    0  0.10343407086E+02  0.17442838563E+02  0.72041178629E+02  0.74840965424E+02  0.00000000000E+00 0. -1.
         -1    1    6    6    0  503 -0.18409645548E+03  0.17764077627E+03  0.10686067529E+04  0.10988030500E+04  0.00000000000E+00 0.  1.
<mgrwt>
<rscale>  0 0.11824347E+04</rscale>
<asrwt>0</asrwt>
<pdfrwt beam="1">  1        2 0.24744401E+00 0.11824347E+04</pdfrwt>
<pdfrwt beam="2">  1       -1 0.33434184E-01 0.11824347E+04</pdfrwt>
<totfact> 0.10453528E+02</totfact>
</mgrwt>
</event>
<event>
12    7  0.1707730E-007  0.1539481E+04  0.7818608E-02  0.8858615E-01
         -1   -1    0    0    0  501 -0.00000000000E+00  0.00000000000E+00  0.32075402472E+03  0.32075402472E+03  0.00000000000E+00 0.  1.
          2   -1    0    0  501    0  0.00000000000E+00 -0.00000000000E+00 -0.18472101846E+04  0.18472101846E+04  0.00000000000E+00 0. -1.
         24    2    1    2    0    0  0.11918867779E+03  0.45317850308E+03 -0.27306367597E+03  0.54821082816E+03  0.79966520541E+02 0.  0.
        254    2    1    2    0    0 -0.11918867779E+03 -0.45317850308E+03 -0.12533924839E+04  0.16197533811E+04  0.91270564833E+03 0.  0.
         23    2    4    4    0    0 -0.26268280910E+03  0.25278458962E+02 -0.12489050257E+02  0.27899321007E+03  0.89665914408E+02 0.  0.
         23    2    4    4    0    0  0.14349413131E+03 -0.47845696204E+03 -0.12409034336E+04  0.13407601711E+04  0.91021285944E+02 0.  0.
          2    1    3    3  502    0  0.53954865712E+02  0.17424520764E+03 -0.62986617845E+02  0.19297625229E+03  0.00000000000E+00 0. -1.
         -1    1    3    3    0  502  0.65233812078E+02  0.27893329544E+03 -0.21007705812E+03  0.35523457587E+03  0.00000000000E+00 0.  1.
         13    1    5    5    0    0 -0.16798658755E+03  0.58845329190E+02 -0.13642085244E+02  0.17851715002E+03  0.00000000000E+00 0. -1.
        -13    1    5    5    0    0 -0.94696221552E+02 -0.33566870227E+02  0.11530349871E+01  0.10047606005E+03  0.00000000000E+00 0.  1.
          3    1    6    6  503    0  0.13344308928E+03 -0.47566674075E+03 -0.12307563112E+04  0.13262077529E+04  0.00000000000E+00 0. -1.
         -3    1    6    6    0  503  0.10051042028E+02 -0.27902212974E+01 -0.10147122435E+02  0.14552418165E+02  0.00000000000E+00 0.  1.
<mgrwt>
<rscale>  0 0.15394806E+04</rscale>
<asrwt>0</asrwt>
<pdfrwt beam="1">  1        2 0.28418618E+00 0.15394806E+04</pdfrwt>
<pdfrwt beam="2">  1       -1 0.49346773E-01 0.15394806E+04</pdfrwt>
<totfact> 0.36691176E+01</totfact>
</mgrwt>
</event>
<event>
12    7  0.1707730E-007  0.1008367E+04  0.7818608E-02  0.9299415E-01
         -1   -1    0    0    0  501 -0.00000000000E+00  0.00000000000E+00  0.32930164692E+03  0.32930164692E+03  0.00000000000E+00 0.  1.
          2   -1    0    0  501    0  0.00000000000E+00 -0.00000000000E+00 -0.77194008167E+03  0.77194008167E+03  0.00000000000E+00 0. -1.
         24    2    1    2    0    0 -0.36137648554E+02  0.13234276099E+03 -0.17259158555E+03  0.23484694784E+03  0.80899304560E+02 0.  0.
        254    2    1    2    0    0  0.36137648554E+02 -0.13234276099E+03 -0.27004684921E+03  0.86639478076E+03  0.81172290797E+03 0.  0.
         23    2    4    4    0    0  0.32606807508E+03 -0.21788339263E+03  0.61587787878E+02  0.40898279407E+03  0.98388555501E+02 0.  0.
         23    2    4    4    0    0 -0.28993042653E+03  0.85540631642E+02 -0.33163463709E+03  0.45741198669E+03  0.88698033570E+02 0.  0.
          2    1    3    3  502    0 -0.41395697219E+02  0.10246132846E+03 -0.17207306536E+03  0.20450199852E+03  0.00000000000E+00 0. -1.
         -1    1    3    3    0  502  0.52580486650E+01  0.29881432529E+02 -0.51852018727E+00  0.30344949315E+02  0.00000000000E+00 0.  1.
         13    1    5    5    0    0  0.10440476942E+02  0.10386261934E+02  0.82930360681E+00  0.14750109837E+02  0.00000000000E+00 0. -1.
        -13    1    5    5    0    0  0.31562759814E+03 -0.22826965457E+03  0.60758484271E+02  0.39423268423E+03  0.00000000000E+00 0.  1.
          1    1    6    6  503    0 -0.14865833617E+02  0.27986502261E+02 -0.52478983695E+02  0.61304820754E+02  0.00000000000E+00 0. -1.
         -1    1    6    6    0  503 -0.27506459291E+03  0.57554129382E+02 -0.27915565339E+03  0.39610716593E+03  0.00000000000E+00 0.  1.
<mgrwt>
<rscale>  0 0.10083673E+04</rscale>
<asrwt>0</asrwt>
<pdfrwt beam="1">  1        2 0.11876001E+00 0.10083673E+04</pdfrwt>
<pdfrwt beam="2">  1       -1 0.50661792E-01 0.10083673E+04</pdfrwt>
<totfact> 0.16097235E+02</totfact>
</mgrwt>
</event>
<event>
12    7  0.1707730E-007  0.2666763E+04  0.7818608E-02  0.8345871E-01
         -3   -1    0    0    0  501 -0.00000000000E+00  0.00000000000E+00  0.10229348108E+04  0.10229348108E+04  0.00000000000E+00 0.  1.
          2   -1    0    0  501    0  0.00000000000E+00 -0.00000000000E+00 -0.17380440604E+04  0.17380440604E+04  0.00000000000E+00 0. -1.
         24    2    1    2    0    0 -0.21938142918E+03  0.67205302689E+03 -0.13025926299E+04  0.14841771075E+04  0.79061018826E+02 0.  0.
        254    2    1    2    0    0  0.21938142918E+03 -0.67205302689E+03  0.58748338035E+03  0.12768017637E+04  0.88617297357E+03 0.  0.
         23    2    4    4    0    0  0.30686863502E+03 -0.83153682208E+03  0.59577950644E+03  0.10717951496E+04  0.90386817805E+02 0.  0.
         23    2    4    4    0    0 -0.87487205842E+02  0.15948379519E+03 -0.82961260891E+01  0.20500661404E+03  0.94179583658E+02 0.  0.
          4    1    3    3  502    0 -0.21997625081E+03  0.60874603569E+03 -0.11655417334E+04  0.13332099682E+04  0.00000000000E+00 0. -1.
         -3    1    3    3    0  502  0.59482163723E+00  0.63306991203E+02 -0.13705089643E+03  0.15096713934E+03  0.00000000000E+00 0.  1.
         13    1    5    5    0    0  0.82675588231E+02 -0.13281625977E+03  0.88864226845E+02  0.17992293506E+03  0.00000000000E+00 0. -1.
        -13    1    5    5    0    0  0.22419304679E+03 -0.69872056231E+03  0.50691527959E+03  0.89187221456E+03  0.00000000000E+00 0.  1.
          4    1    6    6  503    0 -0.80274556499E+01 -0.10892888463E+02 -0.10292916871E+02  0.17001152931E+02  0.00000000000E+00 0. -1.
         -4    1    6    6    0  503 -0.79459750192E+02  0.17037668365E+03  0.19967907819E+01  0.18800546111E+03  0.00000000000E+00 0.  1.
<mgrwt>
<rscale>  0 0.26667627E+04</rscale>
<asrwt>0</asrwt>
<pdfrwt beam="1">  1        2 0.26739139E+00 0.26667627E+04</pdfrwt>
<pdfrwt beam="2">  1       -3 0.15737459E+00 0.26667627E+04</pdfrwt>
<totfact> 0.14817756E+00</totfact>
</mgrwt>
</event>
<event>
12    7  0.1707730E-007  0.1904522E+04  0.7818608E-02  0.8652609E-01
         -1   -1    0    0    0  501 -0.00000000000E+00  0.00000000000E+00  0.11628128420E+04  0.11628128420E+04  0.00000000000E+00 0.  1.
          2   -1    0    0  501    0  0.00000000000E+00 -0.00000000000E+00 -0.77983436858E+03  0.77983436858E+03  0.00000000000E+00 0. -1.
         24    2    1    2    0    0  0.24637252513E+03  0.34052262293E+03 -0.46875579193E+03  0.63456410917E+03  0.79275079982E+02 0.  0.
        254    2    1    2    0    0 -0.24637252513E+03 -0.34052262293E+03  0.85173426533E+03  0.13080831014E+04  0.89943041061E+03 0.  0.
         23    2    4    4    0    0 -0.48644923346E+03 -0.48359679623E+03  0.67169410710E+03  0.96461847410E+03  0.93899462190E+02 0.  0.
         23    2    4    4    0    0  0.24007670832E+03  0.14307417330E+03  0.18004015823E+03  0.34346462729E+03  0.86292796205E+02 0.  0.
          4    1    3    3  502    0  0.24813895635E+03  0.32334463486E+03 -0.43184639683E+03  0.59381479015E+03  0.00000000000E+00 0. -1.
         -3    1    3    3    0  502 -0.17664312147E+01  0.17177988076E+02 -0.36909395101E+02  0.40749319016E+02  0.00000000000E+00 0.  1.
         13    1    5    5    0    0 -0.44462311667E+03 -0.46644228269E+03  0.64674951218E+03  0.91298578875E+03  0.00000000000E+00 0.  1.
        -13    1    5    5    0    0 -0.41826116785E+02 -0.17154513548E+02  0.24944594919E+02  0.51632685346E+02  0.00000000000E+00 0. -1.
          3    1    6    6  503    0  0.79616725844E+02  0.94107444681E+01  0.74633339739E+02  0.10953319381E+03  0.00000000000E+00 0. -1.
         -3    1    6    6    0  503  0.16045998248E+03  0.13366342883E+03  0.10540681849E+03  0.23393143348E+03  0.00000000000E+00 0.  1.
<mgrwt>
<rscale>  0 0.19045224E+04</rscale>
<asrwt>0</asrwt>
<pdfrwt beam="1">  1        2 0.11997452E+00 0.19045224E+04</pdfrwt>
<pdfrwt beam="2">  1       -1 0.17889428E+00 0.19045224E+04</pdfrwt>
<totfact> 0.80706473E+00</totfact>
</mgrwt>
</event>
<event>
12    7  0.1707730E-007  0.1537148E+04  0.7818608E-02  0.8860119E-01
          2   -1    0    0  501    0  0.00000000000E+00  0.00000000000E+00  0.20347843331E+04  0.20347843331E+04  0.00000000000E+00 0. -1.
         -1   -1    0    0    0  501 -0.00000000000E+00 -0.00000000000E+00 -0.29030381653E+03  0.29030381653E+03  0.00000000000E+00 0.  1.
         24    2    1    2    0    0  0.12852072528E+03  0.14444181005E+03  0.12803288399E+04  0.12974852179E+04  0.82734146506E+02 0.  0.
        254    2    1    2    0    0 -0.12852072528E+03 -0.14444181005E+03  0.46415167665E+03  0.10276029317E+04  0.89618636067E+03 0.  0.
         23    2    4    4    0    0  0.81915453814E+02  0.73807926510E+02 -0.22676020059E+03  0.26721934587E+03  0.88477334078E+02 0.  0.
         23    2    4    4    0    0 -0.21043617910E+03 -0.21824973656E+03  0.69091187724E+03  0.76038358587E+03  0.94380308161E+02 0.  0.
          4    1    3    3  502    0  0.11254625205E+03  0.14572933612E+03  0.12468014733E+04  0.12603244074E+04  0.00000000000E+00 0. -1.
         -3    1    3    3    0  502  0.15974473235E+02 -0.12875260711E+01  0.33527366661E+02  0.37160810456E+02  0.00000000000E+00 0.  1.
         13    1    5    5    0    0  0.55115217624E+02 -0.59853367369E+01 -0.11119327822E+03  0.12424756171E+03  0.00000000000E+00 0. -1.
        -13    1    5    5    0    0  0.26800236190E+02  0.79793263247E+02 -0.11556692237E+03  0.14297178416E+03  0.00000000000E+00 0.  1.
          3    1    6    6  503    0 -0.17259705305E+02 -0.25804699555E+02  0.22058004719E+02  0.38083270848E+02  0.00000000000E+00 0. -1.
         -3    1    6    6    0  503 -0.19317647379E+03 -0.19244503701E+03  0.66885387252E+03  0.72230031502E+03  0.00000000000E+00 0.  1.
<mgrwt>
<rscale>  0 0.15371476E+04</rscale>
<asrwt>0</asrwt>
<pdfrwt beam="1">  1        2 0.31304373E+00 0.15371476E+04</pdfrwt>
<pdfrwt beam="2">  1       -1 0.44662127E-01 0.15371476E+04</pdfrwt>
<totfact> 0.34844526E+01</totfact>
</mgrwt>
</event>
<event>
12    7  0.1707730E-007  0.2095590E+04  0.7818608E-02  0.8563189E-01
         -1   -1    0    0    0  501 -0.00000000000E+00  0.00000000000E+00  0.44121413082E+03  0.44121413082E+03  0.00000000000E+00 0.  1.
          2   -1    0    0  501    0  0.00000000000E+00 -0.00000000000E+00 -0.24883026070E+04  0.24883026070E+04  0.00000000000E+00 0. -1.
         24    2    1    2    0    0 -0.78480512245E+03  0.25398811085E+03 -0.51075887097E+03  0.97341644075E+03  0.78967728552E+02 0.  0.
        254    2    1    2    0    0  0.78480512245E+03 -0.25398811085E+03 -0.15363296052E+04  0.19561002970E+04  0.88633553223E+03 0.  0.
         23    2    4    4    0    0  0.86080342434E+03 -0.44772941973E+03 -0.13123686702E+04  0.16346623936E+04  0.91462810895E+02 0.  0.
         23    2    4    4    0    0 -0.75998301883E+02  0.19374130888E+03 -0.22396093493E+03  0.32143790344E+03  0.99259199786E+02 0.  0.
          2    1    3    3  502    0  0.12953762926E+01  0.19952207472E+01 -0.43608664195E+01  0.49675005283E+01  0.00000000000E+00 0. -1.
         -1    1    3    3    0  502 -0.78610049875E+03  0.25199289011E+03 -0.50639800455E+03  0.96844894022E+03  0.00000000000E+00 0.  1.
         13    1    5    5    0    0  0.25800447645E+03 -0.14805308460E+03 -0.47193815396E+03  0.55786346617E+03  0.00000000000E+00 0. -1.
        -13    1    5    5    0    0  0.60279894789E+03 -0.29967633513E+03 -0.84043051629E+03  0.10767989274E+04  0.00000000000E+00 0.  1.
          1    1    6    6  503    0 -0.21382945519E+02 -0.66228717490E+01 -0.15813439431E+02  0.27407255534E+02  0.00000000000E+00 0. -1.
         -1    1    6    6    0  503 -0.54615356364E+02  0.20036418063E+03 -0.20814749550E+03  0.29403064791E+03  0.00000000000E+00 0.  1.
<mgrwt>
<rscale>  0 0.20955899E+04</rscale>
<asrwt>0</asrwt>
<pdfrwt beam="1">  1        2 0.38281577E+00 0.20955899E+04</pdfrwt>
<pdfrwt beam="2">  1       -1 0.67879099E-01 0.20955899E+04</pdfrwt>
<totfact> 0.81553431E+00</totfact>
</mgrwt>
</event>
<event>
12    7  0.1707730E-007  0.1629775E+04  0.7818608E-02  0.8802462E-01
          2   -1    0    0  501    0  0.00000000000E+00  0.00000000000E+00  0.42804820238E+03  0.42804820238E+03  0.00000000000E+00 0. -1.
         -1   -1    0    0    0  501 -0.00000000000E+00 -0.00000000000E+00 -0.15513239576E+04  0.15513239576E+04  0.00000000000E+00 0.  1.
         24    2    1    2    0    0  0.37623894220E+03 -0.72207874386E+02 -0.90344890485E+03  0.98451857945E+03  0.79291808206E+02 0.  0.
        254    2    1    2    0    0 -0.37623894220E+03  0.72207874386E+02 -0.21982685036E+03  0.99485358052E+03  0.89142587117E+03 0.  0.
         23    2    4    4    0    0  0.56567740423E+02  0.39434348752E+03 -0.17916435172E+03  0.44613708110E+03  0.90728908287E+02 0.  0.
         23    2    4    4    0    0 -0.43280668263E+03 -0.32213561314E+03 -0.40662498645E+02  0.54871649942E+03  0.91342105102E+02 0.  0.
          4    1    3    3  502    0  0.25428142829E+01 -0.22053756692E+01  0.91396342182E+00  0.34878238854E+01  0.00000000000E+00 0. -1.
         -3    1    3    3    0  502  0.37369612792E+03 -0.70002498717E+02 -0.90436286827E+03  0.98103075556E+03  0.00000000000E+00 0.  1.
         13    1    5    5    0    0 -0.19673342627E+02  0.17868666718E+03 -0.83165643642E+02  0.19807193067E+03  0.00000000000E+00 0. -1.
        -13    1    5    5    0    0  0.76241083050E+02  0.21565682034E+03 -0.95998708077E+02  0.24806515043E+03  0.00000000000E+00 0.  1.
          3    1    6    6  503    0 -0.25360080243E+03 -0.21855394461E+03 -0.62547405664E+02  0.34057506023E+03  0.00000000000E+00 0. -1.
         -3    1    6    6    0  503 -0.17920588020E+03 -0.10358166852E+03  0.21884907018E+02  0.20814143919E+03  0.00000000000E+00 0.  1.
<mgrwt>
<rscale>  0 0.16297747E+04</rscale>
<asrwt>0</asrwt>
<pdfrwt beam="1">  1        2 0.65853571E-01 0.16297747E+04</pdfrwt>
<pdfrwt beam="2">  1       -1 0.23866522E+00 0.16297747E+04</pdfrwt>
<totfact> 0.66660300E+00</totfact>
</mgrwt>
</event>
<event>
12    7  0.1707730E-007  0.1565269E+04  0.7818608E-02  0.8842173E-01
         -1   -1    0    0    0  501 -0.00000000000E+00  0.00000000000E+00  0.45065413725E+03  0.45065413725E+03  0.00000000000E+00 0.  1.
          2   -1    0    0  501    0  0.00000000000E+00 -0.00000000000E+00 -0.13591727091E+04  0.13591727091E+04  0.00000000000E+00 0. -1.
         24    2    1    2    0    0 -0.41887276179E+03  0.26426029749E+03 -0.70341744168E+02  0.50667777728E+03  0.80538895091E+02 0.  0.
        254    2    1    2    0    0  0.41887276179E+03 -0.26426029749E+03 -0.83817682772E+03  0.13031490691E+04  0.86623853897E+03 0.  0.
         23    2    4    4    0    0  0.52657922587E+03 -0.12002537740E+03 -0.12411882885E+03  0.56125238061E+03  0.88921193931E+02 0.  0.
         23    2    4    4    0    0 -0.10770646409E+03 -0.14423492010E+03 -0.71405799887E+03  0.74189668849E+03  0.90152515613E+02 0.  0.
          2    1    3    3  502    0 -0.32057497326E+02  0.33884114571E+01  0.88818504654E+01  0.33437280611E+02  0.00000000000E+00 0. -1.
         -1    1    3    3    0  502 -0.38681526446E+03  0.26087188604E+03 -0.79223594634E+02  0.47324049667E+03  0.00000000000E+00 0.  1.
         13    1    5    5    0    0  0.37884909892E+03 -0.56549528994E+02 -0.11613395671E+03  0.40026439372E+03  0.00000000000E+00 0. -1.
        -13    1    5    5    0    0  0.14773012695E+03 -0.63475848402E+02 -0.79848721395E+01  0.16098798689E+03  0.00000000000E+00 0.  1.
          3    1    6    6  503    0 -0.42734940768E+02 -0.94320456461E+02 -0.53575832012E+03  0.54567352992E+03  0.00000000000E+00 0. -1.
         -3    1    6    6    0  503 -0.64971523317E+02 -0.49914463636E+02 -0.17829967874E+03  0.19622315857E+03  0.00000000000E+00 0.  1.
<mgrwt>
<rscale>  0 0.15652691E+04</rscale>
<asrwt>0</asrwt>
<pdfrwt beam="1">  1        2 0.20910349E+00 0.15652691E+04</pdfrwt>
<pdfrwt beam="2">  1       -1 0.69331406E-01 0.15652691E+04</pdfrwt>
<totfact> 0.35225363E+01</totfact>
</mgrwt>
</event>
<event>
12    7  0.1707730E-007  0.1577977E+04  0.7818608E-02  0.8834193E-01
         -1   -1    0    0    0  501 -0.00000000000E+00  0.00000000000E+00  0.29107341391E+03  0.29107341391E+03  0.00000000000E+00 0.  1.
          2   -1    0    0  501    0  0.00000000000E+00 -0.00000000000E+00 -0.21386465386E+04  0.21386465386E+04  0.00000000000E+00 0. -1.
         24    2    1    2    0    0  0.34916789773E+03  0.31000205998E+03 -0.10134993794E+04  0.11185952572E+04  0.77812977214E+02 0.  0.
        254    2    1    2    0    0 -0.34916789773E+03 -0.31000205998E+03 -0.83407374534E+03  0.13111246953E+04  0.89741264536E+03 0.  0.
         23    2    4    4    0    0 -0.38346031461E+02  0.24048281753E+03 -0.12786534929E+01  0.26136293446E+03  0.94902818171E+02 0.  0.
         23    2    4    4    0    0 -0.31082186627E+03 -0.55048487752E+03 -0.83279509185E+03  0.10497617609E+04  0.93852313057E+02 0.  0.
          4    1    3    3  502    0  0.19957064609E+03  0.13516522719E+03 -0.57257006382E+03  0.62123631526E+03  0.00000000000E+00 0. -1.
         -3    1    3    3    0  502  0.14959725164E+03  0.17483683279E+03 -0.44092931555E+03  0.49735894192E+03  0.00000000000E+00 0.  1.
         13    1    5    5    0    0  0.31829915084E+02  0.84578267733E+02  0.10946466651E+01  0.90376020704E+02  0.00000000000E+00 0. -1.
        -13    1    5    5    0    0 -0.70175946545E+02  0.15590454980E+03 -0.23733001581E+01  0.17098691375E+03  0.00000000000E+00 0.  1.
          4    1    6    6  503    0 -0.24833750086E+03 -0.36544625244E+03 -0.61441748044E+03  0.75679014134E+03  0.00000000000E+00 0. -1.
         -4    1    6    6    0  503 -0.62484365413E+02 -0.18503862508E+03 -0.21837761140E+03  0.29297161954E+03  0.00000000000E+00 0.  1.
<mgrwt>
<rscale>  0 0.15779774E+04</rscale>
<asrwt>0</asrwt>
<pdfrwt beam="1">  1        2 0.32902254E+00 0.15779774E+04</pdfrwt>
<pdfrwt beam="2">  1       -1 0.44780525E-01 0.15779774E+04</pdfrwt>
<totfact> 0.30246034E+01</totfact>
</mgrwt>
</event>
<event>
12    7  0.1707730E-007  0.1541711E+04  0.7818608E-02  0.8857180E-01
         -1   -1    0    0    0  501 -0.00000000000E+00  0.00000000000E+00  0.34639476311E+03  0.34639476311E+03  0.00000000000E+00 0.  1.
          2   -1    0    0  501    0  0.00000000000E+00 -0.00000000000E+00 -0.17154368527E+04  0.17154368527E+04  0.00000000000E+00 0. -1.
         24    2    1    2    0    0 -0.27415583153E+03  0.35735662479E+02  0.11314484981E+03  0.30914650353E+03  0.79569756023E+02 0.  0.
        254    2    1    2    0    0  0.27415583153E+03 -0.35735662479E+02 -0.14821869394E+04  0.17526851123E+04  0.89363780245E+03 0.  0.
         23    2    4    4    0    0 -0.28165624680E+02  0.25305708807E+03 -0.73165547568E+02  0.28004659141E+03  0.90783829926E+02 0.  0.
         23    2    4    4    0    0  0.30232145621E+03 -0.28879275055E+03 -0.14090213919E+04  0.14726385209E+04  0.92322342082E+02 0.  0.
          2    1    3    3  502    0 -0.60538666066E+02 -0.11603326831E+02  0.55345381560E+02  0.82841285255E+02  0.00000000000E+00 0. -1.
         -1    1    3    3    0  502 -0.21361716547E+03  0.47338989310E+02  0.57799468245E+02  0.22630521828E+03  0.00000000000E+00 0.  1.
         13    1    5    5    0    0 -0.31360236597E+02  0.22716182266E+03 -0.92810987640E+02  0.24738600919E+03  0.00000000000E+00 0.  1.
        -13    1    5    5    0    0  0.31946119178E+01  0.25895265410E+02  0.19645440072E+02  0.32660582230E+02  0.00000000000E+00 0. -1.
          1    1    6    6  503    0 -0.26784715974E+01  0.37293490550E+01 -0.75500327684E+01  0.88365858382E+01  0.00000000000E+00 0. -1.
         -1    1    6    6    0  503  0.30499992781E+03 -0.29252209960E+03 -0.14014713591E+04  0.14638019351E+04  0.00000000000E+00 0.  1.
<mgrwt>
<rscale>  0 0.15417112E+04</rscale>
<asrwt>0</asrwt>
<pdfrwt beam="1">  1        2 0.26391336E+00 0.15417112E+04</pdfrwt>
<pdfrwt beam="2">  1       -1 0.53291503E-01 0.15417112E+04</pdfrwt>
<totfact> 0.37469110E+01</totfact>
</mgrwt>
</event>
<event>
12    7  0.1707730E-007  0.2549405E+04  0.7818608E-02  0.8385593E-01
         -1   -1    0    0    0  501 -0.00000000000E+00  0.00000000000E+00  0.14394069518E+04  0.14394069518E+04  0.00000000000E+00 0.  1.
          2   -1    0    0  501    0  0.00000000000E+00 -0.00000000000E+00 -0.11288443460E+04  0.11288443460E+04  0.00000000000E+00 0. -1.
         24    2    1    2    0    0  0.17420610540E+03 -0.78171678341E+03 -0.63961268528E+03  0.10281758827E+04  0.81316430746E+02 0.  0.
        254    2    1    2    0    0 -0.17420610540E+03  0.78171678341E+03  0.95017529112E+03  0.15400754151E+04  0.90970891156E+03 0.  0.
         23    2    4    4    0    0  0.23104417784E+03  0.56457958046E+02 -0.25022214483E+02  0.25562565143E+03  0.90274300381E+02 0.  0.
         23    2    4    4    0    0 -0.40525028324E+03  0.72525882536E+03  0.97519750561E+03  0.12844497637E+04  0.92589765487E+02 0.  0.
          4    1    3    3  502    0  0.12373273398E+03 -0.61737672432E+03 -0.53992838340E+03  0.82944949719E+03  0.00000000000E+00 0. -1.
         -3    1    3    3    0  502  0.50473371419E+02 -0.16434005909E+03 -0.99684301881E+02  0.19872638548E+03  0.00000000000E+00 0.  1.
         13    1    5    5    0    0  0.75622050995E+02  0.39688674865E+02 -0.47450509541E+02  0.97700749050E+02  0.00000000000E+00 0.  1.
        -13    1    5    5    0    0  0.15542212685E+03  0.16769283182E+02  0.22428295058E+02  0.15792490238E+03  0.00000000000E+00 0. -1.
          2    1    6    6  503    0 -0.20033779016E+03  0.30854577672E+03  0.37166180504E+03  0.52294189335E+03  0.00000000000E+00 0. -1.
         -2    1    6    6    0  503 -0.20491249309E+03  0.41671304864E+03  0.60353570057E+03  0.76150787034E+03  0.00000000000E+00 0.  1.
<mgrwt>
<rscale>  0 0.25494049E+04</rscale>
<asrwt>0</asrwt>
<pdfrwt beam="1">  1        2 0.17366836E+00 0.25494049E+04</pdfrwt>
<pdfrwt beam="2">  1       -1 0.22144722E+00 0.25494049E+04</pdfrwt>
<totfact> 0.22787480E+00</totfact>
</mgrwt>
</event>
<event>
12    7  0.1707730E-007  0.1165152E+04  0.7818608E-02  0.9143918E-01
         -1   -1    0    0    0  501 -0.00000000000E+00  0.00000000000E+00  0.20819872890E+04  0.20819872890E+04  0.00000000000E+00 0.  1.
          2   -1    0    0  501    0  0.00000000000E+00 -0.00000000000E+00 -0.16301474458E+03  0.16301474458E+03  0.00000000000E+00 0. -1.
         24    2    1    2    0    0 -0.15394075316E+03  0.15398614193E+03  0.39664421182E+03  0.46025501733E+03  0.84252969222E+02 0.  0.
        254    2    1    2    0    0  0.15394075316E+03 -0.15398614193E+03  0.15223283326E+04  0.17847470163E+04  0.90577528800E+03 0.  0.
         23    2    4    4    0    0  0.97354362146E+02 -0.32753627597E+03  0.15404471143E+04  0.15805008753E+04  0.90817514568E+02 0.  0.
         23    2    4    4    0    0  0.56586391019E+02  0.17355013404E+03 -0.18118781706E+02  0.20424614094E+03  0.89813847280E+02 0.  0.
          2    1    3    3  502    0 -0.12162885760E+03  0.12363589879E+03  0.23147699582E+03  0.28924213742E+03  0.00000000000E+00 0. -1.
         -1    1    3    3    0  502 -0.32311895568E+02  0.30350243141E+02  0.16516721600E+03  0.17101287991E+03  0.00000000000E+00 0.  1.
         13    1    5    5    0    0  0.83049114127E+02 -0.23038673162E+03  0.12539967220E+04  0.12776865736E+04  0.00000000000E+00 0. -1.
        -13    1    5    5    0    0  0.14305248019E+02 -0.97149544350E+02  0.28645039230E+03  0.30281430174E+03  0.00000000000E+00 0.  1.
          4    1    6    6  503    0  0.10990945139E+02  0.12059591983E+03 -0.45265374839E+02  0.12927927488E+03  0.00000000000E+00 0. -1.
         -4    1    6    6    0  503  0.45595445880E+02  0.52954214214E+02  0.27146593133E+02  0.74966866059E+02  0.00000000000E+00 0.  1.
<mgrwt>
<rscale>  0 0.11651517E+04</rscale>
<asrwt>0</asrwt>
<pdfrwt beam="1">  1        2 0.25079193E-01 0.11651517E+04</pdfrwt>
<pdfrwt beam="2">  1       -1 0.32030572E+00 0.11651517E+04</pdfrwt>
<totfact> 0.61044922E+00</totfact>
</mgrwt>
</event>
<event>
12    7  0.1707730E-007  0.1858844E+04  0.7818608E-02  0.8675618E-01
          2   -1    0    0  501    0  0.00000000000E+00  0.00000000000E+00  0.72061604105E+03  0.72061604105E+03  0.00000000000E+00 0. -1.
         -1   -1    0    0    0  501 -0.00000000000E+00 -0.00000000000E+00 -0.11987319801E+04  0.11987319801E+04  0.00000000000E+00 0.  1.
         24    2    1    2    0    0 -0.24037832462E+03  0.26916356920E+03  0.45139163309E+03  0.58633931591E+03  0.99038482581E+02 0.  0.
        254    2    1    2    0    0  0.24037832462E+03 -0.26916356920E+03 -0.92950757218E+03  0.13330087053E+04  0.88470171000E+03 0.  0.
         23    2    4    4    0    0  0.44007708212E+03 -0.12268713284E+03 -0.96040675249E+03  0.10676353837E+04  0.93510489173E+02 0.  0.
         23    2    4    4    0    0 -0.19969875750E+03 -0.14647643637E+03  0.30899180306E+02  0.26537332156E+03  0.90184811877E+02 0.  0.
          4    1    3    3  502    0 -0.54377020519E+02  0.13274758327E+03  0.17975078528E+03  0.22997635973E+03  0.00000000000E+00 0. -1.
         -3    1    3    3    0  502 -0.18600130410E+03  0.13641598594E+03  0.27164084781E+03  0.35636295619E+03  0.00000000000E+00 0.  1.
         13    1    5    5    0    0  0.42613507838E+03 -0.13235531309E+03 -0.94343697137E+03  0.10436389955E+04  0.00000000000E+00 0. -1.
        -13    1    5    5    0    0  0.13942003740E+02  0.96681802567E+01 -0.16969781114E+02  0.23996388245E+02  0.00000000000E+00 0.  1.
          4    1    6    6  503    0 -0.14354773861E+03 -0.51778749854E+02  0.28588205825E+02  0.15525552392E+03  0.00000000000E+00 0. -1.
         -4    1    6    6    0  503 -0.56151018896E+02 -0.94697686512E+02  0.23109744807E+01  0.11011779764E+03  0.00000000000E+00 0.  1.
<mgrwt>
<rscale>  0 0.18588443E+04</rscale>
<asrwt>0</asrwt>
<pdfrwt beam="1">  1        2 0.11086401E+00 0.18588443E+04</pdfrwt>
<pdfrwt beam="2">  1       -1 0.18442030E+00 0.18588443E+04</pdfrwt>
<totfact> 0.81955206E+00</totfact>
</mgrwt>
</event>
<event>
12    7  0.1707730E-007  0.2535000E+04  0.7818608E-02  0.8390622E-01
         -1   -1    0    0    0  501 -0.00000000000E+00  0.00000000000E+00  0.18075870815E+04  0.18075870815E+04  0.00000000000E+00 0.  1.
          2   -1    0    0  501    0  0.00000000000E+00 -0.00000000000E+00 -0.88878486808E+03  0.88878486808E+03  0.00000000000E+00 0. -1.
         24    2    1    2    0    0 -0.92702808002E+02 -0.10506243337E+04  0.75973601085E+03  0.13022942585E+04  0.79788649310E+02 0.  0.
        254    2    1    2    0    0  0.92702808002E+02  0.10506243337E+04  0.15906620259E+03  0.13940776911E+04  0.89763313823E+03 0.  0.
         23    2    4    4    0    0  0.43453405511E+03  0.24931768545E+03  0.55967565586E+02  0.51234046903E+03  0.91549082354E+02 0.  0.
         23    2    4    4    0    0 -0.34183124711E+03  0.80130664820E+03  0.10309863700E+03  0.88173722203E+03  0.88827100687E+02 0.  0.
          2    1    3    3  502    0 -0.16215917817E+02 -0.15256119567E+03  0.77460515525E+02  0.17186624416E+03  0.00000000000E+00 0. -1.
         -1    1    3    3    0  502 -0.76486890185E+02 -0.89806313798E+03  0.68227549532E+03  0.11304280144E+04  0.00000000000E+00 0.  1.
         13    1    5    5    0    0  0.40428723187E+03  0.24755463961E+03  0.34707418948E+02  0.47532732971E+03  0.00000000000E+00 0. -1.
        -13    1    5    5    0    0  0.30246823244E+02  0.17630458388E+01  0.21260146638E+02  0.37013139316E+02  0.00000000000E+00 0.  1.
          3    1    6    6  503    0 -0.32859439370E+03  0.78515446796E+03  0.87411216598E+02  0.85561821797E+03  0.00000000000E+00 0. -1.
         -3    1    6    6    0  503 -0.13236853403E+02  0.16152180245E+02  0.15687420401E+02  0.26119004068E+02  0.00000000000E+00 0.  1.
<mgrwt>
<rscale>  0 0.25349998E+04</rscale>
<asrwt>0</asrwt>
<pdfrwt beam="1">  1        2 0.13673613E+00 0.25349998E+04</pdfrwt>
<pdfrwt beam="2">  1       -1 0.27809032E+00 0.25349998E+04</pdfrwt>
<totfact> 0.13857450E+00</totfact>
</mgrwt>
</event>
<event>
12    7  0.1707730E-007  0.1825970E+04  0.7818608E-02  0.8692610E-01
         -1   -1    0    0    0  501 -0.00000000000E+00  0.00000000000E+00  0.13699058327E+04  0.13699058327E+04  0.00000000000E+00 0.  1.
          2   -1    0    0  501    0  0.00000000000E+00 -0.00000000000E+00 -0.60846626043E+03  0.60846626043E+03  0.00000000000E+00 0. -1.
         24    2    1    2    0    0 -0.45050103381E+03  0.49403400247E+03  0.11228290979E+03  0.68230452105E+03  0.76884527374E+02 0.  0.
        254    2    1    2    0    0  0.45050103381E+03 -0.49403400247E+03  0.64915666252E+03  0.12960675721E+04  0.90075857029E+03 0.  0.
         23    2    4    4    0    0 -0.58948461550E+01 -0.44205938976E+03 -0.48690015076E+02  0.45597132782E+03  0.10043844355E+03 0.  0.
         23    2    4    4    0    0  0.45639587996E+03 -0.51974612713E+02  0.69784667760E+03  0.84009624430E+03  0.88165495731E+02 0.  0.
          2    1    3    3  502    0 -0.37384880693E+03  0.37360738175E+03  0.10820690059E+03  0.53949433684E+03  0.00000000000E+00 0. -1.
         -1    1    3    3    0  502 -0.76652226876E+02  0.12042662072E+03  0.40760092043E+01  0.14281018421E+03  0.00000000000E+00 0.  1.
         13    1    5    5    0    0 -0.67326678841E+01 -0.10180007624E+03  0.30759333153E+02  0.10655853281E+03  0.00000000000E+00 0.  1.
        -13    1    5    5    0    0  0.83782172912E+00 -0.34025931352E+03 -0.79449348229E+02  0.34941279501E+03  0.00000000000E+00 0. -1.
          1    1    6    6  503    0  0.44579590259E+03 -0.43813440953E+02  0.69429319204E+03  0.82625458600E+03  0.00000000000E+00 0. -1.
         -1    1    6    6    0  503  0.10599977377E+02 -0.81611717605E+01  0.35534855574E+01  0.13841658300E+02  0.00000000000E+00 0.  1.
<mgrwt>
<rscale>  0 0.18259699E+04</rscale>
<asrwt>0</asrwt>
<pdfrwt beam="1">  1        2 0.93610194E-01 0.18259699E+04</pdfrwt>
<pdfrwt beam="2">  1       -1 0.21075474E+00 0.18259699E+04</pdfrwt>
<totfact> 0.66650279E+00</totfact>
</mgrwt>
</event>
<event>
12    7  0.1707730E-007  0.1225528E+04  0.7818608E-02  0.9090801E-01
          2   -1    0    0  501    0  0.00000000000E+00  0.00000000000E+00  0.19713396636E+04  0.19713396636E+04  0.00000000000E+00 0. -1.
         -1   -1    0    0    0  501 -0.00000000000E+00 -0.00000000000E+00 -0.19046919670E+03  0.19046919670E+03  0.00000000000E+00 0.  1.
         24    2    1    2    0    0  0.20004120629E+03  0.72221992239E+02  0.69029013910E+03  0.72676448660E+03  0.80334565815E+02 0.  0.
        254    2    1    2    0    0 -0.20004120629E+03 -0.72221992239E+02  0.10905803278E+04  0.14350443737E+04  0.90815989931E+03 0.  0.
         23    2    4    4    0    0  0.31433979281E+03 -0.20317455951E+03  0.35972374316E+03  0.52712641077E+03  0.91496855459E+02 0.  0.
         23    2    4    4    0    0 -0.51438099910E+03  0.13095256727E+03  0.73085658466E+03  0.90791796295E+03  0.91800288579E+02 0.  0.
          4    1    3    3  502    0  0.20318280190E+03  0.58720850167E+02  0.66625322437E+03  0.69901698707E+03  0.00000000000E+00 0. -1.
         -3    1    3    3    0  502 -0.31415956106E+01  0.13501142072E+02  0.24036914736E+02  0.27747499531E+02  0.00000000000E+00 0.  1.
         13    1    5    5    0    0  0.12734506317E+03 -0.12718022243E+03  0.13444394155E+03  0.22464805255E+03  0.00000000000E+00 0. -1.
        -13    1    5    5    0    0  0.18699472964E+03 -0.75994337080E+02  0.22527980160E+03  0.30247835822E+03  0.00000000000E+00 0.  1.
          1    1    6    6  503    0 -0.14609538219E+03  0.67582719812E+02  0.27292364091E+03  0.31685737877E+03  0.00000000000E+00 0. -1.
         -1    1    6    6    0  503 -0.36828561691E+03  0.63369847461E+02  0.45793294375E+03  0.59106058417E+03  0.00000000000E+00 0.  1.
<mgrwt>
<rscale>  0 0.12255276E+04</rscale>
<asrwt>0</asrwt>
<pdfrwt beam="1">  1        2 0.30328301E+00 0.12255276E+04</pdfrwt>
<pdfrwt beam="2">  1       -1 0.29302955E-01 0.12255276E+04</pdfrwt>
<totfact> 0.82794181E+01</totfact>
</mgrwt>
</event>
<event>
12    7  0.1707730E-007  0.1819532E+04  0.7818608E-02  0.8695981E-01
         -1   -1    0    0    0  501 -0.00000000000E+00  0.00000000000E+00  0.61948729149E+03  0.61948729149E+03  0.00000000000E+00 0.  1.
          2   -1    0    0  501    0  0.00000000000E+00 -0.00000000000E+00 -0.13360633792E+04  0.13360633792E+04  0.00000000000E+00 0. -1.
         24    2    1    2    0    0  0.37890563129E+03  0.28772879694E+03  0.25409287055E+03  0.54544046509E+03  0.81146633194E+02 0.  0.
        254    2    1    2    0    0 -0.37890563129E+03 -0.28772879694E+03 -0.97066895823E+03  0.14101102056E+04  0.90545857296E+03 0.  0.
         23    2    4    4    0    0 -0.33547092310E+03  0.27539317217E+03 -0.34273646596E+03  0.56060142936E+03  0.91779834278E+02 0.  0.
         23    2    4    4    0    0 -0.43434708191E+02 -0.56312196912E+03 -0.62793249227E+03  0.84950877620E+03  0.91504207621E+02 0.  0.
          2    1    3    3  502    0  0.21287092941E+03  0.14617747581E+03  0.18097245216E+03  0.31532985184E+03  0.00000000000E+00 0. -1.
         -1    1    3    3    0  502  0.16603470187E+03  0.14155132114E+03  0.73120418389E+02  0.23011061325E+03  0.00000000000E+00 0.  1.
         13    1    5    5    0    0 -0.15830523852E+03  0.18728055855E+03 -0.17593090162E+03  0.30180496732E+03  0.00000000000E+00 0. -1.
        -13    1    5    5    0    0 -0.17716568458E+03  0.88112613625E+02 -0.16680556433E+03  0.25879646204E+03  0.00000000000E+00 0.  1.
          3    1    6    6  503    0 -0.43050352618E+02 -0.52120573363E+03 -0.53807835081E+03  0.75035795540E+03  0.00000000000E+00 0. -1.
         -3    1    6    6    0  503 -0.38435557260E+00 -0.41916235490E+02 -0.89854141462E+02  0.99150820798E+02  0.00000000000E+00 0.  1.
<mgrwt>
<rscale>  0 0.18195321E+04</rscale>
<asrwt>0</asrwt>
<pdfrwt beam="1">  1        2 0.20554821E+00 0.18195321E+04</pdfrwt>
<pdfrwt beam="2">  1       -1 0.95305737E-01 0.18195321E+04</pdfrwt>
<totfact> 0.17992357E+01</totfact>
</mgrwt>
</event>
<event>
12    7  0.1707730E-007  0.2146136E+04  0.7818608E-02  0.8541188E-01
         -1   -1    0    0    0  501 -0.00000000000E+00  0.00000000000E+00  0.10844743007E+04  0.10844743007E+04  0.00000000000E+00 0.  1.
          2   -1    0    0  501    0  0.00000000000E+00 -0.00000000000E+00 -0.10617821203E+04  0.10617821203E+04  0.00000000000E+00 0. -1.
         24    2    1    2    0    0 -0.10653066230E+02  0.88222789808E+03  0.55637818693E+02  0.88771093712E+03  0.80595217173E+02 0.  0.
        254    2    1    2    0    0  0.10653066230E+02 -0.88222789808E+03 -0.32945638248E+02  0.12585454839E+04  0.89689005345E+03 0.  0.
         23    2    4    4    0    0  0.13142376559E+02  0.15122991062E+03  0.11314616796E+03  0.21084182818E+03  0.92784768473E+02 0.  0.
         23    2    4    4    0    0 -0.24893103287E+01 -0.10334578087E+04 -0.14609180621E+03  0.10477036557E+04  0.91098272908E+02 0.  0.
          2    1    3    3  502    0 -0.48116481216E+01  0.87940818325E+03  0.54359465539E+02  0.88109979924E+03  0.00000000000E+00 0. -1.
         -1    1    3    3    0  502 -0.58414181085E+01  0.28197148339E+01  0.12783531544E+01  0.66111378787E+01  0.00000000000E+00 0.  1.
         13    1    5    5    0    0 -0.24831176950E+02  0.13373386921E+03  0.83822046576E+02  0.15977318491E+03  0.00000000000E+00 0. -1.
        -13    1    5    5    0    0  0.37973553509E+02  0.17496041402E+02  0.29324121383E+02  0.51068643273E+02  0.00000000000E+00 0.  1.
          3    1    6    6  503    0  0.42332810710E+02 -0.64869050250E+03 -0.87778750179E+02  0.65596992605E+03  0.00000000000E+00 0. -1.
         -3    1    6    6    0  503 -0.44822121039E+02 -0.38476730620E+03 -0.58313056028E+02  0.39173372967E+03  0.00000000000E+00 0.  1.
<mgrwt>
<rscale>  0 0.21461365E+04</rscale>
<asrwt>0</asrwt>
<pdfrwt beam="1">  1        2 0.16335110E+00 0.21461365E+04</pdfrwt>
<pdfrwt beam="2">  1       -1 0.16684220E+00 0.21461365E+04</pdfrwt>
<totfact> 0.62561303E+00</totfact>
</mgrwt>
</event>
<event>
12    7  0.1707730E-007  0.1886749E+04  0.7818608E-02  0.8661481E-01
         -1   -1    0    0    0  501 -0.00000000000E+00  0.00000000000E+00  0.66505528023E+03  0.66505528023E+03  0.00000000000E+00 0.  1.
          2   -1    0    0  501    0  0.00000000000E+00 -0.00000000000E+00 -0.13381673032E+04  0.13381673032E+04  0.00000000000E+00 0. -1.
         24    2    1    2    0    0  0.11159748042E+03  0.68755891892E+02  0.48827115186E+03  0.51184788943E+03  0.79988585870E+02 0.  0.
        254    2    1    2    0    0 -0.11159748042E+03 -0.68755891892E+02 -0.11613831748E+04  0.14913746940E+04  0.92639420809E+03 0.  0.
         23    2    4    4    0    0  0.14769009808E+03 -0.39476641615E+03 -0.88172111260E+03  0.98160792335E+03  0.92027747875E+02 0.  0.
         23    2    4    4    0    0 -0.25928757849E+03  0.32601052426E+03 -0.27966206222E+03  0.50976677064E+03  0.90212976412E+02 0.  0.
          4    1    3    3  502    0 -0.20904152906E+01  0.34860105752E+02  0.11063119550E+03  0.11601231929E+03  0.00000000000E+00 0. -1.
         -3    1    3    3    0  502  0.11368789571E+03  0.33895786140E+02  0.37763995636E+03  0.39583557014E+03  0.00000000000E+00 0.  1.
         13    1    5    5    0    0  0.95062513317E+02 -0.34129157727E+03 -0.68790591614E+03  0.77377733981E+03  0.00000000000E+00 0. -1.
        -13    1    5    5    0    0  0.52627584759E+02 -0.53474838882E+02 -0.19381519647E+03  0.20783058354E+03  0.00000000000E+00 0.  1.
          4    1    6    6  503    0 -0.17380509381E+03  0.14932448354E+03 -0.13517284133E+03  0.26604080336E+03  0.00000000000E+00 0. -1.
         -4    1    6    6    0  503 -0.85482484682E+02  0.17668604072E+03 -0.14448922089E+03  0.24372596727E+03  0.00000000000E+00 0.  1.
<mgrwt>
<rscale>  0 0.18867488E+04</rscale>
<asrwt>0</asrwt>
<pdfrwt beam="1">  1        2 0.20587189E+00 0.18867488E+04</pdfrwt>
<pdfrwt beam="2">  1       -1 0.10231620E+00 0.18867488E+04</pdfrwt>
<totfact> 0.15177979E+01</totfact>
</mgrwt>
</event>
<event>
12    7  0.1707730E-007  0.2158035E+04  0.7818608E-02  0.8536101E-01
          2   -1    0    0  501    0  0.00000000000E+00  0.00000000000E+00  0.63001072367E+03  0.63001072367E+03  0.00000000000E+00 0. -1.
         -1   -1    0    0    0  501 -0.00000000000E+00 -0.00000000000E+00 -0.18480307763E+04  0.18480307763E+04  0.00000000000E+00 0.  1.
         24    2    1    2    0    0 -0.22256959533E+03 -0.12627748262E+03 -0.14952046621E+04  0.15190426461E+04  0.79814482206E+02 0.  0.
        254    2    1    2    0    0  0.22256959533E+03  0.12627748262E+03  0.27718460951E+03  0.95899885387E+03  0.88168263371E+03 0.  0.
         23    2    4    4    0    0 -0.65283389148E+02  0.27142712430E+03 -0.21511657243E+03  0.36329725533E+03  0.88176818347E+02 0.  0.
         23    2    4    4    0    0  0.28785298447E+03 -0.14514964168E+03  0.49230118195E+03  0.59570159854E+03  0.92586076737E+02 0.  0.
          2    1    3    3  502    0  0.31954570386E+01  0.39800228661E+01 -0.11017190580E+02  0.12142076263E+02  0.00000000000E+00 0. -1.
         -1    1    3    3    0  502 -0.22576505237E+03 -0.13025750548E+03 -0.14841874715E+04  0.15069005698E+04  0.00000000000E+00 0.  1.
         13    1    5    5    0    0 -0.77941890258E+02  0.26867553820E+03 -0.20410105578E+03  0.34629282992E+03  0.00000000000E+00 0.  1.
        -13    1    5    5    0    0  0.12658501110E+02  0.27515860955E+01 -0.11015516654E+02  0.17004425411E+02  0.00000000000E+00 0. -1.
          2    1    6    6  503    0  0.26131499094E+01  0.82382908408E+01  0.34596405782E+01  0.93095167091E+01  0.00000000000E+00 0. -1.
         -2    1    6    6    0  503  0.28523983457E+03 -0.15338793252E+03  0.48884154137E+03  0.58639208183E+03  0.00000000000E+00 0.  1.
<mgrwt>
<rscale>  0 0.21580354E+04</rscale>
<asrwt>0</asrwt>
<pdfrwt beam="1">  1        2 0.96924729E-01 0.21580354E+04</pdfrwt>
<pdfrwt beam="2">  1       -1 0.28431242E+00 0.21580354E+04</pdfrwt>
<totfact> 0.20424658E+00</totfact>
</mgrwt>
</event>
<event>
12    7  0.1707730E-007  0.2777776E+04  0.7818608E-02  0.8310201E-01
          2   -1    0    0  501    0  0.00000000000E+00  0.00000000000E+00  0.33972159743E+04  0.33972159743E+04  0.00000000000E+00 0. -1.
         -1   -1    0    0    0  501 -0.00000000000E+00 -0.00000000000E+00 -0.56782066825E+03  0.56782066825E+03  0.00000000000E+00 0.  1.
         24    2    1    2    0    0 -0.59177377070E+03  0.40217860292E+03  0.27097238735E+04  0.28036860740E+04  0.78155655333E+02 0.  0.
        254    2    1    2    0    0  0.59177377070E+03 -0.40217860292E+03  0.11967143261E+03  0.11613505686E+04  0.90690135468E+03 0.  0.
         23    2    4    4    0    0  0.71999004167E+03 -0.48268903492E+02 -0.69619833822E+02  0.73066632920E+03  0.91163678126E+02 0.  0.
         23    2    4    4    0    0 -0.12821627097E+03 -0.35390969943E+03  0.18929126643E+03  0.43068423943E+03  0.89253812545E+02 0.  0.
          4    1    3    3  502    0 -0.54416094277E+03  0.39281015897E+03  0.25387343384E+04  0.26259442099E+04  0.00000000000E+00 0. -1.
         -3    1    3    3    0  502 -0.47612827931E+02  0.93684439480E+01  0.17098953507E+03  0.17774186403E+03  0.00000000000E+00 0.  1.
         13    1    5    5    0    0  0.61561986700E+03 -0.27722509434E+02 -0.29404389899E+02  0.61694487300E+03  0.00000000000E+00 0.  1.
        -13    1    5    5    0    0  0.10437017467E+03 -0.20546394058E+02 -0.40215443922E+02  0.11372145620E+03  0.00000000000E+00 0. -1.
          1    1    6    6  503    0  0.76734475435E+01 -0.80323618265E+01 -0.39994682263E+01  0.11806624404E+02  0.00000000000E+00 0. -1.
         -1    1    6    6    0  503 -0.13588971851E+03 -0.34587733760E+03  0.19329073466E+03  0.41887761502E+03  0.00000000000E+00 0.  1.
<mgrwt>
<rscale>  0 0.27777757E+04</rscale>
<asrwt>0</asrwt>
<pdfrwt beam="1">  1        2 0.52264860E+00 0.27777757E+04</pdfrwt>
<pdfrwt beam="2">  1       -1 0.87357028E-01 0.27777757E+04</pdfrwt>
<totfact> 0.12234808E+00</totfact>
</mgrwt>
</event>
<event>
12    7  0.1707730E-007  0.2300659E+04  0.7818608E-02  0.8477661E-01
          2   -1    0    0  501    0  0.00000000000E+00  0.00000000000E+00  0.30631274366E+04  0.30631274366E+04  0.00000000000E+00 0. -1.
         -1   -1    0    0    0  501 -0.00000000000E+00 -0.00000000000E+00 -0.43199565325E+03  0.43199565325E+03  0.00000000000E+00 0.  1.
         24    2    1    2    0    0  0.47788868320E+03  0.53028820870E+03  0.21116086640E+04  0.22305729786E+04  0.83555281653E+02 0.  0.
        254    2    1    2    0    0 -0.47788868320E+03 -0.53028820870E+03  0.51952311939E+03  0.12645501113E+04  0.90531736678E+03 0.  0.
         23    2    4    4    0    0 -0.58200225982E+03 -0.35999698575E+02  0.95893113786E+02  0.59792157646E+03  0.91061043235E+02 0.  0.
         23    2    4    4    0    0  0.10411357662E+03 -0.49428851012E+03  0.42363000560E+03  0.66662853484E+03  0.98845605556E+02 0.  0.
          2    1    3    3  502    0  0.36779278114E+03  0.43018875625E+03  0.17603065211E+04  0.18490573123E+04  0.00000000000E+00 0. -1.
         -3    1    3    3    0  502  0.11009590206E+03  0.10009945244E+03  0.35130214291E+03  0.38151566631E+03  0.00000000000E+00 0.  1.
         13    1    5    5    0    0 -0.30105406742E+03 -0.62836480369E+02  0.61174872627E+02  0.31356712171E+03  0.00000000000E+00 0.  1.
        -13    1    5    5    0    0 -0.28094819239E+03  0.26836781794E+02  0.34718241159E+02  0.28435445475E+03  0.00000000000E+00 0. -1.
          1    1    6    6  503    0  0.49452810709E+02 -0.39249319378E+03  0.29335490013E+03  0.49249729449E+03  0.00000000000E+00 0. -1.
         -1    1    6    6    0  503  0.54660765910E+02 -0.10179531634E+03  0.13027510547E+03  0.17413124035E+03  0.00000000000E+00 0.  1.
<mgrwt>
<rscale>  0 0.23006588E+04</rscale>
<asrwt>0</asrwt>
<pdfrwt beam="1">  1        2 0.47125036E+00 0.23006588E+04</pdfrwt>
<pdfrwt beam="2">  1       -1 0.66460871E-01 0.23006588E+04</pdfrwt>
<totfact> 0.37621700E+00</totfact>
</mgrwt>
</event>
<event>
12    7  0.1707730E-007  0.1575200E+04  0.7818608E-02  0.8835930E-01
          2   -1    0    0  501    0  0.00000000000E+00  0.00000000000E+00  0.20790455346E+04  0.20790455346E+04  0.00000000000E+00 0. -1.
         -1   -1    0    0    0  501 -0.00000000000E+00 -0.00000000000E+00 -0.29836482348E+03  0.29836482348E+03  0.00000000000E+00 0.  1.
         24    2    1    2    0    0 -0.43995978091E+03  0.25594341245E+03  0.38536021356E+03  0.64344586306E+03  0.80302212322E+02 0.  0.
        254    2    1    2    0    0  0.43995978091E+03 -0.25594341245E+03  0.13953204976E+04  0.17339644951E+04  0.89478597436E+03 0.  0.
         23    2    4    4    0    0 -0.22088092804E+03 -0.17154835725E+03  0.73436955395E+03  0.79098634647E+03  0.90241538578E+02 0.  0.
         23    2    4    4    0    0  0.66084070895E+03 -0.84395055199E+02  0.66095094364E+03  0.94297814858E+03  0.92296645980E+02 0.  0.
          2    1    3    3  502    0 -0.12163529258E+03  0.59968641019E+02  0.61728445366E+02  0.14900262841E+03  0.00000000000E+00 0. -1.
         -1    1    3    3    0  502 -0.31832448833E+03  0.19597477143E+03  0.32363176820E+03  0.49444323465E+03  0.00000000000E+00 0.  1.
         13    1    5    5    0    0  0.64726164009E+01 -0.92561463856E+01  0.59985768925E+02  0.61039851593E+02  0.00000000000E+00 0.  1.
        -13    1    5    5    0    0 -0.22735354444E+03 -0.16229221086E+03  0.67438378503E+03  0.72994649488E+03  0.00000000000E+00 0. -1.
          3    1    6    6  503    0  0.62440623387E+03 -0.80183222583E+02  0.64957497053E+03  0.90457732473E+03  0.00000000000E+00 0. -1.
         -3    1    6    6    0  503  0.36434475076E+02 -0.42118326157E+01  0.11375973109E+02  0.38400823849E+02  0.00000000000E+00 0.  1.
<mgrwt>
<rscale>  0 0.15752004E+04</rscale>
<asrwt>0</asrwt>
<pdfrwt beam="1">  1        2 0.31985315E+00 0.15752004E+04</pdfrwt>
<pdfrwt beam="2">  1       -1 0.45902282E-01 0.15752004E+04</pdfrwt>
<totfact> 0.31183475E+01</totfact>
</mgrwt>
</event>
<event>
12    7  0.1707730E-007  0.1175646E+04  0.7818608E-02  0.9134445E-01
          2   -1    0    0  501    0  0.00000000000E+00  0.00000000000E+00  0.99386904735E+03  0.99386904735E+03  0.00000000000E+00 0. -1.
         -1   -1    0    0    0  501 -0.00000000000E+00 -0.00000000000E+00 -0.34766723408E+03  0.34766723408E+03  0.00000000000E+00 0.  1.
         24    2    1    2    0    0  0.89030656665E+02  0.45500021809E+02 -0.10149431282E+03  0.16348194147E+03  0.80178175587E+02 0.  0.
        254    2    1    2    0    0 -0.89030656665E+02 -0.45500021809E+02  0.74769612609E+03  0.11780543400E+04  0.90485679593E+03 0.  0.
         23    2    4    4    0    0  0.75241078410E+02 -0.44822382197E+03  0.42359783352E+03  0.62819368657E+03  0.92878247336E+02 0.  0.
         23    2    4    4    0    0 -0.16427173507E+03  0.40272380016E+03  0.32409829256E+03  0.54986065339E+03  0.90196301180E+02 0.  0.
          4    1    3    3  502    0  0.52767317243E+02 -0.13470842783E+02 -0.23839428827E+02  0.59448900251E+02  0.00000000000E+00 0. -1.
         -3    1    3    3    0  502  0.36263339422E+02  0.58970864592E+02 -0.77654883992E+02  0.10403304122E+03  0.00000000000E+00 0.  1.
         13    1    5    5    0    0  0.57472029700E+02 -0.29423208980E+03  0.33536598781E+03  0.44982874814E+03  0.00000000000E+00 0. -1.
        -13    1    5    5    0    0  0.17769048709E+02 -0.15399173216E+03  0.88231845709E+02  0.17836493844E+03  0.00000000000E+00 0.  1.
          4    1    6    6  503    0 -0.65826468377E+00  0.43932763503E+02  0.63415236030E+02  0.77149291521E+02  0.00000000000E+00 0. -1.
         -4    1    6    6    0  503 -0.16361347039E+03  0.35879103665E+03  0.26068305653E+03  0.47271136187E+03  0.00000000000E+00 0.  1.
<mgrwt>
<rscale>  0 0.11756457E+04</rscale>
<asrwt>0</asrwt>
<pdfrwt beam="1">  1        2 0.15290293E+00 0.11756457E+04</pdfrwt>
<pdfrwt beam="2">  1       -1 0.53487267E-01 0.11756457E+04</pdfrwt>
<totfact> 0.10103597E+02</totfact>
</mgrwt>
</event>
<event>
12    7  0.1707730E-007  0.1281182E+04  0.7818608E-02  0.9044623E-01
         -1   -1    0    0    0  501 -0.00000000000E+00  0.00000000000E+00  0.14056435978E+03  0.14056435978E+03  0.00000000000E+00 0.  1.
          2   -1    0    0  501    0  0.00000000000E+00 -0.00000000000E+00 -0.29193506628E+04  0.29193506628E+04  0.00000000000E+00 0. -1.
         24    2    1    2    0    0  0.30829738359E+02 -0.50425775347E+02 -0.13845979174E+04  0.13882261275E+04  0.81037995204E+02 0.  0.
        254    2    1    2    0    0 -0.30829738359E+02  0.50425775347E+02 -0.13941883857E+04  0.16716888951E+04  0.92048317514E+03 0.  0.
         23    2    4    4    0    0  0.17152081450E+03 -0.34281479293E+03 -0.99139765437E+03  0.10667702249E+04  0.90487743150E+02 0.  0.
         23    2    4    4    0    0 -0.20235055286E+03  0.39324056828E+03 -0.40279073130E+03  0.60491867017E+03  0.90012963072E+02 0.  0.
          4    1    3    3  502    0 -0.27808843448E+02 -0.18339586168E+02 -0.42584204883E+03  0.42714297694E+03  0.00000000000E+00 0. -1.
         -3    1    3    3    0  502  0.58638581807E+02 -0.32086189179E+02 -0.95875586853E+03  0.96108315054E+03  0.00000000000E+00 0.  1.
         13    1    5    5    0    0  0.52218057241E+02 -0.32972420882E+02 -0.16396415159E+03  0.17520887263E+03  0.00000000000E+00 0. -1.
        -13    1    5    5    0    0  0.11930275726E+03 -0.30984237205E+03 -0.82743350278E+03  0.89156135231E+03  0.00000000000E+00 0.  1.
          2    1    6    6  503    0 -0.15016843045E+03  0.20544429502E+03 -0.25555236567E+03  0.36064515450E+03  0.00000000000E+00 0.  1.
         -2    1    6    6    0  503 -0.52182122402E+02  0.18779627326E+03 -0.14723836563E+03  0.24427351568E+03  0.00000000000E+00 0. -1.
<mgrwt>
<rscale>  0 0.12811817E+04</rscale>
<asrwt>0</asrwt>
<pdfrwt beam="1">  1        2 0.44913081E+00 0.12811817E+04</pdfrwt>
<pdfrwt beam="2">  1       -1 0.21625289E-01 0.12811817E+04</pdfrwt>
<totfact> 0.39599487E+01</totfact>
</mgrwt>
</event>
<event>
12    7  0.1707730E-007  0.1141587E+04  0.7818608E-02  0.9165580E-01
         -1   -1    0    0    0  501 -0.00000000000E+00  0.00000000000E+00  0.20677352278E+03  0.20677352278E+03  0.00000000000E+00 0.  1.
          2   -1    0    0  501    0  0.00000000000E+00 -0.00000000000E+00 -0.15756632197E+04  0.15756632197E+04  0.00000000000E+00 0. -1.
         24    2    1    2    0    0  0.17833566385E+03  0.64451420242E+02 -0.36394338048E+03  0.41813756203E+03  0.80166339658E+02 0.  0.
        254    2    1    2    0    0 -0.17833566385E+03 -0.64451420242E+02 -0.10049463164E+04  0.13642991805E+04  0.90301581396E+03 0.  0.
         23    2    4    4    0    0 -0.28781092964E+03 -0.37862696895E+03 -0.27528079012E+03  0.55721726828E+03  0.92293324925E+02 0.  0.
         23    2    4    4    0    0  0.10947526578E+03  0.31417554871E+03 -0.72966552633E+03  0.80708191217E+03  0.90985292347E+02 0.  0.
          4    1    3    3  502    0  0.14230222159E+03  0.71919993180E+02 -0.23454646145E+03  0.28360967943E+03  0.00000000000E+00 0. -1.
         -1    1    3    3    0  502  0.36033442268E+02 -0.74685729370E+01 -0.12939691903E+03  0.13452788260E+03  0.00000000000E+00 0.  1.
         13    1    5    5    0    0 -0.97072040888E+02 -0.63397120020E+02 -0.61442495431E+02  0.13121492367E+03  0.00000000000E+00 0. -1.
        -13    1    5    5    0    0 -0.19073888875E+03 -0.31522984893E+03 -0.21383829469E+03  0.42600234461E+03  0.00000000000E+00 0.  1.
          2    1    6    6  503    0  0.31813233760E+02  0.28289576633E+02 -0.50060434904E+02  0.65714755809E+02  0.00000000000E+00 0. -1.
         -2    1    6    6    0  503  0.77662032023E+02  0.28588597207E+03 -0.67960509142E+03  0.74136715636E+03  0.00000000000E+00 0.  1.
<mgrwt>
<rscale>  0 0.11415874E+04</rscale>
<asrwt>0</asrwt>
<pdfrwt beam="1">  1        2 0.24240973E+00 0.11415874E+04</pdfrwt>
<pdfrwt beam="2">  1       -1 0.31811310E-01 0.11415874E+04</pdfrwt>
<totfact> 0.11941972E+02</totfact>
</mgrwt>
</event>
<event>
12    7  0.1707730E-007  0.1503433E+04  0.7818608E-02  0.8882173E-01
         -1   -1    0    0    0  501 -0.00000000000E+00  0.00000000000E+00  0.10904582388E+03  0.10904582388E+03  0.00000000000E+00 0.  1.
          2   -1    0    0  501    0  0.00000000000E+00 -0.00000000000E+00 -0.51820239075E+04  0.51820239075E+04  0.00000000000E+00 0. -1.
         24    2    1    2    0    0 -0.22130480876E+02 -0.63560550667E+02  0.35421561898E+02  0.10595066860E+03  0.73764187409E+02 0.  0.
        254    2    1    2    0    0  0.22130480876E+02  0.63560550667E+02 -0.51083996455E+04  0.51851190628E+04  0.88610555527E+03 0.  0.
         23    2    4    4    0    0  0.19903549839E+03 -0.31460460041E+03 -0.34948447431E+04  0.35159009275E+04  0.95017732742E+02 0.  0.
         23    2    4    4    0    0 -0.17690501752E+03  0.37816515108E+03 -0.16135549024E+04  0.16692181353E+04  0.91790485655E+02 0.  0.
          2    1    3    3  502    0 -0.16365740039E+02 -0.75773644344E+02  0.44775144079E+02  0.89522601344E+02  0.00000000000E+00 0. -1.
         -1    1    3    3    0  502 -0.57647408365E+01  0.12213093677E+02 -0.93535821806E+01  0.16428067253E+02  0.00000000000E+00 0.  1.
         13    1    5    5    0    0  0.20852364999E+02  0.18606332032E+01 -0.20931707030E+03  0.21036140093E+03  0.00000000000E+00 0.  1.
        -13    1    5    5    0    0  0.17818313339E+03 -0.31646523361E+03 -0.32855276728E+04  0.33055395266E+04  0.00000000000E+00 0. -1.
          1    1    6    6  503    0 -0.12278376050E+03  0.33914555045E+03 -0.13717314681E+04  0.14183591847E+04  0.00000000000E+00 0. -1.
         -1    1    6    6    0  503 -0.54121257018E+02  0.39019600630E+02 -0.24182343438E+03  0.25085895063E+03  0.00000000000E+00 0.  1.
<mgrwt>
<rscale>  0 0.15034335E+04</rscale>
<asrwt>0</asrwt>
<pdfrwt beam="1">  1        2 0.79723439E+00 0.15034335E+04</pdfrwt>
<pdfrwt beam="2">  1       -1 0.16776282E-01 0.15034335E+04</pdfrwt>
<totfact> 0.62536821E-01</totfact>
</mgrwt>
</event>
<event>
12    7  0.1707730E-007  0.1530689E+04  0.7818608E-02  0.8864298E-01
          2   -1    0    0  501    0  0.00000000000E+00  0.00000000000E+00  0.18381280560E+04  0.18381280560E+04  0.00000000000E+00 0. -1.
         -1   -1    0    0    0  501 -0.00000000000E+00 -0.00000000000E+00 -0.31866775088E+03  0.31866775088E+03  0.00000000000E+00 0.  1.
         24    2    1    2    0    0 -0.34697168059E+03  0.22367805540E+03  0.69824128576E+03  0.81536147394E+03  0.82778139859E+02 0.  0.
        254    2    1    2    0    0  0.34697168059E+03 -0.22367805540E+03  0.82121901937E+03  0.13414343329E+04  0.97704870515E+03 0.  0.
         23    2    4    4    0    0 -0.79375928069E+02 -0.40806714945E+03  0.75020344176E+03  0.86263472543E+03  0.92272038454E+02 0.  0.
         23    2    4    4    0    0  0.42634760866E+03  0.18438909405E+03  0.71015577614E+02  0.47879960752E+03  0.91838066617E+02 0.  0.
          2    1    3    3  502    0 -0.97075514467E+02  0.85219620697E+02  0.28581768426E+03  0.31365233603E+03  0.00000000000E+00 0. -1.
         -1    1    3    3    0  502 -0.24989616612E+03  0.13845843470E+03  0.41242360150E+03  0.50170913790E+03  0.00000000000E+00 0.  1.
         13    1    5    5    0    0 -0.72025888715E+02 -0.39439580373E+03  0.66878099391E+03  0.77974598201E+03  0.00000000000E+00 0.  1.
        -13    1    5    5    0    0 -0.73500393541E+01 -0.13671345710E+02  0.81422447844E+02  0.82888743415E+02  0.00000000000E+00 0. -1.
          2    1    6    6  503    0  0.13455324477E+02  0.29339291161E+02  0.82115557110E+01  0.33305696357E+02  0.00000000000E+00 0. -1.
         -2    1    6    6    0  503  0.41289228418E+03  0.15504980289E+03  0.62804021903E+02  0.44549391116E+03  0.00000000000E+00 0.  1.
<mgrwt>
<rscale>  0 0.15306889E+04</rscale>
<asrwt>0</asrwt>
<pdfrwt beam="1">  1        2 0.28278893E+00 0.15306889E+04</pdfrwt>
<pdfrwt beam="2">  1       -1 0.49025809E-01 0.15306889E+04</pdfrwt>
<totfact> 0.37607674E+01</totfact>
</mgrwt>
</event>
<event>
12    7  0.1707730E-007  0.1924594E+04  0.7818608E-02  0.8642710E-01
          2   -1    0    0  501    0  0.00000000000E+00  0.00000000000E+00  0.11524152428E+04  0.11524152428E+04  0.00000000000E+00 0. -1.
         -1   -1    0    0    0  501 -0.00000000000E+00 -0.00000000000E+00 -0.80354329352E+03  0.80354329352E+03  0.00000000000E+00 0.  1.
         24    2    1    2    0    0 -0.32967308976E+03  0.60988588256E+03  0.41478515697E+03  0.81202498243E+03  0.81808983576E+02 0.  0.
        254    2    1    2    0    0  0.32967308976E+03 -0.60988588256E+03 -0.65913207704E+02  0.11439335539E+04  0.90752095783E+03 0.  0.
         23    2    4    4    0    0 -0.27329843882E+03 -0.23640036975E+03  0.14569641612E+03  0.39824116241E+03  0.82409989026E+02 0.  0.
         23    2    4    4    0    0  0.60297152858E+03 -0.37348551281E+03 -0.21160962382E+03  0.74569239148E+03  0.90622388259E+02 0.  0.
          2    1    3    3  502    0 -0.27503457606E+03  0.47604544913E+03  0.36134141865E+03  0.65789885887E+03  0.00000000000E+00 0. -1.
         -1    1    3    3    0  502 -0.54638513695E+02  0.13384043342E+03  0.53443738323E+02  0.15412612356E+03  0.00000000000E+00 0.  1.
         13    1    5    5    0    0 -0.34575293979E+02 -0.18853238831E+02  0.45284896074E+02  0.60013476658E+02  0.00000000000E+00 0.  1.
        -13    1    5    5    0    0 -0.23872314484E+03 -0.21754713092E+03  0.10041152004E+03  0.33822768575E+03  0.00000000000E+00 0. -1.
          3    1    6    6  503    0  0.44966903174E+03 -0.25732108807E+03 -0.19130469340E+03  0.55228060457E+03  0.00000000000E+00 0. -1.
         -3    1    6    6    0  503  0.15330249684E+03 -0.11616442474E+03 -0.20304930418E+02  0.19341178690E+03  0.00000000000E+00 0.  1.
<mgrwt>
<rscale>  0 0.19245940E+04</rscale>
<asrwt>0</asrwt>
<pdfrwt beam="1">  1        2 0.17729465E+00 0.19245940E+04</pdfrwt>
<pdfrwt beam="2">  1       -1 0.12362204E+00 0.19245940E+04</pdfrwt>
<totfact> 0.12408314E+01</totfact>
</mgrwt>
</event>
<event>
12    7  0.1707730E-007  0.1236006E+04  0.7818608E-02  0.9081911E-01
         -1   -1    0    0    0  501 -0.00000000000E+00  0.00000000000E+00  0.19335093276E+03  0.19335093276E+03  0.00000000000E+00 0.  1.
          2   -1    0    0  501    0  0.00000000000E+00 -0.00000000000E+00 -0.19753089399E+04  0.19753089399E+04  0.00000000000E+00 0. -1.
         24    2    1    2    0    0 -0.33103105703E+02  0.14900026056E+03 -0.87962131863E+01  0.17170566059E+03  0.78157323766E+02 0.  0.
        254    2    1    2    0    0  0.33103105703E+02 -0.14900026056E+03 -0.17731617940E+04  0.19969542121E+04  0.90577396978E+03 0.  0.
         23    2    4    4    0    0  0.70434661071E+02  0.43744141689E+02 -0.17764555103E+04  0.17806137293E+04  0.88974611084E+02 0.  0.
         23    2    4    4    0    0 -0.37331555367E+02 -0.19274440225E+03  0.32937163904E+01  0.21634048275E+03  0.90820186542E+02 0.  0.
          4    1    3    3  502    0  0.35054484430E+01  0.27807525598E+02  0.28250934268E+02  0.39795250165E+02  0.00000000000E+00 0. -1.
         -3    1    3    3    0  502 -0.36608554146E+02  0.12119273496E+03 -0.37047147454E+02  0.13191041043E+03  0.00000000000E+00 0.  1.
         13    1    5    5    0    0  0.23801454103E+02 -0.19166242366E+02 -0.94102488099E+03  0.94152094013E+03  0.00000000000E+00 0.  1.
        -13    1    5    5    0    0  0.46633206968E+02  0.62910384055E+02 -0.83543062935E+03  0.83909278919E+03  0.00000000000E+00 0. -1.
          1    1    6    6  503    0 -0.32453883638E+01 -0.10203585012E+03 -0.40723397247E+02  0.10991015576E+03  0.00000000000E+00 0. -1.
         -1    1    6    6    0  503 -0.34086167004E+02 -0.90708552130E+02  0.44017113637E+02  0.10643032699E+03  0.00000000000E+00 0.  1.
<mgrwt>
<rscale>  0 0.12360062E+04</rscale>
<asrwt>0</asrwt>
<pdfrwt beam="1">  1        2 0.30389369E+00 0.12360062E+04</pdfrwt>
<pdfrwt beam="2">  1       -1 0.29746297E-01 0.12360062E+04</pdfrwt>
<totfact> 0.80174734E+01</totfact>
</mgrwt>
</event>
<event>
12    7  0.1707730E-007  0.1914088E+04  0.7818608E-02  0.8647876E-01
          2   -1    0    0  501    0  0.00000000000E+00  0.00000000000E+00  0.14083418323E+04  0.14083418323E+04  0.00000000000E+00 0. -1.
         -1   -1    0    0    0  501 -0.00000000000E+00 -0.00000000000E+00 -0.65036256779E+03  0.65036256779E+03  0.00000000000E+00 0.  1.
         24    2    1    2    0    0  0.45671954934E+03  0.38691606598E+03 -0.13580778849E+03  0.61901922940E+03  0.80276161350E+02 0.  0.
        254    2    1    2    0    0 -0.45671954934E+03 -0.38691606598E+03  0.89378705301E+03  0.14396851707E+04  0.95683922668E+03 0.  0.
         23    2    4    4    0    0 -0.25395135601E+03 -0.64769630403E+03  0.83696968650E+03  0.10922605968E+04  0.92266796581E+02 0.  0.
         23    2    4    4    0    0 -0.20276819333E+03  0.26078023805E+03  0.56817366506E+02  0.34742457388E+03  0.91402125873E+02 0.  0.
          2    1    3    3  502    0  0.25997146728E+03  0.25817062564E+03 -0.55551180793E+02  0.37057140935E+03  0.00000000000E+00 0. -1.
         -1    1    3    3    0  502  0.19674808206E+03  0.12874544034E+03 -0.80256607701E+02  0.24844782004E+03  0.00000000000E+00 0.  1.
         13    1    5    5    0    0 -0.26104847747E+03 -0.61523105833E+03  0.79099804327E+03  0.10355353529E+04  0.00000000000E+00 0. -1.
        -13    1    5    5    0    0  0.70971214597E+01 -0.32465245702E+02  0.45971643229E+02  0.56725243875E+02  0.00000000000E+00 0.  1.
          1    1    6    6  503    0 -0.16212941822E+03  0.25249932654E+03  0.59313212928E+02  0.30587565347E+03  0.00000000000E+00 0. -1.
         -1    1    6    6    0  503 -0.40638775112E+02  0.82809115082E+01 -0.24958464220E+01  0.41548920412E+02  0.00000000000E+00 0.  1.
<mgrwt>
<rscale>  0 0.19140876E+04</rscale>
<asrwt>0</asrwt>
<pdfrwt beam="1">  1        2 0.21666797E+00 0.19140876E+04</pdfrwt>
<pdfrwt beam="2">  1       -1 0.10005578E+00 0.19140876E+04</pdfrwt>
<totfact> 0.14525803E+01</totfact>
</mgrwt>
</event>
<event>
12    7  0.1707730E-007  0.1215566E+04  0.7818608E-02  0.9099340E-01
          2   -1    0    0  501    0  0.00000000000E+00  0.00000000000E+00  0.10925097735E+04  0.10925097735E+04  0.00000000000E+00 0. -1.
         -1   -1    0    0    0  501 -0.00000000000E+00 -0.00000000000E+00 -0.33812081192E+03  0.33812081192E+03  0.00000000000E+00 0.  1.
         24    2    1    2    0    0 -0.14379036464E+03 -0.40499627257E+02  0.43072383817E+03  0.46207068422E+03  0.75302082817E+02 0.  0.
        254    2    1    2    0    0  0.14379036464E+03  0.40499627257E+02  0.32366512339E+03  0.96855990119E+03  0.90057386222E+03 0.  0.
         23    2    4    4    0    0 -0.64389213461E+02 -0.21139886436E+03  0.52362588155E+03  0.57575537029E+03  0.92058307182E+02 0.  0.
         23    2    4    4    0    0  0.20817957810E+03  0.25189849162E+03 -0.19996075816E+03  0.39280453090E+03  0.86715096020E+02 0.  0.
          2    1    3    3  502    0 -0.11263235911E+03  0.28588697027E+01  0.31725702922E+03  0.33666933933E+03  0.00000000000E+00 0. -1.
         -1    1    3    3    0  502 -0.31158005526E+02 -0.43358496960E+02  0.11346680896E+03  0.12540134490E+03  0.00000000000E+00 0.  1.
         13    1    5    5    0    0  0.50042323308E+00 -0.12255747142E+03  0.20700224194E+03  0.24056290735E+03  0.00000000000E+00 0.  1.
        -13    1    5    5    0    0 -0.64889636694E+02 -0.88841392944E+02  0.31662363961E+03  0.33519246294E+03  0.00000000000E+00 0. -1.
          3    1    6    6  503    0  0.15012518655E+02  0.50474930280E+02 -0.62443448819E+02  0.81684016818E+02  0.00000000000E+00 0. -1.
         -3    1    6    6    0  503  0.19316705945E+03  0.20142356134E+03 -0.13751730934E+03  0.31112051409E+03  0.00000000000E+00 0.  1.
<mgrwt>
<rscale>  0 0.12155662E+04</rscale>
<asrwt>0</asrwt>
<pdfrwt beam="1">  1        2 0.16807843E+00 0.12155662E+04</pdfrwt>
<pdfrwt beam="2">  1       -1 0.52018587E-01 0.12155662E+04</pdfrwt>
<totfact> 0.92084176E+01</totfact>
</mgrwt>
</event>
<event>
12    7  0.1707730E-007  0.1313335E+04  0.7818608E-02  0.9019057E-01
         -1   -1    0    0    0  501 -0.00000000000E+00  0.00000000000E+00  0.66236041738E+03  0.66236041738E+03  0.00000000000E+00 0.  1.
          2   -1    0    0  501    0  0.00000000000E+00 -0.00000000000E+00 -0.65102373671E+03  0.65102373671E+03  0.00000000000E+00 0. -1.
         24    2    1    2    0    0 -0.13926380666E+03  0.14003233556E+03  0.27911822787E+03  0.35185829334E+03  0.83028974542E+02 0.  0.
        254    2    1    2    0    0  0.13926380666E+03 -0.14003233556E+03 -0.26778154720E+03  0.96152586075E+03  0.90212059117E+03 0.  0.
         23    2    4    4    0    0 -0.11632748112E+02 -0.79907250386E+02 -0.58298466324E+03  0.59524814859E+03  0.89043536156E+02 0.  0.
         23    2    4    4    0    0  0.15089655477E+03 -0.60125085177E+02  0.31520311604E+03  0.36627771216E+03  0.91769068608E+02 0.  0.
          4    1    3    3  502    0 -0.35845378634E+02  0.87631954237E+02  0.93897454092E+02  0.13334535034E+03  0.00000000000E+00 0. -1.
         -1    1    3    3    0  502 -0.10341842803E+03  0.52400381326E+02  0.18522077377E+03  0.21851294299E+03  0.00000000000E+00 0.  1.
         13    1    5    5    0    0 -0.19404868116E+02 -0.80125639610E+02 -0.27324946206E+03  0.28541537370E+03  0.00000000000E+00 0. -1.
        -13    1    5    5    0    0  0.77721200037E+01  0.21838922429E+00 -0.30973520118E+03  0.30983277489E+03  0.00000000000E+00 0.  1.
          2    1    6    6  503    0  0.59355180442E+02 -0.64642029070E+02  0.20465243400E+03  0.22267520767E+03  0.00000000000E+00 0.  1.
         -2    1    6    6    0  503  0.91541374332E+02  0.45169438938E+01  0.11055068204E+03  0.14360250449E+03  0.00000000000E+00 0. -1.
<mgrwt>
<rscale>  0 0.13133352E+04</rscale>
<asrwt>0</asrwt>
<pdfrwt beam="1">  1        2 0.10015750E+00 0.13133352E+04</pdfrwt>
<pdfrwt beam="2">  1       -1 0.10190160E+00 0.13133352E+04</pdfrwt>
<totfact> 0.45845248E+01</totfact>
</mgrwt>
</event>
<event>
12    7  0.1707730E-007  0.1698748E+04  0.7818608E-02  0.8762079E-01
         -1   -1    0    0    0  501 -0.00000000000E+00  0.00000000000E+00  0.19823353134E+03  0.19823353134E+03  0.00000000000E+00 0.  1.
          2   -1    0    0  501    0  0.00000000000E+00 -0.00000000000E+00 -0.36393243889E+04  0.36393243889E+04  0.00000000000E+00 0. -1.
         24    2    1    2    0    0  0.46311017210E+03 -0.50532802450E+00 -0.37532876693E+03  0.60154941524E+03  0.80738645272E+02 0.  0.
        254    2    1    2    0    0 -0.46311017210E+03  0.50532802450E+00 -0.30657620906E+04  0.32360085050E+04  0.92648937457E+03 0.  0.
         23    2    4    4    0    0 -0.52467503867E+03  0.62158956017E+02 -0.77796670996E+03  0.94466652468E+03  0.89526582849E+02 0.  0.
         23    2    4    4    0    0  0.61564866577E+02 -0.61653627993E+02 -0.22877953806E+04  0.22913419803E+04  0.92999807932E+02 0.  0.
          4    1    3    3  502    0  0.26549091049E+02 -0.15861174697E+01 -0.51610542151E+02  0.58060469042E+02  0.00000000000E+00 0. -1.
         -1    1    3    3    0  502  0.43656108105E+03  0.10807894452E+01 -0.32371822478E+03  0.54348894620E+03  0.00000000000E+00 0.  1.
         13    1    5    5    0    0 -0.75946362215E+02  0.41684702567E+02 -0.12127253390E+03  0.14903855823E+03  0.00000000000E+00 0. -1.
        -13    1    5    5    0    0 -0.44872867646E+03  0.20474253450E+02 -0.65669417606E+03  0.79562796645E+03  0.00000000000E+00 0.  1.
          3    1    6    6  503    0  0.14573874099E+02  0.24135064215E+02 -0.66923782809E+03  0.66983144871E+03  0.00000000000E+00 0. -1.
         -3    1    6    6    0  503  0.46990992477E+02 -0.85788692207E+02 -0.16185575525E+04  0.16215105316E+04  0.00000000000E+00 0.  1.
<mgrwt>
<rscale>  0 0.16987479E+04</rscale>
<asrwt>0</asrwt>
<pdfrwt beam="1">  1        2 0.55989602E+00 0.16987479E+04</pdfrwt>
<pdfrwt beam="2">  1       -1 0.30497468E-01 0.16987479E+04</pdfrwt>
<totfact> 0.70274611E+00</totfact>
</mgrwt>
</event>
<event>
12    7  0.1707730E-007  0.1786471E+04  0.7818608E-02  0.8713527E-01
          2   -1    0    0  501    0  0.00000000000E+00  0.00000000000E+00  0.10538324900E+04  0.10538324900E+04  0.00000000000E+00 0. -1.
         -1   -1    0    0    0  501 -0.00000000000E+00 -0.00000000000E+00 -0.75711225899E+03  0.75711225899E+03  0.00000000000E+00 0.  1.
         24    2    1    2    0    0 -0.49915651071E+02  0.10110982549E+01 -0.55875282640E+03  0.56687982988E+03  0.81580794130E+02 0.  0.
        254    2    1    2    0    0  0.49915651071E+02 -0.10110982549E+01  0.85547305740E+03  0.12440649191E+04  0.90187070939E+03 0.  0.
         23    2    4    4    0    0 -0.25524643750E+03  0.26213559457E+03  0.11308070036E+03  0.39367752936E+03  0.91263018417E+02 0.  0.
         23    2    4    4    0    0  0.30516208857E+03 -0.26314669283E+03  0.74239235704E+03  0.85038738973E+03  0.98194799119E+02 0.  0.
          4    1    3    3  502    0  0.14288735891E+02 -0.64663254713E+01 -0.27093301644E+02  0.31305404205E+02  0.00000000000E+00 0. -1.
         -3    1    3    3    0  502 -0.64204386962E+02  0.74774237262E+01 -0.53165952476E+03  0.53557442568E+03  0.00000000000E+00 0.  1.
         13    1    5    5    0    0 -0.24001704583E+03  0.19804721886E+03  0.95427621672E+02  0.32548012868E+03  0.00000000000E+00 0. -1.
        -13    1    5    5    0    0 -0.15229391670E+02  0.64088375718E+02  0.17653078684E+02  0.68197400682E+02  0.00000000000E+00 0.  1.
          1    1    6    6  503    0  0.29198962615E+03 -0.21318513761E+03  0.62314393377E+03  0.72042640628E+03  0.00000000000E+00 0. -1.
         -1    1    6    6    0  503  0.13172462424E+02 -0.49961555222E+02  0.11924842327E+03  0.12996098345E+03  0.00000000000E+00 0.  1.
<mgrwt>
<rscale>  0 0.17864708E+04</rscale>
<asrwt>0</asrwt>
<pdfrwt beam="1">  1        2 0.16212807E+00 0.17864708E+04</pdfrwt>
<pdfrwt beam="2">  1       -1 0.11647881E+00 0.17864708E+04</pdfrwt>
<totfact> 0.16706257E+01</totfact>
</mgrwt>
</event>
<event>
12    7  0.1707730E-007  0.3688288E+04  0.7818608E-02  0.8070562E-01
         -1   -1    0    0    0  501 -0.00000000000E+00  0.00000000000E+00  0.15980377178E+04  0.15980377178E+04  0.00000000000E+00 0.  1.
          2   -1    0    0  501    0  0.00000000000E+00 -0.00000000000E+00 -0.21281521968E+04  0.21281521968E+04  0.00000000000E+00 0. -1.
         24    2    1    2    0    0  0.51313496901E+03  0.55329683671E+01 -0.19224195694E+04  0.19913152775E+04  0.79381504488E+02 0.  0.
        254    2    1    2    0    0 -0.51313496901E+03 -0.55329683671E+01  0.13923050904E+04  0.17348746371E+04  0.89885395459E+03 0.  0.
         23    2    4    4    0    0 -0.41930592797E+03 -0.28064759534E+03  0.28460020626E+03  0.58607880208E+03  0.88941277509E+02 0.  0.
         23    2    4    4    0    0 -0.93829041033E+02  0.27511462697E+03  0.11077048841E+04  0.11487958351E+04  0.90718318930E+02 0.  0.
          2    1    3    3  502    0  0.42559836376E+03 -0.14141140719E+02 -0.16695505378E+04  0.17230011426E+04  0.00000000000E+00 0. -1.
         -1    1    3    3    0  502  0.87536605247E+02  0.19674109086E+02 -0.25286903163E+03  0.26831413490E+03  0.00000000000E+00 0.  1.
         13    1    5    5    0    0 -0.13677704411E+03 -0.11076777952E+03  0.55229115828E+02  0.18446602942E+03  0.00000000000E+00 0.  1.
        -13    1    5    5    0    0 -0.28252888387E+03 -0.16987981582E+03  0.22937109044E+03  0.40161277267E+03  0.00000000000E+00 0. -1.
          4    1    6    6  503    0  0.22323300856E+01  0.37952621880E+02  0.66402110377E+02  0.76515521743E+02  0.00000000000E+00 0. -1.
         -4    1    6    6    0  503 -0.96061371119E+02  0.23716200509E+03  0.10413027738E+04  0.10722803133E+04  0.00000000000E+00 0.  1.
<mgrwt>
<rscale>  0 0.36882882E+04</rscale>
<asrwt>0</asrwt>
<pdfrwt beam="1">  1        2 0.32740803E+00 0.36882882E+04</pdfrwt>
<pdfrwt beam="2">  1       -1 0.24585196E+00 0.36882882E+04</pdfrwt>
<totfact> 0.38700884E-01</totfact>
</mgrwt>
</event>
<event>
12    7  0.1707730E-007  0.1603594E+04  0.7818608E-02  0.8818343E-01
          2   -1    0    0  501    0  0.00000000000E+00  0.00000000000E+00  0.13315820643E+04  0.13315820643E+04  0.00000000000E+00 0. -1.
         -1   -1    0    0    0  501 -0.00000000000E+00 -0.00000000000E+00 -0.48279323765E+03  0.48279323765E+03  0.00000000000E+00 0.  1.
         24    2    1    2    0    0  0.20716297543E+03 -0.44030187977E+03  0.57404311458E+03  0.75691487350E+03  0.81316570375E+02 0.  0.
        254    2    1    2    0    0 -0.20716297543E+03  0.44030187977E+03  0.27474571204E+03  0.10574604284E+04  0.89775002515E+03 0.  0.
         23    2    4    4    0    0 -0.42908801136E+03  0.39717901967E+01  0.34003198325E+03  0.55542810798E+03  0.93521852429E+02 0.  0.
         23    2    4    4    0    0  0.22192503594E+03  0.43633008957E+03 -0.65286271211E+02  0.50203232044E+03  0.90219093949E+02 0.  0.
          2    1    3    3  502    0  0.68738885152E+02 -0.19112092934E+03  0.29387281494E+03  0.35723028333E+03  0.00000000000E+00 0. -1.
         -1    1    3    3    0  502  0.13842409028E+03 -0.24918095043E+03  0.28017029964E+03  0.39968459017E+03  0.00000000000E+00 0.  1.
         13    1    5    5    0    0 -0.64614078275E+02  0.31703616953E+02  0.38763457044E+02  0.81747807562E+02  0.00000000000E+00 0.  1.
        -13    1    5    5    0    0 -0.36447393309E+03 -0.27731826756E+02  0.30126852621E+03  0.47368030041E+03  0.00000000000E+00 0. -1.
          1    1    6    6  503    0  0.17362616708E+03  0.35214767396E+03 -0.87978574963E+02  0.40236085772E+03  0.00000000000E+00 0. -1.
         -1    1    6    6    0  503  0.48298868854E+02  0.84182415613E+02  0.22692303752E+02  0.99671462720E+02  0.00000000000E+00 0.  1.
<mgrwt>
<rscale>  0 0.16035945E+04</rscale>
<asrwt>0</asrwt>
<pdfrwt beam="1">  1        2 0.20485878E+00 0.16035945E+04</pdfrwt>
<pdfrwt beam="2">  1       -1 0.74275883E-01 0.16035945E+04</pdfrwt>
<totfact> 0.31596815E+01</totfact>
</mgrwt>
</event>
<event>
12    7  0.1707730E-007  0.1781497E+04  0.7818608E-02  0.8716202E-01
         -1   -1    0    0    0  501 -0.00000000000E+00  0.00000000000E+00  0.82513941996E+03  0.82513941996E+03  0.00000000000E+00 0.  1.
          2   -1    0    0  501    0  0.00000000000E+00 -0.00000000000E+00 -0.96157392804E+03  0.96157392804E+03  0.00000000000E+00 0. -1.
         24    2    1    2    0    0 -0.33565857576E+03 -0.15304249702E+02 -0.62361575453E+03  0.71296546246E+03  0.80760397678E+02 0.  0.
        254    2    1    2    0    0  0.33565857576E+03  0.15304249702E+02  0.48718124645E+03  0.10737478855E+04  0.89592859942E+03 0.  0.
         23    2    4    4    0    0  0.60915467084E+03  0.15357073688E+03  0.28958084136E+03  0.69778520100E+03  0.91617349953E+02 0.  0.
         23    2    4    4    0    0 -0.27349609508E+03 -0.13826648717E+03  0.19760040509E+03  0.37596268454E+03  0.91565739081E+02 0.  0.
          2    1    3    3  502    0 -0.21217676450E+03  0.88596396590E+01 -0.31722321318E+03  0.38174342114E+03  0.00000000000E+00 0. -1.
         -1    1    3    3    0  502 -0.12348181126E+03 -0.24163889361E+02 -0.30639254135E+03  0.33122204132E+03  0.00000000000E+00 0.  1.
         13    1    5    5    0    0  0.55978450874E+03  0.15937115811E+03  0.28442683954E+03  0.64780899138E+03  0.00000000000E+00 0.  1.
        -13    1    5    5    0    0  0.49370162106E+02 -0.58004212375E+01  0.51540018174E+01  0.49976209617E+02  0.00000000000E+00 0. -1.
          3    1    6    6  503    0  0.57744945602E+01  0.31435591144E+01  0.62937440385E+01  0.91015364282E+01  0.00000000000E+00 0. -1.
         -3    1    6    6    0  503 -0.27927058964E+03 -0.14141004629E+03  0.19130666105E+03  0.36686114811E+03  0.00000000000E+00 0.  1.
<mgrwt>
<rscale>  0 0.17814966E+04</rscale>
<asrwt>0</asrwt>
<pdfrwt beam="1">  1        2 0.14793445E+00 0.17814966E+04</pdfrwt>
<pdfrwt beam="2">  1       -1 0.12694453E+00 0.17814966E+04</pdfrwt>
<totfact> 0.15498382E+01</totfact>
</mgrwt>
</event>
<event>
12    7  0.1707730E-007  0.1332587E+04  0.7818608E-02  0.9004115E-01
          2   -1    0    0  501    0  0.00000000000E+00  0.00000000000E+00  0.15747243208E+04  0.15747243208E+04  0.00000000000E+00 0. -1.
         -1   -1    0    0    0  501 -0.00000000000E+00 -0.00000000000E+00 -0.28192053808E+03  0.28192053808E+03  0.00000000000E+00 0.  1.
         24    2    1    2    0    0 -0.30964577591E+03 -0.17868506676E+03  0.13449082274E+03  0.39012549570E+03  0.79380484841E+02 0.  0.
        254    2    1    2    0    0  0.30964577591E+03  0.17868506676E+03  0.11583129600E+04  0.14665193632E+04  0.82533706429E+03 0.  0.
         23    2    4    4    0    0  0.73079925209E+02  0.48729280952E+03  0.63024089671E+03  0.80471016637E+03  0.86947721577E+02 0.  0.
         23    2    4    4    0    0  0.23656585070E+03 -0.30860774276E+03  0.52807206328E+03  0.66180919681E+03  0.89045877846E+02 0.  0.
          2    1    3    3  502    0 -0.10989055962E+03 -0.80613800809E+02  0.89623676468E+02  0.16311628784E+03  0.00000000000E+00 0. -1.
         -1    1    3    3    0  502 -0.19975521629E+03 -0.98071265952E+02  0.44867146273E+02  0.22700920787E+03  0.00000000000E+00 0.  1.
         13    1    5    5    0    0  0.85732392883E+02  0.28947046885E+03  0.36847860059E+03  0.47636086596E+03  0.00000000000E+00 0.  1.
        -13    1    5    5    0    0 -0.12652467674E+02  0.19782234067E+03  0.26176229612E+03  0.32834930040E+03  0.00000000000E+00 0. -1.
          1    1    6    6  503    0  0.11803274630E+03 -0.97483084814E+02  0.16178718054E+03  0.22273251404E+03  0.00000000000E+00 0. -1.
         -1    1    6    6    0  503  0.11853310440E+03 -0.21112465795E+03  0.36628488274E+03  0.43907668277E+03  0.00000000000E+00 0.  1.
<mgrwt>
<rscale>  0 0.13325871E+04</rscale>
<asrwt>0</asrwt>
<pdfrwt beam="1">  1        2 0.24226527E+00 0.13325871E+04</pdfrwt>
<pdfrwt beam="2">  1       -1 0.43372392E-01 0.13325871E+04</pdfrwt>
<totfact> 0.67331607E+01</totfact>
</mgrwt>
</event>
<event>
12    7  0.1707730E-007  0.1599784E+04  0.7818608E-02  0.8820681E-01
         -1   -1    0    0    0  501 -0.00000000000E+00  0.00000000000E+00  0.50475258811E+03  0.50475258811E+03  0.00000000000E+00 0.  1.
          2   -1    0    0  501    0  0.00000000000E+00 -0.00000000000E+00 -0.12676051117E+04  0.12676051117E+04  0.00000000000E+00 0. -1.
         24    2    1    2    0    0 -0.52358658933E+03 -0.13065298594E+03 -0.21504061020E+03  0.58638382229E+03  0.79940000917E+02 0.  0.
        254    2    1    2    0    0  0.52358658933E+03  0.13065298594E+03 -0.54781191338E+03  0.11859738775E+04  0.90289701872E+03 0.  0.
         23    2    4    4    0    0  0.73809936406E+02  0.20879748223E+03 -0.66438329222E+03  0.70605826004E+03  0.89826567840E+02 0.  0.
         23    2    4    4    0    0  0.44977665293E+03 -0.78144496287E+02  0.11657137884E+03  0.47991561747E+03  0.91238773042E+02 0.  0.
          4    1    3    3  502    0 -0.34395190312E+03 -0.11810529956E+03 -0.16595668690E+03  0.39974166079E+03  0.00000000000E+00 0. -1.
         -3    1    3    3    0  502 -0.17963468621E+03 -0.12547686387E+02 -0.49083923301E+02  0.18664216151E+03  0.00000000000E+00 0.  1.
         13    1    5    5    0    0  0.14036590791E+02  0.15604197815E+03 -0.38894772462E+03  0.41931665518E+03  0.00000000000E+00 0. -1.
        -13    1    5    5    0    0  0.59773345615E+02  0.52755504081E+02 -0.27543556760E+03  0.28674160486E+03  0.00000000000E+00 0.  1.
          1    1    6    6  503    0  0.29471436789E+03 -0.94356500978E+02  0.71121374744E+02  0.31751843704E+03  0.00000000000E+00 0. -1.
         -1    1    6    6    0  503  0.15506228504E+03  0.16212004691E+02  0.45450004097E+02  0.16239718042E+03  0.00000000000E+00 0.  1.
<mgrwt>
<rscale>  0 0.15997837E+04</rscale>
<asrwt>0</asrwt>
<pdfrwt beam="1">  1        2 0.19501617E+00 0.15997837E+04</pdfrwt>
<pdfrwt beam="2">  1       -1 0.77654245E-01 0.15997837E+04</pdfrwt>
<totfact> 0.31376578E+01</totfact>
</mgrwt>
</event>
<event>
12    7  0.1707730E-007  0.2570592E+04  0.7818608E-02  0.8378260E-01
          2   -1    0    0  501    0  0.00000000000E+00  0.00000000000E+00  0.22100162664E+04  0.22100162664E+04  0.00000000000E+00 0. -1.
         -1   -1    0    0    0  501 -0.00000000000E+00 -0.00000000000E+00 -0.74749946557E+03  0.74749946557E+03  0.00000000000E+00 0.  1.
         24    2    1    2    0    0  0.85793868812E+03  0.72641225622E+03  0.64834211657E+03  0.13002278960E+04  0.80694006963E+02 0.  0.
        254    2    1    2    0    0 -0.85793868812E+03 -0.72641225622E+03  0.81417468421E+03  0.16572878360E+04  0.90553243799E+03 0.  0.
         23    2    4    4    0    0 -0.10264877191E+04 -0.49379595435E+03  0.65729313978E+03  0.13175550893E+04  0.80035364507E+02 0.  0.
         23    2    4    4    0    0  0.16854903101E+03 -0.23261630186E+03  0.15688154443E+03  0.33973274669E+03  0.91035160485E+02 0.  0.
          4    1    3    3  502    0  0.10876353912E+03  0.66825620595E+02  0.93443747643E+02  0.15819894116E+03  0.00000000000E+00 0. -1.
         -3    1    3    3    0  502  0.74917514900E+03  0.65958663562E+03  0.55489836893E+03  0.11420289548E+04  0.00000000000E+00 0.  1.
         13    1    5    5    0    0 -0.21064026376E+03 -0.11001698920E+03  0.17445490368E+03  0.29480090238E+03  0.00000000000E+00 0. -1.
        -13    1    5    5    0    0 -0.81584745538E+03 -0.38377896515E+03  0.48283823611E+03  0.10227541869E+04  0.00000000000E+00 0.  1.
          3    1    6    6  503    0  0.32889151041E+02 -0.66272186971E+02  0.20340189793E+00  0.73984730820E+02  0.00000000000E+00 0. -1.
         -3    1    6    6    0  503  0.13565987997E+03 -0.16634411489E+03  0.15667814253E+03  0.26574801587E+03  0.00000000000E+00 0.  1.
<mgrwt>
<rscale>  0 0.25705921E+04</rscale>
<asrwt>0</asrwt>
<pdfrwt beam="1">  1        2 0.34000250E+00 0.25705921E+04</pdfrwt>
<pdfrwt beam="2">  1       -1 0.11499992E+00 0.25705921E+04</pdfrwt>
<totfact> 0.35284250E+00</totfact>
</mgrwt>
</event>
<event>
12    7  0.1707730E-007  0.2126756E+04  0.7818608E-02  0.8549548E-01
          2   -1    0    0  501    0  0.00000000000E+00  0.00000000000E+00  0.20964515945E+04  0.20964515945E+04  0.00000000000E+00 0. -1.
         -1   -1    0    0    0  501 -0.00000000000E+00 -0.00000000000E+00 -0.53937453274E+03  0.53937453274E+03  0.00000000000E+00 0.  1.
         24    2    1    2    0    0 -0.44274683685E+03 -0.54555547999E+03  0.17375858623E+01  0.70598395862E+03  0.68954966018E+02 0.  0.
        254    2    1    2    0    0  0.44274683685E+03  0.54555547999E+03  0.15553394759E+04  0.19298421687E+04  0.90086312347E+03 0.  0.
         23    2    4    4    0    0 -0.45922103510E+02  0.53216270864E+03  0.12063663992E+04  0.13222846355E+04  0.88378617856E+02 0.  0.
         23    2    4    4    0    0  0.48866894036E+03  0.13392771353E+02  0.34897307672E+03  0.60755753314E+03  0.91472663694E+02 0.  0.
          4    1    3    3  502    0 -0.19130529645E+03 -0.23083145317E+03  0.34711193404E+02  0.30180414704E+03  0.00000000000E+00 0. -1.
         -3    1    3    3    0  502 -0.25144154040E+03 -0.31472402682E+03 -0.32973607542E+02  0.40417981159E+03  0.00000000000E+00 0.  1.
         13    1    5    5    0    0  0.23428931726E+02  0.21688902104E+03  0.46050937051E+03  0.50956711297E+03  0.00000000000E+00 0. -1.
        -13    1    5    5    0    0 -0.69351035236E+02  0.31527368760E+03  0.74585702872E+03  0.81271752256E+03  0.00000000000E+00 0.  1.
          3    1    6    6  503    0  0.17564394553E+02 -0.59598318158E+01  0.39294746348E+02  0.43452326081E+02  0.00000000000E+00 0. -1.
         -3    1    6    6    0  503  0.47110454581E+03  0.19352603169E+02  0.30967833037E+03  0.56410520706E+03  0.00000000000E+00 0.  1.
<mgrwt>
<rscale>  0 0.21267558E+04</rscale>
<asrwt>0</asrwt>
<pdfrwt beam="1">  1        2 0.32253101E+00 0.21267558E+04</pdfrwt>
<pdfrwt beam="2">  1       -1 0.82980698E-01 0.21267558E+04</pdfrwt>
<totfact> 0.89099294E+00</totfact>
</mgrwt>
</event>
<event>
12    7  0.1707730E-007  0.1356228E+04  0.7818608E-02  0.8986127E-01
          2   -1    0    0  501    0  0.00000000000E+00  0.00000000000E+00  0.16897786598E+04  0.16897786598E+04  0.00000000000E+00 0. -1.
         -1   -1    0    0    0  501 -0.00000000000E+00 -0.00000000000E+00 -0.27212957513E+03  0.27212957513E+03  0.00000000000E+00 0.  1.
         24    2    1    2    0    0 -0.29362599363E+03  0.11060251797E+02  0.84171711877E+02  0.31637337982E+03  0.81662017324E+02 0.  0.
        254    2    1    2    0    0  0.29362599363E+03 -0.11060251797E+02  0.13334773728E+04  0.16455348551E+04  0.91830523375E+03 0.  0.
         23    2    4    4    0    0  0.19904220939E+03 -0.43624071905E+03  0.48932184813E+03  0.69112802390E+03  0.91095050798E+02 0.  0.
         23    2    4    4    0    0  0.94583784234E+02  0.42518046726E+03  0.84415552466E+03  0.95440683121E+03  0.92570663147E+02 0.  0.
          4    1    3    3  502    0 -0.14028770579E+02 -0.18465646035E+02  0.11451573294E+01  0.23218481275E+02  0.00000000000E+00 0. -1.
         -3    1    3    3    0  502 -0.27959722305E+03  0.29525897832E+02  0.83026554547E+02  0.29315489854E+03  0.00000000000E+00 0.  1.
         13    1    5    5    0    0  0.57593399926E+02 -0.69706997316E+02  0.56673403664E+02  0.10671429086E+03  0.00000000000E+00 0. -1.
        -13    1    5    5    0    0  0.14144880947E+03 -0.36653372174E+03  0.43264844447E+03  0.58441373304E+03  0.00000000000E+00 0.  1.
          1    1    6    6  503    0  0.95613925394E+01 -0.10596776853E+01  0.29920569417E+02  0.31429025094E+02  0.00000000000E+00 0. -1.
         -1    1    6    6    0  503  0.85022391695E+02  0.42624014494E+03  0.81423495524E+03  0.92297780612E+03  0.00000000000E+00 0.  1.
<mgrwt>
<rscale>  0 0.13562282E+04</rscale>
<asrwt>0</asrwt>
<pdfrwt beam="1">  1        2 0.25996594E+00 0.13562282E+04</pdfrwt>
<pdfrwt beam="2">  1       -1 0.41866089E-01 0.13562282E+04</pdfrwt>
<totfact> 0.61896157E+01</totfact>
</mgrwt>
</event>
<event>
12    7  0.1707730E-007  0.3392619E+04  0.7818608E-02  0.8139720E-01
         -1   -1    0    0    0  501 -0.00000000000E+00  0.00000000000E+00  0.13845590163E+04  0.13845590163E+04  0.00000000000E+00 0.  1.
          2   -1    0    0  501    0  0.00000000000E+00 -0.00000000000E+00 -0.20782548035E+04  0.20782548035E+04  0.00000000000E+00 0. -1.
         24    2    1    2    0    0  0.30404150403E+03 -0.34440585735E+03 -0.18600365534E+04  0.19176447021E+04  0.81046855708E+02 0.  0.
        254    2    1    2    0    0 -0.30404150403E+03  0.34440585735E+03  0.11663407661E+04  0.15451691177E+04  0.90340477575E+03 0.  0.
         23    2    4    4    0    0 -0.48576315602E+03  0.53926794544E+03  0.85863995151E+03  0.11281135604E+04  0.92746310262E+02 0.  0.
         23    2    4    4    0    0  0.18172165199E+03 -0.19486208809E+03  0.30770081459E+03  0.41705555731E+03  0.90893093259E+02 0.  0.
          4    1    3    3  502    0  0.25209033822E+03 -0.24523118672E+03 -0.13142085625E+04  0.13604528728E+04  0.00000000000E+00 0. -1.
         -3    1    3    3    0  502  0.51951165813E+02 -0.99174670629E+02 -0.54582799093E+03  0.55719182927E+03  0.00000000000E+00 0.  1.
         13    1    5    5    0    0 -0.12490047182E+03  0.20123007342E+03  0.29554949980E+03  0.37873893005E+03  0.00000000000E+00 0. -1.
        -13    1    5    5    0    0 -0.36086268421E+03  0.33803787202E+03  0.56309045171E+03  0.74937463033E+03  0.00000000000E+00 0.  1.
          4    1    6    6  503    0  0.56095340907E+02 -0.10448669138E+03  0.18413272012E+03  0.21901829733E+03  0.00000000000E+00 0. -1.
         -4    1    6    6    0  503  0.12562631108E+03 -0.90375396710E+02  0.12356809447E+03  0.19803725998E+03  0.00000000000E+00 0.  1.
<mgrwt>
<rscale>  0 0.33926193E+04</rscale>
<asrwt>0</asrwt>
<pdfrwt beam="1">  1        2 0.31973151E+00 0.33926193E+04</pdfrwt>
<pdfrwt beam="2">  1       -1 0.21300908E+00 0.33926193E+04</pdfrwt>
<totfact> 0.69873391E-01</totfact>
</mgrwt>
</event>
<event>
12    7  0.1707730E-007  0.1386149E+04  0.7818608E-02  0.8963906E-01
          2   -1    0    0  501    0  0.00000000000E+00  0.00000000000E+00  0.72771076293E+03  0.72771076293E+03  0.00000000000E+00 0. -1.
         -1   -1    0    0    0  501 -0.00000000000E+00 -0.00000000000E+00 -0.66008655694E+03  0.66008655694E+03  0.00000000000E+00 0.  1.
         24    2    1    2    0    0 -0.23364795684E+03  0.19793955267E+02  0.32442212372E+03  0.40918282542E+03  0.84839270737E+02 0.  0.
        254    2    1    2    0    0  0.23364795684E+03 -0.19793955267E+02 -0.25679791773E+03  0.97861449445E+03  0.91474476757E+03 0.  0.
         23    2    4    4    0    0  0.41087689574E+03  0.26737046665E+03 -0.35644963079E+03  0.61276160073E+03  0.90075802273E+02 0.  0.
         23    2    4    4    0    0 -0.17722893890E+03 -0.28716442191E+03  0.99651713055E+02  0.36585289372E+03  0.10022162406E+03 0.  0.
          2    1    3    3  502    0 -0.16204808546E+03  0.27733727705E+02  0.27955558190E+03  0.32431476227E+03  0.00000000000E+00 0. -1.
         -1    1    3    3    0  502 -0.71599871382E+02 -0.79397724378E+01  0.44866541817E+02  0.84868063151E+02  0.00000000000E+00 0.  1.
         13    1    5    5    0    0  0.37766388299E+03  0.23663069557E+03 -0.35076456314E+03  0.56715066195E+03  0.00000000000E+00 0. -1.
        -13    1    5    5    0    0  0.33213012753E+02  0.30739771080E+02 -0.56850676452E+01  0.45610938779E+02  0.00000000000E+00 0.  1.
          1    1    6    6  503    0 -0.16411427329E+03 -0.23310670776E+03  0.46376717788E+02  0.28883045521E+03  0.00000000000E+00 0. -1.
         -1    1    6    6    0  503 -0.13114665609E+02 -0.54057714149E+02  0.53274995267E+02  0.77022438509E+02  0.00000000000E+00 0.  1.
<mgrwt>
<rscale>  0 0.13861488E+04</rscale>
<asrwt>0</asrwt>
<pdfrwt beam="1">  1        2 0.11195550E+00 0.13861488E+04</pdfrwt>
<pdfrwt beam="2">  1       -1 0.10155178E+00 0.13861488E+04</pdfrwt>
<totfact> 0.39929605E+01</totfact>
</mgrwt>
</event>
<event>
12    7  0.1707730E-007  0.2189538E+04  0.7818608E-02  0.8522795E-01
         -1   -1    0    0    0  501 -0.00000000000E+00  0.00000000000E+00  0.61609030228E+03  0.61609030228E+03  0.00000000000E+00 0.  1.
          2   -1    0    0  501    0  0.00000000000E+00 -0.00000000000E+00 -0.19453629241E+04  0.19453629241E+04  0.00000000000E+00 0. -1.
         24    2    1    2    0    0 -0.14921165947E+03  0.66085052077E+03  0.15691207209E+03  0.69989411542E+03  0.79011671959E+02 0.  0.
        254    2    1    2    0    0  0.14921165947E+03 -0.66085052077E+03 -0.14861846939E+04  0.18615591109E+04  0.89312364712E+03 0.  0.
         23    2    4    4    0    0  0.51090857863E+03 -0.33882023765E+03 -0.70310512992E+03  0.93713809283E+03  0.89689755058E+02 0.  0.
         23    2    4    4    0    0 -0.36169691916E+03 -0.32203028312E+03 -0.78307956395E+03  0.92442101809E+03  0.82537571074E+02 0.  0.
          2    1    3    3  502    0 -0.83799206639E+02  0.20643720638E+03  0.43668867498E+02  0.22703655477E+03  0.00000000000E+00 0. -1.
         -1    1    3    3    0  502 -0.65412452831E+02  0.45441331439E+03  0.11324320459E+03  0.47285756065E+03  0.00000000000E+00 0.  1.
         13    1    5    5    0    0  0.27832822383E+01 -0.17282772587E+02 -0.12956403466E+02  0.21778642729E+02  0.00000000000E+00 0. -1.
        -13    1    5    5    0    0  0.50812529639E+03 -0.32153746506E+03 -0.69014872645E+03  0.91535945010E+03  0.00000000000E+00 0.  1.
          1    1    6    6  503    0 -0.84602060075E+02 -0.11259418577E+03 -0.27493772482E+03  0.30891052388E+03  0.00000000000E+00 0. -1.
         -1    1    6    6    0  503 -0.27709485908E+03 -0.20943609736E+03 -0.50814183913E+03  0.61551049421E+03  0.00000000000E+00 0.  1.
<mgrwt>
<rscale>  0 0.21895381E+04</rscale>
<asrwt>0</asrwt>
<pdfrwt beam="1">  1        2 0.29928660E+00 0.21895381E+04</pdfrwt>
<pdfrwt beam="2">  1       -1 0.94783124E-01 0.21895381E+04</pdfrwt>
<totfact> 0.80305641E+00</totfact>
</mgrwt>
</event>
<event>
12    7  0.1707730E-007  0.1158625E+04  0.7818608E-02  0.9149863E-01
          2   -1    0    0  501    0  0.00000000000E+00  0.00000000000E+00  0.37441021255E+03  0.37441021255E+03  0.00000000000E+00 0. -1.
         -1   -1    0    0    0  501 -0.00000000000E+00 -0.00000000000E+00 -0.89635075893E+03  0.89635075893E+03  0.00000000000E+00 0.  1.
         24    2    1    2    0    0  0.20101930547E+03  0.72737049288E+02 -0.47642434839E+02  0.23396949452E+03  0.82295098645E+02 0.  0.
        254    2    1    2    0    0 -0.20101930547E+03 -0.72737049288E+02 -0.47429811154E+03  0.10367914770E+04  0.89681571606E+03 0.  0.
         23    2    4    4    0    0 -0.38814025573E+03  0.19231365517E+03 -0.53610694492E+03  0.69523147994E+03  0.91097498431E+02 0.  0.
         23    2    4    4    0    0  0.18712095026E+03 -0.26505070446E+03  0.61808833386E+02  0.34155999702E+03  0.87044665067E+02 0.  0.
          2    1    3    3  502    0  0.13624983470E+03  0.38480660632E+02  0.82420552669E+01  0.14181928703E+03  0.00000000000E+00 0. -1.
         -1    1    3    3    0  502  0.64769470772E+02  0.34256388656E+02 -0.55884490106E+02  0.92150207499E+02  0.00000000000E+00 0.  1.
         13    1    5    5    0    0 -0.31460593371E+03  0.11930100685E+03 -0.37652031157E+03  0.50495264014E+03  0.00000000000E+00 0.  1.
        -13    1    5    5    0    0 -0.73534322020E+02  0.73012648324E+02 -0.15958663335E+03  0.19027883980E+03  0.00000000000E+00 0. -1.
          3    1    6    6  503    0 -0.28455484335E+01 -0.14778334168E+01  0.12546488287E+02  0.12949729952E+02  0.00000000000E+00 0. -1.
         -3    1    6    6    0  503  0.18996649869E+03 -0.26357287104E+03  0.49262345099E+02  0.32861026707E+03  0.00000000000E+00 0.  1.
<mgrwt>
<rscale>  0 0.11586248E+04</rscale>
<asrwt>0</asrwt>
<pdfrwt beam="1">  1        2 0.57601572E-01 0.11586248E+04</pdfrwt>
<pdfrwt beam="2">  1       -1 0.13790012E+00 0.11586248E+04</pdfrwt>
<totfact> 0.42318990E+01</totfact>
</mgrwt>
</event>
<event>
12    7  0.1707730E-007  0.1839457E+04  0.7818608E-02  0.8685594E-01
          2   -1    0    0  501    0  0.00000000000E+00  0.00000000000E+00  0.94260765053E+03  0.94260765053E+03  0.00000000000E+00 0. -1.
         -1   -1    0    0    0  501 -0.00000000000E+00 -0.00000000000E+00 -0.89740457153E+03  0.89740457153E+03  0.00000000000E+00 0.  1.
         24    2    1    2    0    0 -0.27746663735E+03 -0.31007814174E+03 -0.53299933546E+03  0.68163916955E+03  0.86066701099E+02 0.  0.
        254    2    1    2    0    0  0.27746663735E+03  0.31007814174E+03  0.57820241445E+03  0.11583730525E+04  0.91344069751E+03 0.  0.
         23    2    4    4    0    0 -0.17905033888E+03  0.40877431880E+03  0.49963797633E+03  0.67607379535E+03  0.91006603101E+02 0.  0.
         23    2    4    4    0    0  0.45651697623E+03 -0.98696177052E+02  0.78564438121E+02  0.48229925716E+03  0.91057770473E+02 0.  0.
          2    1    3    3  502    0 -0.15126622734E+03 -0.16224299156E+03 -0.35186564192E+03  0.41594914330E+03  0.00000000000E+00 0. -1.
         -1    1    3    3    0  502 -0.12620041001E+03 -0.14783515019E+03 -0.18113369353E+03  0.26569002626E+03  0.00000000000E+00 0.  1.
         13    1    5    5    0    0 -0.41942782848E+02  0.12887890479E+03  0.95895632448E+02  0.16602692991E+03  0.00000000000E+00 0.  1.
        -13    1    5    5    0    0 -0.13710755603E+03  0.27989541401E+03  0.40374234388E+03  0.51004686544E+03  0.00000000000E+00 0. -1.
          4    1    6    6  503    0  0.36316223471E+03 -0.42624772810E+02  0.45406602396E+02  0.36846362034E+03  0.00000000000E+00 0. -1.
         -4    1    6    6    0  503  0.93354741523E+02 -0.56071404242E+02  0.33157835725E+02  0.11383563681E+03  0.00000000000E+00 0.  1.
<mgrwt>
<rscale>  0 0.18394569E+04</rscale>
<asrwt>0</asrwt>
<pdfrwt beam="1">  1        2 0.14501656E+00 0.18394569E+04</pdfrwt>
<pdfrwt beam="2">  1       -1 0.13806224E+00 0.18394569E+04</pdfrwt>
<totfact> 0.12817527E+01</totfact>
</mgrwt>
</event>
<event>
12    7  0.1707730E-007  0.1735530E+04  0.7818608E-02  0.8741356E-01
         -1   -1    0    0    0  501 -0.00000000000E+00  0.00000000000E+00  0.49927994606E+03  0.49927994606E+03  0.00000000000E+00 0.  1.
          2   -1    0    0  501    0  0.00000000000E+00 -0.00000000000E+00 -0.15082048749E+04  0.15082048749E+04  0.00000000000E+00 0. -1.
         24    2    1    2    0    0 -0.61802423102E+01  0.37231587800E+03  0.22289876610E+03  0.44077113699E+03  0.77058593751E+02 0.  0.
        254    2    1    2    0    0  0.61802423102E+01 -0.37231587800E+03 -0.12318236950E+04  0.15667136840E+04  0.89361336367E+03 0.  0.
         23    2    4    4    0    0 -0.15749077911E+03 -0.40672556293E+03 -0.15327437708E+03  0.47140132464E+03  0.92179960742E+02 0.  0.
         23    2    4    4    0    0  0.16367102142E+03  0.34409684931E+02 -0.10785493179E+04  0.10953123593E+04  0.92023387029E+02 0.  0.
          2    1    3    3  502    0 -0.24825853445E+02  0.52681720612E+02  0.50751802614E+02  0.77249156335E+02  0.00000000000E+00 0. -1.
         -1    1    3    3    0  502  0.18645611135E+02  0.31963415738E+03  0.17214696349E+03  0.36352198066E+03  0.00000000000E+00 0.  1.
         13    1    5    5    0    0 -0.65688471932E+02 -0.11417396528E+03 -0.76072109155E+01  0.13194142394E+03  0.00000000000E+00 0. -1.
        -13    1    5    5    0    0 -0.91802307180E+02 -0.29255159764E+03 -0.14566716616E+03  0.33945990070E+03  0.00000000000E+00 0.  1.
          4    1    6    6  503    0  0.10562106588E+03 -0.24094676362E+02 -0.63340283379E+03  0.64260058577E+03  0.00000000000E+00 0. -1.
         -4    1    6    6    0  503  0.58049955545E+02  0.58504361293E+02 -0.44514648410E+03  0.45271177357E+03  0.00000000000E+00 0.  1.
<mgrwt>
<rscale>  0 0.17355304E+04</rscale>
<asrwt>0</asrwt>
<pdfrwt beam="1">  1        2 0.23203152E+00 0.17355304E+04</pdfrwt>
<pdfrwt beam="2">  1       -1 0.76812299E-01 0.17355304E+04</pdfrwt>
<totfact> 0.23090166E+01</totfact>
</mgrwt>
</event>
<event>
12    7  0.1707730E-007  0.2225699E+04  0.7818608E-02  0.8507807E-01
         -1   -1    0    0    0  501 -0.00000000000E+00  0.00000000000E+00  0.52431567145E+03  0.52431567145E+03  0.00000000000E+00 0.  1.
          2   -1    0    0  501    0  0.00000000000E+00 -0.00000000000E+00 -0.23620005575E+04  0.23620005575E+04  0.00000000000E+00 0. -1.
         24    2    1    2    0    0 -0.79878215514E+03 -0.14347466887E+02 -0.15902024429E+03  0.81879152220E+03  0.82905594254E+02 0.  0.
        254    2    1    2    0    0  0.79878215514E+03  0.14347466887E+02 -0.16786646417E+04  0.20675247067E+04  0.90470141613E+03 0.  0.
         23    2    4    4    0    0  0.12831754207E+03 -0.85814709294E+02  0.68269804677E+02  0.19143611653E+03  0.90318683265E+02 0.  0.
         23    2    4    4    0    0  0.67046461307E+03  0.10016217618E+03 -0.17469344464E+04  0.18760885902E+04  0.91505078094E+02 0.  0.
          2    1    3    3  502    0 -0.23599946374E+02  0.10663662300E+02  0.41497011232E+01  0.26227679690E+02  0.00000000000E+00 0. -1.
         -1    1    3    3    0  502 -0.77518220876E+03 -0.25011129187E+02 -0.16316994541E+03  0.79256384251E+03  0.00000000000E+00 0.  1.
         13    1    5    5    0    0  0.76610999236E+02 -0.83197584555E+02  0.10076060586E+02  0.11354563081E+03  0.00000000000E+00 0. -1.
        -13    1    5    5    0    0  0.51706542834E+02 -0.26171247387E+01  0.58193744090E+02  0.77890485715E+02  0.00000000000E+00 0.  1.
          1    1    6    6  503    0  0.44562190007E+03  0.89142274864E+02 -0.12654760152E+04  0.13446020854E+04  0.00000000000E+00 0. -1.
         -1    1    6    6    0  503  0.22484271300E+03  0.11019901316E+02 -0.48145843121E+03  0.53148650482E+03  0.00000000000E+00 0.  1.
<mgrwt>
<rscale>  0 0.22256989E+04</rscale>
<asrwt>0</asrwt>
<pdfrwt beam="1">  1        2 0.36338470E+00 0.22256989E+04</pdfrwt>
<pdfrwt beam="2">  1       -1 0.80663950E-01 0.22256989E+04</pdfrwt>
<totfact> 0.66484705E+00</totfact>
</mgrwt>
</event>
<event>
12    7  0.1707730E-007  0.1310689E+04  0.7818608E-02  0.9021131E-01
         -1   -1    0    0    0  501 -0.00000000000E+00  0.00000000000E+00  0.29208256161E+03  0.29208256161E+03  0.00000000000E+00 0.  1.
          2   -1    0    0  501    0  0.00000000000E+00 -0.00000000000E+00 -0.14703937220E+04  0.14703937220E+04  0.00000000000E+00 0. -1.
         24    2    1    2    0    0 -0.27984084286E+02 -0.33101938339E+03 -0.23833853570E+03  0.41660100183E+03  0.79963716604E+02 0.  0.
        254    2    1    2    0    0  0.27984084286E+02  0.33101938339E+03 -0.93997262465E+03  0.13458752818E+04  0.90414312904E+03 0.  0.
         23    2    4    4    0    0  0.24232554395E+03  0.47022984840E+03 -0.22635328939E+03  0.58228127104E+03  0.89319020456E+02 0.  0.
         23    2    4    4    0    0 -0.21434145967E+03 -0.13921046501E+03 -0.71361933527E+03  0.76359401071E+03  0.92203267972E+02 0.  0.
          4    1    3    3  502    0 -0.24580617149E+01 -0.29892407907E+03 -0.22245956085E+03  0.37262568796E+03  0.00000000000E+00 0. -1.
         -3    1    3    3    0  502 -0.25526022571E+02 -0.32095304318E+02 -0.15878974858E+02  0.43975313872E+02  0.00000000000E+00 0.  1.
         13    1    5    5    0    0  0.75523396413E+02  0.83512575282E+02 -0.24416364129E+02  0.11521411577E+03  0.00000000000E+00 0. -1.
        -13    1    5    5    0    0  0.16680214754E+03  0.38671727312E+03 -0.20193692526E+03  0.46706715527E+03  0.00000000000E+00 0.  1.
          2    1    6    6  503    0 -0.75833572033E+02 -0.10406148355E+03 -0.33133263419E+03  0.35547269584E+03  0.00000000000E+00 0. -1.
         -2    1    6    6    0  503 -0.13850788764E+03 -0.35148981466E+02 -0.38228670107E+03  0.40812131487E+03  0.00000000000E+00 0.  1.
<mgrwt>
<rscale>  0 0.13106889E+04</rscale>
<asrwt>0</asrwt>
<pdfrwt beam="1">  1        2 0.22621442E+00 0.13106889E+04</pdfrwt>
<pdfrwt beam="2">  1       -1 0.44935779E-01 0.13106889E+04</pdfrwt>
<totfact> 0.72288841E+01</totfact>
</mgrwt>
</event>
<event>
12    7  0.1707730E-007  0.1063693E+04  0.7818608E-02  0.9241320E-01
          2   -1    0    0  501    0  0.00000000000E+00  0.00000000000E+00  0.16670845177E+04  0.16670845177E+04  0.00000000000E+00 0. -1.
         -1   -1    0    0    0  501 -0.00000000000E+00 -0.00000000000E+00 -0.16967389506E+03  0.16967389506E+03  0.00000000000E+00 0.  1.
         24    2    1    2    0    0 -0.51993053830E+02  0.11867139682E+03  0.17974073647E+03  0.23592150217E+03  0.81031134555E+02 0.  0.
        254    2    1    2    0    0  0.51993053830E+02 -0.11867139682E+03  0.13176698861E+04  0.16008369106E+04  0.89979925946E+03 0.  0.
         23    2    4    4    0    0  0.29628074329E+03 -0.35134343728E+03  0.38911517810E+03  0.60923363865E+03  0.92360786422E+02 0.  0.
         23    2    4    4    0    0 -0.24428768946E+03  0.23267204047E+03  0.92855470803E+03  0.99160327191E+03  0.85149570897E+02 0.  0.
          2    1    3    3  502    0  0.15876801433E+02  0.76122916065E+01  0.46215089000E+02  0.49455578639E+02  0.00000000000E+00 0. -1.
         -1    1    3    3    0  502 -0.67869855263E+02  0.11105910521E+03  0.13352564747E+03  0.18646592353E+03  0.00000000000E+00 0.  1.
         13    1    5    5    0    0  0.10389723603E+03 -0.73845785147E+02  0.14191165790E+03  0.19075312392E+03  0.00000000000E+00 0. -1.
        -13    1    5    5    0    0  0.19238350726E+03 -0.27749765214E+03  0.24720352021E+03  0.41848051473E+03  0.00000000000E+00 0.  1.
          1    1    6    6  503    0 -0.15077650677E+03  0.86286828246E+02  0.43728937252E+03  0.47053264184E+03  0.00000000000E+00 0. -1.
         -1    1    6    6    0  503 -0.93511182695E+02  0.14638521222E+03  0.49126533550E+03  0.52107063006E+03  0.00000000000E+00 0.  1.
<mgrwt>
<rscale>  0 0.10636930E+04</rscale>
<asrwt>0</asrwt>
<pdfrwt beam="1">  1        2 0.25647453E+00 0.10636930E+04</pdfrwt>
<pdfrwt beam="2">  1       -1 0.26103677E-01 0.10636930E+04</pdfrwt>
<totfact> 0.15076355E+02</totfact>
</mgrwt>
</event>
<event>
12    7  0.1707730E-007  0.2007280E+04  0.7818608E-02  0.8603225E-01
         -1   -1    0    0    0  501 -0.00000000000E+00  0.00000000000E+00  0.90920918329E+03  0.90920918329E+03  0.00000000000E+00 0.  1.
          2   -1    0    0  501    0  0.00000000000E+00 -0.00000000000E+00 -0.11078783084E+04  0.11078783084E+04  0.00000000000E+00 0. -1.
         24    2    1    2    0    0  0.78043493644E+03  0.16553056768E+03 -0.15335617248E+03  0.81717577951E+03  0.88199093713E+02 0.  0.
        254    2    1    2    0    0 -0.78043493644E+03 -0.16553056768E+03 -0.45312952630E+02  0.11999117122E+04  0.89512892619E+03 0.  0.
         23    2    4    4    0    0 -0.32530703023E+03  0.22528798810E+03  0.29726100248E+03  0.50324479623E+03  0.91169511523E+02 0.  0.
         23    2    4    4    0    0 -0.45512790621E+03 -0.39081855578E+03 -0.34257395511E+03  0.69666691595E+03  0.90040671423E+02 0.  0.
          2    1    3    3  502    0  0.74762893467E+02  0.36123122355E+02  0.22192929452E+01  0.83061997745E+02  0.00000000000E+00 0. -1.
         -1    1    3    3    0  502  0.70567204297E+03  0.12940744533E+03 -0.15557546542E+03  0.73411378176E+03  0.00000000000E+00 0.  1.
         13    1    5    5    0    0 -0.32290239187E+03  0.19903101771E+03  0.27226427676E+03  0.46691234411E+03  0.00000000000E+00 0. -1.
        -13    1    5    5    0    0 -0.24046383621E+01  0.26256970388E+02  0.24996725721E+02  0.36332452111E+02  0.00000000000E+00 0.  1.
          4    1    6    6  503    0 -0.38375111016E+03 -0.34030822688E+03 -0.25457220228E+03  0.57260947426E+03  0.00000000000E+00 0. -1.
         -4    1    6    6    0  503 -0.71376796041E+02 -0.50510328905E+02 -0.88001752829E+02  0.12405744170E+03  0.00000000000E+00 0.  1.
<mgrwt>
<rscale>  0 0.20072799E+04</rscale>
<asrwt>0</asrwt>
<pdfrwt beam="1">  1        2 0.17044282E+00 0.20072799E+04</pdfrwt>
<pdfrwt beam="2">  1       -1 0.13987834E+00 0.20072799E+04</pdfrwt>
<totfact> 0.95844928E+00</totfact>
</mgrwt>
</event>
<event>
12    7  0.1707730E-007  0.4831944E+04  0.7818608E-02  0.7854968E-01
         -1   -1    0    0    0  501 -0.00000000000E+00  0.00000000000E+00  0.30855090979E+04  0.30855090979E+04  0.00000000000E+00 0.  1.
          2   -1    0    0  501    0  0.00000000000E+00 -0.00000000000E+00 -0.18917201290E+04  0.18917201290E+04  0.00000000000E+00 0. -1.
         24    2    1    2    0    0 -0.89958294477E+03  0.21395378431E+04  0.80933675726E+03  0.24593282276E+04  0.79985545627E+02 0.  0.
        254    2    1    2    0    0  0.89958294477E+03 -0.21395378431E+04  0.38445221159E+03  0.25179009993E+04  0.89730166769E+03 0.  0.
         23    2    4    4    0    0  0.69153344548E+03 -0.19671010555E+04  0.58713734364E+03  0.21681510893E+04  0.91890242588E+02 0.  0.
         23    2    4    4    0    0  0.20804949929E+03 -0.17243678760E+03 -0.20268513205E+03  0.34974991009E+03  0.90690115134E+02 0.  0.
          2    1    3    3  502    0 -0.88973098576E+03  0.20847650692E+04  0.79057792916E+03  0.24005999422E+04  0.00000000000E+00 0. -1.
         -1    1    3    3    0  502 -0.98519590086E+01  0.54772773968E+02  0.18758828097E+02  0.58728285315E+02  0.00000000000E+00 0.  1.
         13    1    5    5    0    0  0.11723432019E+03 -0.44051313777E+03  0.11433666027E+03  0.46996657568E+03  0.00000000000E+00 0.  1.
        -13    1    5    5    0    0  0.57429912528E+03 -0.15265879178E+04  0.47280068337E+03  0.16981845136E+04  0.00000000000E+00 0. -1.
          4    1    6    6  503    0  0.51760820224E+01 -0.35743797239E+02 -0.77171650875E+01  0.36931903595E+02  0.00000000000E+00 0.  1.
         -4    1    6    6    0  503  0.20287341727E+03 -0.13669299036E+03 -0.19496796696E+03  0.31281800650E+03  0.00000000000E+00 0. -1.
<mgrwt>
<rscale>  0 0.48319436E+04</rscale>
<asrwt>0</asrwt>
<pdfrwt beam="1">  1        2 0.29103387E+00 0.48319436E+04</pdfrwt>
<pdfrwt beam="2">  1       -1 0.47469371E+00 0.48319436E+04</pdfrwt>
<totfact> 0.14190503E-02</totfact>
</mgrwt>
</event>
<event>
12    7  0.1707730E-007  0.2196412E+04  0.7818608E-02  0.8519923E-01
         -1   -1    0    0    0  501 -0.00000000000E+00  0.00000000000E+00  0.10461894396E+04  0.10461894396E+04  0.00000000000E+00 0.  1.
          2   -1    0    0  501    0  0.00000000000E+00 -0.00000000000E+00 -0.11528088249E+04  0.11528088249E+04  0.00000000000E+00 0. -1.
         24    2    1    2    0    0 -0.46672333652E+03  0.77273749812E+03 -0.16280899577E+03  0.92071453823E+03  0.79085889733E+02 0.  0.
        254    2    1    2    0    0  0.46672333652E+03 -0.77273749812E+03  0.56189610459E+02  0.12782837263E+04  0.90327077817E+03 0.  0.
         23    2    4    4    0    0  0.54548072226E+03 -0.85614947283E+03  0.23593203232E+03  0.10462370575E+04  0.91689249406E+02 0.  0.
         23    2    4    4    0    0 -0.78757385748E+02  0.83411974713E+02 -0.17974242186E+03  0.23204666876E+03  0.91531606182E+02 0.  0.
          2    1    3    3  502    0 -0.26991061460E+02  0.40097613601E+02  0.89276247849E+01  0.49153214539E+02  0.00000000000E+00 0. -1.
         -1    1    3    3    0  502 -0.43973227506E+03  0.73263988452E+03 -0.17173662056E+03  0.87156132369E+03  0.00000000000E+00 0.  1.
         13    1    5    5    0    0  0.53727251007E+03 -0.83179966935E+03  0.21549660585E+03  0.10134057564E+04  0.00000000000E+00 0. -1.
        -13    1    5    5    0    0  0.82082121979E+01 -0.24349803481E+02  0.20435426468E+02  0.32831301101E+02  0.00000000000E+00 0.  1.
          2    1    6    6  503    0 -0.77636810172E+02  0.47676879234E+02 -0.65145895425E+02  0.11200244104E+03  0.00000000000E+00 0. -1.
         -2    1    6    6    0  503 -0.11205755761E+01  0.35735095479E+02 -0.11459652644E+03  0.12004422772E+03  0.00000000000E+00 0.  1.
<mgrwt>
<rscale>  0 0.21964120E+04</rscale>
<asrwt>0</asrwt>
<pdfrwt beam="1">  1        2 0.17735520E+00 0.21964120E+04</pdfrwt>
<pdfrwt beam="2">  1       -1 0.16095222E+00 0.21964120E+04</pdfrwt>
<totfact> 0.60594006E+00</totfact>
</mgrwt>
</event>
<event>
12    7  0.1707730E-007  0.3112342E+04  0.7818608E-02  0.8212359E-01
          2   -1    0    0  501    0  0.00000000000E+00  0.00000000000E+00  0.82258011471E+03  0.82258011471E+03  0.00000000000E+00 0. -1.
         -1   -1    0    0    0  501 -0.00000000000E+00 -0.00000000000E+00 -0.29439916024E+04  0.29439916024E+04  0.00000000000E+00 0.  1.
         24    2    1    2    0    0 -0.60343789809E+03 -0.33836637783E+03 -0.24813838798E+04  0.25772162025E+04  0.78411051178E+02 0.  0.
        254    2    1    2    0    0  0.60343789809E+03  0.33836637783E+03  0.35997239215E+03  0.11893555146E+04  0.89797400544E+03 0.  0.
         23    2    4    4    0    0  0.28794363272E+03 -0.17724963569E+02 -0.26133340977E+03  0.40159349318E+03  0.98774858858E+02 0.  0.
         23    2    4    4    0    0  0.31549426538E+03  0.35609134140E+03  0.62130580193E+03  0.78776202140E+03  0.90611411834E+02 0.  0.
          2    1    3    3  502    0 -0.73077670093E+02 -0.13753762010E+02 -0.27754986832E+03  0.28733854813E+03  0.00000000000E+00 0. -1.
         -1    1    3    3    0  502 -0.53036022800E+03 -0.32461261582E+03 -0.22038340115E+04  0.22898776544E+04  0.00000000000E+00 0.  1.
         13    1    5    5    0    0  0.16872874805E+03  0.76873392243E+01 -0.90178293101E+02  0.19146960633E+03  0.00000000000E+00 0.  1.
        -13    1    5    5    0    0  0.11921488467E+03 -0.25412302793E+02 -0.17115511667E+03  0.21012388685E+03  0.00000000000E+00 0. -1.
          1    1    6    6  503    0  0.26676159616E+03  0.31559922427E+03  0.57989583541E+03  0.71207008045E+03  0.00000000000E+00 0. -1.
         -1    1    6    6    0  503  0.48732669213E+02  0.40492117131E+02  0.41409966513E+02  0.75691940951E+02  0.00000000000E+00 0.  1.
<mgrwt>
<rscale>  0 0.31123425E+04</rscale>
<asrwt>0</asrwt>
<pdfrwt beam="1">  1        2 0.12655079E+00 0.31123425E+04</pdfrwt>
<pdfrwt beam="2">  1       -1 0.45292178E+00 0.31123425E+04</pdfrwt>
<totfact> 0.98991147E-02</totfact>
</mgrwt>
</event>
<event>
12    7  0.1707730E-007  0.2128448E+04  0.7818608E-02  0.8548814E-01
          2   -1    0    0  501    0  0.00000000000E+00  0.00000000000E+00  0.26638521674E+04  0.26638521674E+04  0.00000000000E+00 0. -1.
         -3   -1    0    0    0  501 -0.00000000000E+00 -0.00000000000E+00 -0.42516347660E+03  0.42516347660E+03  0.00000000000E+00 0.  1.
         24    2    1    2    0    0  0.94370531429E+02 -0.43653922155E+03 -0.16552804103E+03  0.48287547849E+03  0.79353047819E+02 0.  0.
        254    2    1    2    0    0 -0.94370531429E+02  0.43653922155E+03  0.24042167318E+04  0.26061401655E+04  0.90124146573E+03 0.  0.
         23    2    4    4    0    0  0.79791026289E+02 -0.22160020382E+03  0.11371748467E+04  0.11648540869E+04  0.90802827928E+02 0.  0.
         23    2    4    4    0    0 -0.17416155772E+03  0.65813942537E+03  0.12670418851E+04  0.14412860786E+04  0.91818681901E+02 0.  0.
          4    1    3    3  502    0  0.55606124847E+01 -0.30089235597E+01 -0.13584705329E+02  0.14983933097E+02  0.00000000000E+00 0. -1.
         -3    1    3    3    0  502  0.88809918944E+02 -0.43353029799E+03 -0.15194333571E+03  0.46789154539E+03  0.00000000000E+00 0.  1.
         13    1    5    5    0    0  0.50684992237E+02 -0.14246557247E+03  0.91118780038E+03  0.92364961719E+03  0.00000000000E+00 0.  1.
        -13    1    5    5    0    0  0.29106034052E+02 -0.79134631350E+02  0.22598704637E+03  0.24120446974E+03  0.00000000000E+00 0. -1.
          2    1    6    6  503    0 -0.11149924867E+03  0.32153850078E+03  0.71168130234E+03  0.78886587329E+03  0.00000000000E+00 0. -1.
         -2    1    6    6    0  503 -0.62662309048E+02  0.33660092459E+03  0.55536058271E+03  0.65242020527E+03  0.00000000000E+00 0.  1.
<mgrwt>
<rscale>  0 0.21284479E+04</rscale>
<asrwt>0</asrwt>
<pdfrwt beam="1">  1        2 0.40982340E+00 0.21284479E+04</pdfrwt>
<pdfrwt beam="2">  1       -3 0.65409767E-01 0.21284479E+04</pdfrwt>
<totfact> 0.37261054E+00</totfact>
</mgrwt>
</event>
<event>
12    7  0.1707730E-007  0.1915132E+04  0.7818608E-02  0.8647360E-01
          2   -1    0    0  501    0  0.00000000000E+00  0.00000000000E+00  0.14874985908E+04  0.14874985908E+04  0.00000000000E+00 0. -1.
         -1   -1    0    0    0  501 -0.00000000000E+00 -0.00000000000E+00 -0.61642619821E+03  0.61642619821E+03  0.00000000000E+00 0.  1.
         24    2    1    2    0    0  0.77672135231E+02  0.58641659969E+03 -0.15984993560E+03  0.61751748504E+03  0.76540534594E+02 0.  0.
        254    2    1    2    0    0 -0.77672135231E+02 -0.58641659969E+03  0.10309223282E+04  0.14864073040E+04  0.89257405159E+03 0.  0.
         23    2    4    4    0    0 -0.37796702310E+03  0.14311273901E+02  0.43945592373E+03  0.58687761260E+03  0.90774116105E+02 0.  0.
         23    2    4    4    0    0  0.30029488787E+03 -0.60072787359E+03  0.59146640448E+03  0.89952969139E+03  0.90940421576E+02 0.  0.
          2    1    3    3  502    0  0.27410379526E+01  0.24038907821E+02  0.86213363016E+01  0.25684816875E+02  0.00000000000E+00 0. -1.
         -1    1    3    3    0  502  0.74931097279E+02  0.56237769186E+03 -0.16847127191E+03  0.59183266816E+03  0.00000000000E+00 0.  1.
         13    1    5    5    0    0 -0.16847174513E+03  0.26011344874E+02  0.25935096267E+03  0.31035824592E+03  0.00000000000E+00 0. -1.
        -13    1    5    5    0    0 -0.20949527797E+03 -0.11700070973E+02  0.18010496106E+03  0.27651936668E+03  0.00000000000E+00 0.  1.
          3    1    6    6  503    0  0.51321141395E+02 -0.43213203557E+02  0.62141869807E+02  0.91448633117E+02  0.00000000000E+00 0. -1.
         -3    1    6    6    0  503  0.24897374648E+03 -0.55751467003E+03  0.52932453467E+03  0.80808105827E+03  0.00000000000E+00 0.  1.
<mgrwt>
<rscale>  0 0.19151325E+04</rscale>
<asrwt>0</asrwt>
<pdfrwt beam="1">  1        2 0.22884594E+00 0.19151325E+04</pdfrwt>
<pdfrwt beam="2">  1       -1 0.94834800E-01 0.19151325E+04</pdfrwt>
<totfact> 0.14783166E+01</totfact>
</mgrwt>
</event>
<event>
12    7  0.1707730E-007  0.1512508E+04  0.7818608E-02  0.8876178E-01
         -1   -1    0    0    0  501 -0.00000000000E+00  0.00000000000E+00  0.39354690477E+03  0.39354690477E+03  0.00000000000E+00 0.  1.
          2   -1    0    0  501    0  0.00000000000E+00 -0.00000000000E+00 -0.14532443393E+04  0.14532443393E+04  0.00000000000E+00 0. -1.
         24    2    1    2    0    0 -0.21932562384E+03  0.42107808093E+03 -0.49417907891E+03  0.68968739032E+03  0.77751236764E+02 0.  0.
        254    2    1    2    0    0  0.21932562384E+03 -0.42107808093E+03 -0.56551835558E+03  0.11571038537E+04  0.89088037259E+03 0.  0.
         23    2    4    4    0    0 -0.18560297804E+03  0.12325659591E+03  0.33867185167E+02  0.24670137836E+03  0.10036896911E+03 0.  0.
         23    2    4    4    0    0  0.40492860188E+03 -0.54433467684E+03 -0.59938554075E+03  0.91040247535E+03  0.96448056721E+02 0.  0.
          2    1    3    3  502    0 -0.17010175720E+03  0.37647088425E+03 -0.44376977901E+03  0.60629741155E+03  0.00000000000E+00 0. -1.
         -1    1    3    3    0  502 -0.49223866635E+02  0.44607196679E+02 -0.50409299904E+02  0.83389978767E+02  0.00000000000E+00 0.  1.
         13    1    5    5    0    0 -0.95883280593E+02  0.54003407499E+01  0.83344250213E+01  0.96396212674E+02  0.00000000000E+00 0.  1.
        -13    1    5    5    0    0 -0.89719697445E+02  0.11785625516E+03  0.25532760146E+02  0.15030516569E+03  0.00000000000E+00 0. -1.
          3    1    6    6  503    0  0.16694795837E+03 -0.30183540698E+03 -0.32029152631E+03  0.47070467975E+03  0.00000000000E+00 0. -1.
         -3    1    6    6    0  503  0.23798064350E+03 -0.24249926986E+03 -0.27909401444E+03  0.43969779560E+03  0.00000000000E+00 0.  1.
<mgrwt>
<rscale>  0 0.15125076E+04</rscale>
<asrwt>0</asrwt>
<pdfrwt beam="1">  1        2 0.22357605E+00 0.15125076E+04</pdfrwt>
<pdfrwt beam="2">  1       -1 0.60545678E-01 0.15125076E+04</pdfrwt>
<totfact> 0.41057781E+01</totfact>
</mgrwt>
</event>
<event>
12    7  0.1707730E-007  0.1221896E+04  0.7818608E-02  0.9093904E-01
         -1   -1    0    0    0  501 -0.00000000000E+00  0.00000000000E+00  0.64220656185E+03  0.64220656185E+03  0.00000000000E+00 0.  1.
          2   -1    0    0  501    0  0.00000000000E+00 -0.00000000000E+00 -0.58121074215E+03  0.58121074215E+03  0.00000000000E+00 0. -1.
         24    2    1    2    0    0 -0.81506916928E+02  0.18025079307E+03 -0.16482662610E+03  0.26958103242E+03  0.79827253867E+02 0.  0.
        254    2    1    2    0    0  0.81506916928E+02 -0.18025079307E+03  0.22582244580E+03  0.95383627159E+03  0.90535856436E+03 0.  0.
         23    2    4    4    0    0 -0.24821668736E+03  0.23757155280E+03 -0.26681380760E+02  0.35728810686E+03  0.94292781484E+02 0.  0.
         23    2    4    4    0    0  0.32972360429E+03 -0.41782234587E+03  0.25250382656E+03  0.59654816473E+03  0.93906136601E+02 0.  0.
          2    1    3    3  502    0 -0.65309920724E+01  0.10863252866E+03 -0.96110362187E+02  0.14519256820E+03  0.00000000000E+00 0. -1.
         -1    1    3    3    0  502 -0.74975924856E+02  0.71618264406E+02 -0.68716263912E+02  0.12438846422E+03  0.00000000000E+00 0.  1.
         13    1    5    5    0    0 -0.24798506806E+03  0.21090869936E+03 -0.39081811365E+02  0.32788177965E+03  0.00000000000E+00 0. -1.
        -13    1    5    5    0    0 -0.23161930393E+00  0.26662853434E+02  0.12400430605E+02  0.29406327209E+02  0.00000000000E+00 0.  1.
          1    1    6    6  503    0  0.18846816288E+03 -0.16719976679E+03  0.13450489396E+03  0.28560037979E+03  0.00000000000E+00 0. -1.
         -1    1    6    6    0  503  0.14125544140E+03 -0.25062257908E+03  0.11799893260E+03  0.31094778495E+03  0.00000000000E+00 0.  1.
<mgrwt>
<rscale>  0 0.12218958E+04</rscale>
<asrwt>0</asrwt>
<pdfrwt beam="1">  1        2 0.89417038E-01 0.12218958E+04</pdfrwt>
<pdfrwt beam="2">  1       -1 0.98801009E-01 0.12218958E+04</pdfrwt>
<totfact> 0.56899108E+01</totfact>
</mgrwt>
</event>
<event>
12    7  0.1707730E-007  0.1628812E+04  0.7818608E-02  0.8803041E-01
         -1   -1    0    0    0  501 -0.00000000000E+00  0.00000000000E+00  0.18878307994E+03  0.18878307994E+03  0.00000000000E+00 0.  1.
          2   -1    0    0  501    0  0.00000000000E+00 -0.00000000000E+00 -0.35133291301E+04  0.35133291301E+04  0.00000000000E+00 0. -1.
         24    2    1    2    0    0 -0.29741219060E+03  0.29471045598E+03 -0.19206673943E+04  0.19673582935E+04  0.78912303309E+02 0.  0.
        254    2    1    2    0    0  0.29741219060E+03 -0.29471045598E+03 -0.14038786559E+04  0.17347539166E+04  0.92907890221E+03 0.  0.
         23    2    4    4    0    0  0.10027744913E+03  0.22997801649E+03 -0.10074837980E+04  0.10421825317E+04  0.90417760092E+02 0.  0.
         23    2    4    4    0    0  0.19713474147E+03 -0.52468847248E+03 -0.39639485787E+03  0.69257138480E+03  0.91466607312E+02 0.  0.
          4    1    3    3  502    0 -0.21691207713E+03  0.17593562216E+03 -0.13797694592E+04  0.14077528025E+04  0.00000000000E+00 0. -1.
         -3    1    3    3    0  502 -0.80500113471E+02  0.11877483382E+03 -0.54089793510E+03  0.55960549105E+03  0.00000000000E+00 0.  1.
         13    1    5    5    0    0  0.51236017988E+02  0.31131326735E+02 -0.28461594142E+03  0.29086169077E+03  0.00000000000E+00 0. -1.
        -13    1    5    5    0    0  0.49041431137E+02  0.19884668976E+03 -0.72286785660E+03  0.75132084098E+03  0.00000000000E+00 0.  1.
          3    1    6    6  503    0  0.12085021133E+03 -0.26750966410E+03 -0.15628110729E+03  0.33255071562E+03  0.00000000000E+00 0. -1.
         -3    1    6    6    0  503  0.76284530140E+02 -0.25717880837E+03 -0.24011375058E+03  0.36002066918E+03  0.00000000000E+00 0.  1.
<mgrwt>
<rscale>  0 0.16288120E+04</rscale>
<asrwt>0</asrwt>
<pdfrwt beam="1">  1        2 0.54051219E+00 0.16288120E+04</pdfrwt>
<pdfrwt beam="2">  1       -1 0.29043550E-01 0.16288120E+04</pdfrwt>
<totfact> 0.94703018E+00</totfact>
</mgrwt>
</event>
<event>
12    7  0.1707730E-007  0.1456726E+04  0.7818608E-02  0.8913751E-01
          2   -1    0    0  501    0  0.00000000000E+00  0.00000000000E+00  0.32141934363E+04  0.32141934363E+04  0.00000000000E+00 0. -1.
         -1   -1    0    0    0  501 -0.00000000000E+00 -0.00000000000E+00 -0.16505309032E+03  0.16505309032E+03  0.00000000000E+00 0.  1.
         24    2    1    2    0    0 -0.85453828451E+02 -0.43767904505E+03  0.98450675664E+03  0.10831530764E+04  0.71426394330E+02 0.  0.
        254    2    1    2    0    0  0.85453828451E+02  0.43767904505E+03  0.20646335893E+04  0.22960934502E+04  0.90025994612E+03 0.  0.
         23    2    4    4    0    0  0.35234969070E+03  0.14409224702E+03  0.32340170982E+03  0.50785882908E+03  0.91755349590E+02 0.  0.
         23    2    4    4    0    0 -0.26689586225E+03  0.29358679803E+03  0.17412318795E+04  0.17882346211E+04  0.92021696695E+02 0.  0.
          2    1    3    3  502    0 -0.82384516681E+02 -0.43970844552E+03  0.98037457669E+03  0.10776200797E+04  0.00000000000E+00 0. -1.
         -1    1    3    3    0  502 -0.30693117700E+01  0.20294004707E+01  0.41321799480E+01  0.55329966686E+01  0.00000000000E+00 0.  1.
         13    1    5    5    0    0  0.33525106916E+03  0.11125384766E+03  0.27952983609E+03  0.45045269147E+03  0.00000000000E+00 0.  1.
        -13    1    5    5    0    0  0.17098621540E+02  0.32838399354E+02  0.43871873730E+02  0.57406137610E+02  0.00000000000E+00 0. -1.
          3    1    6    6  503    0 -0.53599050522E+02  0.36070897094E+02  0.17107417780E+03  0.18286700672E+03  0.00000000000E+00 0. -1.
         -3    1    6    6    0  503 -0.21329681172E+03  0.25751590093E+03  0.15701577017E+04  0.16053676144E+04  0.00000000000E+00 0.  1.
<mgrwt>
<rscale>  0 0.14567259E+04</rscale>
<asrwt>0</asrwt>
<pdfrwt beam="1">  1        2 0.49449125E+00 0.14567259E+04</pdfrwt>
<pdfrwt beam="2">  1       -1 0.25392785E-01 0.14567259E+04</pdfrwt>
<totfact> 0.19316316E+01</totfact>
</mgrwt>
</event>
<event>
12    7  0.1707730E-007  0.1260702E+04  0.7818608E-02  0.9061323E-01
         -1   -1    0    0    0  501 -0.00000000000E+00  0.00000000000E+00  0.47827932347E+03  0.47827932347E+03  0.00000000000E+00 0.  1.
          2   -1    0    0  501    0  0.00000000000E+00 -0.00000000000E+00 -0.83077465611E+03  0.83077465611E+03  0.00000000000E+00 0. -1.
         24    2    1    2    0    0 -0.21094170005E+03 -0.17312639113E+03  0.38748202505E+02  0.28903564320E+03  0.87011675758E+02 0.  0.
        254    2    1    2    0    0  0.21094170005E+03  0.17312639113E+03 -0.39124353515E+03  0.10200183364E+04  0.90160787188E+03 0.  0.
         23    2    4    4    0    0 -0.24276702505E+03 -0.10877312687E+03 -0.38648155538E+03  0.47769227405E+03  0.89746835342E+02 0.  0.
         23    2    4    4    0    0  0.45370872510E+03  0.28189951800E+03 -0.47619797687E+01  0.54232606234E+03  0.93679965625E+02 0.  0.
          2    1    3    3  502    0 -0.53897878128E+01 -0.14299687355E+02 -0.17518666373E+02  0.23247248065E+02  0.00000000000E+00 0. -1.
         -1    1    3    3    0  502 -0.20555191223E+03 -0.15882670377E+03  0.56266868877E+02  0.26578839513E+03  0.00000000000E+00 0.  1.
         13    1    5    5    0    0 -0.94230832213E+02 -0.58480131542E+02 -0.23405466684E+03  0.25899992779E+03  0.00000000000E+00 0. -1.
        -13    1    5    5    0    0 -0.14853619284E+03 -0.50292995327E+02 -0.15242688854E+03  0.21869234626E+03  0.00000000000E+00 0.  1.
          4    1    6    6  503    0  0.67836053203E+02  0.63187197789E+02  0.29951447351E+02  0.97424028232E+02  0.00000000000E+00 0. -1.
         -4    1    6    6    0  503  0.38587267190E+03  0.21871232021E+03 -0.34713427120E+02  0.44490203411E+03  0.00000000000E+00 0.  1.
<mgrwt>
<rscale>  0 0.12607019E+04</rscale>
<asrwt>0</asrwt>
<pdfrwt beam="1">  1        2 0.12781148E+00 0.12607019E+04</pdfrwt>
<pdfrwt beam="2">  1       -1 0.73581435E-01 0.12607019E+04</pdfrwt>
<totfact> 0.68372087E+01</totfact>
</mgrwt>
</event>
<event>
12    7  0.1707730E-007  0.1463084E+04  0.7818608E-02  0.8909380E-01
         -1   -1    0    0    0  501 -0.00000000000E+00  0.00000000000E+00  0.10616653165E+04  0.10616653165E+04  0.00000000000E+00 0.  1.
          2   -1    0    0  501    0  0.00000000000E+00 -0.00000000000E+00 -0.50406976214E+03  0.50406976214E+03  0.00000000000E+00 0. -1.
         24    2    1    2    0    0 -0.23508914260E+03  0.24203347342E+03  0.49088869922E+03  0.60095533079E+03  0.79551790399E+02 0.  0.
        254    2    1    2    0    0  0.23508914260E+03 -0.24203347342E+03  0.66706855151E+02  0.96477974787E+03  0.90138951079E+03 0.  0.
         23    2    4    4    0    0  0.25488048791E+03  0.16716395966E+03 -0.27738995581E+03  0.42187065467E+03  0.90121080564E+02 0.  0.
         23    2    4    4    0    0 -0.19791345309E+02 -0.40919743308E+03  0.34409681096E+03  0.54290909320E+03  0.92268258794E+02 0.  0.
          2    1    3    3  502    0 -0.44300160582E+01 -0.23382550257E+01  0.30863598621E+02  0.31267462300E+02  0.00000000000E+00 0. -1.
         -1    1    3    3    0  502 -0.23065912654E+03  0.24437172845E+03  0.46002510060E+03  0.56968786849E+03  0.00000000000E+00 0.  1.
         13    1    5    5    0    0  0.15871692014E+03  0.53912355299E+02 -0.16843798280E+03  0.23763197774E+03  0.00000000000E+00 0. -1.
        -13    1    5    5    0    0  0.96163567776E+02  0.11325160436E+03 -0.10895197300E+03  0.18423867694E+03  0.00000000000E+00 0.  1.
          3    1    6    6  503    0 -0.38310836003E+02 -0.37889667520E+03  0.33248748641E+03  0.50554756379E+03  0.00000000000E+00 0. -1.
         -3    1    6    6    0  503  0.18519490695E+02 -0.30300757881E+02  0.11609324550E+02  0.37361529415E+02  0.00000000000E+00 0.  1.
<mgrwt>
<rscale>  0 0.14630836E+04</rscale>
<asrwt>0</asrwt>
<pdfrwt beam="1">  1        2 0.77549195E-01 0.14630836E+04</pdfrwt>
<pdfrwt beam="2">  1       -1 0.16333312E+00 0.14630836E+04</pdfrwt>
<totfact> 0.18634928E+01</totfact>
</mgrwt>
</event>
<event>
12    7  0.1707730E-007  0.1501468E+04  0.7818608E-02  0.8883478E-01
         -1   -1    0    0    0  501 -0.00000000000E+00  0.00000000000E+00  0.25369436695E+03  0.25369436695E+03  0.00000000000E+00 0.  1.
          2   -1    0    0  501    0  0.00000000000E+00 -0.00000000000E+00 -0.22215758345E+04  0.22215758345E+04  0.00000000000E+00 0. -1.
         24    2    1    2    0    0  0.27812989794E+03  0.37857222479E+03 -0.74720996761E+03  0.88684480181E+03  0.86589822090E+02 0.  0.
        254    2    1    2    0    0 -0.27812989794E+03 -0.37857222479E+03 -0.12206714999E+04  0.15884253996E+04  0.90132301088E+03 0.  0.
         23    2    4    4    0    0 -0.43380046290E+03  0.22949730789E+02 -0.10035924794E+04  0.10972429566E+04  0.89636540719E+02 0.  0.
         23    2    4    4    0    0  0.15567056496E+03 -0.40152195558E+03 -0.21707902055E+03  0.49118244301E+03  0.93186294869E+02 0.  0.
          2    1    3    3  502    0  0.25960877653E+03  0.36131638924E+03 -0.73394320592E+03  0.85826504036E+03  0.00000000000E+00 0. -1.
         -1    1    3    3    0  502  0.18521121410E+02  0.17255835553E+02 -0.13266761689E+02  0.28579761451E+02  0.00000000000E+00 0.  1.
         13    1    5    5    0    0 -0.39633378756E+03 -0.23289639937E+01 -0.86527238032E+03  0.95172589929E+03  0.00000000000E+00 0. -1.
        -13    1    5    5    0    0 -0.37466675348E+02  0.25278694782E+02 -0.13832009905E+03  0.14551705732E+03  0.00000000000E+00 0.  1.
          2    1    6    6  503    0  0.14186748751E+03 -0.28568797540E+03 -0.19053333700E+03  0.37154670744E+03  0.00000000000E+00 0. -1.
         -2    1    6    6    0  503  0.13803077453E+02 -0.11583398018E+03 -0.26545683558E+02  0.11963573558E+03  0.00000000000E+00 0.  1.
<mgrwt>
<rscale>  0 0.15014676E+04</rscale>
<asrwt>0</asrwt>
<pdfrwt beam="1">  1        2 0.34178091E+00 0.15014676E+04</pdfrwt>
<pdfrwt beam="2">  1       -1 0.39029901E-01 0.15014676E+04</pdfrwt>
<totfact> 0.35240394E+01</totfact>
</mgrwt>
</event>
<event>
12    7  0.1707730E-007  0.1351621E+04  0.7818608E-02  0.8989602E-01
          2   -1    0    0  501    0  0.00000000000E+00  0.00000000000E+00  0.53203159117E+03  0.53203159117E+03  0.00000000000E+00 0. -1.
         -1   -1    0    0    0  501 -0.00000000000E+00 -0.00000000000E+00 -0.85844547394E+03  0.85844547394E+03  0.00000000000E+00 0.  1.
         24    2    1    2    0    0 -0.15145036334E+02  0.23959562255E+03  0.19759032734E+03  0.31939515516E+03  0.73047198541E+02 0.  0.
        254    2    1    2    0    0  0.15145036334E+02 -0.23959562255E+03 -0.52400421011E+03  0.10710819100E+04  0.90277384274E+03 0.  0.
         23    2    4    4    0    0  0.42453223996E+03 -0.35099512249E+02 -0.11443791759E+03  0.45024040643E+03  0.90337080292E+02 0.  0.
         23    2    4    4    0    0 -0.40938720363E+03 -0.20449611030E+03 -0.40956629252E+03  0.62084150352E+03  0.91011443791E+02 0.  0.
          4    1    3    3  502    0 -0.31536614181E+02  0.19379274216E+03  0.18351425909E+03  0.26875205718E+03  0.00000000000E+00 0. -1.
         -3    1    3    3    0  502  0.16391577848E+02  0.45802880387E+02  0.14076068246E+02  0.50643097983E+02  0.00000000000E+00 0.  1.
         13    1    5    5    0    0  0.41399294117E+03 -0.18730856100E+02 -0.10088527169E+03  0.42651944662E+03  0.00000000000E+00 0.  1.
        -13    1    5    5    0    0  0.10539298795E+02 -0.16368656149E+02 -0.13552645904E+02  0.23720959808E+02  0.00000000000E+00 0. -1.
          3    1    6    6  503    0 -0.23802960206E+03 -0.16706417282E+03 -0.24329188168E+03  0.37915625933E+03  0.00000000000E+00 0. -1.
         -3    1    6    6    0  503 -0.17135760157E+03 -0.37431937477E+02 -0.16627441084E+03  0.24168524419E+03  0.00000000000E+00 0.  1.
<mgrwt>
<rscale>  0 0.13516214E+04</rscale>
<asrwt>0</asrwt>
<pdfrwt beam="1">  1        2 0.81851014E-01 0.13516214E+04</pdfrwt>
<pdfrwt beam="2">  1       -1 0.13206853E+00 0.13516214E+04</pdfrwt>
<totfact> 0.31158151E+01</totfact>
</mgrwt>
</event>
<event>
12    7  0.1707730E-007  0.2039343E+04  0.7818608E-02  0.8588444E-01
         -1   -1    0    0    0  501 -0.00000000000E+00  0.00000000000E+00  0.50299228573E+03  0.50299228573E+03  0.00000000000E+00 0.  1.
          2   -1    0    0  501    0  0.00000000000E+00 -0.00000000000E+00 -0.20670899917E+04  0.20670899917E+04  0.00000000000E+00 0. -1.
         24    2    1    2    0    0 -0.13896258475E+03 -0.79852695982E+03 -0.52501397304E+03  0.96900327220E+03  0.79823330795E+02 0.  0.
        254    2    1    2    0    0  0.13896258475E+03  0.79852695982E+03 -0.10390837329E+04  0.16010790052E+04  0.90928712262E+03 0.  0.
         23    2    4    4    0    0  0.16118123626E+03  0.14631398540E+02 -0.72986350895E+03  0.75321571848E+03  0.91867884025E+02 0.  0.
         23    2    4    4    0    0 -0.22218651506E+02  0.78389556128E+03 -0.30922022395E+03  0.84786328671E+03  0.90934518147E+02 0.  0.
          4    1    3    3  502    0 -0.36323899649E+02 -0.12950110384E+03 -0.56872280422E+02  0.14602882545E+03  0.00000000000E+00 0. -1.
         -3    1    3    3    0  502 -0.10263868510E+03 -0.66902585598E+03 -0.46814169262E+03  0.82297444676E+03  0.00000000000E+00 0.  1.
         13    1    5    5    0    0  0.49609653685E+02  0.48275416168E+02 -0.29447686601E+03  0.30250331925E+03  0.00000000000E+00 0. -1.
        -13    1    5    5    0    0  0.11157158257E+03 -0.33644017628E+02 -0.43538664294E+03  0.45071239922E+03  0.00000000000E+00 0.  1.
          4    1    6    6  503    0 -0.10406113932E+02  0.11456787479E+02  0.68334477727E+00  0.15492325410E+02  0.00000000000E+00 0. -1.
         -4    1    6    6    0  503 -0.11812537573E+02  0.77243877380E+03 -0.30990356873E+03  0.83237096130E+03  0.00000000000E+00 0.  1.
<mgrwt>
<rscale>  0 0.20393433E+04</rscale>
<asrwt>0</asrwt>
<pdfrwt beam="1">  1        2 0.31801384E+00 0.20393433E+04</pdfrwt>
<pdfrwt beam="2">  1       -1 0.77383429E-01 0.20393433E+04</pdfrwt>
<totfact> 0.10818592E+01</totfact>
</mgrwt>
</event>
<event>
12    7  0.1707730E-007  0.1085296E+04  0.7818608E-02  0.9219643E-01
          2   -1    0    0  501    0  0.00000000000E+00  0.00000000000E+00  0.26165488438E+04  0.26165488438E+04  0.00000000000E+00 0. -1.
         -1   -1    0    0    0  501 -0.00000000000E+00 -0.00000000000E+00 -0.11254019903E+03  0.11254019903E+03  0.00000000000E+00 0.  1.
         24    2    1    2    0    0 -0.10880378403E+03  0.90788090760E+02  0.45048680682E+03  0.47910574844E+03  0.80766417642E+02 0.  0.
        254    2    1    2    0    0  0.10880378403E+03 -0.90788090760E+02  0.20535218379E+04  0.22499832944E+04  0.90851094947E+03 0.  0.
         23    2    4    4    0    0  0.92363890466E+02  0.39846370213E+03  0.10116133289E+04  0.10950982776E+04  0.92597516734E+02 0.  0.
         23    2    4    4    0    0  0.16439893563E+02 -0.48925179289E+03  0.10419085090E+04  0.11548850168E+04  0.92457957875E+02 0.  0.
          2    1    3    3  502    0 -0.31735952724E+02 -0.12047395370E+02  0.11261797802E+03  0.11762278437E+03  0.00000000000E+00 0. -1.
         -1    1    3    3    0  502 -0.77067831305E+02  0.10283548613E+03  0.33786882881E+03  0.36148296406E+03  0.00000000000E+00 0.  1.
         13    1    5    5    0    0  0.97165544242E+02  0.23899310275E+03  0.67390492133E+03  0.72160008949E+03  0.00000000000E+00 0.  1.
        -13    1    5    5    0    0 -0.48016537757E+01  0.15947059938E+03  0.33770840761E+03  0.37349818811E+03  0.00000000000E+00 0. -1.
          1    1    6    6  503    0  0.17375367921E+02 -0.35680567730E+02  0.13750485891E+03  0.14311740826E+03  0.00000000000E+00 0. -1.
         -1    1    6    6    0  503 -0.93547435795E+00 -0.45357122516E+03  0.90440365007E+03  0.10117676085E+04  0.00000000000E+00 0.  1.
<mgrwt>
<rscale>  0 0.10852961E+04</rscale>
<asrwt>0</asrwt>
<pdfrwt beam="1">  1        2 0.40254593E+00 0.10852961E+04</pdfrwt>
<pdfrwt beam="2">  1       -1 0.17313879E-01 0.10852961E+04</pdfrwt>
<totfact> 0.88582565E+01</totfact>
</mgrwt>
</event>
<event>
12    7  0.1707730E-007  0.1749399E+04  0.7818608E-02  0.8733681E-01
         -1   -1    0    0    0  501 -0.00000000000E+00  0.00000000000E+00  0.58591595008E+03  0.58591595008E+03  0.00000000000E+00 0.  1.
          2   -1    0    0  501    0  0.00000000000E+00 -0.00000000000E+00 -0.13058174188E+04  0.13058174188E+04  0.00000000000E+00 0. -1.
         24    2    1    2    0    0 -0.42344709204E+03 -0.16166836413E+03  0.22306890200E+03  0.51130576582E+03  0.78928774244E+02 0.  0.
        254    2    1    2    0    0  0.42344709204E+03  0.16166836413E+03 -0.94297037075E+03  0.13804276031E+04  0.90052381844E+03 0.  0.
         23    2    4    4    0    0 -0.20489698619E+03 -0.14826676964E+03 -0.11916062434E+03  0.29483813318E+03  0.93618697123E+02 0.  0.
         23    2    4    4    0    0  0.62834407823E+03  0.30993513377E+03 -0.82380974641E+03  0.10855894699E+04  0.94688600912E+02 0.  0.
          2    1    3    3  502    0 -0.11986982205E+03 -0.68288669568E+02  0.10127739100E+03  0.17114095523E+03  0.00000000000E+00 0. -1.
         -1    1    3    3    0  502 -0.30357726999E+03 -0.93379694563E+02  0.12179151100E+03  0.34016481059E+03  0.00000000000E+00 0.  1.
         13    1    5    5    0    0 -0.16608320172E+03 -0.15344737983E+03 -0.81077399683E+02  0.24021505575E+03  0.00000000000E+00 0. -1.
        -13    1    5    5    0    0 -0.38813784466E+02  0.51806101891E+01 -0.38083224659E+02  0.54623077421E+02  0.00000000000E+00 0.  1.
          1    1    6    6  503    0  0.54822644908E+03  0.26724820963E+03 -0.76080070197E+03  0.97508540812E+03  0.00000000000E+00 0. -1.
         -1    1    6    6    0  503  0.80117629148E+02  0.42686924144E+02 -0.63009044439E+02  0.11050406180E+03  0.00000000000E+00 0.  1.
<mgrwt>
<rscale>  0 0.17493990E+04</rscale>
<asrwt>0</asrwt>
<pdfrwt beam="1">  1        2 0.20089499E+00 0.17493990E+04</pdfrwt>
<pdfrwt beam="2">  1       -1 0.90140916E-01 0.17493990E+04</pdfrwt>
<totfact> 0.21336781E+01</totfact>
</mgrwt>
</event>
<event>
12    7  0.1707730E-007  0.2905440E+04  0.7818608E-02  0.8271261E-01
          2   -1    0    0  501    0  0.00000000000E+00  0.00000000000E+00  0.12785704767E+04  0.12785704767E+04  0.00000000000E+00 0. -1.
         -1   -1    0    0    0  501 -0.00000000000E+00 -0.00000000000E+00 -0.16505901225E+04  0.16505901225E+04  0.00000000000E+00 0.  1.
         24    2    1    2    0    0  0.61250390164E+03  0.78128069006E+03  0.69515715829E+03  0.12144686511E+04  0.78294850422E+02 0.  0.
        254    2    1    2    0    0 -0.61250390164E+03 -0.78128069006E+03 -0.10671768041E+04  0.17146919482E+04  0.90318414498E+03 0.  0.
         23    2    4    4    0    0 -0.90897960362E+02 -0.67887901434E+02  0.14992568369E+03  0.20769778861E+03  0.88257885781E+02 0.  0.
         23    2    4    4    0    0 -0.52160594128E+03 -0.71339278862E+03 -0.12171024878E+04  0.15069941596E+04  0.93225009167E+02 0.  0.
          2    1    3    3  502    0  0.18652895454E+02  0.19187652670E+02  0.52243793191E+01  0.27265191418E+02  0.00000000000E+00 0. -1.
         -1    1    3    3    0  502  0.59385100619E+03  0.76209303739E+03  0.68993277897E+03  0.11872034597E+04  0.00000000000E+00 0.  1.
         13    1    5    5    0    0 -0.16052406278E+02 -0.24863110020E+02  0.10751204447E+03  0.11151095773E+03  0.00000000000E+00 0.  1.
        -13    1    5    5    0    0 -0.74845554084E+02 -0.43024791414E+02  0.42413639222E+02  0.96186830878E+02  0.00000000000E+00 0. -1.
          4    1    6    6  503    0 -0.26771266901E+03 -0.35049337223E+03 -0.52980736544E+03  0.68935587442E+03  0.00000000000E+00 0. -1.
         -4    1    6    6    0  503 -0.25389327227E+03 -0.36289941639E+03 -0.68729512236E+03  0.81763828515E+03  0.00000000000E+00 0.  1.
<mgrwt>
<rscale>  0 0.29054403E+04</rscale>
<asrwt>0</asrwt>
<pdfrwt beam="1">  1        2 0.19670315E+00 0.29054403E+04</pdfrwt>
<pdfrwt beam="2">  1       -1 0.25393694E+00 0.29054403E+04</pdfrwt>
<totfact> 0.10988044E+00</totfact>
</mgrwt>
</event>
<event>
12    7  0.1707730E-007  0.1069974E+04  0.7818608E-02  0.9234962E-01
          2   -1    0    0  501    0  0.00000000000E+00  0.00000000000E+00  0.25100309749E+04  0.25100309749E+04  0.00000000000E+00 0. -1.
         -1   -1    0    0    0  501 -0.00000000000E+00 -0.00000000000E+00 -0.11402692689E+03  0.11402692689E+03  0.00000000000E+00 0.  1.
         24    2    1    2    0    0 -0.61081427965E+01 -0.74812455318E+02  0.78806357533E+02  0.13653974067E+03  0.82452688949E+02 0.  0.
        254    2    1    2    0    0  0.61081427965E+01  0.74812455318E+02  0.23171976904E+04  0.24875181611E+04  0.90150277440E+03 0.  0.
         23    2    4    4    0    0 -0.27552443700E+03  0.31239833270E+03  0.17745872660E+04  0.18251300640E+04  0.91833285016E+02 0.  0.
         23    2    4    4    0    0  0.28163257980E+03 -0.23758587738E+03  0.54261042445E+03  0.66238809708E+03  0.92563271894E+02 0.  0.
          4    1    3    3  502    0  0.75380295850E+01 -0.32377102909E+02  0.85248741462E+02  0.91501074330E+02  0.00000000000E+00 0. -1.
         -3    1    3    3    0  502 -0.13646172381E+02 -0.42435352409E+02 -0.64423839289E+01  0.45038666337E+02  0.00000000000E+00 0.  1.
         13    1    5    5    0    0 -0.20381175953E+03  0.28258334341E+03  0.14169401213E+04  0.14591476576E+04  0.00000000000E+00 0.  1.
        -13    1    5    5    0    0 -0.71712677472E+02  0.29814989288E+02  0.35764714466E+03  0.36598240638E+03  0.00000000000E+00 0. -1.
          4    1    6    6  503    0  0.53919450708E+02 -0.14683390495E+02  0.12640687888E+03  0.13820856756E+03  0.00000000000E+00 0. -1.
         -4    1    6    6    0  503  0.22771312909E+03 -0.22290248689E+03  0.41620354557E+03  0.52417952952E+03  0.00000000000E+00 0.  1.
<mgrwt>
<rscale>  0 0.10699741E+04</rscale>
<asrwt>0</asrwt>
<pdfrwt beam="1">  1        2 0.38615857E+00 0.10699741E+04</pdfrwt>
<pdfrwt beam="2">  1       -1 0.17542606E-01 0.10699741E+04</pdfrwt>
<totfact> 0.99996381E+01</totfact>
</mgrwt>
</event>
<event>
12    7  0.1707730E-007  0.2187604E+04  0.7818608E-02  0.8523605E-01
          2   -1    0    0  501    0  0.00000000000E+00  0.00000000000E+00  0.19682339863E+04  0.19682339863E+04  0.00000000000E+00 0. -1.
         -1   -1    0    0    0  501 -0.00000000000E+00 -0.00000000000E+00 -0.60785585504E+03  0.60785585504E+03  0.00000000000E+00 0.  1.
         24    2    1    2    0    0  0.72817063384E+03  0.55111313134E+03  0.46033778217E+03  0.10260806624E+04  0.83501476446E+02 0.  0.
        254    2    1    2    0    0 -0.72817063384E+03 -0.55111313134E+03  0.90004034914E+03  0.15500091790E+04  0.87091771671E+03 0.  0.
         23    2    4    4    0    0 -0.41802651157E+03  0.88380999227E+02  0.52518353960E+02  0.43997233768E+03  0.90885174922E+02 0.  0.
         23    2    4    4    0    0 -0.31014412228E+03 -0.63949413057E+03  0.84752199518E+03  0.11100368413E+04  0.93520784346E+02 0.  0.
          4    1    3    3  502    0  0.61998319241E+03  0.49124144848E+03  0.42248656018E+03  0.89676764722E+03  0.00000000000E+00 0. -1.
         -3    1    3    3    0  502  0.10818744143E+03  0.59871682865E+02  0.37851221988E+02  0.12931301520E+03  0.00000000000E+00 0.  1.
         13    1    5    5    0    0 -0.19522796177E+03  0.54948963559E+02  0.68612863226E+02  0.21410527937E+03  0.00000000000E+00 0. -1.
        -13    1    5    5    0    0 -0.22279854979E+03  0.33432035668E+02 -0.16094509267E+02  0.22586705831E+03  0.00000000000E+00 0.  1.
          1    1    6    6  503    0 -0.15410317773E+03 -0.39149094991E+03  0.44801890248E+03  0.61460059407E+03  0.00000000000E+00 0. -1.
         -1    1    6    6    0  503 -0.15604094454E+03 -0.24800318066E+03  0.39950309269E+03  0.49543624722E+03  0.00000000000E+00 0.  1.
<mgrwt>
<rscale>  0 0.21876038E+04</rscale>
<asrwt>0</asrwt>
<pdfrwt beam="1">  1        2 0.30280523E+00 0.21876038E+04</pdfrwt>
<pdfrwt beam="2">  1       -1 0.93516286E-01 0.21876038E+04</pdfrwt>
<totfact> 0.80388607E+00</totfact>
</mgrwt>
</event>
<event>
12    7  0.1707730E-007  0.1702141E+04  0.7818608E-02  0.8760144E-01
         -1   -1    0    0    0  501 -0.00000000000E+00  0.00000000000E+00  0.56029771063E+03  0.56029771063E+03  0.00000000000E+00 0.  1.
          2   -1    0    0  501    0  0.00000000000E+00 -0.00000000000E+00 -0.12927428437E+04  0.12927428437E+04  0.00000000000E+00 0. -1.
         24    2    1    2    0    0  0.58271183783E+03  0.14928186312E+02 -0.46278758746E+03  0.74928943425E+03  0.86523803005E+02 0.  0.
        254    2    1    2    0    0 -0.58271183783E+03 -0.14928186312E+02 -0.26965754564E+03  0.11037511201E+04  0.89764993540E+03 0.  0.
         23    2    4    4    0    0 -0.54789384278E+03 -0.15147788517E+03 -0.53782331037E+03  0.78763576499E+03  0.89347481513E+02 0.  0.
         23    2    4    4    0    0 -0.34817995046E+02  0.13654969885E+03  0.26816576474E+03  0.31611535512E+03  0.90321245172E+02 0.  0.
          2    1    3    3  502    0  0.48267900859E+03  0.15510730503E+02 -0.42174807703E+03  0.64116382351E+03  0.00000000000E+00 0. -1.
         -3    1    3    3    0  502  0.10003282924E+03 -0.58254419154E+00 -0.41039510424E+02  0.10812561074E+03  0.00000000000E+00 0.  1.
         13    1    5    5    0    0 -0.30548612831E+02 -0.32079787284E+02 -0.46881199382E+02  0.64499436847E+02  0.00000000000E+00 0.  1.
        -13    1    5    5    0    0 -0.51734522995E+03 -0.11939809788E+03 -0.49094211099E+03  0.72313632814E+03  0.00000000000E+00 0. -1.
          2    1    6    6  503    0 -0.35556129196E+02  0.14377760050E+03  0.27057637849E+03  0.30846039183E+03  0.00000000000E+00 0. -1.
         -2    1    6    6    0  503  0.73813414981E+00 -0.72279016481E+01 -0.24106137577E+01  0.76549632884E+01  0.00000000000E+00 0.  1.
<mgrwt>
<rscale>  0 0.17021408E+04</rscale>
<asrwt>0</asrwt>
<pdfrwt beam="1">  1        2 0.19888351E+00 0.17021408E+04</pdfrwt>
<pdfrwt beam="2">  1       -1 0.86199648E-01 0.17021408E+04</pdfrwt>
<totfact> 0.24045659E+01</totfact>
</mgrwt>
</event>
<event>
12    7  0.1707730E-007  0.1205401E+04  0.7818608E-02  0.9108142E-01
          2   -1    0    0  501    0  0.00000000000E+00  0.00000000000E+00  0.72945902114E+03  0.72945902114E+03  0.00000000000E+00 0. -1.
         -1   -1    0    0    0  501 -0.00000000000E+00 -0.00000000000E+00 -0.49796883996E+03  0.49796883996E+03  0.00000000000E+00 0.  1.
         24    2    1    2    0    0  0.16415315906E+03  0.61957566779E+02 -0.13889556738E+03  0.23770687811E+03  0.80172199387E+02 0.  0.
        254    2    1    2    0    0 -0.16415315906E+03 -0.61957566779E+02  0.37038574856E+03  0.98972098298E+03  0.90087569715E+03 0.  0.
         23    2    4    4    0    0 -0.21461886946E+03 -0.38171799628E+03 -0.51590958839E+02  0.45024790381E+03  0.91058552801E+02 0.  0.
         23    2    4    4    0    0  0.50465710404E+02  0.31976042950E+03  0.42197670740E+03  0.53947307917E+03  0.90406533854E+02 0.  0.
          4    1    3    3  502    0  0.27027795989E+02 -0.19135959876E+02 -0.30466623520E+02  0.44998909600E+02  0.00000000000E+00 0. -1.
         -3    1    3    3    0  502  0.13712536307E+03  0.81093526655E+02 -0.10842894386E+03  0.19270796851E+03  0.00000000000E+00 0.  1.
         13    1    5    5    0    0 -0.15518079367E+03 -0.22633550211E+03  0.51559868737E+01  0.27447299036E+03  0.00000000000E+00 0. -1.
        -13    1    5    5    0    0 -0.59438075789E+02 -0.15538249418E+03 -0.56746945713E+02  0.17577491345E+03  0.00000000000E+00 0.  1.
          4    1    6    6  503    0  0.21905796295E+02  0.28218986951E+03  0.39222178050E+03  0.48368265574E+03  0.00000000000E+00 0.  1.
         -4    1    6    6    0  503  0.28559914109E+02  0.37570559994E+02  0.29754926899E+02  0.55790423434E+02  0.00000000000E+00 0. -1.
<mgrwt>
<rscale>  0 0.12054009E+04</rscale>
<asrwt>0</asrwt>
<pdfrwt beam="1">  1        2 0.11222447E+00 0.12054009E+04</pdfrwt>
<pdfrwt beam="2">  1       -1 0.76610590E-01 0.12054009E+04</pdfrwt>
<totfact> 0.74902774E+01</totfact>
</mgrwt>
</event>
<event>
12    7  0.1707730E-007  0.1410372E+04  0.7818608E-02  0.8946345E-01
          2   -1    0    0  501    0  0.00000000000E+00  0.00000000000E+00  0.18406110036E+04  0.18406110036E+04  0.00000000000E+00 0. -1.
         -1   -1    0    0    0  501 -0.00000000000E+00 -0.00000000000E+00 -0.27017519055E+03  0.27017519055E+03  0.00000000000E+00 0.  1.
         24    2    1    2    0    0  0.41223293077E+03 -0.21248401838E+02  0.30273209952E+03  0.52000506203E+03  0.91493478793E+02 0.  0.
        254    2    1    2    0    0 -0.41223293077E+03  0.21248401838E+02  0.12677037135E+04  0.15907811321E+04  0.86782741442E+03 0.  0.
         23    2    4    4    0    0 -0.65271833755E+03  0.26918614457E+02  0.11034945465E+04  0.12851898992E+04  0.85129447651E+02 0.  0.
         23    2    4    4    0    0  0.24048540677E+03 -0.56702126191E+01  0.16420916704E+03  0.30559123293E+03  0.92498480657E+02 0.  0.
          2    1    3    3  502    0  0.38802359126E+03  0.27432657633E+01  0.26980766568E+03  0.47261613318E+03  0.00000000000E+00 0. -1.
         -1    1    3    3    0  502  0.24209339513E+02 -0.23991667601E+02  0.32924433836E+02  0.47388928848E+02  0.00000000000E+00 0.  1.
         13    1    5    5    0    0 -0.48228795863E+03 -0.21128614014E+01  0.75007542585E+03  0.89175068471E+03  0.00000000000E+00 0.  1.
        -13    1    5    5    0    0 -0.17043037891E+03  0.29031475858E+02  0.35341912066E+03  0.39343921448E+03  0.00000000000E+00 0. -1.
          4    1    6    6  503    0  0.24356762023E+01 -0.58453354757E+01  0.33347683044E+02  0.33943606611E+02  0.00000000000E+00 0. -1.
         -4    1    6    6    0  503  0.23804973057E+03  0.17512285657E+00  0.13086148400E+03  0.27164762632E+03  0.00000000000E+00 0.  1.
<mgrwt>
<rscale>  0 0.14103722E+04</rscale>
<asrwt>0</asrwt>
<pdfrwt beam="1">  1        2 0.28317092E+00 0.14103722E+04</pdfrwt>
<pdfrwt beam="2">  1       -1 0.41565415E-01 0.14103722E+04</pdfrwt>
<totfact> 0.51524090E+01</totfact>
</mgrwt>
</event>
<event>
12    7  0.1707730E-007  0.1270896E+04  0.7818608E-02  0.9052969E-01
         -1   -1    0    0    0  501 -0.00000000000E+00  0.00000000000E+00  0.28224347791E+03  0.28224347791E+03  0.00000000000E+00 0.  1.
          2   -1    0    0  501    0  0.00000000000E+00 -0.00000000000E+00 -0.14306590514E+04  0.14306590514E+04  0.00000000000E+00 0. -1.
         24    2    1    2    0    0 -0.14597817176E+03 -0.15112423797E+03 -0.58723637283E+03  0.62873890138E+03  0.79485134453E+02 0.  0.
        254    2    1    2    0    0  0.14597817176E+03  0.15112423797E+03 -0.56117920066E+03  0.10841636279E+04  0.90351564178E+03 0.  0.
         23    2    4    4    0    0  0.34166229555E+03 -0.26415166339E+03 -0.16606985239E+03  0.47165255613E+03  0.91475200808E+02 0.  0.
         23    2    4    4    0    0 -0.19568412379E+03  0.41527590135E+03 -0.39510934827E+03  0.61251107180E+03  0.91170529428E+02 0.  0.
          4    1    3    3  502    0 -0.13417514180E+03 -0.13308688524E+03 -0.57181289699E+03  0.60223340729E+03  0.00000000000E+00 0. -1.
         -1    1    3    3    0  502 -0.11803029958E+02 -0.18037352728E+02 -0.15423475848E+02  0.26505494087E+02  0.00000000000E+00 0.  1.
         13    1    5    5    0    0  0.29357448332E+03 -0.18122878947E+03 -0.13984960954E+03  0.37227377651E+03  0.00000000000E+00 0.  1.
        -13    1    5    5    0    0  0.48087812228E+02 -0.82922873921E+02 -0.26220242856E+02  0.99378779624E+02  0.00000000000E+00 0. -1.
          3    1    6    6  503    0 -0.94351123835E+02  0.27134367728E+03 -0.28623381805E+03  0.40553584843E+03  0.00000000000E+00 0. -1.
         -3    1    6    6    0  503 -0.10133299995E+03  0.14393222408E+03 -0.10887553022E+03  0.20697522337E+03  0.00000000000E+00 0.  1.
<mgrwt>
<rscale>  0 0.12708960E+04</rscale>
<asrwt>0</asrwt>
<pdfrwt beam="1">  1        2 0.22010139E+00 0.12708960E+04</pdfrwt>
<pdfrwt beam="2">  1       -1 0.43422073E-01 0.12708960E+04</pdfrwt>
<totfact> 0.81390602E+01</totfact>
</mgrwt>
</event>
<event>
12    7  0.1707730E-007  0.2860736E+04  0.7818608E-02  0.8284657E-01
          2   -1    0    0  501    0  0.00000000000E+00  0.00000000000E+00  0.13667057415E+04  0.13667057415E+04  0.00000000000E+00 0. -1.
         -1   -1    0    0    0  501 -0.00000000000E+00 -0.00000000000E+00 -0.14969954246E+04  0.14969954246E+04  0.00000000000E+00 0.  1.
         24    2    1    2    0    0 -0.85156316152E+03  0.66305128822E+02  0.90599614901E+03  0.12477145513E+04  0.80039935637E+02 0.  0.
        254    2    1    2    0    0  0.85156316152E+03 -0.66305128822E+02 -0.10362858321E+04  0.16159866148E+04  0.89887052747E+03 0.  0.
         23    2    4    4    0    0  0.91520586204E+03  0.38109130623E+01 -0.11292990468E+04  0.14564600478E+04  0.91341341275E+02 0.  0.
         23    2    4    4    0    0 -0.63642700520E+02 -0.70116041884E+02  0.93013214694E+02  0.15952656702E+03  0.88490761211E+02 0.  0.
          4    1    3    3  502    0 -0.25760137546E+03 -0.49857263634E+01  0.31273586409E+03  0.40520000839E+03  0.00000000000E+00 0. -1.
         -3    1    3    3    0  502 -0.59396178606E+03  0.71290855185E+02  0.59326028491E+03  0.84251454290E+03  0.00000000000E+00 0.  1.
         13    1    5    5    0    0  0.16347356993E+03 -0.25088834340E+02 -0.24289922264E+03  0.29385896283E+03  0.00000000000E+00 0. -1.
        -13    1    5    5    0    0  0.75173229211E+03  0.28899747402E+02 -0.88639982416E+03  0.11626010849E+04  0.00000000000E+00 0.  1.
          4    1    6    6  503    0 -0.33677542627E+02  0.15178982066E+02  0.41161454884E+02  0.55306814608E+02  0.00000000000E+00 0. -1.
         -4    1    6    6    0  503 -0.29965157892E+02 -0.85295023950E+02  0.51851759811E+02  0.10421975242E+03  0.00000000000E+00 0.  1.
<mgrwt>
<rscale>  0 0.28607357E+04</rscale>
<asrwt>0</asrwt>
<pdfrwt beam="1">  1        2 0.21026242E+00 0.28607357E+04</pdfrwt>
<pdfrwt beam="2">  1       -1 0.23030699E+00 0.28607357E+04</pdfrwt>
<totfact> 0.14011674E+00</totfact>
</mgrwt>
</event>
<event>
12    7  0.1707730E-007  0.1673576E+04  0.7818608E-02  0.8776580E-01
          2   -1    0    0  501    0  0.00000000000E+00  0.00000000000E+00  0.14581696308E+04  0.14581696308E+04  0.00000000000E+00 0. -1.
         -1   -1    0    0    0  501 -0.00000000000E+00 -0.00000000000E+00 -0.48020050988E+03  0.48020050988E+03  0.00000000000E+00 0.  1.
         24    2    1    2    0    0  0.28055588798E+03 -0.49456246531E+03  0.47191085709E+03  0.74331674145E+03  0.80723495384E+02 0.  0.
        254    2    1    2    0    0 -0.28055588798E+03  0.49456246531E+03  0.50605826381E+03  0.11950533992E+04  0.92127847161E+03 0.  0.
         23    2    4    4    0    0  0.47991564198E+02  0.10624354661E+03 -0.24348869357E+03  0.28480366306E+03  0.90749662068E+02 0.  0.
         23    2    4    4    0    0 -0.32854745217E+03  0.38831891870E+03  0.74954695739E+03  0.91024973616E+03  0.89436736898E+02 0.  0.
          4    1    3    3  502    0  0.25280890418E+03 -0.47639557080E+03  0.45720598710E+03  0.70703776176E+03  0.00000000000E+00 0. -1.
         -3    1    3    3    0  502  0.27746983797E+02 -0.18166894505E+02  0.14704869988E+02  0.36278979687E+02  0.00000000000E+00 0.  1.
         13    1    5    5    0    0  0.43197680478E+02  0.33774420712E+01 -0.54982246446E+02  0.70003529467E+02  0.00000000000E+00 0. -1.
        -13    1    5    5    0    0  0.47938837203E+01  0.10286610454E+03 -0.18850644713E+03  0.21480013360E+03  0.00000000000E+00 0.  1.
          2    1    6    6  503    0 -0.21744938790E+03  0.22642500763E+03  0.39069859390E+03  0.50119648009E+03  0.00000000000E+00 0. -1.
         -2    1    6    6    0  503 -0.11109806427E+03  0.16189391106E+03  0.35884836349E+03  0.40905325607E+03  0.00000000000E+00 0.  1.
<mgrwt>
<rscale>  0 0.16735756E+04</rscale>
<asrwt>0</asrwt>
<pdfrwt beam="1">  1        2 0.22433379E+00 0.16735756E+04</pdfrwt>
<pdfrwt beam="2">  1       -1 0.73877002E-01 0.16735756E+04</pdfrwt>
<totfact> 0.26879335E+01</totfact>
</mgrwt>
</event>
<event>
12    7  0.1707730E-007  0.1582257E+04  0.7818608E-02  0.8831523E-01
          2   -1    0    0  501    0  0.00000000000E+00  0.00000000000E+00  0.13747844593E+04  0.13747844593E+04  0.00000000000E+00 0. -1.
         -1   -1    0    0    0  501 -0.00000000000E+00 -0.00000000000E+00 -0.45525994255E+03  0.45525994255E+03  0.00000000000E+00 0.  1.
         24    2    1    2    0    0 -0.27679126075E+03  0.12389700017E+03  0.81426998327E+03  0.87258113589E+03  0.79989776755E+02 0.  0.
        254    2    1    2    0    0  0.27679126075E+03 -0.12389700017E+03  0.10525453353E+03  0.95746326600E+03  0.90204962183E+03 0.  0.
         23    2    4    4    0    0  0.29708614491E+02  0.25961774702E+03 -0.24974557663E+03  0.37110182512E+03  0.84022230529E+02 0.  0.
         23    2    4    4    0    0  0.24708264626E+03 -0.38351474719E+03  0.35500011016E+03  0.58636144088E+03  0.98291737928E+02 0.  0.
          4    1    3    3  502    0 -0.18323230682E+03  0.61120657544E+02  0.41555377623E+03  0.45825184559E+03  0.00000000000E+00 0. -1.
         -3    1    3    3    0  502 -0.93558953931E+02  0.62776342628E+02  0.39871620703E+03  0.41432929031E+03  0.00000000000E+00 0.  1.
         13    1    5    5    0    0  0.32784309864E+02  0.38093805443E+02 -0.27485010411E+02  0.57283285378E+02  0.00000000000E+00 0. -1.
        -13    1    5    5    0    0 -0.30756953728E+01  0.22152394157E+03 -0.22226056622E+03  0.31381853975E+03  0.00000000000E+00 0.  1.
          1    1    6    6  503    0  0.12327225869E+03 -0.11788195281E+03  0.16350527902E+03  0.23627564586E+03  0.00000000000E+00 0. -1.
         -1    1    6    6    0  503  0.12381038757E+03 -0.26563279438E+03  0.19149483114E+03  0.35008579502E+03  0.00000000000E+00 0.  1.
<mgrwt>
<rscale>  0 0.15822570E+04</rscale>
<asrwt>0</asrwt>
<pdfrwt beam="1">  1        2 0.21150530E+00 0.15822570E+04</pdfrwt>
<pdfrwt beam="2">  1       -1 0.70039992E-01 0.15822570E+04</pdfrwt>
<totfact> 0.33745039E+01</totfact>
</mgrwt>
</event>
<event>
12    7  0.1707730E-007  0.2184085E+04  0.7818608E-02  0.8525082E-01
         -1   -1    0    0    0  501 -0.00000000000E+00  0.00000000000E+00  0.63897547309E+03  0.63897547309E+03  0.00000000000E+00 0.  1.
          2   -1    0    0  501    0  0.00000000000E+00 -0.00000000000E+00 -0.18663574368E+04  0.18663574368E+04  0.00000000000E+00 0. -1.
         24    2    1    2    0    0 -0.13230449974E+02 -0.70507590876E+02  0.49608333510E+03  0.50771755631E+03  0.80821262273E+02 0.  0.
        254    2    1    2    0    0  0.13230449974E+02  0.70507590876E+02 -0.17234652988E+04  0.19976153536E+04  0.10074661778E+04 0.  0.
         23    2    4    4    0    0 -0.16720946460E+03  0.48545535714E+03 -0.11396012463E+04  0.12532976471E+04  0.91859037545E+02 0.  0.
         23    2    4    4    0    0  0.18043991458E+03 -0.41494776627E+03 -0.58386405252E+03  0.74431770650E+03  0.91495381767E+02 0.  0.
          2    1    3    3  502    0 -0.21659736908E+02 -0.36148801959E+02  0.82650500165E+02  0.92773839327E+02  0.00000000000E+00 0. -1.
         -1    1    3    3    0  502  0.84292869348E+01 -0.34358788917E+02  0.41343283494E+03  0.41494371698E+03  0.00000000000E+00 0.  1.
         13    1    5    5    0    0 -0.13422572209E+03  0.42106541136E+03 -0.89412785401E+03  0.99738520363E+03  0.00000000000E+00 0.  1.
        -13    1    5    5    0    0 -0.32983742513E+02  0.64389945785E+02 -0.24547339229E+03  0.25591244345E+03  0.00000000000E+00 0. -1.
          4    1    6    6  503    0  0.15501049227E+03 -0.35257114880E+03 -0.43547171354E+03  0.58135211445E+03  0.00000000000E+00 0. -1.
         -4    1    6    6    0  503  0.25429422306E+02 -0.62376617465E+02 -0.14839233898E+03  0.16296559205E+03  0.00000000000E+00 0.  1.
<mgrwt>
<rscale>  0 0.21840848E+04</rscale>
<asrwt>0</asrwt>
<pdfrwt beam="1">  1        2 0.28713191E+00 0.21840848E+04</pdfrwt>
<pdfrwt beam="2">  1       -1 0.98303919E-01 0.21840848E+04</pdfrwt>
<totfact> 0.81855833E+00</totfact>
</mgrwt>
</event>
<event>
12    7  0.1707730E-007  0.1896395E+04  0.7818608E-02  0.8656653E-01
          2   -1    0    0  501    0  0.00000000000E+00  0.00000000000E+00  0.21067308843E+04  0.21067308843E+04  0.00000000000E+00 0. -1.
         -1   -1    0    0    0  501 -0.00000000000E+00 -0.00000000000E+00 -0.42676456274E+03  0.42676456274E+03  0.00000000000E+00 0.  1.
         24    2    1    2    0    0 -0.13923451633E+03 -0.63758905426E+03  0.21147186802E+03  0.69116288623E+03  0.84141141527E+02 0.  0.
        254    2    1    2    0    0  0.13923451633E+03  0.63758905426E+03  0.14684944535E+04  0.18423325608E+04  0.90100346941E+03 0.  0.
         23    2    4    4    0    0  0.83358467892E+02  0.42398271938E+02 -0.95705028838E+02  0.16526256101E+03  0.96984606483E+02 0.  0.
         23    2    4    4    0    0  0.55876048438E+02  0.59519078232E+03  0.15641994823E+04  0.16770699998E+04  0.92030230948E+02 0.  0.
          2    1    3    3  502    0 -0.23562307049E+02 -0.17863426911E+03  0.22723876507E+02  0.18160880754E+03  0.00000000000E+00 0. -1.
         -1    1    3    3    0  502 -0.11567220928E+03 -0.45895478514E+03  0.18874799152E+03  0.50955407869E+03  0.00000000000E+00 0.  1.
         13    1    5    5    0    0 -0.80796696938E+00  0.11437180153E+02  0.17449475147E+02  0.20879321909E+02  0.00000000000E+00 0. -1.
        -13    1    5    5    0    0  0.84166434861E+02  0.30961091786E+02 -0.11315450399E+03  0.14438323910E+03  0.00000000000E+00 0.  1.
          1    1    6    6  503    0 -0.43250064030E+01 -0.17532528873E+01  0.16533857781E+02  0.17179872793E+02  0.00000000000E+00 0. -1.
         -1    1    6    6    0  503  0.60201054841E+02  0.59694403520E+03  0.15476656246E+04  0.16598901270E+04  0.00000000000E+00 0.  1.
<mgrwt>
<rscale>  0 0.18963946E+04</rscale>
<asrwt>0</asrwt>
<pdfrwt beam="1">  1        2 0.32411244E+00 0.18963946E+04</pdfrwt>
<pdfrwt beam="2">  1       -1 0.65656088E-01 0.18963946E+04</pdfrwt>
<totfact> 0.14611997E+01</totfact>
</mgrwt>
</event>
<event>
12    7  0.1707730E-007  0.2351228E+04  0.7818608E-02  0.8457992E-01
          2   -1    0    0  501    0  0.00000000000E+00  0.00000000000E+00  0.43226982142E+04  0.43226982142E+04  0.00000000000E+00 0. -1.
         -1   -1    0    0    0  501 -0.00000000000E+00 -0.00000000000E+00 -0.31972340470E+03  0.31972340470E+03  0.00000000000E+00 0.  1.
         24    2    1    2    0    0  0.67779265912E+03 -0.15306339817E+03  0.28791040838E+03  0.75650642453E+03  0.81106562584E+02 0.  0.
        254    2    1    2    0    0 -0.67779265912E+03  0.15306339817E+03  0.37150644011E+04  0.38859151944E+04  0.90321763751E+03 0.  0.
         23    2    4    4    0    0 -0.11158808895E+03  0.24113439576E+03  0.27164547047E+04  0.27309226487E+04  0.90634715861E+02 0.  0.
         23    2    4    4    0    0 -0.56620457017E+03 -0.88070997588E+02  0.99860969638E+03  0.11549925457E+04  0.91882201752E+02 0.  0.
          4    1    3    3  502    0  0.20808392103E+02 -0.12695010560E+02  0.25465920956E+02  0.35251462455E+02  0.00000000000E+00 0. -1.
         -3    1    3    3    0  502  0.65698426701E+03 -0.14036838761E+03  0.26244448743E+03  0.72125496208E+03  0.00000000000E+00 0.  1.
         13    1    5    5    0    0 -0.55886116549E+02  0.13519822423E+03  0.19150524567E+04  0.19206321173E+04  0.00000000000E+00 0.  1.
        -13    1    5    5    0    0 -0.55701972400E+02  0.10593617153E+03  0.80140224800E+03  0.81029053139E+03  0.00000000000E+00 0. -1.
          1    1    6    6  503    0 -0.81295793211E+02  0.18158656662E+02  0.12543108452E+03  0.15057124483E+03  0.00000000000E+00 0. -1.
         -1    1    6    6    0  503 -0.48490877696E+03 -0.10622965425E+03  0.87317861185E+03  0.10044213009E+04  0.00000000000E+00 0.  1.
<mgrwt>
<rscale>  0 0.23512276E+04</rscale>
<asrwt>0</asrwt>
<pdfrwt beam="1">  1        2 0.66503045E+00 0.23512276E+04</pdfrwt>
<pdfrwt beam="2">  1       -1 0.49188219E-01 0.23512276E+04</pdfrwt>
<totfact> 0.77506243E-01</totfact>
</mgrwt>
</event>
<event>
12    7  0.1707730E-007  0.1603131E+04  0.7818608E-02  0.8818627E-01
          2   -1    0    0  501    0  0.00000000000E+00  0.00000000000E+00  0.22897505760E+04  0.22897505760E+04  0.00000000000E+00 0. -1.
         -1   -1    0    0    0  501 -0.00000000000E+00 -0.00000000000E+00 -0.28060129662E+03  0.28060129662E+03  0.00000000000E+00 0.  1.
         24    2    1    2    0    0 -0.45705425631E+03 -0.66173061426E+02  0.11578582287E+04  0.12490925114E+04  0.79491868037E+02 0.  0.
        254    2    1    2    0    0  0.45705425631E+03  0.66173061426E+02  0.85129105067E+03  0.13212593612E+04  0.89875045438E+03 0.  0.
         23    2    4    4    0    0  0.69266255419E+03  0.11361547180E+03  0.78312562400E+03  0.10556966164E+04  0.92302293618E+02 0.  0.
         23    2    4    4    0    0 -0.23560829788E+03 -0.47442410378E+02  0.68165426678E+02  0.26556274482E+03  0.90083259883E+02 0.  0.
          2    1    3    3  502    0 -0.35173943169E+03 -0.73291551835E+02  0.95628348095E+03  0.10215529234E+04  0.00000000000E+00 0. -1.
         -1    1    3    3    0  502 -0.10531482462E+03  0.71184904088E+01  0.20157474773E+03  0.22753958802E+03  0.00000000000E+00 0.  1.
         13    1    5    5    0    0  0.68894526062E+03  0.11176878414E+03  0.78560401473E+03  0.10508622656E+04  0.00000000000E+00 0.  1.
        -13    1    5    5    0    0  0.37172935695E+01  0.18466876613E+01 -0.24783907377E+01  0.48343507785E+01  0.00000000000E+00 0. -1.
          3    1    6    6  503    0 -0.69781831626E+02  0.14713005137E+02  0.50927765901E+02  0.87633406216E+02  0.00000000000E+00 0. -1.
         -3    1    6    6    0  503 -0.16582646625E+03 -0.62155415515E+02  0.17237660777E+02  0.17792933860E+03  0.00000000000E+00 0.  1.
<mgrwt>
<rscale>  0 0.16031307E+04</rscale>
<asrwt>0</asrwt>
<pdfrwt beam="1">  1        2 0.35226931E+00 0.16031307E+04</pdfrwt>
<pdfrwt beam="2">  1       -1 0.43169432E-01 0.16031307E+04</pdfrwt>
<totfact> 0.26575229E+01</totfact>
</mgrwt>
</event>
<event>
12    7  0.1707730E-007  0.1311138E+04  0.7818608E-02  0.9020779E-01
         -1   -1    0    0    0  501 -0.00000000000E+00  0.00000000000E+00  0.19780656407E+03  0.19780656407E+03  0.00000000000E+00 0.  1.
          2   -1    0    0  501    0  0.00000000000E+00 -0.00000000000E+00 -0.21726833883E+04  0.21726833883E+04  0.00000000000E+00 0. -1.
         24    2    1    2    0    0  0.65388691778E+02  0.25178055454E+03 -0.93437299326E+03  0.97366171712E+03  0.85411475857E+02 0.  0.
        254    2    1    2    0    0 -0.65388691778E+02 -0.25178055454E+03 -0.10405038310E+04  0.13968282353E+04  0.89488086798E+03 0.  0.
         23    2    4    4    0    0  0.17429950519E+03 -0.27155571875E+02  0.87376034951E+02  0.21852384822E+03  0.94870217475E+02 0.  0.
         23    2    4    4    0    0 -0.23968819697E+03 -0.22462498266E+03 -0.11278798660E+04  0.11783043871E+04  0.91550106072E+02 0.  0.
          2    1    3    3  502    0  0.38797437193E+02  0.23928293655E+03 -0.79105872685E+03  0.82736658996E+03  0.00000000000E+00 0. -1.
         -1    1    3    3    0  502  0.26591254585E+02  0.12497617984E+02 -0.14331426641E+03  0.14629512716E+03  0.00000000000E+00 0.  1.
         13    1    5    5    0    0  0.15484704296E+03 -0.23132688852E+02  0.32147627682E+02  0.15983178024E+03  0.00000000000E+00 0.  1.
        -13    1    5    5    0    0  0.19452462224E+02 -0.40228830226E+01  0.55228407269E+02  0.58692067981E+02  0.00000000000E+00 0. -1.
          4    1    6    6  503    0 -0.19808266519E+02 -0.12553110974E+02 -0.26700332384E+02  0.35536681992E+02  0.00000000000E+00 0. -1.
         -4    1    6    6    0  503 -0.21987993045E+03 -0.21207187169E+03 -0.11011795336E+04  0.11427677051E+04  0.00000000000E+00 0.  1.
<mgrwt>
<rscale>  0 0.13111385E+04</rscale>
<asrwt>0</asrwt>
<pdfrwt beam="1">  1        2 0.33425900E+00 0.13111385E+04</pdfrwt>
<pdfrwt beam="2">  1       -1 0.30431778E-01 0.13111385E+04</pdfrwt>
<totfact> 0.59497350E+01</totfact>
</mgrwt>
</event>
<event>
12    7  0.1707730E-007  0.2746577E+04  0.7818608E-02  0.8320049E-01
         -1   -1    0    0    0  501 -0.00000000000E+00  0.00000000000E+00  0.72696523445E+03  0.72696523445E+03  0.00000000000E+00 0.  1.
          2   -1    0    0  501    0  0.00000000000E+00 -0.00000000000E+00 -0.25942379772E+04  0.25942379772E+04  0.00000000000E+00 0. -1.
         24    2    1    2    0    0  0.68854880432E+03 -0.10201553513E+04 -0.11575802531E+04  0.16915340773E+04  0.80492829946E+02 0.  0.
        254    2    1    2    0    0 -0.68854880432E+03  0.10201553513E+04 -0.70969248967E+03  0.16296691343E+04  0.79833680917E+03 0.  0.
         23    2    4    4    0    0 -0.16847859711E+03  0.90586419156E+03 -0.47590154752E+03  0.10410266936E+04  0.90990783367E+02 0.  0.
         23    2    4    4    0    0 -0.52007020722E+03  0.11429115971E+03 -0.23379094215E+03  0.58864244073E+03  0.91138514211E+02 0.  0.
          4    1    3    3  502    0  0.20031341204E+02 -0.33328796592E+02 -0.19443763004E+02  0.43475547524E+02  0.00000000000E+00 0. -1.
         -1    1    3    3    0  502  0.66851746312E+03 -0.98682655468E+03 -0.11381364901E+04  0.16480585298E+04  0.00000000000E+00 0.  1.
         13    1    5    5    0    0 -0.17401023761E+03  0.90279074846E+03 -0.47409830672E+03  0.10344466650E+04  0.00000000000E+00 0. -1.
        -13    1    5    5    0    0  0.55316405082E+01  0.30734431016E+01 -0.18032408015E+01  0.65800286169E+01  0.00000000000E+00 0.  1.
          2    1    6    6  503    0 -0.33926025076E+03  0.91413016401E+02 -0.10943914348E+03  0.36800921651E+03  0.00000000000E+00 0. -1.
         -2    1    6    6    0  503 -0.18080995646E+03  0.22878143312E+02 -0.12435179867E+03  0.22063322422E+03  0.00000000000E+00 0.  1.
<mgrwt>
<rscale>  0 0.27465766E+04</rscale>
<asrwt>0</asrwt>
<pdfrwt beam="1">  1        2 0.39911354E+00 0.27465766E+04</pdfrwt>
<pdfrwt beam="2">  1       -1 0.11184080E+00 0.27465766E+04</pdfrwt>
<totfact> 0.22351502E+00</totfact>
</mgrwt>
</event>
<event>
12    7  0.1707730E-007  0.1204287E+04  0.7818608E-02  0.9109113E-01
         -1   -1    0    0    0  501 -0.00000000000E+00  0.00000000000E+00  0.15727181321E+03  0.15727181321E+03  0.00000000000E+00 0.  1.
          2   -1    0    0  501    0  0.00000000000E+00 -0.00000000000E+00 -0.23054139741E+04  0.23054139741E+04  0.00000000000E+00 0. -1.
         24    2    1    2    0    0 -0.10166227793E+03  0.22868586287E+03 -0.39402092661E+03  0.47335372007E+03  0.78605413723E+02 0.  0.
        254    2    1    2    0    0  0.10166227793E+03 -0.22868586287E+03 -0.17541212343E+04  0.19893320673E+04  0.90436072814E+03 0.  0.
         23    2    4    4    0    0 -0.56661406334E+02  0.99178469312E+02 -0.15589919775E+04  0.15657963850E+04  0.90639117676E+02 0.  0.
         23    2    4    4    0    0  0.15832368426E+03 -0.32786433218E+03 -0.19512925680E+03  0.42353568226E+03  0.93518115736E+02 0.  0.
          4    1    3    3  502    0 -0.20667563142E+02  0.14780555275E+02 -0.86140194192E+02  0.89809498584E+02  0.00000000000E+00 0. -1.
         -3    1    3    3    0  502 -0.80994714783E+02  0.21390530760E+03 -0.30788073242E+03  0.38354422149E+03  0.00000000000E+00 0.  1.
         13    1    5    5    0    0 -0.22189866256E+02  0.10109909546E+03 -0.13509287878E+04  0.13548881898E+04  0.00000000000E+00 0.  1.
        -13    1    5    5    0    0 -0.34471540078E+02 -0.19206261483E+01 -0.20806318971E+03  0.21090819518E+03  0.00000000000E+00 0. -1.
          4    1    6    6  503    0  0.13538301781E+03 -0.28548783292E+03 -0.20177301806E+03  0.37489227129E+03  0.00000000000E+00 0.  1.
         -4    1    6    6    0  503  0.22940666448E+02 -0.42376499264E+02  0.66437612576E+01  0.48643410968E+02  0.00000000000E+00 0. -1.
<mgrwt>
<rscale>  0 0.12042867E+04</rscale>
<asrwt>0</asrwt>
<pdfrwt beam="1">  1        2 0.35467905E+00 0.12042867E+04</pdfrwt>
<pdfrwt beam="2">  1       -1 0.24195665E-01 0.12042867E+04</pdfrwt>
<totfact> 0.75238484E+01</totfact>
</mgrwt>
</event>
<event>
12    7  0.1707730E-007  0.2212956E+04  0.7818608E-02  0.8513055E-01
         -1   -1    0    0    0  501 -0.00000000000E+00  0.00000000000E+00  0.90198280065E+03  0.90198280065E+03  0.00000000000E+00 0.  1.
          2   -1    0    0  501    0  0.00000000000E+00 -0.00000000000E+00 -0.13573356475E+04  0.13573356475E+04  0.00000000000E+00 0. -1.
         24    2    1    2    0    0 -0.66105016568E+03  0.54653824284E+03 -0.33948776085E+03  0.92579762977E+03  0.78472537140E+02 0.  0.
        254    2    1    2    0    0  0.66105016568E+03 -0.54653824284E+03 -0.11586508599E+03  0.13335208184E+04  0.10144760630E+04 0.  0.
         23    2    4    4    0    0 -0.25509966862E+03 -0.17868925918E+03  0.51382151006E+02  0.32805210908E+03  0.89288120999E+02 0.  0.
         23    2    4    4    0    0  0.91614983430E+03 -0.36784898366E+03 -0.16724723700E+03  0.10054687093E+04  0.91390882511E+02 0.  0.
          2    1    3    3  502    0 -0.19433127596E+03  0.15014557888E+03 -0.13489808367E+03  0.28018892314E+03  0.00000000000E+00 0. -1.
         -1    1    3    3    0  502 -0.46671888972E+03  0.39639266396E+03 -0.20458967717E+03  0.64560870662E+03  0.00000000000E+00 0.  1.
         13    1    5    5    0    0  0.71137895148E+01 -0.68107102889E+01  0.52210245710E+01  0.11146787585E+02  0.00000000000E+00 0. -1.
        -13    1    5    5    0    0 -0.26221345814E+03 -0.17187854889E+03  0.46161126435E+02  0.31690532149E+03  0.00000000000E+00 0.  1.
          3    1    6    6  503    0  0.81260584014E+00 -0.17931298641E+00  0.41818609907E+01  0.42638530397E+01  0.00000000000E+00 0. -1.
         -3    1    6    6    0  503  0.91533722846E+03 -0.36766967067E+03 -0.17142909799E+03  0.10012048563E+04  0.00000000000E+00 0.  1.
<mgrwt>
<rscale>  0 0.22129559E+04</rscale>
<asrwt>0</asrwt>
<pdfrwt beam="1">  1        2 0.20882087E+00 0.22129559E+04</pdfrwt>
<pdfrwt beam="2">  1       -1 0.13876658E+00 0.22129559E+04</pdfrwt>
<totfact> 0.68347697E+00</totfact>
</mgrwt>
</event>
<event>
12    7  0.1707730E-007  0.3284098E+04  0.7818608E-02  0.8166953E-01
          2   -1    0    0  501    0  0.00000000000E+00  0.00000000000E+00  0.22669404102E+04  0.22669404102E+04  0.00000000000E+00 0. -1.
         -3   -1    0    0    0  501 -0.00000000000E+00 -0.00000000000E+00 -0.11894117425E+04  0.11894117425E+04  0.00000000000E+00 0.  1.
         24    2    1    2    0    0  0.90989657774E+03 -0.65208341611E+03 -0.57738565658E+03  0.12620157094E+04  0.78644076055E+02 0.  0.
        254    2    1    2    0    0 -0.90989657774E+03  0.65208341611E+03  0.16549143242E+04  0.21943364433E+04  0.90732929086E+03 0.  0.
         23    2    4    4    0    0 -0.51925162304E+03 -0.12434510676E+03  0.44032002108E+03  0.69810323944E+03  0.91555766346E+02 0.  0.
         23    2    4    4    0    0 -0.39064495470E+03  0.77642852288E+03  0.12145943031E+04  0.14962332038E+04  0.89608857198E+02 0.  0.
          2    1    3    3  502    0  0.14429776040E+03 -0.13584396941E+03 -0.86204154735E+02  0.21611706081E+03  0.00000000000E+00 0. -1.
         -1    1    3    3    0  502  0.76559881734E+03 -0.51623944670E+03 -0.49118150185E+03  0.10458986486E+04  0.00000000000E+00 0.  1.
         13    1    5    5    0    0 -0.19950545188E+03 -0.43192342617E+02  0.11268751250E+03  0.23316620523E+03  0.00000000000E+00 0. -1.
        -13    1    5    5    0    0 -0.31974617116E+03 -0.81152764147E+02  0.32763250858E+03  0.46493703421E+03  0.00000000000E+00 0.  1.
          3    1    6    6  503    0 -0.29587235550E+03  0.54826602775E+03  0.92958104324E+03  0.11190428964E+04  0.00000000000E+00 0. -1.
         -3    1    6    6    0  503 -0.94772599201E+02  0.22816249512E+03  0.28501325989E+03  0.37719030747E+03  0.00000000000E+00 0.  1.
<mgrwt>
<rscale>  0 0.32840984E+04</rscale>
<asrwt>0</asrwt>
<pdfrwt beam="1">  1        2 0.34876006E+00 0.32840984E+04</pdfrwt>
<pdfrwt beam="2">  1       -3 0.18298642E+00 0.32840984E+04</pdfrwt>
<totfact> 0.47367011E-01</totfact>
</mgrwt>
</event>
<event>
12    7  0.1707730E-007  0.2220689E+04  0.7818608E-02  0.8509866E-01
          2   -1    0    0  501    0  0.00000000000E+00  0.00000000000E+00  0.10626988208E+04  0.10626988208E+04  0.00000000000E+00 0. -1.
         -1   -1    0    0    0  501 -0.00000000000E+00 -0.00000000000E+00 -0.11601267953E+04  0.11601267953E+04  0.00000000000E+00 0.  1.
         24    2    1    2    0    0 -0.40691292242E+03 -0.82416554484E+03  0.58536202200E+02  0.92425762726E+03  0.77451293360E+02 0.  0.
        254    2    1    2    0    0  0.40691292242E+03  0.82416554484E+03 -0.15596417667E+03  0.12985679888E+04  0.90395078700E+03 0.  0.
         23    2    4    4    0    0  0.52047106966E+03  0.77506415579E+03  0.15597084838E+03  0.95093244128E+03  0.91274434412E+02 0.  0.
         23    2    4    4    0    0 -0.11355814724E+03  0.49101389046E+02 -0.31193502506E+03  0.34763554749E+03  0.90777832167E+02 0.  0.
          4    1    3    3  502    0 -0.27078938363E+03 -0.56995578825E+03  0.53643444496E+01  0.63103507592E+03  0.00000000000E+00 0. -1.
         -3    1    3    3    0  502 -0.13612353879E+03 -0.25420975659E+03  0.53171857750E+02  0.29322255134E+03  0.00000000000E+00 0.  1.
         13    1    5    5    0    0  0.24628368235E+03  0.39191648774E+03  0.33278198652E+02  0.46407071019E+03  0.00000000000E+00 0.  1.
        -13    1    5    5    0    0  0.27418738731E+03  0.38314766806E+03  0.12269264973E+03  0.48686173109E+03  0.00000000000E+00 0. -1.
          2    1    6    6  503    0 -0.51114460913E+02  0.51370823483E+02 -0.82333641603E+02  0.10968353641E+03  0.00000000000E+00 0. -1.
         -2    1    6    6    0  503 -0.62443686324E+02 -0.22694344368E+01 -0.22960138345E+03  0.23795201108E+03  0.00000000000E+00 0.  1.
<mgrwt>
<rscale>  0 0.22206894E+04</rscale>
<asrwt>0</asrwt>
<pdfrwt beam="1">  1        2 0.16349213E+00 0.22206894E+04</pdfrwt>
<pdfrwt beam="2">  1       -1 0.17848105E+00 0.22206894E+04</pdfrwt>
<totfact> 0.51035956E+00</totfact>
</mgrwt>
</event>
<event>
12    7  0.1707730E-007  0.1444525E+04  0.7818608E-02  0.8922205E-01
          4   -1    0    0  501    0  0.00000000000E+00  0.00000000000E+00  0.89519933476E+03  0.89519933476E+03  0.00000000000E+00 0. -1.
         -3   -1    0    0    0  501 -0.00000000000E+00 -0.00000000000E+00 -0.58273398021E+03  0.58273398021E+03  0.00000000000E+00 0.  1.
         24    2    1    2    0    0 -0.30735719001E+03  0.29294096598E+03 -0.61709731587E+01  0.43236461241E+03  0.81352476024E+02 0.  0.
        254    2    1    2    0    0  0.30735719001E+03 -0.29294096598E+03  0.31863632771E+03  0.10455687026E+04  0.90077852475E+03 0.  0.
         23    2    4    4    0    0  0.60062277404E+03 -0.75463335950E+02  0.13529113041E+03  0.62714436055E+03  0.92541489289E+02 0.  0.
         23    2    4    4    0    0 -0.29326558403E+03 -0.21747763003E+03  0.18334519730E+03  0.41842434201E+03  0.90345150828E+02 0.  0.
          2    1    3    3  502    0 -0.68303490654E+02  0.54506461801E+02  0.30926663678E+02  0.92697247746E+02  0.00000000000E+00 0. -1.
         -1    1    3    3    0  502 -0.23905369936E+03  0.23843450418E+03 -0.37097636837E+02  0.33966736466E+03  0.00000000000E+00 0.  1.
         13    1    5    5    0    0  0.40527491215E+02  0.14917213702E+02 -0.26781238908E+01  0.43268616299E+02  0.00000000000E+00 0.  1.
        -13    1    5    5    0    0  0.56009528282E+03 -0.90380549652E+02  0.13796925430E+03  0.58387574425E+03  0.00000000000E+00 0. -1.
          3    1    6    6  503    0 -0.28740030851E+03 -0.18327342926E+03  0.17274980942E+03  0.38213948221E+03  0.00000000000E+00 0. -1.
         -3    1    6    6    0  503 -0.58652755193E+01 -0.34204200766E+02  0.10595387873E+02  0.36284859806E+02  0.00000000000E+00 0.  1.
<mgrwt>
<rscale>  0 0.14445249E+04</rscale>
<asrwt>0</asrwt>
<pdfrwt beam="1">  1        4 0.13772297E+00 0.14445249E+04</pdfrwt>
<pdfrwt beam="2">  1       -3 0.89651381E-01 0.14445249E+04</pdfrwt>
<totfact> 0.93053641E-01</totfact>
</mgrwt>
</event>
<event>
12    7  0.1707730E-007  0.2154857E+04  0.7818608E-02  0.8537456E-01
          2   -1    0    0  501    0  0.00000000000E+00  0.00000000000E+00  0.12450868513E+04  0.12450868513E+04  0.00000000000E+00 0. -1.
         -1   -1    0    0    0  501 -0.00000000000E+00 -0.00000000000E+00 -0.93234652868E+03  0.93234652868E+03  0.00000000000E+00 0.  1.
         24    2    1    2    0    0  0.63027938462E+03  0.47771383087E+03 -0.27982572359E+03  0.84381338061E+03  0.90862417043E+02 0.  0.
        254    2    1    2    0    0 -0.63027938462E+03 -0.47771383087E+03  0.59256604620E+03  0.13336199994E+04  0.89551391764E+03 0.  0.
         23    2    4    4    0    0  0.63008352963E+02 -0.45935289783E+03  0.37056661051E+03  0.59998403626E+03  0.87670369290E+02 0.  0.
         23    2    4    4    0    0 -0.69328773758E+03 -0.18360933043E+02  0.22199943570E+03  0.73363596310E+03  0.89179403202E+02 0.  0.
          4    1    3    3  502    0  0.28764352594E+03  0.22814509686E+03 -0.82735495196E+02  0.37634312190E+03  0.00000000000E+00 0. -1.
         -3    1    3    3    0  502  0.34263585868E+03  0.24956873401E+03 -0.19709022840E+03  0.46747025871E+03  0.00000000000E+00 0.  1.
         13    1    5    5    0    0 -0.11959722247E+02 -0.23369502999E+03  0.17813381547E+03  0.29408852104E+03  0.00000000000E+00 0.  1.
        -13    1    5    5    0    0  0.74968075209E+02 -0.22565786784E+03  0.19243279504E+03  0.30589551521E+03  0.00000000000E+00 0. -1.
          2    1    6    6  503    0 -0.37803407260E+03 -0.53872043380E+02  0.12856935649E+03  0.40291691021E+03  0.00000000000E+00 0. -1.
         -2    1    6    6    0  503 -0.31525366499E+03  0.35511110337E+02  0.93430079202E+02  0.33071905289E+03  0.00000000000E+00 0.  1.
<mgrwt>
<rscale>  0 0.21548572E+04</rscale>
<asrwt>0</asrwt>
<pdfrwt beam="1">  1        2 0.19155182E+00 0.21548572E+04</pdfrwt>
<pdfrwt beam="2">  1       -1 0.14343793E+00 0.21548572E+04</pdfrwt>
<totfact> 0.73229417E+00</totfact>
</mgrwt>
</event>
<event>
12    7  0.1707730E-007  0.2367846E+04  0.7818608E-02  0.8451641E-01
          2   -1    0    0  501    0  0.00000000000E+00  0.00000000000E+00  0.20024330431E+04  0.20024330431E+04  0.00000000000E+00 0. -1.
         -1   -1    0    0    0  501 -0.00000000000E+00 -0.00000000000E+00 -0.69998505028E+03  0.69998505028E+03  0.00000000000E+00 0.  1.
         24    2    1    2    0    0 -0.70101990375E+03 -0.68738264408E+03  0.29910503393E+03  0.10296596067E+04  0.82530475957E+02 0.  0.
        254    2    1    2    0    0  0.70101990375E+03  0.68738264408E+03  0.10033429588E+04  0.16727584867E+04  0.90967030116E+03 0.  0.
         23    2    4    4    0    0 -0.12523959541E+03  0.51974167288E+02  0.47089180783E+03  0.49878766542E+03  0.93079375661E+02 0.  0.
         23    2    4    4    0    0  0.82625949917E+03  0.63540847679E+03  0.53245115102E+03  0.11739708212E+04  0.90854656288E+02 0.  0.
          4    1    3    3  502    0 -0.17768924020E+03 -0.17645121651E+03  0.39201432457E+02  0.25346646760E+03  0.00000000000E+00 0. -1.
         -3    1    3    3    0  502 -0.52333066355E+03 -0.51093142757E+03  0.25990360148E+03  0.77619313908E+03  0.00000000000E+00 0.  1.
         13    1    5    5    0    0 -0.13058980046E+03  0.62554595043E+02  0.46143837798E+03  0.48362397585E+03  0.00000000000E+00 0.  1.
        -13    1    5    5    0    0  0.53502050452E+01 -0.10580427756E+02  0.94534298461E+01  0.15163689570E+02  0.00000000000E+00 0. -1.
          3    1    6    6  503    0  0.75868420106E+02  0.91022249845E+02  0.46771312276E+02  0.12739161192E+03  0.00000000000E+00 0. -1.
         -3    1    6    6    0  503  0.75039107906E+03  0.54438622695E+03  0.48567983874E+03  0.10465792093E+04  0.00000000000E+00 0.  1.
<mgrwt>
<rscale>  0 0.23678456E+04</rscale>
<asrwt>0</asrwt>
<pdfrwt beam="1">  1        2 0.30806662E+00 0.23678456E+04</pdfrwt>
<pdfrwt beam="2">  1       -1 0.10769001E+00 0.23678456E+04</pdfrwt>
<totfact> 0.54829918E+00</totfact>
</mgrwt>
</event>
<event>
12    7  0.1707730E-007  0.2186208E+04  0.7818608E-02  0.8524191E-01
          2   -1    0    0  501    0  0.00000000000E+00  0.00000000000E+00  0.18467269894E+04  0.18467269894E+04  0.00000000000E+00 0. -1.
         -1   -1    0    0    0  501 -0.00000000000E+00 -0.00000000000E+00 -0.64702391855E+03  0.64702391855E+03  0.00000000000E+00 0.  1.
         24    2    1    2    0    0 -0.72178465413E+03  0.18054340324E+03 -0.83302365742E+02  0.75276353825E+03  0.78387836978E+02 0.  0.
        254    2    1    2    0    0  0.72178465413E+03 -0.18054340324E+03  0.12830054366E+04  0.17409873697E+04  0.91179222617E+03 0.  0.
         23    2    4    4    0    0  0.79676196602E+02  0.32709122092E+03  0.44927109902E+03  0.56888926673E+03  0.91942994741E+02 0.  0.
         23    2    4    4    0    0  0.64210845753E+03 -0.50763462416E+03  0.83373433753E+03  0.11720981029E+04  0.93299702191E+02 0.  0.
          4    1    3    3  502    0  0.90279344005E+00  0.41283039215E+01 -0.24417431144E+00  0.42329127510E+01  0.00000000000E+00 0. -1.
         -3    1    3    3    0  502 -0.72268744757E+03  0.17641509932E+03 -0.83058191430E+02  0.74853062550E+03  0.00000000000E+00 0.  1.
         13    1    5    5    0    0  0.55036970911E+02  0.31560563338E+03  0.42653992936E+03  0.53345318007E+03  0.00000000000E+00 0. -1.
        -13    1    5    5    0    0  0.24639225691E+02  0.11485587536E+02  0.22731169656E+02  0.35436086658E+02  0.00000000000E+00 0.  1.
          3    1    6    6  503    0  0.22402592480E+03 -0.23474845982E+03  0.32032501872E+03  0.45596334501E+03  0.00000000000E+00 0. -1.
         -3    1    6    6    0  503  0.41808253273E+03 -0.27288616434E+03  0.51340931881E+03  0.71613475792E+03  0.00000000000E+00 0.  1.
<mgrwt>
<rscale>  0 0.21862082E+04</rscale>
<asrwt>0</asrwt>
<pdfrwt beam="1">  1        2 0.28411184E+00 0.21862082E+04</pdfrwt>
<pdfrwt beam="2">  1       -1 0.99542142E-01 0.21862082E+04</pdfrwt>
<totfact> 0.81561986E+00</totfact>
</mgrwt>
</event>
<event>
12    7  0.1707730E-007  0.1419960E+04  0.7818608E-02  0.8939496E-01
         -1   -1    0    0    0  501 -0.00000000000E+00  0.00000000000E+00  0.12974189554E+03  0.12974189554E+03  0.00000000000E+00 0.  1.
          2   -1    0    0  501    0  0.00000000000E+00 -0.00000000000E+00 -0.38851875756E+04  0.38851875756E+04  0.00000000000E+00 0. -1.
         24    2    1    2    0    0  0.10760858539E+03 -0.39574764082E+03 -0.91482087665E+03  0.10056394971E+04  0.78852766831E+02 0.  0.
        254    2    1    2    0    0 -0.10760858539E+03  0.39574764082E+03 -0.28406248034E+04  0.30092899741E+04  0.90469943711E+03 0.  0.
         23    2    4    4    0    0 -0.63767745439E+02 -0.23356626393E+03 -0.33129667066E+03  0.42040156487E+03  0.91435587975E+02 0.  0.
         23    2    4    4    0    0 -0.43840839946E+02  0.62931390475E+03 -0.25093281327E+04  0.25888884092E+04  0.87507186035E+02 0.  0.
          2    1    3    3  502    0 -0.11517152620E+02 -0.20279416713E+02 -0.41833112531E+02  0.47894768511E+02  0.00000000000E+00 0. -1.
         -1    1    3    3    0  502  0.11912573800E+03 -0.37546822411E+03 -0.87298776411E+03  0.95774472855E+03  0.00000000000E+00 0.  1.
         13    1    5    5    0    0  0.73807158869E+01 -0.14401576386E+03 -0.19345343970E+03  0.24128665222E+03  0.00000000000E+00 0. -1.
        -13    1    5    5    0    0 -0.71148461326E+02 -0.89550500070E+02 -0.13784323096E+03  0.17911491265E+03  0.00000000000E+00 0.  1.
          2    1    6    6  503    0 -0.62964386490E+02  0.28658721722E+03 -0.11243995764E+04  0.11620547123E+04  0.00000000000E+00 0. -1.
         -2    1    6    6    0  503  0.19123546544E+02  0.34272668753E+03 -0.13849285564E+04  0.14268336969E+04  0.00000000000E+00 0.  1.
<mgrwt>
<rscale>  0 0.14199600E+04</rscale>
<asrwt>0</asrwt>
<pdfrwt beam="1">  1        2 0.59772114E+00 0.14199600E+04</pdfrwt>
<pdfrwt beam="2">  1       -1 0.19960293E-01 0.14199600E+04</pdfrwt>
<totfact> 0.98284217E+00</totfact>
</mgrwt>
</event>
<event>
12    7  0.1707730E-007  0.1656270E+04  0.7818608E-02  0.8786706E-01
          2   -1    0    0  501    0  0.00000000000E+00  0.00000000000E+00  0.15003140949E+04  0.15003140949E+04  0.00000000000E+00 0. -1.
         -1   -1    0    0    0  501 -0.00000000000E+00 -0.00000000000E+00 -0.45710929978E+03  0.45710929978E+03  0.00000000000E+00 0.  1.
         24    2    1    2    0    0  0.43184140486E+03  0.28688182507E+03  0.98215167423E+02  0.53442077175E+03  0.84682711697E+02 0.  0.
        254    2    1    2    0    0 -0.43184140486E+03 -0.28688182507E+03  0.94498962768E+03  0.14230026229E+04  0.92905483578E+03 0.  0.
         23    2    4    4    0    0  0.51762352844E+02 -0.65534327658E+02  0.86911881586E+03  0.87814120401E+03  0.93756966771E+02 0.  0.
         23    2    4    4    0    0 -0.48360375771E+03 -0.22134749741E+03  0.75870811822E+02  0.54486141891E+03  0.90831033519E+02 0.  0.
          4    1    3    3  502    0  0.19586484754E+01  0.96802068773E+01  0.12257085328E+02  0.15740992656E+02  0.00000000000E+00 0. -1.
         -1    1    3    3    0  502  0.42988275639E+03  0.27720161819E+03  0.85958082095E+02  0.51867977910E+03  0.00000000000E+00 0.  1.
         13    1    5    5    0    0 -0.86996330505E+01  0.14708092673E+02  0.49066626780E+02  0.51957150315E+02  0.00000000000E+00 0. -1.
        -13    1    5    5    0    0  0.60461985895E+02 -0.80242420331E+02  0.82005218908E+03  0.82618405369E+03  0.00000000000E+00 0.  1.
          1    1    6    6  503    0 -0.16589100694E+03 -0.10123549823E+03 -0.97209848187E+01  0.19458404310E+03  0.00000000000E+00 0. -1.
         -1    1    6    6    0  503 -0.31771275077E+03 -0.12011199918E+03  0.85591796641E+02  0.35027737580E+03  0.00000000000E+00 0.  1.
<mgrwt>
<rscale>  0 0.16562699E+04</rscale>
<asrwt>0</asrwt>
<pdfrwt beam="1">  1        2 0.23081755E+00 0.16562699E+04</pdfrwt>
<pdfrwt beam="2">  1       -1 0.70324508E-01 0.16562699E+04</pdfrwt>
<totfact> 0.28212870E+01</totfact>
</mgrwt>
</event>
<event>
12    7  0.1707730E-007  0.1447779E+04  0.7818608E-02  0.8919942E-01
         -1   -1    0    0    0  501 -0.00000000000E+00  0.00000000000E+00  0.69292358243E+03  0.69292358243E+03  0.00000000000E+00 0.  1.
          2   -1    0    0  501    0  0.00000000000E+00 -0.00000000000E+00 -0.75623939383E+03  0.75623939383E+03  0.00000000000E+00 0. -1.
         24    2    1    2    0    0 -0.15852982021E+03  0.53318189083E+02  0.39462374575E+03  0.43606485403E+03  0.80312657909E+02 0.  0.
        254    2    1    2    0    0  0.15852982021E+03 -0.53318189083E+02 -0.45793955716E+03  0.10130981222E+04  0.88807918232E+03 0.  0.
         23    2    4    4    0    0  0.41583108737E+03  0.14748875976E+03 -0.49805474841E+03  0.67168060135E+03  0.91803433148E+02 0.  0.
         23    2    4    4    0    0 -0.25730126716E+03 -0.20080694884E+03  0.40115191253E+02  0.34141752088E+03  0.91811340296E+02 0.  0.
          4    1    3    3  502    0 -0.22813197220E+02  0.40767289707E+02  0.71941521119E+02  0.85778763913E+02  0.00000000000E+00 0. -1.
         -3    1    3    3    0  502 -0.13571662299E+03  0.12550899375E+02  0.32268222463E+03  0.35028609011E+03  0.00000000000E+00 0.  1.
         13    1    5    5    0    0  0.25600038427E+03  0.83552448232E+02 -0.36763230840E+03  0.45570903275E+03  0.00000000000E+00 0. -1.
        -13    1    5    5    0    0  0.15983070310E+03  0.63936311528E+02 -0.13042244001E+03  0.21597156860E+03  0.00000000000E+00 0.  1.
          2    1    6    6  503    0 -0.17585092963E+03 -0.10818079580E+03  0.63227493282E+02  0.21592672354E+03  0.00000000000E+00 0. -1.
         -2    1    6    6    0  503 -0.81450337532E+02 -0.92626153046E+02 -0.23112302029E+02  0.12549079734E+03  0.00000000000E+00 0.  1.
<mgrwt>
<rscale>  0 0.14477791E+04</rscale>
<asrwt>0</asrwt>
<pdfrwt beam="1">  1        2 0.11634452E+00 0.14477791E+04</pdfrwt>
<pdfrwt beam="2">  1       -1 0.10660363E+00 0.14477791E+04</pdfrwt>
<totfact> 0.33776573E+01</totfact>
</mgrwt>
</event>
<event>
12    7  0.1707730E-007  0.1962696E+04  0.7818608E-02  0.8624263E-01
         -1   -1    0    0    0  501 -0.00000000000E+00  0.00000000000E+00  0.12004479906E+04  0.12004479906E+04  0.00000000000E+00 0.  1.
          2   -1    0    0  501    0  0.00000000000E+00 -0.00000000000E+00 -0.80223672762E+03  0.80223672762E+03  0.00000000000E+00 0. -1.
         24    2    1    2    0    0  0.43937994030E+03  0.14746886710E+03  0.78822031425E+03  0.91766928208E+03  0.77613457483E+02 0.  0.
        254    2    1    2    0    0 -0.43937994030E+03 -0.14746886710E+03 -0.39000905126E+03  0.10850154362E+04  0.90019422233E+03 0.  0.
         23    2    4    4    0    0 -0.73966675346E+02 -0.45986443092E+02  0.28130871585E+03  0.30850337418E+03  0.91945180720E+02 0.  0.
         23    2    4    4    0    0 -0.36541326495E+03 -0.10148242401E+03 -0.67131776711E+03  0.77651206197E+03  0.92075519885E+02 0.  0.
          2    1    3    3  502    0  0.18781412956E+03  0.28617286843E+02  0.28195046050E+03  0.33998405631E+03  0.00000000000E+00 0. -1.
         -1    1    3    3    0  502  0.25156581075E+03  0.11885158026E+03  0.50626985375E+03  0.57768522577E+03  0.00000000000E+00 0.  1.
         13    1    5    5    0    0 -0.91189132019E+02 -0.55050231067E+02  0.22533013457E+03  0.24923814974E+03  0.00000000000E+00 0. -1.
        -13    1    5    5    0    0  0.17222456672E+02  0.90637879746E+01  0.55978581281E+02  0.59265224445E+02  0.00000000000E+00 0.  1.
          2    1    6    6  503    0 -0.43583651775E+01  0.91922248128E+01 -0.69613988059E+01  0.12326938686E+02  0.00000000000E+00 0.  1.
         -2    1    6    6    0  503 -0.36105489978E+03 -0.11067464882E+03 -0.66435636830E+03  0.76418512328E+03  0.00000000000E+00 0. -1.
<mgrwt>
<rscale>  0 0.19626956E+04</rscale>
<asrwt>0</asrwt>
<pdfrwt beam="1">  1        2 0.12342104E+00 0.19626956E+04</pdfrwt>
<pdfrwt beam="2">  1       -1 0.18468431E+00 0.19626956E+04</pdfrwt>
<totfact> 0.70314618E+00</totfact>
</mgrwt>
</event>
<event>
12    7  0.1707730E-007  0.1603274E+04  0.7818608E-02  0.8818539E-01
         -1   -1    0    0    0  501 -0.00000000000E+00  0.00000000000E+00  0.31195562802E+03  0.31195562802E+03  0.00000000000E+00 0.  1.
          2   -1    0    0  501    0  0.00000000000E+00 -0.00000000000E+00 -0.20599792812E+04  0.20599792812E+04  0.00000000000E+00 0. -1.
         24    2    1    2    0    0 -0.25032364213E+01  0.43804442808E+02  0.19679175649E+03  0.21708153101E+03  0.80450607718E+02 0.  0.
        254    2    1    2    0    0  0.25032364213E+01 -0.43804442808E+02 -0.19448154097E+04  0.21548533782E+04  0.92690938526E+03 0.  0.
         23    2    4    4    0    0 -0.21814964213E+03  0.32012420150E+03 -0.14102114566E+04  0.14652722371E+04  0.90871369635E+02 0.  0.
         23    2    4    4    0    0  0.22065287855E+03 -0.36392864431E+03 -0.53460395312E+03  0.68958114113E+03  0.92676925636E+02 0.  0.
          4    1    3    3  502    0 -0.31044002722E+02  0.13130572900E+02  0.30051836195E+02  0.45158110107E+02  0.00000000000E+00 0. -1.
         -3    1    3    3    0  502  0.28540766301E+02  0.30673869908E+02  0.16673992029E+03  0.17192342090E+03  0.00000000000E+00 0.  1.
         13    1    5    5    0    0 -0.10860635225E+03  0.22894947291E+03 -0.83056278073E+03  0.86835921924E+03  0.00000000000E+00 0. -1.
        -13    1    5    5    0    0 -0.10954328989E+03  0.91174728590E+02 -0.57964867583E+03  0.59691301786E+03  0.00000000000E+00 0.  1.
          4    1    6    6  503    0  0.19127517967E+03 -0.23985417617E+03 -0.40107894560E+03  0.50495597906E+03  0.00000000000E+00 0. -1.
         -4    1    6    6    0  503  0.29377698885E+02 -0.12407446814E+03 -0.13352500752E+03  0.18462516207E+03  0.00000000000E+00 0.  1.
<mgrwt>
<rscale>  0 0.16032743E+04</rscale>
<asrwt>0</asrwt>
<pdfrwt beam="1">  1        2 0.31691989E+00 0.16032743E+04</pdfrwt>
<pdfrwt beam="2">  1       -1 0.47993173E-01 0.16032743E+04</pdfrwt>
<totfact> 0.29318418E+01</totfact>
</mgrwt>
</event>
<event>
12    7  0.1707730E-007  0.2295798E+04  0.7818608E-02  0.8479580E-01
         -1   -1    0    0    0  501 -0.00000000000E+00  0.00000000000E+00  0.33362396719E+03  0.33362396719E+03  0.00000000000E+00 0.  1.
          2   -1    0    0  501    0  0.00000000000E+00 -0.00000000000E+00 -0.39495729549E+04  0.39495729549E+04  0.00000000000E+00 0. -1.
         24    2    1    2    0    0  0.37193643849E+03 -0.88548002285E+03 -0.14862091583E+04  0.17715606164E+04  0.84839674286E+02 0.  0.
        254    2    1    2    0    0 -0.37193643849E+03  0.88548002285E+03 -0.21297398295E+04  0.25116363057E+04  0.92201605510E+03 0.  0.
         23    2    4    4    0    0  0.64284156289E+02  0.74627702045E+03 -0.79042294347E+03  0.10926094378E+04  0.89247465499E+02 0.  0.
         23    2    4    4    0    0 -0.43622059478E+03  0.13920300240E+03 -0.13393168860E+04  0.14190268679E+04  0.10100320515E+03 0.  0.
          4    1    3    3  502    0  0.17874787135E+03 -0.46534926563E+03 -0.69826092229E+03  0.85794466963E+03  0.00000000000E+00 0. -1.
         -3    1    3    3    0  502  0.19318856713E+03 -0.42013075722E+03 -0.78794823596E+03  0.91361594677E+03  0.00000000000E+00 0.  1.
         13    1    5    5    0    0  0.63910880049E+02  0.58023614454E+03 -0.66263374213E+03  0.88308666632E+03  0.00000000000E+00 0. -1.
        -13    1    5    5    0    0  0.37327623997E+00  0.16604087591E+03 -0.12778920134E+03  0.20952277153E+03  0.00000000000E+00 0.  1.
          3    1    6    6  503    0 -0.42046292211E+03  0.12783006466E+03 -0.13215216633E+04  0.13926769549E+04  0.00000000000E+00 0. -1.
         -3    1    6    6    0  503 -0.15757672665E+02  0.11372937734E+02 -0.17795222745E+02  0.26349912961E+02  0.00000000000E+00 0.  1.
<mgrwt>
<rscale>  0 0.22957981E+04</rscale>
<asrwt>0</asrwt>
<pdfrwt beam="1">  1        2 0.60762665E+00 0.22957981E+04</pdfrwt>
<pdfrwt beam="2">  1       -1 0.51326761E-01 0.22957981E+04</pdfrwt>
<totfact> 0.14876934E+00</totfact>
</mgrwt>
</event>
<event>
12    7  0.1707730E-007  0.2126237E+04  0.7818608E-02  0.8549773E-01
         -1   -1    0    0    0  501 -0.00000000000E+00  0.00000000000E+00  0.42585037665E+03  0.42585037665E+03  0.00000000000E+00 0.  1.
          2   -1    0    0  501    0  0.00000000000E+00 -0.00000000000E+00 -0.26540324472E+04  0.26540324472E+04  0.00000000000E+00 0. -1.
         24    2    1    2    0    0  0.27914931911E+03 -0.44739028778E+03 -0.19267072389E+04  0.19990102157E+04  0.75885745233E+02 0.  0.
        254    2    1    2    0    0 -0.27914931911E+03  0.44739028778E+03 -0.30147483171E+03  0.10808726081E+04  0.89404480252E+03 0.  0.
         23    2    4    4    0    0 -0.28009405555E+03 -0.21796395850E+03 -0.10845359797E+03  0.38222677775E+03  0.91510434136E+02 0.  0.
         23    2    4    4    0    0  0.94473643827E+00  0.66535424628E+03 -0.19302123374E+03  0.69864583039E+03  0.90286400294E+02 0.  0.
          2    1    3    3  502    0  0.18282124606E+03 -0.35362145024E+03 -0.14131979468E+04  0.14681962318E+04  0.00000000000E+00 0. -1.
         -1    1    3    3    0  502  0.96328073049E+02 -0.93768837540E+02 -0.51350929203E+03  0.53081398395E+03  0.00000000000E+00 0.  1.
         13    1    5    5    0    0 -0.12564781509E+03 -0.47630227216E+02 -0.60433619027E+02  0.14733714498E+03  0.00000000000E+00 0. -1.
        -13    1    5    5    0    0 -0.15444624046E+03 -0.17033373128E+03 -0.48019978942E+02  0.23488963277E+03  0.00000000000E+00 0.  1.
          3    1    6    6  503    0  0.34205385582E+02  0.15400339841E+03 -0.27429071177E+02  0.16012310598E+03  0.00000000000E+00 0. -1.
         -3    1    6    6    0  503 -0.33260649144E+02  0.51135084787E+03 -0.16559216257E+03  0.53852272441E+03  0.00000000000E+00 0.  1.
<mgrwt>
<rscale>  0 0.21262368E+04</rscale>
<asrwt>0</asrwt>
<pdfrwt beam="1">  1        2 0.40831268E+00 0.21262368E+04</pdfrwt>
<pdfrwt beam="2">  1       -1 0.65515443E-01 0.21262368E+04</pdfrwt>
<totfact> 0.69932276E+00</totfact>
</mgrwt>
</event>
<event>
12    7  0.1707730E-007  0.1696447E+04  0.7818608E-02  0.8763393E-01
          2   -1    0    0  501    0  0.00000000000E+00  0.00000000000E+00  0.12365141985E+04  0.12365141985E+04  0.00000000000E+00 0. -1.
         -1   -1    0    0    0  501 -0.00000000000E+00 -0.00000000000E+00 -0.58186428831E+03  0.58186428831E+03  0.00000000000E+00 0.  1.
         24    2    1    2    0    0  0.50346444032E+03  0.26812056243E+03  0.19050455610E+02  0.57615447814E+03  0.78904905852E+02 0.  0.
        254    2    1    2    0    0 -0.50346444032E+03 -0.26812056243E+03  0.63559945460E+03  0.12422240087E+04  0.90209131601E+03 0.  0.
         23    2    4    4    0    0 -0.49558483201E+03 -0.49343383069E+03  0.18372183217E+03  0.72941891183E+03  0.96005032841E+02 0.  0.
         23    2    4    4    0    0 -0.78796083036E+01  0.22531326826E+03  0.45187762243E+03  0.51280509686E+03  0.89148890253E+02 0.  0.
          2    1    3    3  502    0  0.54827305276E+02  0.10159956239E+02 -0.14311312744E+02  0.57567975360E+02  0.00000000000E+00 0. -1.
         -1    1    3    3    0  502  0.44863713504E+03  0.25796060619E+03  0.33361768355E+02  0.51858650278E+03  0.00000000000E+00 0.  1.
         13    1    5    5    0    0 -0.47564018188E+03 -0.45965578235E+03  0.19315046756E+03  0.68907483191E+03  0.00000000000E+00 0.  1.
        -13    1    5    5    0    0 -0.19944650139E+02 -0.33778048342E+02 -0.94286353921E+01  0.40344079916E+02  0.00000000000E+00 0. -1.
          2    1    6    6  503    0  0.98768435259E+00  0.38084512911E+02  0.17055581804E+03  0.17475895602E+03  0.00000000000E+00 0. -1.
         -2    1    6    6    0  503 -0.88672926562E+01  0.18722875535E+03  0.28132180439E+03  0.33804614084E+03  0.00000000000E+00 0.  1.
<mgrwt>
<rscale>  0 0.16964474E+04</rscale>
<asrwt>0</asrwt>
<pdfrwt beam="1">  1        2 0.19023295E+00 0.16964474E+04</pdfrwt>
<pdfrwt beam="2">  1       -1 0.89517583E-01 0.16964474E+04</pdfrwt>
<totfact> 0.23901141E+01</totfact>
</mgrwt>
</event>
<event>
12    7  0.1707730E-007  0.1114003E+04  0.7818608E-02  0.9191650E-01
         -1   -1    0    0    0  501 -0.00000000000E+00  0.00000000000E+00  0.21632511695E+03  0.21632511695E+03  0.00000000000E+00 0.  1.
          2   -1    0    0  501    0  0.00000000000E+00 -0.00000000000E+00 -0.14341876877E+04  0.14341876877E+04  0.00000000000E+00 0. -1.
         24    2    1    2    0    0  0.77899696045E+02 -0.18187408827E+03 -0.29407667208E+03  0.36372388643E+03  0.81654331603E+02 0.  0.
        254    2    1    2    0    0 -0.77899696045E+02  0.18187408827E+03 -0.92378589865E+03  0.12867889182E+04  0.87366972412E+03 0.  0.
         23    2    4    4    0    0 -0.11739016834E+03  0.18770115358E+03  0.98816577082E+02  0.25941147480E+03  0.92289883916E+02 0.  0.
         23    2    4    4    0    0  0.39490472298E+02 -0.58270653094E+01 -0.10226024757E+04  0.10273774434E+04  0.90526989121E+02 0.  0.
          2    1    3    3  502    0  0.13886374732E+02 -0.96011611116E+02 -0.19512732009E+03  0.21791221149E+03  0.00000000000E+00 0. -1.
         -1    1    3    3    0  502  0.64013321313E+02 -0.85862477155E+02 -0.98949351994E+02  0.14581167494E+03  0.00000000000E+00 0.  1.
         13    1    5    5    0    0 -0.11312521029E+03  0.10520148088E+03  0.82766764204E+02  0.17525696003E+03  0.00000000000E+00 0.  1.
        -13    1    5    5    0    0 -0.42649580520E+01  0.82499672697E+02  0.16049812877E+02  0.84154514767E+02  0.00000000000E+00 0. -1.
          4    1    6    6  503    0  0.42768410319E+02  0.13059615324E+02 -0.97549125157E+03  0.97651567953E+03  0.00000000000E+00 0.  1.
         -4    1    6    6    0  503 -0.32779380207E+01 -0.18886680634E+02 -0.47111224157E+02  0.50861763876E+02  0.00000000000E+00 0. -1.
<mgrwt>
<rscale>  0 0.11140033E+04</rscale>
<asrwt>0</asrwt>
<pdfrwt beam="1">  1        2 0.22064426E+00 0.11140033E+04</pdfrwt>
<pdfrwt beam="2">  1       -1 0.33280787E-01 0.11140033E+04</pdfrwt>
<totfact> 0.13268348E+02</totfact>
</mgrwt>
</event>
<event>
12    7  0.1707730E-007  0.2826556E+04  0.7818608E-02  0.8295071E-01
          2   -1    0    0  501    0  0.00000000000E+00  0.00000000000E+00  0.15968733631E+04  0.15968733631E+04  0.00000000000E+00 0. -1.
         -1   -1    0    0    0  501 -0.00000000000E+00 -0.00000000000E+00 -0.12507905399E+04  0.12507905399E+04  0.00000000000E+00 0.  1.
         24    2    1    2    0    0  0.52410586210E+03 -0.63104367860E+03  0.11366609470E+04  0.14040612664E+04  0.80540998403E+02 0.  0.
        254    2    1    2    0    0 -0.52410586210E+03  0.63104367860E+03 -0.79057812390E+03  0.14436026366E+04  0.88660685949E+03 0.  0.
         23    2    4    4    0    0 -0.70282605624E+03  0.34631136354E+03 -0.75583322339E+03  0.10926280365E+04  0.93038371899E+02 0.  0.
         23    2    4    4    0    0  0.17872019415E+03  0.28473231506E+03 -0.34744900513E+02  0.35097460009E+03  0.94670812603E+02 0.  0.
          4    1    3    3  502    0  0.28804783268E+03 -0.28425437538E+03  0.56632144738E+03  0.69605465704E+03  0.00000000000E+00 0. -1.
         -3    1    3    3    0  502  0.23605802942E+03 -0.34678930323E+03  0.57033949966E+03  0.70800660940E+03  0.00000000000E+00 0.  1.
         13    1    5    5    0    0 -0.22979068870E+03  0.66924603472E+02 -0.21560067278E+03  0.32212779028E+03  0.00000000000E+00 0. -1.
        -13    1    5    5    0    0 -0.47303536754E+03  0.27938676006E+03 -0.54023255061E+03  0.77050024619E+03  0.00000000000E+00 0.  1.
          4    1    6    6  503    0  0.18379242703E+01  0.67538073390E+02 -0.20074750783E+02  0.70482373271E+02  0.00000000000E+00 0. -1.
         -4    1    6    6    0  503  0.17688226987E+03  0.21719424167E+03 -0.14670149730E+02  0.28049222682E+03  0.00000000000E+00 0.  1.
<mgrwt>
<rscale>  0 0.28265556E+04</rscale>
<asrwt>0</asrwt>
<pdfrwt beam="1">  1        2 0.24567283E+00 0.28265556E+04</pdfrwt>
<pdfrwt beam="2">  1       -1 0.19242931E+00 0.28265556E+04</pdfrwt>
<totfact> 0.18806930E+00</totfact>
</mgrwt>
</event>
<event>
12    7  0.1707730E-007  0.1833113E+04  0.7818608E-02  0.8688886E-01
         -1   -1    0    0    0  501 -0.00000000000E+00  0.00000000000E+00  0.64024880628E+03  0.64024880628E+03  0.00000000000E+00 0.  1.
          2   -1    0    0  501    0  0.00000000000E+00 -0.00000000000E+00 -0.13121078868E+04  0.13121078868E+04  0.00000000000E+00 0. -1.
         24    2    1    2    0    0  0.32813310932E+03  0.31069417459E+03 -0.80252147610E+03  0.92442592056E+03  0.79500663169E+02 0.  0.
        254    2    1    2    0    0 -0.32813310932E+03 -0.31069417459E+03  0.13066239554E+03  0.10279307726E+04  0.91398402831E+03 0.  0.
         23    2    4    4    0    0 -0.21763149868E+03  0.21984310781E+02 -0.35119880026E+03  0.42558160516E+03  0.99661056611E+02 0.  0.
         23    2    4    4    0    0 -0.11050161063E+03 -0.33267848537E+03  0.48186119581E+03  0.60234916740E+03  0.88026853075E+02 0.  0.
          2    1    3    3  502    0  0.24605823481E+03  0.27573756477E+03 -0.65215800498E+03  0.74959050354E+03  0.00000000000E+00 0. -1.
         -1    1    3    3    0  502  0.82074874509E+02  0.34956609821E+02 -0.15036347112E+03  0.17483541702E+03  0.00000000000E+00 0.  1.
         13    1    5    5    0    0 -0.14660508309E+03  0.13502830926E+01 -0.14368590736E+03  0.20528154721E+03  0.00000000000E+00 0. -1.
        -13    1    5    5    0    0 -0.71026415594E+02  0.20634027689E+02 -0.20751289290E+03  0.22030005795E+03  0.00000000000E+00 0.  1.
          1    1    6    6  503    0  0.37392988361E+01  0.21701324990E+01 -0.26967882841E+00  0.43318076503E+01  0.00000000000E+00 0. -1.
         -1    1    6    6    0  503 -0.11424090947E+03 -0.33484861787E+03  0.48213087463E+03  0.59801735975E+03  0.00000000000E+00 0.  1.
<mgrwt>
<rscale>  0 0.18331127E+04</rscale>
<asrwt>0</asrwt>
<pdfrwt beam="1">  1        2 0.20186275E+00 0.18331127E+04</pdfrwt>
<pdfrwt beam="2">  1       -1 0.98499818E-01 0.18331127E+04</pdfrwt>
<totfact> 0.17224514E+01</totfact>
</mgrwt>
</event>
<event>
12    7  0.1707730E-007  0.1893196E+04  0.7818608E-02  0.8658251E-01
          2   -1    0    0  501    0  0.00000000000E+00  0.00000000000E+00  0.87660658252E+03  0.87660658252E+03  0.00000000000E+00 0. -1.
         -1   -1    0    0    0  501 -0.00000000000E+00 -0.00000000000E+00 -0.10221774774E+04  0.10221774774E+04  0.00000000000E+00 0.  1.
         24    2    1    2    0    0 -0.11864244477E+03  0.38720029474E+03  0.55926066319E+03  0.69558491480E+03  0.84058231928E+02 0.  0.
        254    2    1    2    0    0  0.11864244477E+03 -0.38720029474E+03 -0.70483155811E+03  0.12031991452E+04  0.88707415679E+03 0.  0.
         23    2    4    4    0    0  0.42172362450E+03 -0.11807868977E+03 -0.80804678164E+02  0.45401065676E+03  0.88333957198E+02 0.  0.
         23    2    4    4    0    0 -0.30308117973E+03 -0.26912160498E+03 -0.62402687994E+03  0.74918848840E+03  0.87116040314E+02 0.  0.
          4    1    3    3  502    0 -0.45390392914E+02  0.19251393722E+03  0.34004578925E+03  0.39338663244E+03  0.00000000000E+00 0. -1.
         -3    1    3    3    0  502 -0.73252051858E+02  0.19468635752E+03  0.21921487394E+03  0.30219828236E+03  0.00000000000E+00 0.  1.
         13    1    5    5    0    0  0.11370896427E+03 -0.71782908844E+02 -0.37018539366E+02  0.13947360616E+03  0.00000000000E+00 0. -1.
        -13    1    5    5    0    0  0.30801466023E+03 -0.46295780922E+02 -0.43786138798E+02  0.31453705060E+03  0.00000000000E+00 0.  1.
          2    1    6    6  503    0 -0.26664610180E+03 -0.25956700904E+03 -0.59436134754E+03  0.70124217446E+03  0.00000000000E+00 0.  1.
         -2    1    6    6    0  503 -0.36435077934E+02 -0.95545959362E+01 -0.29665532400E+02  0.47946313937E+02  0.00000000000E+00 0. -1.
<mgrwt>
<rscale>  0 0.18931957E+04</rscale>
<asrwt>0</asrwt>
<pdfrwt beam="1">  1        2 0.13486255E+00 0.18931957E+04</pdfrwt>
<pdfrwt beam="2">  1       -1 0.15725807E+00 0.18931957E+04</pdfrwt>
<totfact> 0.99749230E+00</totfact>
</mgrwt>
</event>
<event>
12    7  0.1707730E-007  0.2957954E+04  0.7818608E-02  0.8255840E-01
         -1   -1    0    0    0  501 -0.00000000000E+00  0.00000000000E+00  0.86076628189E+03  0.86076628189E+03  0.00000000000E+00 0.  1.
          2   -1    0    0  501    0  0.00000000000E+00 -0.00000000000E+00 -0.25411918635E+04  0.25411918635E+04  0.00000000000E+00 0. -1.
         24    2    1    2    0    0 -0.64018428126E+03 -0.76240392366E+03 -0.17803093852E+04  0.20412803098E+04  0.78918559588E+02 0.  0.
        254    2    1    2    0    0  0.64018428126E+03  0.76240392366E+03  0.99883803643E+02  0.13606778356E+04  0.92215602872E+03 0.  0.
         23    2    4    4    0    0 -0.13253772638E+03 -0.10450878660E+03  0.36397843235E+02  0.19410015863E+03  0.88666415276E+02 0.  0.
         23    2    4    4    0    0  0.77272200763E+03  0.86691271026E+03  0.63485960408E+02  0.11665776770E+04  0.90752746295E+02 0.  0.
          2    1    3    3  502    0 -0.44940109679E+03 -0.58877289376E+03 -0.13245321155E+04  0.15175639002E+04  0.00000000000E+00 0. -1.
         -1    1    3    3    0  502 -0.19078318447E+03 -0.17363102990E+03 -0.45577726970E+03  0.52371640952E+03  0.00000000000E+00 0.  1.
         13    1    5    5    0    0 -0.10417737798E+03 -0.92080518638E+02 -0.87958212953E+01  0.13931659796E+03  0.00000000000E+00 0.  1.
        -13    1    5    5    0    0 -0.28360348398E+02 -0.12428267963E+02  0.45193664531E+02  0.54783560668E+02  0.00000000000E+00 0. -1.
          4    1    6    6  503    0  0.48257183868E+03  0.51512131067E+03 -0.22522272287E+01  0.70585452943E+03  0.00000000000E+00 0. -1.
         -4    1    6    6    0  503  0.29015016896E+03  0.35179139959E+03  0.65738187636E+02  0.46072314755E+03  0.00000000000E+00 0.  1.
<mgrwt>
<rscale>  0 0.29579535E+04</rscale>
<asrwt>0</asrwt>
<pdfrwt beam="1">  1        2 0.39095259E+00 0.29579535E+04</pdfrwt>
<pdfrwt beam="2">  1       -1 0.13242558E+00 0.29579535E+04</pdfrwt>
<totfact> 0.15559323E+00</totfact>
</mgrwt>
</event>
<event>
12    7  0.1707730E-007  0.1389202E+04  0.7818608E-02  0.8961672E-01
          2   -1    0    0  501    0  0.00000000000E+00  0.00000000000E+00  0.72857669138E+03  0.72857669138E+03  0.00000000000E+00 0. -1.
         -1   -1    0    0    0  501 -0.00000000000E+00 -0.00000000000E+00 -0.66220990168E+03  0.66220990168E+03  0.00000000000E+00 0.  1.
         24    2    1    2    0    0 -0.22039270202E+03 -0.52811895783E+02  0.28953910748E+03  0.37782449425E+03  0.86927638012E+02 0.  0.
        254    2    1    2    0    0  0.22039270202E+03  0.52811895783E+02 -0.22317231778E+03  0.10129620988E+04  0.96172984292E+03 0.  0.
         23    2    4    4    0    0  0.46434548916E+03 -0.28767890319E+03 -0.17857434199E+03  0.58203220958E+03  0.92178157520E+02 0.  0.
         23    2    4    4    0    0 -0.24395278714E+03  0.34049079898E+03 -0.44597975786E+02  0.43092988923E+03  0.90910084410E+02 0.  0.
          4    1    3    3  502    0 -0.16497667172E+03 -0.64951241249E+02  0.25760469188E+03  0.31272374907E+03  0.00000000000E+00 0. -1.
         -3    1    3    3    0  502 -0.55416030309E+02  0.12139345466E+02  0.31934415601E+02  0.65100745183E+02  0.00000000000E+00 0.  1.
         13    1    5    5    0    0  0.85340535344E+01 -0.27357296022E+02 -0.14225980066E+02  0.31994221732E+02  0.00000000000E+00 0.  1.
        -13    1    5    5    0    0  0.45581143563E+03 -0.26032160717E+03 -0.16434836193E+03  0.55003798785E+03  0.00000000000E+00 0. -1.
          1    1    6    6  503    0 -0.23752017854E+03  0.29725246038E+03 -0.58706777162E+02  0.38499525465E+03  0.00000000000E+00 0. -1.
         -1    1    6    6    0  503 -0.64326085978E+01  0.43238338601E+02  0.14108801376E+02  0.45934634586E+02  0.00000000000E+00 0.  1.
<mgrwt>
<rscale>  0 0.13892022E+04</rscale>
<asrwt>0</asrwt>
<pdfrwt beam="1">  1        2 0.11208872E+00 0.13892022E+04</pdfrwt>
<pdfrwt beam="2">  1       -1 0.10187845E+00 0.13892022E+04</pdfrwt>
<totfact> 0.39565171E+01</totfact>
</mgrwt>
</event>
<event>
12    7  0.1707730E-007  0.2887844E+04  0.7818608E-02  0.8276503E-01
          2   -1    0    0  501    0  0.00000000000E+00  0.00000000000E+00  0.97232659831E+03  0.97232659831E+03  0.00000000000E+00 0. -1.
         -1   -1    0    0    0  501 -0.00000000000E+00 -0.00000000000E+00 -0.21442500567E+04  0.21442500567E+04  0.00000000000E+00 0.  1.
         24    2    1    2    0    0 -0.73695714154E+03  0.57290920401E+03  0.45554194291E+03  0.10421098450E+04  0.84520309326E+02 0.  0.
        254    2    1    2    0    0  0.73695714154E+03 -0.57290920401E+03 -0.16274654013E+04  0.20744668100E+04  0.88512040372E+03 0.  0.
         23    2    4    4    0    0 -0.90590660194E+02 -0.79637152588E+02  0.35924953999E+02  0.15008305795E+03  0.81765384965E+02 0.  0.
         23    2    4    4    0    0  0.82754780173E+03 -0.49327205143E+03 -0.16633903553E+04  0.19243837521E+04  0.90734064082E+02 0.  0.
          4    1    3    3  502    0 -0.48670031794E+03  0.32844673643E+03  0.29748762562E+03  0.65821983072E+03  0.00000000000E+00 0. -1.
         -3    1    3    3    0  502 -0.25025682360E+03  0.24446246758E+03  0.15805431729E+03  0.38389001423E+03  0.00000000000E+00 0.  1.
         13    1    5    5    0    0 -0.72248163650E+02 -0.29326388494E+02  0.52530333674E+02  0.94017392906E+02  0.00000000000E+00 0. -1.
        -13    1    5    5    0    0 -0.18342496544E+02 -0.50310764094E+02 -0.16605379675E+02  0.56065665049E+02  0.00000000000E+00 0.  1.
          1    1    6    6  503    0  0.67423160100E+03 -0.41722756926E+03 -0.14280010993E+04  0.16333567387E+04  0.00000000000E+00 0. -1.
         -1    1    6    6    0  503  0.15331620073E+03 -0.76044482168E+02 -0.23538925597E+03  0.29102701335E+03  0.00000000000E+00 0.  1.
<mgrwt>
<rscale>  0 0.28878444E+04</rscale>
<asrwt>0</asrwt>
<pdfrwt beam="1">  1        2 0.14958871E+00 0.28878444E+04</pdfrwt>
<pdfrwt beam="2">  1       -1 0.32988462E+00 0.28878444E+04</pdfrwt>
<totfact> 0.54501091E-01</totfact>
</mgrwt>
</event>
<event>
12    7  0.1707730E-007  0.1401369E+04  0.7818608E-02  0.8952828E-01
         -1   -1    0    0    0  501 -0.00000000000E+00  0.00000000000E+00  0.26440589758E+03  0.26440589758E+03  0.00000000000E+00 0.  1.
          2   -1    0    0  501    0  0.00000000000E+00 -0.00000000000E+00 -0.18568374572E+04  0.18568374572E+04  0.00000000000E+00 0. -1.
         24    2    1    2    0    0 -0.16679381434E+03 -0.10010038410E+03  0.67349557230E+02  0.22064703657E+03  0.79428511805E+02 0.  0.
        254    2    1    2    0    0  0.16679381434E+03  0.10010038410E+03 -0.16597811168E+04  0.19005963182E+04  0.90529152518E+03 0.  0.
         23    2    4    4    0    0  0.36124287827E+03  0.36582158704E+03 -0.64296194574E+03  0.82786346042E+03  0.87384179213E+02 0.  0.
         23    2    4    4    0    0 -0.19444906393E+03 -0.26572120293E+03 -0.10168191711E+04  0.10727328578E+04  0.91740728822E+02 0.  0.
          2    1    3    3  502    0 -0.19887947154E+02 -0.53924468072E+01 -0.16866120539E+02  0.26628461214E+02  0.00000000000E+00 0. -1.
         -1    1    3    3    0  502 -0.14690586719E+03 -0.94707937296E+02  0.84215677769E+02  0.19401857535E+03  0.00000000000E+00 0.  1.
         13    1    5    5    0    0  0.54263672736E+02  0.99279123119E+02 -0.16969657192E+03  0.20395542892E+03  0.00000000000E+00 0.  1.
        -13    1    5    5    0    0  0.30697920553E+03  0.26654246392E+03 -0.47326537382E+03  0.62390803149E+03  0.00000000000E+00 0. -1.
          3    1    6    6  503    0 -0.18571498829E+03 -0.27198252253E+03 -0.99938852955E+03  0.10522556640E+04  0.00000000000E+00 0. -1.
         -3    1    6    6    0  503 -0.87340756441E+01  0.62613195981E+01 -0.17430641510E+02  0.20477193751E+02  0.00000000000E+00 0.  1.
<mgrwt>
<rscale>  0 0.14013690E+04</rscale>
<asrwt>0</asrwt>
<pdfrwt beam="1">  1        2 0.28566729E+00 0.14013690E+04</pdfrwt>
<pdfrwt beam="2">  1       -1 0.40677832E-01 0.14013690E+04</pdfrwt>
<totfact> 0.52549446E+01</totfact>
</mgrwt>
</event>
<event>
12    7  0.1707730E-007  0.2282759E+04  0.7818608E-02  0.8484750E-01
         -1   -1    0    0    0  501 -0.00000000000E+00  0.00000000000E+00  0.82813190416E+03  0.82813190416E+03  0.00000000000E+00 0.  1.
          2   -1    0    0  501    0  0.00000000000E+00 -0.00000000000E+00 -0.15731151592E+04  0.15731151592E+04  0.00000000000E+00 0. -1.
         24    2    1    2    0    0  0.54790292337E+03  0.68746837533E+03  0.94042692830E+02  0.88810710842E+03  0.84141710490E+02 0.  0.
        254    2    1    2    0    0 -0.54790292337E+03 -0.68746837533E+03 -0.83902594789E+03  0.15131399550E+04  0.90156397531E+03 0.  0.
         23    2    4    4    0    0 -0.30986109066E+03 -0.11790948739E+03  0.12427641538E+03  0.36547678954E+03  0.90620712576E+02 0.  0.
         23    2    4    4    0    0 -0.23804183271E+03 -0.56955888794E+03 -0.96330236327E+03  0.11476631654E+04  0.90100262195E+02 0.  0.
          2    1    3    3  502    0  0.67127581469E+02  0.85199365117E+02  0.39911893838E+02  0.11557682847E+03  0.00000000000E+00 0. -1.
         -1    1    3    3    0  502  0.48077534190E+03  0.60226901021E+03  0.54130798992E+02  0.77253027995E+03  0.00000000000E+00 0.  1.
         13    1    5    5    0    0 -0.15708436860E+03 -0.32374340025E+02  0.99236410966E+02  0.18860398196E+03  0.00000000000E+00 0. -1.
        -13    1    5    5    0    0 -0.15277672206E+03 -0.85535147362E+02  0.25040004417E+02  0.17687280757E+03  0.00000000000E+00 0.  1.
          2    1    6    6  503    0 -0.13904786533E+03 -0.37366894998E+03 -0.54490547760E+03  0.67519239669E+03  0.00000000000E+00 0. -1.
         -2    1    6    6    0  503 -0.98993967379E+02 -0.19588993796E+03 -0.41839688567E+03  0.47247076874E+03  0.00000000000E+00 0.  1.
<mgrwt>
<rscale>  0 0.22827587E+04</rscale>
<asrwt>0</asrwt>
<pdfrwt beam="1">  1        2 0.24201771E+00 0.22827587E+04</pdfrwt>
<pdfrwt beam="2">  1       -1 0.12740491E+00 0.22827587E+04</pdfrwt>
<totfact> 0.63705674E+00</totfact>
</mgrwt>
</event>
<event>
12    7  0.1707730E-007  0.1690454E+04  0.7818608E-02  0.8766828E-01
         -1   -1    0    0    0  501 -0.00000000000E+00  0.00000000000E+00  0.46043858944E+03  0.46043858944E+03  0.00000000000E+00 0.  1.
          2   -1    0    0  501    0  0.00000000000E+00 -0.00000000000E+00 -0.15515829046E+04  0.15515829046E+04  0.00000000000E+00 0. -1.
         24    2    1    2    0    0 -0.21256523492E+03 -0.38927387018E+03  0.94284249858E+02  0.46095980537E+03  0.82923442351E+02 0.  0.
        254    2    1    2    0    0  0.21256523492E+03  0.38927387018E+03 -0.11854285650E+04  0.15510616886E+04  0.89656754021E+03 0.  0.
         23    2    4    4    0    0  0.22784543491E+03  0.20597077788E+03  0.24275124932E+02  0.32467874377E+03  0.10241826701E+03 0.  0.
         23    2    4    4    0    0 -0.15280199988E+02  0.18330309231E+03 -0.12097036899E+04  0.12263829449E+04  0.82453634846E+02 0.  0.
          2    1    3    3  502    0 -0.41900144968E+02 -0.14354306985E+03  0.87436697823E+01  0.14978880736E+03  0.00000000000E+00 0. -1.
         -1    1    3    3    0  502 -0.17066508995E+03 -0.24573080034E+03  0.85540580076E+02  0.31117099801E+03  0.00000000000E+00 0.  1.
         13    1    5    5    0    0  0.15103381630E+03  0.16975506333E+03 -0.21452950699E+02  0.22822844758E+03  0.00000000000E+00 0.  1.
        -13    1    5    5    0    0  0.76811618610E+02  0.36215714542E+02  0.45728075631E+02  0.96450296185E+02  0.00000000000E+00 0. -1.
          4    1    6    6  503    0 -0.14213414846E+02  0.15882427309E+03 -0.78822456155E+03  0.80419222224E+03  0.00000000000E+00 0. -1.
         -4    1    6    6    0  503 -0.10667851420E+01  0.24478819215E+02 -0.42147912835E+03  0.42219072261E+03  0.00000000000E+00 0.  1.
<mgrwt>
<rscale>  0 0.16904540E+04</rscale>
<asrwt>0</asrwt>
<pdfrwt beam="1">  1        2 0.23870506E+00 0.16904540E+04</pdfrwt>
<pdfrwt beam="2">  1       -1 0.70836706E-01 0.16904540E+04</pdfrwt>
<totfact> 0.25932917E+01</totfact>
</mgrwt>
</event>
<event>
12    7  0.1707730E-007  0.2001798E+04  0.7818608E-02  0.8605780E-01
          2   -1    0    0  501    0  0.00000000000E+00  0.00000000000E+00  0.18275127003E+04  0.18275127003E+04  0.00000000000E+00 0. -1.
         -1   -1    0    0    0  501 -0.00000000000E+00 -0.00000000000E+00 -0.54817631563E+03  0.54817631563E+03  0.00000000000E+00 0.  1.
         24    2    1    2    0    0 -0.36446885882E+03  0.55292318125E+03 -0.84444581932E+01  0.66713242665E+03  0.80204565985E+02 0.  0.
        254    2    1    2    0    0  0.36446885882E+03 -0.55292318125E+03  0.12877808428E+04  0.17085565892E+04  0.90676597094E+03 0.  0.
         23    2    4    4    0    0  0.26057589636E+03 -0.56273641499E+03  0.27124766641E+03  0.68259702690E+03  0.88268533870E+02 0.  0.
         23    2    4    4    0    0  0.10389296246E+03  0.98132337436E+01  0.10165331764E+04  0.10259595623E+04  0.91450957303E+02 0.  0.
          2    1    3    3  502    0 -0.15237853082E+03  0.16456823984E+03 -0.12341763808E+02  0.22462021581E+03  0.00000000000E+00 0. -1.
         -1    1    3    3    0  502 -0.21209032800E+03  0.38835494141E+03  0.38973056148E+01  0.44251221084E+03  0.00000000000E+00 0.  1.
         13    1    5    5    0    0  0.33657193950E+02 -0.10660005161E+03  0.83935389954E+02  0.13979101328E+03  0.00000000000E+00 0. -1.
        -13    1    5    5    0    0  0.22691870241E+03 -0.45613636339E+03  0.18731227646E+03  0.54280601362E+03  0.00000000000E+00 0.  1.
          4    1    6    6  503    0  0.58668634319E+02 -0.17309102086E+02  0.82604920301E+03  0.82831087126E+03  0.00000000000E+00 0.  1.
         -4    1    6    6    0  503  0.45224328146E+02  0.27122335829E+02  0.19048397342E+03  0.19764869108E+03  0.00000000000E+00 0. -1.
<mgrwt>
<rscale>  0 0.20017984E+04</rscale>
<asrwt>0</asrwt>
<pdfrwt beam="1">  1        2 0.28115580E+00 0.20017984E+04</pdfrwt>
<pdfrwt beam="2">  1       -1 0.84334819E-01 0.20017984E+04</pdfrwt>
<totfact> 0.12271423E+01</totfact>
</mgrwt>
</event>
<event>
12    7  0.1707730E-007  0.1935734E+04  0.7818608E-02  0.8637271E-01
          2   -1    0    0  501    0  0.00000000000E+00  0.00000000000E+00  0.25476255449E+04  0.25476255449E+04  0.00000000000E+00 0. -1.
         -1   -1    0    0    0  501 -0.00000000000E+00 -0.00000000000E+00 -0.36770182412E+03  0.36770182412E+03  0.00000000000E+00 0.  1.
         24    2    1    2    0    0 -0.57032747802E+03 -0.46847785473E+03  0.55015525313E+03  0.92398832463E+03  0.79615883817E+02 0.  0.
        254    2    1    2    0    0  0.57032747802E+03  0.46847785473E+03  0.16297684677E+04  0.19913390444E+04  0.87438035146E+03 0.  0.
         23    2    4    4    0    0 -0.13709320949E+03  0.70351847532E+02  0.82516691557E+03  0.84463441132E+03  0.93610467860E+02 0.  0.
         23    2    4    4    0    0  0.70742068751E+03  0.39812600720E+03  0.80460155212E+03  0.11467046331E+04  0.92733549459E+02 0.  0.
          4    1    3    3  502    0 -0.27895824969E+03 -0.21023760271E+03  0.30633328315E+03  0.46460481598E+03  0.00000000000E+00 0. -1.
         -3    1    3    3    0  502 -0.29136922833E+03 -0.25824025202E+03  0.24382196998E+03  0.45938350865E+03  0.00000000000E+00 0.  1.
         13    1    5    5    0    0 -0.11156579210E+03  0.93159041681E+02  0.63617796037E+03  0.65257024930E+03  0.00000000000E+00 0.  1.
        -13    1    5    5    0    0 -0.25527417388E+02 -0.22807194148E+02  0.18898895520E+03  0.19206416201E+03  0.00000000000E+00 0. -1.
          3    1    6    6  503    0  0.52004015997E+03  0.33591991469E+03  0.62698320790E+03  0.88113103456E+03  0.00000000000E+00 0. -1.
         -3    1    6    6    0  503  0.18738052753E+03  0.62206092513E+02  0.17761834421E+03  0.26557359855E+03  0.00000000000E+00 0.  1.
<mgrwt>
<rscale>  0 0.19357340E+04</rscale>
<asrwt>0</asrwt>
<pdfrwt beam="1">  1        2 0.39194238E+00 0.19357340E+04</pdfrwt>
<pdfrwt beam="2">  1       -1 0.56569513E-01 0.19357340E+04</pdfrwt>
<totfact> 0.10991125E+01</totfact>
</mgrwt>
</event>
<event>
12    7  0.1707730E-007  0.1235325E+04  0.7818608E-02  0.9082486E-01
          2   -1    0    0  501    0  0.00000000000E+00  0.00000000000E+00  0.18467643332E+04  0.18467643332E+04  0.00000000000E+00 0. -1.
         -1   -1    0    0    0  501 -0.00000000000E+00 -0.00000000000E+00 -0.20658132702E+03  0.20658132702E+03  0.00000000000E+00 0.  1.
         24    2    1    2    0    0  0.15878536593E+03  0.15982894874E+03  0.70908578072E+03  0.74833751456E+03  0.80301344876E+02 0.  0.
        254    2    1    2    0    0 -0.15878536593E+03 -0.15982894874E+03  0.93109722548E+03  0.13050081457E+04  0.88619756924E+03 0.  0.
         23    2    4    4    0    0  0.11759625082E+03  0.32027379751E+03  0.38853146838E+03  0.52512163893E+03  0.91607042157E+02 0.  0.
         23    2    4    4    0    0 -0.27638161676E+03 -0.48010274624E+03  0.54256575709E+03  0.77988650675E+03  0.83426120688E+02 0.  0.
          4    1    3    3  502    0  0.15199859528E+03  0.16338838943E+03  0.62027669695E+03  0.65919839164E+03  0.00000000000E+00 0. -1.
         -3    1    3    3    0  502  0.67867706520E+01 -0.35594406926E+01  0.88809083772E+02  0.89139122917E+02  0.00000000000E+00 0.  1.
         13    1    5    5    0    0  0.52236577061E+02  0.14378680063E+03  0.24330285045E+03  0.28740142841E+03  0.00000000000E+00 0.  1.
        -13    1    5    5    0    0  0.65359673763E+02  0.17648699688E+03  0.14522861794E+03  0.23772021052E+03  0.00000000000E+00 0. -1.
          4    1    6    6  503    0 -0.28199461954E+03 -0.46852186424E+03  0.53465116333E+03  0.76477811761E+03  0.00000000000E+00 0.  1.
         -4    1    6    6    0  503  0.56130027804E+01 -0.11580881998E+02  0.79145937633E+01  0.15108389144E+02  0.00000000000E+00 0. -1.
<mgrwt>
<rscale>  0 0.12353251E+04</rscale>
<asrwt>0</asrwt>
<pdfrwt beam="1">  1        2 0.28411758E+00 0.12353251E+04</pdfrwt>
<pdfrwt beam="2">  1       -1 0.31781744E-01 0.12353251E+04</pdfrwt>
<totfact> 0.84043019E+01</totfact>
</mgrwt>
</event>
<event>
12    7  0.1707730E-007  0.2524367E+04  0.7818608E-02  0.8394356E-01
         -1   -1    0    0    0  501 -0.00000000000E+00  0.00000000000E+00  0.73790963588E+03  0.73790963588E+03  0.00000000000E+00 0.  1.
          2   -1    0    0  501    0  0.00000000000E+00 -0.00000000000E+00 -0.21589458581E+04  0.21589458581E+04  0.00000000000E+00 0. -1.
         24    2    1    2    0    0 -0.60653806046E+03 -0.38115587768E+03  0.33017961341E+03  0.79284077672E+03  0.80060591033E+02 0.  0.
        254    2    1    2    0    0  0.60653806046E+03  0.38115587768E+03 -0.17512158357E+04  0.21040147173E+04  0.92030038881E+03 0.  0.
         23    2    4    4    0    0 -0.77768859953E+02  0.39337972314E+03 -0.10127715539E+04  0.10930268917E+04  0.90586772330E+02 0.  0.
         23    2    4    4    0    0  0.68430692042E+03 -0.12223845452E+02 -0.73844428177E+03  0.10109878257E+04  0.91493402057E+02 0.  0.
          4    1    3    3  502    0 -0.23383791996E+03 -0.12751843318E+03  0.16157719237E+03  0.31152578177E+03  0.00000000000E+00 0. -1.
         -3    1    3    3    0  502 -0.37270014050E+03 -0.25363744451E+03  0.16860242104E+03  0.48131499495E+03  0.00000000000E+00 0.  1.
         13    1    5    5    0    0 -0.31172144090E+01  0.18723529396E+02 -0.13702008046E+02  0.23410096181E+02  0.00000000000E+00 0. -1.
        -13    1    5    5    0    0 -0.74651645544E+02  0.37465619374E+03 -0.99906954586E+03  0.10696167955E+04  0.00000000000E+00 0.  1.
          3    1    6    6  503    0  0.23850562747E+02  0.16257963359E+02 -0.23196872821E+02  0.37030603892E+02  0.00000000000E+00 0. -1.
         -3    1    6    6    0  503  0.66045635767E+03 -0.28481808811E+02 -0.71524740895E+03  0.97395722176E+03  0.00000000000E+00 0.  1.
<mgrwt>
<rscale>  0 0.25243668E+04</rscale>
<asrwt>0</asrwt>
<pdfrwt beam="1">  1        2 0.33214551E+00 0.25243668E+04</pdfrwt>
<pdfrwt beam="2">  1       -1 0.11352456E+00 0.25243668E+04</pdfrwt>
<totfact> 0.39035005E+00</totfact>
</mgrwt>
</event>
<event>
12    7  0.1707730E-007  0.2652621E+04  0.7818608E-02  0.8350544E-01
          2   -1    0    0  501    0  0.00000000000E+00  0.00000000000E+00  0.26597761409E+04  0.26597761409E+04  0.00000000000E+00 0. -1.
         -1   -1    0    0    0  501 -0.00000000000E+00 -0.00000000000E+00 -0.66137102836E+03  0.66137102836E+03  0.00000000000E+00 0.  1.
         24    2    1    2    0    0 -0.81678691770E+03  0.46269674718E+03  0.17636984509E+04  0.19994931928E+04  0.78177063817E+02 0.  0.
        254    2    1    2    0    0  0.81678691770E+03 -0.46269674718E+03  0.23470666155E+03  0.13216539764E+04  0.90025155801E+03 0.  0.
         23    2    4    4    0    0  0.30877592749E+03 -0.43345927889E+03 -0.26494126641E+03  0.60257627714E+03  0.98360435522E+02 0.  0.
         23    2    4    4    0    0  0.50801099021E+03 -0.29237468299E+02  0.49964792796E+03  0.71907769931E+03  0.92166642557E+02 0.  0.
          4    1    3    3  502    0 -0.53289626146E+03  0.28581192553E+03  0.10603290686E+04  0.12206410676E+04  0.00000000000E+00 0. -1.
         -3    1    3    3    0  502 -0.28389065624E+03  0.17688482165E+03  0.70336938232E+03  0.77885212513E+03  0.00000000000E+00 0.  1.
         13    1    5    5    0    0  0.14872824174E+03 -0.18895126168E+03 -0.67020349760E+02  0.24962851693E+03  0.00000000000E+00 0.  1.
        -13    1    5    5    0    0  0.16004768575E+03 -0.24450801720E+03 -0.19792091665E+03  0.35294776021E+03  0.00000000000E+00 0. -1.
          2    1    6    6  503    0  0.34469808513E+03 -0.62865129008E+02  0.34044877242E+03  0.48854289574E+03  0.00000000000E+00 0. -1.
         -2    1    6    6    0  503  0.16331290508E+03  0.33627660710E+02  0.15919915554E+03  0.23053480357E+03  0.00000000000E+00 0.  1.
<mgrwt>
<rscale>  0 0.26526205E+04</rscale>
<asrwt>0</asrwt>
<pdfrwt beam="1">  1        2 0.40919632E+00 0.26526205E+04</pdfrwt>
<pdfrwt beam="2">  1       -1 0.10174939E+00 0.26526205E+04</pdfrwt>
<totfact> 0.25724464E+00</totfact>
</mgrwt>
</event>
<event>
12    7  0.1707730E-007  0.1514981E+04  0.7818608E-02  0.8874551E-01
          2   -1    0    0  501    0  0.00000000000E+00  0.00000000000E+00  0.10482581185E+04  0.10482581185E+04  0.00000000000E+00 0. -1.
         -3   -1    0    0    0  501 -0.00000000000E+00 -0.00000000000E+00 -0.54737653692E+03  0.54737653692E+03  0.00000000000E+00 0.  1.
         24    2    1    2    0    0 -0.11850787549E+03  0.42641742191E+03 -0.66988152687E+02  0.45363391191E+03  0.73623224424E+02 0.  0.
        254    2    1    2    0    0  0.11850787549E+03 -0.42641742191E+03  0.56786973423E+03  0.11420007435E+04  0.88646135211E+03 0.  0.
         23    2    4    4    0    0 -0.98797142345E+02 -0.10443157973E+03 -0.20743693030E+03  0.26989593657E+03  0.95639460193E+02 0.  0.
         23    2    4    4    0    0  0.21730501783E+03 -0.32198584219E+03  0.77530666452E+03  0.87210480691E+03  0.92574385389E+02 0.  0.
          2    1    3    3  502    0 -0.38484482765E+02  0.11747561999E+03  0.13920441348E+02  0.12439998149E+03  0.00000000000E+00 0. -1.
         -1    1    3    3    0  502 -0.80023392721E+02  0.30894180192E+03 -0.80908594035E+02  0.32923393043E+03  0.00000000000E+00 0.  1.
         13    1    5    5    0    0 -0.90068245904E+02 -0.11769471419E+03 -0.20624816880E+03  0.25397370297E+03  0.00000000000E+00 0.  1.
        -13    1    5    5    0    0 -0.87288964414E+01  0.13263134462E+02 -0.11887614974E+01  0.15922233598E+02  0.00000000000E+00 0. -1.
          2    1    6    6  503    0  0.27563938192E+02 -0.97703884952E+02  0.14868398244E+03  0.18003540335E+03  0.00000000000E+00 0. -1.
         -2    1    6    6    0  503  0.18974107964E+03 -0.22428195723E+03  0.62662268208E+03  0.69206940356E+03  0.00000000000E+00 0.  1.
<mgrwt>
<rscale>  0 0.15149811E+04</rscale>
<asrwt>0</asrwt>
<pdfrwt beam="1">  1        2 0.16127048E+00 0.15149811E+04</pdfrwt>
<pdfrwt beam="2">  1       -3 0.84211775E-01 0.15149811E+04</pdfrwt>
<totfact> 0.18645800E+01</totfact>
</mgrwt>
</event>
<event>
12    7  0.1707730E-007  0.2715955E+04  0.7818608E-02  0.8329847E-01
          2   -1    0    0  501    0  0.00000000000E+00  0.00000000000E+00  0.24379582418E+04  0.24379582418E+04  0.00000000000E+00 0. -1.
         -1   -1    0    0    0  501 -0.00000000000E+00 -0.00000000000E+00 -0.75641304175E+03  0.75641304175E+03  0.00000000000E+00 0.  1.
         24    2    1    2    0    0  0.11973429971E+04  0.10611079090E+03  0.87721744215E+03  0.14901873228E+04  0.79107923509E+02 0.  0.
        254    2    1    2    0    0 -0.11973429971E+04 -0.10611079090E+03  0.80432775792E+03  0.17041839608E+04  0.90133793742E+03 0.  0.
         23    2    4    4    0    0 -0.60029638684E+02  0.17358257615E+03  0.42128016672E+03  0.46827595258E+03  0.89838302687E+02 0.  0.
         23    2    4    4    0    0 -0.11373133584E+04 -0.27969336704E+03  0.38304759120E+03  0.12359080082E+04  0.95042584476E+02 0.  0.
          4    1    3    3  502    0  0.20041365453E+03  0.34073034782E+01  0.11523543850E+03  0.23120650710E+03  0.00000000000E+00 0. -1.
         -3    1    3    3    0  502  0.99692934256E+03  0.10270348742E+03  0.76198200365E+03  0.12589808157E+04  0.00000000000E+00 0.  1.
         13    1    5    5    0    0 -0.78099878758E+02  0.10230478094E+03  0.30001603121E+03  0.32645899934E+03  0.00000000000E+00 0. -1.
        -13    1    5    5    0    0  0.18070240074E+02  0.71277795203E+02  0.12126413550E+03  0.14181695323E+03  0.00000000000E+00 0.  1.
          2    1    6    6  503    0 -0.10398884609E+04 -0.27577402951E+03  0.33227982299E+03  0.11259792215E+04  0.00000000000E+00 0. -1.
         -2    1    6    6    0  503 -0.97424897464E+02 -0.39193375384E+01  0.50767768212E+02  0.10992878668E+03  0.00000000000E+00 0.  1.
<mgrwt>
<rscale>  0 0.27159554E+04</rscale>
<asrwt>0</asrwt>
<pdfrwt beam="1">  1        2 0.37507050E+00 0.27159554E+04</pdfrwt>
<pdfrwt beam="2">  1       -1 0.11637124E+00 0.27159554E+04</pdfrwt>
<totfact> 0.25120096E+00</totfact>
</mgrwt>
</event>
<event>
12    7  0.1707730E-007  0.1232315E+04  0.7818608E-02  0.9085032E-01
         -1   -1    0    0    0  501 -0.00000000000E+00  0.00000000000E+00  0.57793952891E+03  0.57793952891E+03  0.00000000000E+00 0.  1.
          2   -1    0    0  501    0  0.00000000000E+00 -0.00000000000E+00 -0.65690313893E+03  0.65690313893E+03  0.00000000000E+00 0. -1.
         24    2    1    2    0    0 -0.16715426672E+03  0.19724888777E+03 -0.13593177805E+03  0.30324596242E+03  0.81443187777E+02 0.  0.
        254    2    1    2    0    0  0.16715426672E+03 -0.19724888777E+03  0.56968168017E+02  0.93159670542E+03  0.89318496224E+03 0.  0.
         23    2    4    4    0    0  0.20748025871E+03  0.21135214968E+03 -0.26068010492E+03  0.40426832732E+03  0.88096392916E+02 0.  0.
         23    2    4    4    0    0 -0.40325991994E+02 -0.40860103745E+03  0.31764827294E+03  0.52732837810E+03  0.92702748671E+02 0.  0.
          4    1    3    3  502    0 -0.10327216843E+03  0.13786715295E+03 -0.13003573338E+03  0.21582813670E+03  0.00000000000E+00 0. -1.
         -3    1    3    3    0  502 -0.63882098288E+02  0.59381734816E+02 -0.58960446646E+01  0.87417825723E+02  0.00000000000E+00 0.  1.
         13    1    5    5    0    0  0.44107002001E+02  0.81794462248E+02 -0.12398827521E+03  0.15494790760E+03  0.00000000000E+00 0. -1.
        -13    1    5    5    0    0  0.16337325671E+03  0.12955768743E+03 -0.13669182971E+03  0.24932041972E+03  0.00000000000E+00 0.  1.
          2    1    6    6  503    0  0.21285823410E+02 -0.11978659757E+03  0.12672289800E+03  0.17567187627E+03  0.00000000000E+00 0. -1.
         -2    1    6    6    0  503 -0.61611815404E+02 -0.28881443988E+03  0.19092537494E+03  0.35165650183E+03  0.00000000000E+00 0.  1.
<mgrwt>
<rscale>  0 0.12323154E+04</rscale>
<asrwt>0</asrwt>
<pdfrwt beam="1">  1        2 0.10106202E+00 0.12323154E+04</pdfrwt>
<pdfrwt beam="2">  1       -1 0.88913774E-01 0.12323154E+04</pdfrwt>
<totfact> 0.61972315E+01</totfact>
</mgrwt>
</event>
<event>
12    7  0.1707730E-007  0.1271884E+04  0.7818608E-02  0.9052163E-01
          2   -1    0    0  501    0  0.00000000000E+00  0.00000000000E+00  0.25231731182E+04  0.25231731182E+04  0.00000000000E+00 0. -1.
         -1   -1    0    0    0  501 -0.00000000000E+00 -0.00000000000E+00 -0.16028318641E+03  0.16028318641E+03  0.00000000000E+00 0.  1.
         24    2    1    2    0    0  0.13437349401E+03  0.27197122696E+03  0.77346897799E+03  0.83467882303E+03  0.80061810624E+02 0.  0.
        254    2    1    2    0    0 -0.13437349401E+03 -0.27197122696E+03  0.15894209538E+04  0.18487774815E+04  0.89425646424E+03 0.  0.
         23    2    4    4    0    0  0.26531346618E+03 -0.34970400931E+03  0.45067068823E+03  0.63583130413E+03  0.92158822833E+02 0.  0.
         23    2    4    4    0    0 -0.39968696019E+03  0.77732782353E+02  0.11387502655E+04  0.12129461774E+04  0.93242750050E+02 0.  0.
          2    1    3    3  502    0  0.66608078210E+02  0.73331011689E+02  0.32023062867E+03  0.33520401086E+03  0.00000000000E+00 0. -1.
         -1    1    3    3    0  502  0.67765415800E+02  0.19864021527E+03  0.45323834932E+03  0.49947481217E+03  0.00000000000E+00 0.  1.
         13    1    5    5    0    0  0.22644155375E+02 -0.32148428594E+02  0.93140782974E+01  0.40410781832E+02  0.00000000000E+00 0.  1.
        -13    1    5    5    0    0  0.24266931081E+03 -0.31755558072E+03  0.44135660993E+03  0.59542052230E+03  0.00000000000E+00 0. -1.
          3    1    6    6  503    0 -0.37830269168E+03  0.87257234809E+02  0.10092572384E+04  0.10813542088E+04  0.00000000000E+00 0. -1.
         -3    1    6    6    0  503 -0.21384268517E+02 -0.95244524555E+01  0.12949302715E+03  0.13159196865E+03  0.00000000000E+00 0.  1.
<mgrwt>
<rscale>  0 0.12718840E+04</rscale>
<asrwt>0</asrwt>
<pdfrwt beam="1">  1        2 0.38818045E+00 0.12718840E+04</pdfrwt>
<pdfrwt beam="2">  1       -1 0.24658954E-01 0.12718840E+04</pdfrwt>
<totfact> 0.54431476E+01</totfact>
</mgrwt>
</event>
<event>
12    7  0.1707730E-007  0.1617369E+04  0.7818608E-02  0.8809948E-01
         -3   -1    0    0    0  501 -0.00000000000E+00  0.00000000000E+00  0.39950838397E+03  0.39950838397E+03  0.00000000000E+00 0.  1.
          4   -1    0    0  501    0  0.00000000000E+00 -0.00000000000E+00 -0.16369391108E+04  0.16369391108E+04  0.00000000000E+00 0. -1.
         24    2    1    2    0    0  0.88230592823E+02 -0.54732138688E+03 -0.48246873465E+03  0.73923211557E+03  0.79641087035E+02 0.  0.
        254    2    1    2    0    0 -0.88230592823E+02  0.54732138688E+03 -0.75496199223E+03  0.12972153792E+04  0.89747133234E+03 0.  0.
         23    2    4    4    0    0  0.13499862645E+03  0.62857620480E+03 -0.18807097160E+03  0.67606144730E+03  0.91409604431E+02 0.  0.
         23    2    4    4    0    0 -0.22322921928E+03 -0.81254817924E+02 -0.56689102063E+03  0.62115393193E+03  0.89627831148E+02 0.  0.
          2    1    3    3  502    0  0.21312902305E+02 -0.31346296213E+03 -0.30725426691E+03  0.43945244676E+03  0.00000000000E+00 0. -1.
         -1    1    3    3    0  502  0.66917690518E+02 -0.23385842474E+03 -0.17521446774E+03  0.29977966881E+03  0.00000000000E+00 0.  1.
         13    1    5    5    0    0  0.12089137023E+03  0.35895991425E+03 -0.95214774950E+02  0.39055447354E+03  0.00000000000E+00 0.  1.
        -13    1    5    5    0    0  0.14107256220E+02  0.26961629055E+03 -0.92856196652E+02  0.28550697376E+03  0.00000000000E+00 0. -1.
          2    1    6    6  503    0 -0.85561623537E+02  0.13632149305E+02 -0.20004877435E+03  0.21800490599E+03  0.00000000000E+00 0. -1.
         -2    1    6    6    0  503 -0.13766759574E+03 -0.94886967229E+02 -0.36684224627E+03  0.40314902594E+03  0.00000000000E+00 0.  1.
<mgrwt>
<rscale>  0 0.16173693E+04</rscale>
<asrwt>0</asrwt>
<pdfrwt beam="1">  1        4 0.25183678E+00 0.16173693E+04</pdfrwt>
<pdfrwt beam="2">  1       -3 0.61462830E-01 0.16173693E+04</pdfrwt>
<totfact> 0.34783679E-01</totfact>
</mgrwt>
</event>
<event>
12    7  0.1707730E-007  0.1883046E+04  0.7818608E-02  0.8663342E-01
         -1   -1    0    0    0  501 -0.00000000000E+00  0.00000000000E+00  0.25182784622E+03  0.25182784622E+03  0.00000000000E+00 0.  1.
          2   -1    0    0  501    0  0.00000000000E+00 -0.00000000000E+00 -0.35201267625E+04  0.35201267625E+04  0.00000000000E+00 0. -1.
         24    2    1    2    0    0 -0.60291826827E+03  0.16149145787E+03 -0.19287132273E+04  0.20287669543E+04  0.79816742536E+02 0.  0.
        254    2    1    2    0    0  0.60291826827E+03 -0.16149145787E+03 -0.13395856890E+04  0.17431876544E+04  0.92445846382E+03 0.  0.
         23    2    4    4    0    0  0.54656402008E+03  0.30750589690E+03 -0.79174958547E+03  0.10139356868E+04  0.88916063112E+02 0.  0.
         23    2    4    4    0    0  0.56354248196E+02 -0.46899735477E+03 -0.54783610350E+03  0.72925196760E+03  0.92464673709E+02 0.  0.
          4    1    3    3  502    0 -0.18272266193E+03  0.68560869565E+02 -0.70853516044E+03  0.73492192619E+03  0.00000000000E+00 0. -1.
         -3    1    3    3    0  502 -0.42019560634E+03  0.92930588302E+02 -0.12201780669E+04  0.12938450281E+04  0.00000000000E+00 0.  1.
         13    1    5    5    0    0  0.38530814772E+03  0.21613514043E+03 -0.61963296836E+03  0.76100051453E+03  0.00000000000E+00 0. -1.
        -13    1    5    5    0    0  0.16125587236E+03  0.91370756468E+02 -0.17211661711E+03  0.25293517231E+03  0.00000000000E+00 0.  1.
          1    1    6    6  503    0  0.59094034662E+02 -0.15753958639E+03 -0.16426369961E+03  0.23514546396E+03  0.00000000000E+00 0. -1.
         -1    1    6    6    0  503 -0.27397864661E+01 -0.31145776838E+03 -0.38357240389E+03  0.49410650363E+03  0.00000000000E+00 0.  1.
<mgrwt>
<rscale>  0 0.18830464E+04</rscale>
<asrwt>0</asrwt>
<pdfrwt beam="1">  1        2 0.54155791E+00 0.18830464E+04</pdfrwt>
<pdfrwt beam="2">  1       -1 0.38742749E-01 0.18830464E+04</pdfrwt>
<totfact> 0.54641952E+00</totfact>
</mgrwt>
</event>
<event>
12    7  0.1707730E-007  0.1958525E+04  0.7818608E-02  0.8626261E-01
         -1   -1    0    0    0  501 -0.00000000000E+00  0.00000000000E+00  0.10366027476E+04  0.10366027476E+04  0.00000000000E+00 0.  1.
          2   -1    0    0  501    0  0.00000000000E+00 -0.00000000000E+00 -0.92509387094E+03  0.92509387094E+03  0.00000000000E+00 0. -1.
         24    2    1    2    0    0 -0.48318642168E+03 -0.56271321587E+03 -0.17105273837E+03  0.76533065452E+03  0.79728853275E+02 0.  0.
        254    2    1    2    0    0  0.48318642168E+03  0.56271321587E+03  0.28256161498E+03  0.11963659640E+04  0.89517326372E+03 0.  0.
         23    2    4    4    0    0 -0.93394001186E+02 -0.65309149362E+02 -0.17189627577E+03  0.22569999219E+03  0.91675691450E+02 0.  0.
         23    2    4    4    0    0  0.57658042286E+03  0.62802236523E+03  0.45445789075E+03  0.97066597178E+03  0.93826323885E+02 0.  0.
          4    1    3    3  502    0 -0.43219283909E+03 -0.46707353132E+03 -0.16147697715E+03  0.65652353193E+03  0.00000000000E+00 0. -1.
         -3    1    3    3    0  502 -0.50993582587E+02 -0.95639684544E+02 -0.95757612138E+01  0.10880712260E+03  0.00000000000E+00 0.  1.
         13    1    5    5    0    0 -0.13944990817E+02  0.18447949429E+02 -0.62560077650E+02  0.66697473134E+02  0.00000000000E+00 0.  1.
        -13    1    5    5    0    0 -0.79449010369E+02 -0.83757098790E+02 -0.10933619812E+03  0.15900251905E+03  0.00000000000E+00 0. -1.
          1    1    6    6  503    0  0.55440020058E+03  0.57025835284E+03  0.42999822803E+03  0.90413087963E+03  0.00000000000E+00 0. -1.
         -1    1    6    6    0  503  0.22180222286E+02  0.57764012386E+02  0.24459662717E+02  0.66535092154E+02  0.00000000000E+00 0.  1.
<mgrwt>
<rscale>  0 0.19585248E+04</rscale>
<asrwt>0</asrwt>
<pdfrwt beam="1">  1        2 0.14232213E+00 0.19585248E+04</pdfrwt>
<pdfrwt beam="2">  1       -1 0.15947735E+00 0.19585248E+04</pdfrwt>
<totfact> 0.88467462E+00</totfact>
</mgrwt>
</event>
<event>
12    7  0.1707730E-007  0.1950401E+04  0.7818608E-02  0.8630167E-01
          2   -1    0    0  501    0  0.00000000000E+00  0.00000000000E+00  0.25553185623E+04  0.25553185623E+04  0.00000000000E+00 0. -1.
         -1   -1    0    0    0  501 -0.00000000000E+00 -0.00000000000E+00 -0.37217128211E+03  0.37217128211E+03  0.00000000000E+00 0.  1.
         24    2    1    2    0    0 -0.46579315636E+03 -0.83344060283E+02 -0.39871860897E+02  0.48134503433E+03  0.78700571045E+02 0.  0.
        254    2    1    2    0    0  0.46579315636E+03  0.83344060283E+02  0.22230191411E+04  0.24461448100E+04  0.90437870018E+03 0.  0.
         23    2    4    4    0    0  0.62935332845E+03 -0.16576627790E+03  0.11065066538E+04  0.12870142939E+04  0.92112685164E+02 0.  0.
         23    2    4    4    0    0 -0.16356017209E+03  0.24911033819E+03  0.11165124873E+04  0.11591305162E+04  0.90418631337E+02 0.  0.
          4    1    3    3  502    0 -0.89424243311E+02 -0.70801903221E+01  0.22030976063E+02  0.92369845150E+02  0.00000000000E+00 0. -1.
         -3    1    3    3    0  502 -0.37636891305E+03 -0.76263869961E+02 -0.61902836959E+02  0.38897518918E+03  0.00000000000E+00 0.  1.
         13    1    5    5    0    0  0.54583382191E+03 -0.17268725196E+03  0.98768085724E+03  0.11416080430E+04  0.00000000000E+00 0.  1.
        -13    1    5    5    0    0  0.83519506536E+02  0.69209740536E+01  0.11882579656E+03  0.14540625083E+03  0.00000000000E+00 0. -1.
          3    1    6    6  503    0 -0.38936570376E+02  0.50574788841E+02  0.40502065358E+03  0.41001901859E+03  0.00000000000E+00 0. -1.
         -3    1    6    6    0  503 -0.12462360171E+03  0.19853554935E+03  0.71149183367E+03  0.74911149760E+03  0.00000000000E+00 0.  1.
<mgrwt>
<rscale>  0 0.19504012E+04</rscale>
<asrwt>0</asrwt>
<pdfrwt beam="1">  1        2 0.39312592E+00 0.19504012E+04</pdfrwt>
<pdfrwt beam="2">  1       -1 0.57257122E-01 0.19504012E+04</pdfrwt>
<totfact> 0.10610761E+01</totfact>
</mgrwt>
</event>
<event>
12    7  0.1707730E-007  0.1415350E+04  0.7818608E-02  0.8942782E-01
         -1   -1    0    0    0  501 -0.00000000000E+00  0.00000000000E+00  0.30313105026E+03  0.30313105026E+03  0.00000000000E+00 0.  1.
          2   -1    0    0  501    0  0.00000000000E+00 -0.00000000000E+00 -0.16521036435E+04  0.16521036435E+04  0.00000000000E+00 0. -1.
         24    2    1    2    0    0  0.18216860228E+03  0.37341482263E+03 -0.37537997691E+03  0.56668109948E+03  0.87139612272E+02 0.  0.
        254    2    1    2    0    0 -0.18216860228E+03 -0.37341482263E+03 -0.97359261635E+03  0.13885535943E+04  0.89865147429E+03 0.  0.
         23    2    4    4    0    0  0.49052170054E+02  0.19264378628E+03 -0.66040450879E+03  0.69548746440E+03  0.89727109177E+02 0.  0.
         23    2    4    4    0    0 -0.23122077233E+03 -0.56605860890E+03 -0.31318810756E+03  0.69306612991E+03  0.91479371668E+02 0.  0.
          2    1    3    3  502    0 -0.63448305467E+01  0.16922999934E+01 -0.12208343232E+02  0.13862337407E+02  0.00000000000E+00 0. -1.
         -1    1    3    3    0  502  0.18851343282E+03  0.37172252263E+03 -0.36317163368E+03  0.55281876207E+03  0.00000000000E+00 0.  1.
         13    1    5    5    0    0 -0.24836693467E+02  0.32948819805E+02 -0.10253743086E+03  0.11052787339E+03  0.00000000000E+00 0. -1.
        -13    1    5    5    0    0  0.73888863521E+02  0.15969496647E+03 -0.55786707793E+03  0.58495959101E+03  0.00000000000E+00 0.  1.
          3    1    6    6  503    0 -0.38848724851E+02 -0.17330894110E+03 -0.12373636949E+03  0.21646224063E+03  0.00000000000E+00 0. -1.
         -3    1    6    6    0  503 -0.19237204748E+03 -0.39274966781E+03 -0.18945173807E+03  0.47660388927E+03  0.00000000000E+00 0.  1.
<mgrwt>
<rscale>  0 0.14153500E+04</rscale>
<asrwt>0</asrwt>
<pdfrwt beam="1">  1        2 0.25416979E+00 0.14153500E+04</pdfrwt>
<pdfrwt beam="2">  1       -1 0.46635546E-01 0.14153500E+04</pdfrwt>
<totfact> 0.52902667E+01</totfact>
</mgrwt>
</event>
<event>
12    7  0.1707730E-007  0.1770191E+04  0.7818608E-02  0.8722314E-01
         -1   -1    0    0    0  501 -0.00000000000E+00  0.00000000000E+00  0.10900012832E+04  0.10900012832E+04  0.00000000000E+00 0.  1.
          2   -1    0    0  501    0  0.00000000000E+00 -0.00000000000E+00 -0.71870949106E+03  0.71870949106E+03  0.00000000000E+00 0. -1.
         24    2    1    2    0    0 -0.28432191901E+03 -0.37943136513E+03  0.59855953940E+03  0.76783935156E+03  0.80601694362E+02 0.  0.
        254    2    1    2    0    0  0.28432191901E+03  0.37943136513E+03 -0.22726774724E+03  0.10408714227E+04  0.89830706065E+03 0.  0.
         23    2    4    4    0    0 -0.68875496638E+02 -0.96166480741E+02 -0.39146707599E+03  0.41907207261E+03  0.91559294442E+02 0.  0.
         23    2    4    4    0    0  0.35319741565E+03  0.47559784587E+03  0.16419932875E+03  0.62179935010E+03  0.93441354925E+02 0.  0.
          4    1    3    3  502    0 -0.79538479197E+02 -0.82138912100E+02  0.97405590378E+02  0.15020326092E+03  0.00000000000E+00 0. -1.
         -3    1    3    3    0  502 -0.20478343981E+03 -0.29729245303E+03  0.50115394902E+03  0.61763609064E+03  0.00000000000E+00 0.  1.
         13    1    5    5    0    0  0.12146065707E+02 -0.46841824145E+02 -0.80152552032E+02  0.93627533336E+02  0.00000000000E+00 0.  1.
        -13    1    5    5    0    0 -0.81021562345E+02 -0.49324656596E+02 -0.31131452396E+03  0.32544453927E+03  0.00000000000E+00 0. -1.
          3    1    6    6  503    0  0.29559266548E+03  0.33817756165E+03  0.10362887120E+03  0.46095339247E+03  0.00000000000E+00 0. -1.
         -3    1    6    6    0  503  0.57604750172E+02  0.13742028422E+03  0.60570457559E+02  0.16084595763E+03  0.00000000000E+00 0.  1.
<mgrwt>
<rscale>  0 0.17701913E+04</rscale>
<asrwt>0</asrwt>
<pdfrwt beam="1">  1        2 0.11057069E+00 0.17701913E+04</pdfrwt>
<pdfrwt beam="2">  1       -1 0.16769250E+00 0.17701913E+04</pdfrwt>
<totfact> 0.10954680E+01</totfact>
</mgrwt>
</event>
<event>
12    7  0.1707730E-007  0.2251613E+04  0.7818608E-02  0.8497248E-01
         -1   -1    0    0    0  501 -0.00000000000E+00  0.00000000000E+00  0.22086104641E+04  0.22086104641E+04  0.00000000000E+00 0.  1.
          2   -1    0    0  501    0  0.00000000000E+00 -0.00000000000E+00 -0.57386303388E+03  0.57386303388E+03  0.00000000000E+00 0. -1.
         24    2    1    2    0    0 -0.19209743670E+02  0.83157934387E+03  0.12408443595E+04  0.14959814339E+04  0.79827980331E+02 0.  0.
        254    2    1    2    0    0  0.19209743670E+02 -0.83157934387E+03  0.39390307064E+03  0.12864920641E+04  0.89889319859E+03 0.  0.
         23    2    4    4    0    0  0.22831633743E+03 -0.56230464965E+03 -0.15672646695E+03  0.63282903734E+03  0.87146635612E+02 0.  0.
         23    2    4    4    0    0 -0.20910659376E+03 -0.26927469422E+03  0.55062953759E+03  0.65366302674E+03  0.88589143563E+02 0.  0.
          4    1    3    3  502    0 -0.46124793668E+02  0.31720366661E+03  0.47374864287E+03  0.57199950989E+03  0.00000000000E+00 0. -1.
         -3    1    3    3    0  502  0.26915049999E+02  0.51437567727E+03  0.76709571667E+03  0.92398192396E+03  0.00000000000E+00 0.  1.
         13    1    5    5    0    0  0.23623406865E+03 -0.54711064215E+03 -0.15363927934E+03  0.61541987139E+03  0.00000000000E+00 0.  1.
        -13    1    5    5    0    0 -0.79177312224E+01 -0.15194007502E+02 -0.30871876119E+01  0.17409165949E+02  0.00000000000E+00 0. -1.
          1    1    6    6  503    0 -0.36239753718E+02 -0.95077950645E+02  0.21520117040E+03  0.23804344181E+03  0.00000000000E+00 0. -1.
         -1    1    6    6    0  503 -0.17286684004E+03 -0.17419674358E+03  0.33542836719E+03  0.41561958493E+03  0.00000000000E+00 0.  1.
<mgrwt>
<rscale>  0 0.22516127E+04</rscale>
<asrwt>0</asrwt>
<pdfrwt beam="1">  1        2 0.88286622E-01 0.22516127E+04</pdfrwt>
<pdfrwt beam="2">  1       -1 0.33978622E+00 0.22516127E+04</pdfrwt>
<totfact> 0.98774000E-01</totfact>
</mgrwt>
</event>
<event>
12    7  0.1707730E-007  0.2464885E+04  0.7818608E-02  0.8415603E-01
         -1   -1    0    0    0  501 -0.00000000000E+00  0.00000000000E+00  0.52479856907E+03  0.52479856907E+03  0.00000000000E+00 0.  1.
          2   -1    0    0  501    0  0.00000000000E+00 -0.00000000000E+00 -0.28942811997E+04  0.28942811997E+04  0.00000000000E+00 0. -1.
         24    2    1    2    0    0 -0.30678955346E+03 -0.98396505661E+03 -0.14000776691E+04  0.17404175488E+04  0.80800382526E+02 0.  0.
        254    2    1    2    0    0  0.30678955346E+03  0.98396505661E+03 -0.96940496153E+03  0.16786622200E+04  0.90324626026E+03 0.  0.
         23    2    4    4    0    0  0.42387851169E+03  0.10528933119E+04 -0.63003503350E+03  0.13012993492E+04  0.90435246742E+02 0.  0.
         23    2    4    4    0    0 -0.11708895823E+03 -0.68928255282E+02 -0.33936992803E+03  0.37736287082E+03  0.93647529076E+02 0.  0.
          2    1    3    3  502    0 -0.25543888956E+03 -0.84834716089E+03 -0.12454879348E+04  0.15284574339E+04  0.00000000000E+00 0. -1.
         -1    1    3    3    0  502 -0.51350663899E+02 -0.13561789572E+03 -0.15458973435E+03  0.21196011485E+03  0.00000000000E+00 0.  1.
         13    1    5    5    0    0  0.13735510976E+03  0.24698592679E+03 -0.17602533641E+03  0.33294653214E+03  0.00000000000E+00 0. -1.
        -13    1    5    5    0    0  0.28652340193E+03  0.80590738510E+03 -0.45400969708E+03  0.96835281704E+03  0.00000000000E+00 0.  1.
          1    1    6    6  503    0  0.99645024938E+01 -0.30294683496E+02 -0.56711384953E+02  0.65063356364E+02  0.00000000000E+00 0. -1.
         -1    1    6    6    0  503 -0.12705346073E+03 -0.38633571786E+02 -0.28265854308E+03  0.31229951445E+03  0.00000000000E+00 0.  1.
<mgrwt>
<rscale>  0 0.24648851E+04</rscale>
<asrwt>0</asrwt>
<pdfrwt beam="1">  1        2 0.44527404E+00 0.24648851E+04</pdfrwt>
<pdfrwt beam="2">  1       -1 0.80738240E-01 0.24648851E+04</pdfrwt>
<totfact> 0.31519937E+00</totfact>
</mgrwt>
</event>
<event>
12    7  0.1707730E-007  0.1392342E+04  0.7818608E-02  0.8959381E-01
          2   -1    0    0  501    0  0.00000000000E+00  0.00000000000E+00  0.11884728340E+04  0.11884728340E+04  0.00000000000E+00 0. -1.
         -1   -1    0    0    0  501 -0.00000000000E+00 -0.00000000000E+00 -0.40779560172E+03  0.40779560172E+03  0.00000000000E+00 0.  1.
         24    2    1    2    0    0  0.15527285509E+03  0.63125597141E+02  0.63974560558E+03  0.66601644137E+03  0.78796952838E+02 0.  0.
        254    2    1    2    0    0 -0.15527285509E+03 -0.63125597141E+02  0.14093162676E+03  0.93025199439E+03  0.90410870426E+03 0.  0.
         23    2    4    4    0    0  0.33848674458E+03 -0.13307327907E+03 -0.67615144435E+02  0.38198788524E+03  0.95190140500E+02 0.  0.
         23    2    4    4    0    0 -0.49375959968E+03  0.69947681926E+02  0.20854677119E+03  0.54826410916E+03  0.91709089718E+02 0.  0.
          2    1    3    3  502    0  0.13021383989E+03  0.68597433482E+02  0.42537504481E+03  0.45011685230E+03  0.00000000000E+00 0. -1.
         -1    1    3    3    0  502  0.25059015200E+02 -0.54718363404E+01  0.21437056077E+03  0.21589958907E+03  0.00000000000E+00 0.  1.
         13    1    5    5    0    0  0.30506892707E+03 -0.10555935489E+03 -0.29235404179E+02  0.32413660164E+03  0.00000000000E+00 0.  1.
        -13    1    5    5    0    0  0.33417817518E+02 -0.27513924178E+02 -0.38379740256E+02  0.57851283593E+02  0.00000000000E+00 0. -1.
          1    1    6    6  503    0 -0.27995221436E+03  0.14410913498E+01  0.88154704357E+02  0.29350736101E+03  0.00000000000E+00 0. -1.
         -1    1    6    6    0  503 -0.21380738532E+03  0.68506590577E+02  0.12039206683E+03  0.25475674815E+03  0.00000000000E+00 0.  1.
<mgrwt>
<rscale>  0 0.13923419E+04</rscale>
<asrwt>0</asrwt>
<pdfrwt beam="1">  1        2 0.18284197E+00 0.13923419E+04</pdfrwt>
<pdfrwt beam="2">  1       -1 0.62737785E-01 0.13923419E+04</pdfrwt>
<totfact> 0.55067762E+01</totfact>
</mgrwt>
</event>
<event>
12    7  0.1707730E-007  0.1601868E+04  0.7818608E-02  0.8819401E-01
         -1   -1    0    0    0  501 -0.00000000000E+00  0.00000000000E+00  0.11425246464E+04  0.11425246464E+04  0.00000000000E+00 0.  1.
          2   -1    0    0  501    0  0.00000000000E+00 -0.00000000000E+00 -0.56147179014E+03  0.56147179014E+03  0.00000000000E+00 0. -1.
         24    2    1    2    0    0 -0.80750748156E+02 -0.44810390393E+03 -0.11920087458E+03  0.47360430876E+03  0.52672580511E+02 0.  0.
        254    2    1    2    0    0  0.80750748156E+02  0.44810390393E+03  0.70025373082E+03  0.12303921278E+04  0.90343328944E+03 0.  0.
         23    2    4    4    0    0  0.59913655767E+02 -0.17425913495E+03 -0.87004083921E+02  0.22267309038E+03  0.89764705204E+02 0.  0.
         23    2    4    4    0    0  0.20837092389E+02  0.62236303888E+03  0.78725781474E+03  0.10077190374E+04  0.89178780197E+02 0.  0.
          2    1    3    3  502    0 -0.86385583059E+02 -0.43593732365E+03 -0.11168289408E+03  0.45823235148E+03  0.00000000000E+00 0. -1.
         -1    1    3    3    0  502  0.56348349027E+01 -0.12166580277E+02 -0.75179804996E+01  0.15371957286E+02  0.00000000000E+00 0.  1.
         13    1    5    5    0    0  0.74218565981E+02 -0.12188640607E+03 -0.89284148111E+02  0.16833404476E+03  0.00000000000E+00 0. -1.
        -13    1    5    5    0    0 -0.14304910213E+02 -0.52372728878E+02  0.22800641905E+01  0.54339045621E+02  0.00000000000E+00 0.  1.
          1    1    6    6  503    0  0.45268011212E+02  0.55764165762E+03  0.68882950826E+03  0.88741168721E+03  0.00000000000E+00 0. -1.
         -1    1    6    6    0  503 -0.24430918823E+02  0.64721381260E+02  0.98428306484E+02  0.12030735017E+03  0.00000000000E+00 0.  1.
<mgrwt>
<rscale>  0 0.16018681E+04</rscale>
<asrwt>0</asrwt>
<pdfrwt beam="1">  1        2 0.86380276E-01 0.16018681E+04</pdfrwt>
<pdfrwt beam="2">  1       -1 0.17577302E+00 0.16018681E+04</pdfrwt>
<totfact> 0.13139515E+01</totfact>
</mgrwt>
</event>
<event>
12    7  0.1707730E-007  0.3385569E+04  0.7818608E-02  0.8141457E-01
         -1   -1    0    0    0  501 -0.00000000000E+00  0.00000000000E+00  0.10014170523E+04  0.10014170523E+04  0.00000000000E+00 0.  1.
          2   -1    0    0  501    0  0.00000000000E+00 -0.00000000000E+00 -0.28614646565E+04  0.28614646565E+04  0.00000000000E+00 0. -1.
         24    2    1    2    0    0  0.72695377045E+03  0.13163575268E+04 -0.13833385870E+04  0.20447129381E+04  0.77242670773E+02 0.  0.
        254    2    1    2    0    0 -0.72695377045E+03 -0.13163575268E+04 -0.47670901726E+03  0.18181687707E+04  0.90400623270E+03 0.  0.
         23    2    4    4    0    0  0.95137726422E+02 -0.47041840518E+03 -0.40191599366E+03  0.63264521546E+03  0.91426690625E+02 0.  0.
         23    2    4    4    0    0 -0.82209149687E+03 -0.84593912165E+03 -0.74793023603E+02  0.11855235552E+04  0.91786038539E+02 0.  0.
          4    1    3    3  502    0  0.18974567416E+03  0.31452561496E+03 -0.37943977121E+03  0.52811393023E+03  0.00000000000E+00 0. -1.
         -3    1    3    3    0  502  0.53720809629E+03  0.10018319119E+04 -0.10038988158E+04  0.15165990079E+04  0.00000000000E+00 0.  1.
         13    1    5    5    0    0  0.48182820025E+01 -0.24503285052E+03 -0.21861839979E+03  0.32841790207E+03  0.00000000000E+00 0. -1.
        -13    1    5    5    0    0  0.90319444419E+02 -0.22538555466E+03 -0.18329759387E+03  0.30422731339E+03  0.00000000000E+00 0.  1.
          1    1    6    6  503    0 -0.32242019847E+03 -0.29533593830E+03  0.86676323958E+01  0.43732508353E+03  0.00000000000E+00 0. -1.
         -1    1    6    6    0  503 -0.49967129840E+03 -0.55060318335E+03 -0.83460655999E+02  0.74819847171E+03  0.00000000000E+00 0.  1.
<mgrwt>
<rscale>  0 0.33855691E+04</rscale>
<asrwt>0</asrwt>
<pdfrwt beam="1">  1        2 0.44022533E+00 0.33855691E+04</pdfrwt>
<pdfrwt beam="2">  1       -1 0.15406416E+00 0.33855691E+04</pdfrwt>
<totfact> 0.64815196E-01</totfact>
</mgrwt>
</event>
<event>
12    7  0.1707730E-007  0.1303133E+04  0.7818608E-02  0.9027085E-01
         -1   -1    0    0    0  501 -0.00000000000E+00  0.00000000000E+00  0.39340999662E+03  0.39340999662E+03  0.00000000000E+00 0.  1.
          2   -1    0    0  501    0  0.00000000000E+00 -0.00000000000E+00 -0.10791252743E+04  0.10791252743E+04  0.00000000000E+00 0. -1.
         24    2    1    2    0    0  0.26784504503E+03  0.10533799330E+03 -0.43542432951E+03  0.52790679647E+03  0.79083361337E+02 0.  0.
        254    2    1    2    0    0 -0.26784504503E+03 -0.10533799330E+03 -0.25029094819E+03  0.94462847447E+03  0.86419924500E+03 0.  0.
         23    2    4    4    0    0  0.27690609982E+03 -0.19238043966E+03 -0.13200729282E+03  0.37321407048E+03  0.90418998925E+02 0.  0.
         23    2    4    4    0    0 -0.54475114486E+03  0.87042446360E+02 -0.11828365537E+03  0.57141440399E+03  0.90516300574E+02 0.  0.
          2    1    3    3  502    0  0.20744529389E+03  0.11509318861E+03 -0.34164628564E+03  0.41593530328E+03  0.00000000000E+00 0. -1.
         -1    1    3    3    0  502  0.60399751145E+02 -0.97551953100E+01 -0.93778043870E+02  0.11197149318E+03  0.00000000000E+00 0.  1.
         13    1    5    5    0    0 -0.48482742952E+01 -0.11333049832E+02  0.20048018475E+01  0.12488515227E+02  0.00000000000E+00 0.  1.
        -13    1    5    5    0    0  0.28175437412E+03 -0.18104738983E+03 -0.13401209467E+03  0.36072555526E+03  0.00000000000E+00 0. -1.
          1    1    6    6  503    0 -0.45952987291E+03  0.95526388959E+02 -0.74502596887E+02  0.47523008325E+03  0.00000000000E+00 0. -1.
         -1    1    6    6    0  503 -0.85221271947E+02 -0.84839425989E+01 -0.43781058483E+02  0.96184320740E+02  0.00000000000E+00 0.  1.
<mgrwt>
<rscale>  0 0.13031326E+04</rscale>
<asrwt>0</asrwt>
<pdfrwt beam="1">  1        2 0.16601927E+00 0.13031326E+04</pdfrwt>
<pdfrwt beam="2">  1       -1 0.60524616E-01 0.13031326E+04</pdfrwt>
<totfact> 0.69447241E+01</totfact>
</mgrwt>
</event>
<event>
12    7  0.1707730E-007  0.2329001E+04  0.7818608E-02  0.8466573E-01
         -1   -1    0    0    0  501 -0.00000000000E+00  0.00000000000E+00  0.10071942804E+04  0.10071942804E+04  0.00000000000E+00 0.  1.
          2   -1    0    0  501    0  0.00000000000E+00 -0.00000000000E+00 -0.13463755707E+04  0.13463755707E+04  0.00000000000E+00 0. -1.
         24    2    1    2    0    0  0.27669869797E+03  0.85572493599E+03 -0.55845454583E+03  0.10616942635E+04  0.80597108970E+02 0.  0.
        254    2    1    2    0    0 -0.27669869797E+03 -0.85572493599E+03  0.21927325550E+03  0.12918755876E+04  0.90112953435E+03 0.  0.
         23    2    4    4    0    0 -0.15321973922E+03 -0.75686271139E+03  0.52355968982E+03  0.93747772931E+03  0.91827510867E+02 0.  0.
         23    2    4    4    0    0 -0.12347895875E+03 -0.98862224591E+02 -0.30428643432E+03  0.35439785827E+03  0.89368983026E+02 0.  0.
          2    1    3    3  502    0  0.77230989820E+02  0.24273765647E+03 -0.20185196356E+03  0.32500832428E+03  0.00000000000E+00 0. -1.
         -1    1    3    3    0  502  0.19946770815E+03  0.61298727951E+03 -0.35660258227E+03  0.73668593927E+03  0.00000000000E+00 0.  1.
         13    1    5    5    0    0 -0.57883129944E+02 -0.41222879772E+03  0.23525295236E+03  0.47814954773E+03  0.00000000000E+00 0. -1.
        -13    1    5    5    0    0 -0.95336609274E+02 -0.34463391368E+03  0.28830673746E+03  0.45932818158E+03  0.00000000000E+00 0.  1.
          3    1    6    6  503    0 -0.13128796920E+03 -0.72064384379E+02 -0.22450507795E+03  0.26987466791E+03  0.00000000000E+00 0. -1.
         -3    1    6    6    0  503  0.78090104504E+01 -0.26797840212E+02 -0.79781356370E+02  0.84523190359E+02  0.00000000000E+00 0.  1.
<mgrwt>
<rscale>  0 0.23290013E+04</rscale>
<asrwt>0</asrwt>
<pdfrwt beam="1">  1        2 0.20713470E+00 0.23290013E+04</pdfrwt>
<pdfrwt beam="2">  1       -1 0.15495297E+00 0.23290013E+04</pdfrwt>
<totfact> 0.51146679E+00</totfact>
</mgrwt>
</event>
<event>
12    7  0.1707730E-007  0.1294040E+04  0.7818608E-02  0.9034305E-01
          2   -1    0    0  501    0  0.00000000000E+00  0.00000000000E+00  0.98520746448E+03  0.98520746448E+03  0.00000000000E+00 0. -1.
         -1   -1    0    0    0  501 -0.00000000000E+00 -0.00000000000E+00 -0.42492084723E+03  0.42492084723E+03  0.00000000000E+00 0.  1.
         24    2    1    2    0    0 -0.30383509623E+03  0.64296821906E+02  0.44245717337E+02  0.32354897530E+03  0.79223790049E+02 0.  0.
        254    2    1    2    0    0  0.30383509623E+03 -0.64296821906E+02  0.51604089991E+03  0.10865793364E+04  0.90438188665E+03 0.  0.
         23    2    4    4    0    0 -0.93266075190E+02  0.34655089901E+03  0.26862124619E+03  0.45730174982E+03  0.90395962866E+02 0.  0.
         23    2    4    4    0    0  0.39710117142E+03 -0.41084772091E+03  0.24741965372E+03  0.62927758658E+03  0.91041780540E+02 0.  0.
          2    1    3    3  502    0 -0.25463476823E+03  0.53133454359E+02  0.66381062704E+02  0.26845572196E+03  0.00000000000E+00 0. -1.
         -1    1    3    3    0  502 -0.49200327992E+02  0.11163367547E+02 -0.22135345367E+02  0.55093253344E+02  0.00000000000E+00 0.  1.
         13    1    5    5    0    0 -0.10973112404E+03  0.28833781237E+03  0.23702593853E+03  0.38905129374E+03  0.00000000000E+00 0.  1.
        -13    1    5    5    0    0  0.16465048847E+02  0.58213086640E+02  0.31595307660E+02  0.68250456085E+02  0.00000000000E+00 0. -1.
          2    1    6    6  503    0  0.24401830047E+03 -0.18710169996E+03  0.13197845505E+03  0.33461961941E+03  0.00000000000E+00 0. -1.
         -2    1    6    6    0  503  0.15308287094E+03 -0.22374602095E+03  0.11544119866E+03  0.29465796717E+03  0.00000000000E+00 0.  1.
<mgrwt>
<rscale>  0 0.12940405E+04</rscale>
<asrwt>0</asrwt>
<pdfrwt beam="1">  1        2 0.15157038E+00 0.12940405E+04</pdfrwt>
<pdfrwt beam="2">  1       -1 0.65372438E-01 0.12940405E+04</pdfrwt>
<totfact> 0.68338107E+01</totfact>
</mgrwt>
</event>
<event>
12    7  0.1707730E-007  0.2394165E+04  0.7818608E-02  0.8441691E-01
          2   -1    0    0  501    0  0.00000000000E+00  0.00000000000E+00  0.25414431311E+04  0.25414431311E+04  0.00000000000E+00 0. -1.
         -1   -1    0    0    0  501 -0.00000000000E+00 -0.00000000000E+00 -0.56385555188E+03  0.56385555188E+03  0.00000000000E+00 0.  1.
         24    2    1    2    0    0 -0.21843571722E+03  0.81743514037E+03  0.15797505750E+04  0.17938434121E+04  0.79673939478E+02 0.  0.
        254    2    1    2    0    0  0.21843571722E+03 -0.81743514037E+03  0.39783700421E+03  0.13114552709E+04  0.91963377183E+03 0.  0.
         23    2    4    4    0    0  0.42511138364E+03 -0.28673159518E+03 -0.12164413792E+03  0.53479425931E+03  0.90955523881E+02 0.  0.
         23    2    4    4    0    0 -0.20667566642E+03 -0.53070354519E+03  0.51948114213E+03  0.77666101156E+03  0.94765953156E+02 0.  0.
          4    1    3    3  502    0 -0.14793277939E+03  0.66673647090E+03  0.12949352331E+04  0.14639941553E+04  0.00000000000E+00 0. -1.
         -3    1    3    3    0  502 -0.70502937825E+02  0.15069866948E+03  0.28481534190E+03  0.32984925679E+03  0.00000000000E+00 0.  1.
         13    1    5    5    0    0  0.13195502884E+02 -0.56056196244E+01 -0.21957813593E+02  0.26223841166E+02  0.00000000000E+00 0.  1.
        -13    1    5    5    0    0  0.41191588076E+03 -0.28112597556E+03 -0.99686324323E+02  0.50857041814E+03  0.00000000000E+00 0. -1.
          2    1    6    6  503    0 -0.14513871590E+03 -0.34608101992E+03  0.39909529163E+03  0.54782695352E+03  0.00000000000E+00 0. -1.
         -2    1    6    6    0  503 -0.61536950519E+02 -0.18462252527E+03  0.12038585049E+03  0.22883405803E+03  0.00000000000E+00 0.  1.
<mgrwt>
<rscale>  0 0.23941653E+04</rscale>
<asrwt>0</asrwt>
<pdfrwt beam="1">  1        2 0.39099124E+00 0.23941653E+04</pdfrwt>
<pdfrwt beam="2">  1       -1 0.86747010E-01 0.23941653E+04</pdfrwt>
<totfact> 0.44138311E+00</totfact>
</mgrwt>
</event>
<event>
12    7  0.1707730E-007  0.1017449E+04  0.7818608E-02  0.9289611E-01
          4   -1    0    0  501    0  0.00000000000E+00  0.00000000000E+00  0.42687514009E+03  0.42687514009E+03  0.00000000000E+00 0. -1.
         -3   -1    0    0    0  501 -0.00000000000E+00 -0.00000000000E+00 -0.60626785100E+03  0.60626785100E+03  0.00000000000E+00 0.  1.
         24    2    1    2    0    0  0.18438085158E+02 -0.75641301538E+02 -0.90216171135E+02  0.14599979585E+03  0.84352909686E+02 0.  0.
        254    2    1    2    0    0 -0.18438085158E+02  0.75641301538E+02 -0.89176539775E+02  0.88714319523E+03  0.87920931757E+03 0.  0.
         23    2    4    4    0    0  0.34965967576E+03 -0.11974602611E+03 -0.22229814448E+03  0.44080501654E+03  0.91058211842E+02 0.  0.
         23    2    4    4    0    0 -0.36809776092E+03  0.19538732764E+03  0.13312160471E+03  0.44633817869E+03  0.88454726918E+02 0.  0.
          4    1    3    3  502    0 -0.22459787938E+02 -0.80008631472E+01  0.27185674710E+01  0.23996801754E+02  0.00000000000E+00 0. -1.
         -3    1    3    3    0  502  0.40897873097E+02 -0.67640438391E+02 -0.92934738606E+02  0.12200299410E+03  0.00000000000E+00 0.  1.
         13    1    5    5    0    0  0.12361552750E+03  0.21238334938E+01 -0.79142052270E+02  0.14679500586E+03  0.00000000000E+00 0.  1.
        -13    1    5    5    0    0  0.22604414826E+03 -0.12186985960E+03 -0.14315609221E+03  0.29401001068E+03  0.00000000000E+00 0. -1.
          2    1    6    6  503    0 -0.13536976007E+03  0.25168831746E+02  0.43072259916E+02  0.14426940635E+03  0.00000000000E+00 0.  1.
         -2    1    6    6    0  503 -0.23272800085E+03  0.17021849590E+03  0.90049344793E+02  0.30206877234E+03  0.00000000000E+00 0. -1.
<mgrwt>
<rscale>  0 0.10174491E+04</rscale>
<asrwt>0</asrwt>
<pdfrwt beam="1">  1        4 0.65673099E-01 0.10174491E+04</pdfrwt>
<pdfrwt beam="2">  1       -3 0.93271977E-01 0.10174491E+04</pdfrwt>
<totfact> 0.50382638E+00</totfact>
</mgrwt>
</event>
<event>
12    7  0.1707730E-007  0.1746206E+04  0.7818608E-02  0.8735442E-01
         -3   -1    0    0    0  501 -0.00000000000E+00  0.00000000000E+00  0.96211182396E+03  0.96211182396E+03  0.00000000000E+00 0.  1.
          4   -1    0    0  501    0  0.00000000000E+00 -0.00000000000E+00 -0.79232842779E+03  0.79232842779E+03  0.00000000000E+00 0. -1.
         24    2    1    2    0    0  0.15832545239E+03 -0.57798041073E+03  0.21050730789E+03  0.64077435361E+03  0.84558509408E+02 0.  0.
        254    2    1    2    0    0 -0.15832545239E+03  0.57798041073E+03 -0.40723911723E+02  0.11136658981E+04  0.93779794819E+03 0.  0.
         23    2    4    4    0    0 -0.21690108586E+03 -0.85721655536E+02 -0.30146106530E+03  0.39244603878E+03  0.93492439234E+02 0.  0.
         23    2    4    4    0    0  0.58575633470E+02  0.66370206626E+03  0.26073715357E+03  0.72121985935E+03  0.90789232169E+02 0.  0.
          2    1    3    3  502    0  0.41124152087E+02 -0.19414187306E+03  0.11061776852E+03  0.22719716872E+03  0.00000000000E+00 0. -1.
         -1    1    3    3    0  502  0.11720130030E+03 -0.38383853767E+03  0.99889539371E+02  0.41357718490E+03  0.00000000000E+00 0.  1.
         13    1    5    5    0    0 -0.42082510367E+02 -0.41805944236E+02 -0.29691719030E+02  0.66334552317E+02  0.00000000000E+00 0. -1.
        -13    1    5    5    0    0 -0.17481857549E+03 -0.43915711300E+02 -0.27176934627E+03  0.32611148647E+03  0.00000000000E+00 0.  1.
          4    1    6    6  503    0  0.34895213258E+02  0.13370504793E+03  0.23922953903E+02  0.14023916526E+03  0.00000000000E+00 0. -1.
         -4    1    6    6    0  503  0.23680420212E+02  0.52999701833E+03  0.23681419967E+03  0.58098069409E+03  0.00000000000E+00 0.  1.
<mgrwt>
<rscale>  0 0.17462057E+04</rscale>
<asrwt>0</asrwt>
<pdfrwt beam="1">  1        4 0.12189668E+00 0.17462057E+04</pdfrwt>
<pdfrwt beam="2">  1       -3 0.14801720E+00 0.17462057E+04</pdfrwt>
<totfact> 0.36856026E-01</totfact>
</mgrwt>
</event>
<event>
12    7  0.1707730E-007  0.2203308E+04  0.7818608E-02  0.8517052E-01
          2   -1    0    0  501    0  0.00000000000E+00  0.00000000000E+00  0.18751143404E+04  0.18751143404E+04  0.00000000000E+00 0. -1.
         -1   -1    0    0    0  501 -0.00000000000E+00 -0.00000000000E+00 -0.64723606435E+03  0.64723606435E+03  0.00000000000E+00 0.  1.
         24    2    1    2    0    0  0.87928905821E+02 -0.81186407601E+03  0.94646987566E+03  0.12532008719E+04  0.88613934165E+02 0.  0.
        254    2    1    2    0    0 -0.87928905821E+02  0.81186407601E+03  0.28140840042E+03  0.12691495329E+04  0.92988982070E+03 0.  0.
         23    2    4    4    0    0 -0.42839887696E+03  0.39250307764E+03  0.39668525433E+03  0.70952997229E+03  0.92137543023E+02 0.  0.
         23    2    4    4    0    0  0.34046997114E+03  0.41936099837E+03 -0.11527685390E+03  0.55961956062E+03  0.90010284858E+02 0.  0.
          4    1    3    3  502    0  0.99400734909E+02 -0.78352450107E+03  0.92206091497E+03  0.12140788610E+04  0.00000000000E+00 0. -1.
         -3    1    3    3    0  502 -0.11471829088E+02 -0.28339574942E+02  0.24408960693E+02  0.39122010846E+02  0.00000000000E+00 0.  1.
         13    1    5    5    0    0 -0.22024538798E+03  0.18212659877E+03  0.14222497314E+03  0.31922730443E+03  0.00000000000E+00 0.  1.
        -13    1    5    5    0    0 -0.20815348898E+03  0.21037647887E+03  0.25446028119E+03  0.39030266786E+03  0.00000000000E+00 0. -1.
          1    1    6    6  503    0  0.56562083655E+02  0.13094505917E+03 -0.37814980005E+02  0.14756642756E+03  0.00000000000E+00 0. -1.
         -1    1    6    6    0  503  0.28390788748E+03  0.28841593920E+03 -0.77461873899E+02  0.41205313306E+03  0.00000000000E+00 0.  1.
<mgrwt>
<rscale>  0 0.22033081E+04</rscale>
<asrwt>0</asrwt>
<pdfrwt beam="1">  1        2 0.28847913E+00 0.22033081E+04</pdfrwt>
<pdfrwt beam="2">  1       -1 0.99574780E-01 0.22033081E+04</pdfrwt>
<totfact> 0.78481659E+00</totfact>
</mgrwt>
</event>
<event>
12    7  0.1707730E-007  0.4500875E+04  0.7818608E-02  0.7910484E-01
         -1   -1    0    0    0  501 -0.00000000000E+00  0.00000000000E+00  0.17243030779E+04  0.17243030779E+04  0.00000000000E+00 0.  1.
          2   -1    0    0  501    0  0.00000000000E+00 -0.00000000000E+00 -0.29371105347E+04  0.29371105347E+04  0.00000000000E+00 0. -1.
         24    2    1    2    0    0  0.23284218943E+03 -0.75594586262E+03 -0.26638809499E+04  0.27800977017E+04  0.83736991423E+02 0.  0.
        254    2    1    2    0    0 -0.23284218943E+03  0.75594586262E+03  0.14510734931E+04  0.18813159109E+04  0.89892471423E+03 0.  0.
         23    2    4    4    0    0 -0.41371318871E+03  0.73355044953E+02  0.28458895072E+03  0.51465009352E+03  0.85640427127E+02 0.  0.
         23    2    4    4    0    0  0.18087099928E+03  0.68259081766E+03  0.11664845424E+04  0.13666658174E+04  0.91895190517E+02 0.  0.
          2    1    3    3  502    0  0.19431808114E+03 -0.57351776578E+03 -0.21401227329E+04  0.22241419595E+04  0.00000000000E+00 0. -1.
         -1    1    3    3    0  502  0.38524108285E+02 -0.18242809683E+03 -0.52375821700E+03  0.55595574222E+03  0.00000000000E+00 0.  1.
         13    1    5    5    0    0 -0.18534720234E+03  0.15320783976E+02  0.17274187099E+03  0.25382684222E+03  0.00000000000E+00 0. -1.
        -13    1    5    5    0    0 -0.22836598637E+03  0.58034260977E+02  0.11184707973E+03  0.26082325130E+03  0.00000000000E+00 0.  1.
          4    1    6    6  503    0  0.12190133345E+03  0.56085577586E+03  0.98949747447E+03  0.11439075087E+04  0.00000000000E+00 0. -1.
         -4    1    6    6    0  503  0.58969665832E+02  0.12173504180E+03  0.17698706793E+03  0.22275830873E+03  0.00000000000E+00 0.  1.
<mgrwt>
<rscale>  0 0.45008749E+04</rscale>
<asrwt>0</asrwt>
<pdfrwt beam="1">  1        2 0.45186316E+00 0.45008749E+04</pdfrwt>
<pdfrwt beam="2">  1       -1 0.26527740E+00 0.45008749E+04</pdfrwt>
<totfact> 0.90925258E-02</totfact>
</mgrwt>
</event>
<event>
12    7  0.1707730E-007  0.2418838E+04  0.7818608E-02  0.8432484E-01
          2   -1    0    0  501    0  0.00000000000E+00  0.00000000000E+00  0.95543673567E+03  0.95543673567E+03  0.00000000000E+00 0. -1.
         -1   -1    0    0    0  501 -0.00000000000E+00 -0.00000000000E+00 -0.15309169019E+04  0.15309169019E+04  0.00000000000E+00 0.  1.
         24    2    1    2    0    0 -0.63135684789E+03 -0.15190330013E+03 -0.10900137837E+04  0.12713628016E+04  0.80915033490E+02 0.  0.
        254    2    1    2    0    0  0.63135684789E+03  0.15190330013E+03  0.51453361746E+03  0.12149908360E+04  0.88869106335E+03 0.  0.
         23    2    4    4    0    0  0.27812866863E+03  0.36990565748E+03  0.61815605173E+03  0.77741400171E+03  0.89832477537E+02 0.  0.
         23    2    4    4    0    0  0.35322817925E+03 -0.21800235735E+03 -0.10362243427E+03  0.43757683427E+03  0.91873296338E+02 0.  0.
          2    1    3    3  502    0 -0.46753836376E+02 -0.31804049602E+02 -0.75572828603E+02  0.94385757453E+02  0.00000000000E+00 0. -1.
         -1    1    3    3    0  502 -0.58460301151E+03 -0.12009925053E+03 -0.10144409551E+04  0.11769770441E+04  0.00000000000E+00 0.  1.
         13    1    5    5    0    0  0.59366998848E+01 -0.21622409719E+01  0.41555178105E-01  0.63183398433E+01  0.00000000000E+00 0. -1.
        -13    1    5    5    0    0  0.27219196875E+03  0.37206789845E+03  0.61811449655E+03  0.77109566187E+03  0.00000000000E+00 0.  1.
          3    1    6    6  503    0  0.87462126165E+01 -0.51390388187E+01 -0.22370264655E+02  0.24562872305E+02  0.00000000000E+00 0. -1.
         -3    1    6    6    0  503  0.34448196664E+03 -0.21286331853E+03 -0.81252169616E+02  0.41301396197E+03  0.00000000000E+00 0.  1.
<mgrwt>
<rscale>  0 0.24188379E+04</rscale>
<asrwt>0</asrwt>
<pdfrwt beam="1">  1        2 0.14699027E+00 0.24188379E+04</pdfrwt>
<pdfrwt beam="2">  1       -1 0.23552568E+00 0.24188379E+04</pdfrwt>
<totfact> 0.23919098E+00</totfact>
</mgrwt>
</event>
<event>
12    7  0.1707730E-007  0.3002452E+04  0.7818608E-02  0.8243031E-01
          2   -1    0    0  501    0  0.00000000000E+00  0.00000000000E+00  0.20837234213E+04  0.20837234213E+04  0.00000000000E+00 0. -1.
         -1   -1    0    0    0  501 -0.00000000000E+00 -0.00000000000E+00 -0.10815633580E+04  0.10815633580E+04  0.00000000000E+00 0.  1.
         24    2    1    2    0    0  0.66178796954E+03  0.51955233150E+03  0.15965535735E+04  0.18064812331E+04  0.80580337283E+02 0.  0.
        254    2    1    2    0    0 -0.66178796954E+03 -0.51955233150E+03 -0.59439351018E+03  0.13588055462E+04  0.88608742547E+03 0.  0.
         23    2    4    4    0    0 -0.93160445127E+02 -0.32605279064E+03  0.16395772531E+03  0.38705209388E+03  0.89094875647E+02 0.  0.
         23    2    4    4    0    0 -0.56862752441E+03 -0.19349954087E+03 -0.75835123549E+03  0.97175345230E+03  0.91808724265E+02 0.  0.
          4    1    3    3  502    0  0.54958486175E+03  0.41279615926E+03  0.12403900998E+04  0.14181014734E+04  0.00000000000E+00 0. -1.
         -3    1    3    3    0  502  0.11220310779E+03  0.10675617225E+03  0.35616347370E+03  0.38837975965E+03  0.00000000000E+00 0.  1.
         13    1    5    5    0    0 -0.57154841134E+02 -0.74329948874E+02  0.23961898710E+02  0.96777010464E+02  0.00000000000E+00 0. -1.
        -13    1    5    5    0    0 -0.36005603993E+02 -0.25172284176E+03  0.13999582660E+03  0.29027508341E+03  0.00000000000E+00 0.  1.
          4    1    6    6  503    0 -0.43254063749E+02  0.63983597944E+01 -0.37231804943E+02  0.57428741394E+02  0.00000000000E+00 0. -1.
         -4    1    6    6    0  503 -0.52537346066E+03 -0.19989790066E+03 -0.72111943055E+03  0.91432471091E+03  0.00000000000E+00 0.  1.
<mgrwt>
<rscale>  0 0.30024516E+04</rscale>
<asrwt>0</asrwt>
<pdfrwt beam="1">  1        2 0.32057283E+00 0.30024516E+04</pdfrwt>
<pdfrwt beam="2">  1       -1 0.16639436E+00 0.30024516E+04</pdfrwt>
<totfact> 0.15281608E+00</totfact>
</mgrwt>
</event>
<event>
12    7  0.1707730E-007  0.1267116E+04  0.7818608E-02  0.9056057E-01
          2   -1    0    0  501    0  0.00000000000E+00  0.00000000000E+00  0.34105333978E+04  0.34105333978E+04  0.00000000000E+00 0. -1.
         -3   -1    0    0    0  501 -0.00000000000E+00 -0.00000000000E+00 -0.11769288402E+03  0.11769288402E+03  0.00000000000E+00 0.  1.
         24    2    1    2    0    0 -0.25506785144E+03  0.15357281050E+03  0.62336077366E+03  0.69544382564E+03  0.80120181785E+02 0.  0.
        254    2    1    2    0    0  0.25506785144E+03 -0.15357281050E+03  0.26694797401E+04  0.28327824561E+04  0.89993896686E+03 0.  0.
         23    2    4    4    0    0 -0.23503929635E+03  0.15295381927E+03  0.45880069466E+03  0.54586563746E+03  0.93983376596E+02 0.  0.
         23    2    4    4    0    0  0.49010714779E+03 -0.30652662976E+03  0.22106790454E+04  0.22869168187E+04  0.93397551300E+02 0.  0.
          2    1    3    3  502    0 -0.39056191098E+02  0.47652442076E+01  0.41478143551E+02  0.57171059181E+02  0.00000000000E+00 0. -1.
         -1    1    3    3    0  502 -0.21601166034E+03  0.14880756629E+03  0.58188263011E+03  0.63827276646E+03  0.00000000000E+00 0.  1.
         13    1    5    5    0    0 -0.11550484218E+03  0.69699895057E+02  0.13521945108E+03  0.19100718282E+03  0.00000000000E+00 0.  1.
        -13    1    5    5    0    0 -0.11953445417E+03  0.83253924209E+02  0.32358124358E+03  0.35485845464E+03  0.00000000000E+00 0. -1.
          2    1    6    6  503    0  0.38789748215E+03 -0.28440400435E+03  0.18165958039E+04  0.18791940850E+04  0.00000000000E+00 0. -1.
         -2    1    6    6    0  503  0.10220966564E+03 -0.22122625416E+02  0.39408324150E+03  0.40772273366E+03  0.00000000000E+00 0.  1.
<mgrwt>
<rscale>  0 0.12671156E+04</rscale>
<asrwt>0</asrwt>
<pdfrwt beam="1">  1        2 0.52469737E+00 0.12671156E+04</pdfrwt>
<pdfrwt beam="2">  1       -3 0.18106600E-01 0.12671156E+04</pdfrwt>
<totfact> 0.16892697E+01</totfact>
</mgrwt>
</event>
<event>
12    7  0.1707730E-007  0.1667665E+04  0.7818608E-02  0.8780024E-01
         -1   -1    0    0    0  501 -0.00000000000E+00  0.00000000000E+00  0.52899510532E+03  0.52899510532E+03  0.00000000000E+00 0.  1.
          2   -1    0    0  501    0  0.00000000000E+00 -0.00000000000E+00 -0.13143347960E+04  0.13143347960E+04  0.00000000000E+00 0. -1.
         24    2    1    2    0    0 -0.28336190762E+02  0.58724429182E+03 -0.26235910601E+03  0.64889471601E+03  0.81075606496E+02 0.  0.
        254    2    1    2    0    0  0.28336190762E+02 -0.58724429182E+03 -0.52298058471E+03  0.11944351854E+04  0.89861444573E+03 0.  0.
         23    2    4    4    0    0  0.11181319850E+03 -0.13801165903E+03 -0.67495740648E+03  0.70390717798E+03  0.91478988097E+02 0.  0.
         23    2    4    4    0    0 -0.83477007738E+02 -0.44923263279E+03  0.15197682177E+03  0.49052800738E+03  0.93500815428E+02 0.  0.
          4    1    3    3  502    0  0.84904787444E+01  0.73829837365E+02 -0.61119466799E+02  0.96221215625E+02  0.00000000000E+00 0. -1.
         -3    1    3    3    0  502 -0.36826669506E+02  0.51341445446E+03 -0.20123963921E+03  0.55267350038E+03  0.00000000000E+00 0.  1.
         13    1    5    5    0    0 -0.12433437565E+02 -0.11959087590E+02 -0.25670155514E+02  0.30928417835E+02  0.00000000000E+00 0. -1.
        -13    1    5    5    0    0  0.12424663606E+03 -0.12605257144E+03 -0.64928725096E+03  0.67297876014E+03  0.00000000000E+00 0.  1.
          1    1    6    6  503    0 -0.33323352061E+02 -0.11387037087E+03 -0.70367294411E+00  0.11864822927E+03  0.00000000000E+00 0. -1.
         -1    1    6    6    0  503 -0.50153655677E+02 -0.33536226193E+03  0.15268049471E+03  0.37187977811E+03  0.00000000000E+00 0.  1.
<mgrwt>
<rscale>  0 0.16676650E+04</rscale>
<asrwt>0</asrwt>
<pdfrwt beam="1">  1        2 0.20220535E+00 0.16676650E+04</pdfrwt>
<pdfrwt beam="2">  1       -1 0.81383863E-01 0.16676650E+04</pdfrwt>
<totfact> 0.26519237E+01</totfact>
</mgrwt>
</event>
<event>
12    7  0.1707730E-007  0.1901667E+04  0.7818608E-02  0.8654027E-01
          2   -1    0    0  501    0  0.00000000000E+00  0.00000000000E+00  0.20331488135E+04  0.20331488135E+04  0.00000000000E+00 0. -1.
         -1   -1    0    0    0  501 -0.00000000000E+00 -0.00000000000E+00 -0.44467177861E+03  0.44467177861E+03  0.00000000000E+00 0.  1.
         24    2    1    2    0    0 -0.40905680364E+03  0.51687968874E+03  0.10461728900E+04  0.12397804054E+04  0.89920279191E+02 0.  0.
        254    2    1    2    0    0  0.40905680364E+03 -0.51687968874E+03  0.54230414496E+03  0.12380401868E+04  0.89674836894E+03 0.  0.
         23    2    4    4    0    0  0.38730133945E+02 -0.66074819374E+03  0.17907749366E+03  0.69178621591E+03  0.91712708934E+02 0.  0.
         23    2    4    4    0    0  0.37032666970E+03  0.14386850500E+03  0.36322665130E+03  0.54625397086E+03  0.92842939678E+02 0.  0.
          4    1    3    3  502    0 -0.23263970797E+03  0.23617241792E+03  0.57359660807E+03  0.66250412339E+03  0.00000000000E+00 0. -1.
         -3    1    3    3    0  502 -0.17641709567E+03  0.28070727083E+03  0.47257628190E+03  0.57727628199E+03  0.00000000000E+00 0.  1.
         13    1    5    5    0    0  0.76088963845E+01 -0.34045640614E+03  0.46320058140E+02  0.34367718512E+03  0.00000000000E+00 0.  1.
        -13    1    5    5    0    0  0.31121237561E+02 -0.32029178760E+03  0.13275743552E+03  0.34810903079E+03  0.00000000000E+00 0. -1.
          4    1    6    6  503    0  0.33839094040E+03  0.12452517755E+03  0.28512312796E+03  0.45968483387E+03  0.00000000000E+00 0. -1.
         -4    1    6    6    0  503  0.31935729301E+02  0.19343327449E+02  0.78103523336E+02  0.86569136996E+02  0.00000000000E+00 0.  1.
<mgrwt>
<rscale>  0 0.19016665E+04</rscale>
<asrwt>0</asrwt>
<pdfrwt beam="1">  1        2 0.31279212E+00 0.19016665E+04</pdfrwt>
<pdfrwt beam="2">  1       -1 0.68411044E-01 0.19016665E+04</pdfrwt>
<totfact> 0.14766301E+01</totfact>
</mgrwt>
</event>
<event>
12    7  0.1707730E-007  0.2624647E+04  0.7818608E-02  0.8359877E-01
         -1   -1    0    0    0  501 -0.00000000000E+00  0.00000000000E+00  0.13972838353E+04  0.13972838353E+04  0.00000000000E+00 0.  1.
          2   -1    0    0  501    0  0.00000000000E+00 -0.00000000000E+00 -0.12325292625E+04  0.12325292625E+04  0.00000000000E+00 0. -1.
         24    2    1    2    0    0 -0.73254140504E+03  0.22082982866E+02 -0.82690670149E+03  0.11077006368E+04  0.78239628531E+02 0.  0.
        254    2    1    2    0    0  0.73254140504E+03 -0.22082982866E+02  0.99166127431E+03  0.15221124610E+04  0.89237306820E+03 0.  0.
         23    2    4    4    0    0  0.27451391289E+03 -0.34165530645E+03  0.81436904867E+03  0.92913709227E+03  0.89512859399E+02 0.  0.
         23    2    4    4    0    0  0.45802749216E+03  0.31957232359E+03  0.17729222563E+03  0.59297536877E+03  0.90948343144E+02 0.  0.
          2    1    3    3  502    0 -0.51560018110E+03  0.28957783300E+02 -0.53077717853E+03  0.74054474085E+03  0.00000000000E+00 0. -1.
         -1    1    3    3    0  502 -0.21694122395E+03 -0.68748004344E+01 -0.29612952296E+03  0.36715589590E+03  0.00000000000E+00 0.  1.
         13    1    5    5    0    0  0.12209224622E+03 -0.84860630607E+02  0.26728415965E+03  0.30585726281E+03  0.00000000000E+00 0.  1.
        -13    1    5    5    0    0  0.15242166666E+03 -0.25679467584E+03  0.54708488902E+03  0.62327982946E+03  0.00000000000E+00 0. -1.
          4    1    6    6  503    0  0.27535064271E+03  0.16504498863E+03  0.14233949558E+03  0.35116713501E+03  0.00000000000E+00 0. -1.
         -4    1    6    6    0  503  0.18267684945E+03  0.15452733496E+03  0.34952730058E+02  0.24180823375E+03  0.00000000000E+00 0.  1.
<mgrwt>
<rscale>  0 0.26246472E+04</rscale>
<asrwt>0</asrwt>
<pdfrwt beam="1">  1        2 0.18961989E+00 0.26246472E+04</pdfrwt>
<pdfrwt beam="2">  1       -1 0.21496674E+00 0.26246472E+04</pdfrwt>
<totfact> 0.21678350E+00</totfact>
</mgrwt>
</event>
<event>
12    7  0.1707730E-007  0.1350994E+04  0.7818608E-02  0.8990076E-01
          2   -1    0    0  501    0  0.00000000000E+00  0.00000000000E+00  0.46855191274E+03  0.46855191274E+03  0.00000000000E+00 0. -1.
         -1   -1    0    0    0  501 -0.00000000000E+00 -0.00000000000E+00 -0.97384399786E+03  0.97384399786E+03  0.00000000000E+00 0.  1.
         24    2    1    2    0    0  0.84349434748E+02 -0.29854998123E+03  0.63024690883E+02  0.32648819407E+03  0.79846795587E+02 0.  0.
        254    2    1    2    0    0 -0.84349434748E+02  0.29854998123E+03 -0.56831677600E+03  0.11159077165E+04  0.90885595971E+03 0.  0.
         23    2    4    4    0    0 -0.32118743718E+03  0.21764958545E+03  0.87361912989E+02  0.40810795185E+03  0.91582119836E+02 0.  0.
         23    2    4    4    0    0  0.23683800243E+03  0.80900395782E+02 -0.65567868899E+03  0.70779976469E+03  0.91808770069E+02 0.  0.
          4    1    3    3  502    0  0.42673567302E+02 -0.54209301928E+02  0.34036042720E+02  0.76929408979E+02  0.00000000000E+00 0. -1.
         -3    1    3    3    0  502  0.41675867446E+02 -0.24434067931E+03  0.28988648164E+02  0.24955878509E+03  0.00000000000E+00 0.  1.
         13    1    5    5    0    0 -0.81915590068E+01 -0.90280841595E+01  0.26680497073E+01  0.12479039698E+02  0.00000000000E+00 0. -1.
        -13    1    5    5    0    0 -0.31299587817E+03  0.22667766961E+03  0.84693863281E+02  0.39562891215E+03  0.00000000000E+00 0.  1.
          3    1    6    6  503    0  0.64392701036E+02  0.35397026340E+02 -0.99270979144E+02  0.12350747638E+03  0.00000000000E+00 0. -1.
         -3    1    6    6    0  503  0.17244530139E+03  0.45503369442E+02 -0.55640770985E+03  0.58429228831E+03  0.00000000000E+00 0.  1.
<mgrwt>
<rscale>  0 0.13509944E+04</rscale>
<asrwt>0</asrwt>
<pdfrwt beam="1">  1        2 0.72084911E-01 0.13509944E+04</pdfrwt>
<pdfrwt beam="2">  1       -1 0.14982215E+00 0.13509944E+04</pdfrwt>
<totfact> 0.25962074E+01</totfact>
</mgrwt>
</event>
<event>
12    7  0.1707730E-007  0.1361322E+04  0.7818608E-02  0.8982302E-01
         -1   -1    0    0    0  501 -0.00000000000E+00  0.00000000000E+00  0.65056948959E+03  0.65056948959E+03  0.00000000000E+00 0.  1.
          2   -1    0    0  501    0  0.00000000000E+00 -0.00000000000E+00 -0.71214424939E+03  0.71214424939E+03  0.00000000000E+00 0. -1.
         24    2    1    2    0    0  0.12800862823E+03 -0.13835647018E+03  0.30827388605E+03  0.37013002289E+03  0.80216726940E+02 0.  0.
        254    2    1    2    0    0 -0.12800862823E+03  0.13835647018E+03 -0.36984864585E+03  0.99258371610E+03  0.90161282760E+03 0.  0.
         23    2    4    4    0    0 -0.32375815455E+03  0.23521219172E+03  0.13709363592E+03  0.43326770261E+03  0.93712962534E+02 0.  0.
         23    2    4    4    0    0  0.19574952631E+03 -0.96855721548E+02 -0.50694228177E+03  0.55931601349E+03  0.90249753753E+02 0.  0.
          2    1    3    3  502    0  0.85539089874E+02 -0.81188376758E+02  0.11741667909E+03  0.16641864363E+03  0.00000000000E+00 0. -1.
         -1    1    3    3    0  502  0.42469538357E+02 -0.57168093418E+02  0.19085720695E+03  0.20371137926E+03  0.00000000000E+00 0.  1.
         13    1    5    5    0    0 -0.16338370799E+03  0.10993970357E+03  0.18658965545E+02  0.19781084767E+03  0.00000000000E+00 0. -1.
        -13    1    5    5    0    0 -0.16037444655E+03  0.12527248815E+03  0.11843467037E+03  0.23545685494E+03  0.00000000000E+00 0.  1.
          1    1    6    6  503    0  0.11995259176E+03 -0.40437330126E+02 -0.18779291195E+03  0.22647291166E+03  0.00000000000E+00 0. -1.
         -1    1    6    6    0  503  0.75796934550E+02 -0.56418391422E+02 -0.31914936981E+03  0.33284310182E+03  0.00000000000E+00 0.  1.
<mgrwt>
<rscale>  0 0.13613219E+04</rscale>
<asrwt>0</asrwt>
<pdfrwt beam="1">  1        2 0.10956065E+00 0.13613219E+04</pdfrwt>
<pdfrwt beam="2">  1       -1 0.10008761E+00 0.13613219E+04</pdfrwt>
<totfact> 0.42525324E+01</totfact>
</mgrwt>
</event>
<event>
12    7  0.1707730E-007  0.1286442E+04  0.7818608E-02  0.9040387E-01
          2   -1    0    0  501    0  0.00000000000E+00  0.00000000000E+00  0.11767758289E+04  0.11767758289E+04  0.00000000000E+00 0. -1.
         -1   -1    0    0    0  501 -0.00000000000E+00 -0.00000000000E+00 -0.35158191762E+03  0.35158191762E+03  0.00000000000E+00 0.  1.
         24    2    1    2    0    0 -0.24248910457E+03  0.55091401827E+02 -0.39908756004E+02  0.26419768200E+03  0.79822791101E+02 0.  0.
        254    2    1    2    0    0  0.24248910457E+03 -0.55091401827E+02  0.86510266729E+03  0.12641600645E+04  0.88761591660E+03 0.  0.
         23    2    4    4    0    0 -0.28935190947E+03  0.13441136461E+02  0.56719737030E+03  0.64376705918E+03  0.93904089018E+02 0.  0.
         23    2    4    4    0    0  0.53184101404E+03 -0.68532538288E+02  0.29790529698E+03  0.62039300535E+03  0.92673308414E+02 0.  0.
          2    1    3    3  502    0 -0.14618217343E+03  0.45497739860E+02  0.13434488355E+02  0.15368720714E+03  0.00000000000E+00 0. -1.
         -1    1    3    3    0  502 -0.96306931142E+02  0.95936619662E+01 -0.53343244360E+02  0.11051047486E+03  0.00000000000E+00 0.  1.
         13    1    5    5    0    0 -0.15583741326E+03  0.43480165990E+02  0.36902787867E+03  0.40293597437E+03  0.00000000000E+00 0. -1.
        -13    1    5    5    0    0 -0.13351449621E+03 -0.30039029528E+02  0.19816949164E+03  0.24083108481E+03  0.00000000000E+00 0.  1.
          3    1    6    6  503    0  0.19560505232E+02 -0.18019537958E+02  0.29981562768E+02  0.40077565035E+02  0.00000000000E+00 0. -1.
         -3    1    6    6    0  503  0.51228050881E+03 -0.50513000330E+02  0.26792373422E+03  0.58031544031E+03  0.00000000000E+00 0.  1.
<mgrwt>
<rscale>  0 0.12864418E+04</rscale>
<asrwt>0</asrwt>
<pdfrwt beam="1">  1        2 0.18104243E+00 0.12864418E+04</pdfrwt>
<pdfrwt beam="2">  1       -1 0.54089527E-01 0.12864418E+04</pdfrwt>
<totfact> 0.75493505E+01</totfact>
</mgrwt>
</event>
<event>
12    7  0.1707730E-007  0.1559592E+04  0.7818608E-02  0.8845764E-01
         -1   -1    0    0    0  501 -0.00000000000E+00  0.00000000000E+00  0.10458911078E+04  0.10458911078E+04  0.00000000000E+00 0.  1.
          2   -1    0    0  501    0  0.00000000000E+00 -0.00000000000E+00 -0.58140042728E+03  0.58140042728E+03  0.00000000000E+00 0. -1.
         24    2    1    2    0    0 -0.14898381432E+03  0.19231727155E+03 -0.31788875295E+03  0.40821340987E+03  0.80017616040E+02 0.  0.
        254    2    1    2    0    0  0.14898381432E+03 -0.19231727155E+03  0.78237943349E+03  0.12190781252E+04  0.90269141328E+03 0.  0.
         23    2    4    4    0    0 -0.32955538069E+03 -0.27863798806E+03  0.37720028927E+03  0.58028325546E+03  0.90568874411E+02 0.  0.
         23    2    4    4    0    0  0.47853919500E+03  0.86320716509E+02  0.40517914422E+03  0.63879486978E+03  0.86242214083E+02 0.  0.
          4    1    3    3  502    0 -0.94278281598E+02  0.16117912255E+03 -0.19407927389E+03  0.26932112520E+03  0.00000000000E+00 0. -1.
         -3    1    3    3    0  502 -0.54705532719E+02  0.31138149000E+02 -0.12380947907E+03  0.13889228467E+03  0.00000000000E+00 0.  1.
         13    1    5    5    0    0 -0.62615627317E+02 -0.36013243137E+02  0.25834160210E+02  0.76714237917E+02  0.00000000000E+00 0. -1.
        -13    1    5    5    0    0 -0.26693975337E+03 -0.24262474492E+03  0.35136612906E+03  0.50356901754E+03  0.00000000000E+00 0.  1.
          2    1    6    6  503    0  0.86229677547E+02 -0.17451756987E+02  0.68092418645E+02  0.11125061163E+03  0.00000000000E+00 0. -1.
         -2    1    6    6    0  503  0.39230951746E+03  0.10377247350E+03  0.33708672558E+03  0.52754425815E+03  0.00000000000E+00 0.  1.
<mgrwt>
<rscale>  0 0.15595917E+04</rscale>
<asrwt>0</asrwt>
<pdfrwt beam="1">  1        2 0.89446220E-01 0.15595917E+04</pdfrwt>
<pdfrwt beam="2">  1       -1 0.16090632E+00 0.15595917E+04</pdfrwt>
<totfact> 0.16288585E+01</totfact>
</mgrwt>
</event>
<event>
12    7  0.1707730E-007  0.1941221E+04  0.7818608E-02  0.8634606E-01
         -1   -1    0    0    0  501 -0.00000000000E+00  0.00000000000E+00  0.72317213318E+03  0.72317213318E+03  0.00000000000E+00 0.  1.
          2   -1    0    0  501    0  0.00000000000E+00 -0.00000000000E+00 -0.13027121316E+04  0.13027121316E+04  0.00000000000E+00 0. -1.
         24    2    1    2    0    0  0.48867192576E+03 -0.58688575099E+03 -0.27805428498E+03  0.81642256410E+03  0.77436955182E+02 0.  0.
        254    2    1    2    0    0 -0.48867192576E+03  0.58688575099E+03 -0.30148571346E+03  0.12094617007E+04  0.88807028679E+03 0.  0.
         23    2    4    4    0    0 -0.30819312356E+01  0.37093310143E+03  0.23487396826E+03  0.44848662901E+03  0.91507439027E+02 0.  0.
         23    2    4    4    0    0 -0.48558999452E+03  0.21595264956E+03 -0.53635968172E+03  0.76097507169E+03  0.94700379710E+02 0.  0.
          4    1    3    3  502    0  0.26370679129E+03 -0.30154721284E+03 -0.18555547908E+03  0.44147800530E+03  0.00000000000E+00 0. -1.
         -3    1    3    3    0  502  0.22496513447E+03 -0.28533853815E+03 -0.92498805901E+02  0.37494455880E+03  0.00000000000E+00 0.  1.
         13    1    5    5    0    0 -0.43408675822E+02  0.24924572978E+03  0.14138979141E+03  0.28982549933E+03  0.00000000000E+00 0. -1.
        -13    1    5    5    0    0  0.40326744586E+02  0.12168737165E+03  0.93484176849E+02  0.15866112967E+03  0.00000000000E+00 0.  1.
          3    1    6    6  503    0 -0.43779785675E+03  0.20065230637E+03 -0.51864713434E+03  0.70775925383E+03  0.00000000000E+00 0. -1.
         -3    1    6    6    0  503 -0.47792137779E+02  0.15300343193E+02 -0.17712547377E+02  0.53215817854E+02  0.00000000000E+00 0.  1.
<mgrwt>
<rscale>  0 0.19412214E+04</rscale>
<asrwt>0</asrwt>
<pdfrwt beam="1">  1        2 0.20041725E+00 0.19412214E+04</pdfrwt>
<pdfrwt beam="2">  1       -1 0.11125725E+00 0.19412214E+04</pdfrwt>
<totfact> 0.13021129E+01</totfact>
</mgrwt>
</event>
<event>
12    7  0.1707730E-007  0.2291215E+04  0.7818608E-02  0.8481393E-01
          2   -1    0    0  501    0  0.00000000000E+00  0.00000000000E+00  0.23933967397E+04  0.23933967397E+04  0.00000000000E+00 0. -1.
         -1   -1    0    0    0  501 -0.00000000000E+00 -0.00000000000E+00 -0.54834892752E+03  0.54834892752E+03  0.00000000000E+00 0.  1.
         24    2    1    2    0    0 -0.92558611617E+03 -0.23647068842E+03  0.69886508166E+03  0.11863001090E+04  0.79167552281E+02 0.  0.
        254    2    1    2    0    0  0.92558611617E+03  0.23647068842E+03  0.11461827305E+04  0.17554455582E+04  0.92478441332E+03 0.  0.
         23    2    4    4    0    0  0.52707682959E+03  0.15614104246E+03  0.23480604681E+02  0.55792167168E+03  0.92386381546E+02 0.  0.
         23    2    4    4    0    0  0.39850928658E+03  0.80329645958E+02  0.11227021258E+04  0.11975238865E+04  0.91328483639E+02 0.  0.
          2    1    3    3  502    0 -0.59800706353E+03 -0.13350051865E+03  0.48829569726E+03  0.78349698434E+03  0.00000000000E+00 0. -1.
         -3    1    3    3    0  502 -0.32757905264E+03 -0.10297016977E+03  0.21056938439E+03  0.40280312466E+03  0.00000000000E+00 0.  1.
         13    1    5    5    0    0  0.17567710885E+03  0.19433728376E+02 -0.22085131032E+02  0.17812318599E+03  0.00000000000E+00 0. -1.
        -13    1    5    5    0    0  0.35139972074E+03  0.13670731409E+03  0.45565735713E+02  0.37979848569E+03  0.00000000000E+00 0.  1.
          4    1    6    6  503    0  0.28812546441E+02 -0.15938660311E+02  0.63406350321E+02  0.71446266424E+02  0.00000000000E+00 0.  1.
         -4    1    6    6    0  503  0.36969674014E+03  0.96268306269E+02  0.10592957755E+04  0.11260776201E+04  0.00000000000E+00 0. -1.
<mgrwt>
<rscale>  0 0.22912150E+04</rscale>
<asrwt>0</asrwt>
<pdfrwt beam="1">  1        2 0.36821488E+00 0.22912150E+04</pdfrwt>
<pdfrwt beam="2">  1       -1 0.84361374E-01 0.22912150E+04</pdfrwt>
<totfact> 0.57608575E+00</totfact>
</mgrwt>
</event>
<event>
12    7  0.1707730E-007  0.1537318E+04  0.7818608E-02  0.8860009E-01
          2   -1    0    0  501    0  0.00000000000E+00  0.00000000000E+00  0.12334656300E+04  0.12334656300E+04  0.00000000000E+00 0. -1.
         -1   -1    0    0    0  501 -0.00000000000E+00 -0.00000000000E+00 -0.47900551536E+03  0.47900551536E+03  0.00000000000E+00 0.  1.
         24    2    1    2    0    0  0.77423239107E+02  0.15810839006E+03  0.77065221911E+03  0.79458638582E+03  0.80436687863E+02 0.  0.
        254    2    1    2    0    0 -0.77423239107E+02 -0.15810839006E+03 -0.16192104502E+02  0.91788475950E+03  0.90069841041E+03 0.  0.
         23    2    4    4    0    0 -0.33911947792E+03  0.24488048272E+03  0.83670439873E+01  0.42795735312E+03  0.90050083513E+02 0.  0.
         23    2    4    4    0    0  0.26169623881E+03 -0.40298887278E+03 -0.24559148489E+02  0.48992740638E+03  0.92416225583E+02 0.  0.
          2    1    3    3  502    0  0.47401226454E+02  0.13287661271E+03  0.69709997635E+03  0.71123234425E+03  0.00000000000E+00 0. -1.
         -1    1    3    3    0  502  0.30022012653E+02  0.25231777350E+02  0.73552242752E+02  0.83354041569E+02  0.00000000000E+00 0.  1.
         13    1    5    5    0    0 -0.76251170545E+02  0.10258466226E+03 -0.11822405173E+02  0.12836519467E+03  0.00000000000E+00 0. -1.
        -13    1    5    5    0    0 -0.26286830738E+03  0.14229582047E+03  0.20189449160E+02  0.29959215845E+03  0.00000000000E+00 0.  1.
          1    1    6    6  503    0  0.69736482658E+02 -0.18423420361E+03  0.74797578377E+01  0.19713286274E+03  0.00000000000E+00 0. -1.
         -1    1    6    6    0  503  0.19195975616E+03 -0.21875466917E+03 -0.32038906327E+02  0.29279454364E+03  0.00000000000E+00 0.  1.
<mgrwt>
<rscale>  0 0.15373182E+04</rscale>
<asrwt>0</asrwt>
<pdfrwt beam="1">  1        2 0.18976394E+00 0.15373182E+04</pdfrwt>
<pdfrwt beam="2">  1       -1 0.73693157E-01 0.15373182E+04</pdfrwt>
<totfact> 0.36864385E+01</totfact>
</mgrwt>
</event>
<event>
12    7  0.1707730E-007  0.2403318E+04  0.7818608E-02  0.8438262E-01
          2   -1    0    0  501    0  0.00000000000E+00  0.00000000000E+00  0.12365103753E+04  0.12365103753E+04  0.00000000000E+00 0. -1.
         -1   -1    0    0    0  501 -0.00000000000E+00 -0.00000000000E+00 -0.11677897314E+04  0.11677897314E+04  0.00000000000E+00 0.  1.
         24    2    1    2    0    0  0.66253614944E+03  0.33933942152E+03 -0.68287364970E+03  0.10133178545E+04  0.79945359636E+02 0.  0.
        254    2    1    2    0    0 -0.66253614944E+03 -0.33933942152E+03  0.75159429361E+03  0.13909822522E+04  0.90323432804E+03 0.  0.
         23    2    4    4    0    0 -0.72816049748E+03 -0.19657454110E+03  0.16543532466E+03  0.77733178274E+03  0.89535431620E+02 0.  0.
         23    2    4    4    0    0  0.65624348038E+02 -0.14276488042E+03  0.58615896895E+03  0.61365046943E+03  0.91083454123E+02 0.  0.
          2    1    3    3  502    0  0.28471761252E+03  0.10197609520E+03 -0.28110011361E+03  0.41289286352E+03  0.00000000000E+00 0. -1.
         -1    1    3    3    0  502  0.37781853692E+03  0.23736332632E+03 -0.40177353609E+03  0.60042499101E+03  0.00000000000E+00 0.  1.
         13    1    5    5    0    0 -0.13116579287E+03 -0.44636502781E+02 -0.33785074963E+01  0.13859400028E+03  0.00000000000E+00 0. -1.
        -13    1    5    5    0    0 -0.59699470461E+03 -0.15193803831E+03  0.16881383216E+03  0.63873778246E+03  0.00000000000E+00 0.  1.
          3    1    6    6  503    0  0.37028724378E+02 -0.76669531566E+02  0.46478719212E+03  0.47252140423E+03  0.00000000000E+00 0. -1.
         -3    1    6    6    0  503  0.28595623660E+02 -0.66095348855E+02  0.12137177683E+03  0.14112906520E+03  0.00000000000E+00 0.  1.
<mgrwt>
<rscale>  0 0.24033178E+04</rscale>
<asrwt>0</asrwt>
<pdfrwt beam="1">  1        2 0.19023237E+00 0.24033178E+04</pdfrwt>
<pdfrwt beam="2">  1       -1 0.17965996E+00 0.24033178E+04</pdfrwt>
<totfact> 0.38632423E+00</totfact>
</mgrwt>
</event>
<event>
12    7  0.1707730E-007  0.2529085E+04  0.7818608E-02  0.8392696E-01
          2   -1    0    0  501    0  0.00000000000E+00  0.00000000000E+00  0.32461222203E+04  0.32461222203E+04  0.00000000000E+00 0. -1.
         -1   -1    0    0    0  501 -0.00000000000E+00 -0.00000000000E+00 -0.49260868836E+03  0.49260868836E+03  0.00000000000E+00 0.  1.
         24    2    1    2    0    0  0.20947225009E+03 -0.20419536979E+03  0.27826345020E+04  0.27990339369E+04  0.77212923773E+02 0.  0.
        254    2    1    2    0    0 -0.20947225009E+03  0.20419536979E+03 -0.29120970071E+02  0.93969697175E+03  0.89252898845E+03 0.  0.
         23    2    4    4    0    0 -0.91084154441E+01  0.29984350459E+03  0.36329054759E+03  0.47935434597E+03  0.88382557989E+02 0.  0.
         23    2    4    4    0    0 -0.20036383464E+03 -0.95648134795E+02 -0.39241151766E+03  0.46034262578E+03  0.92920944895E+02 0.  0.
          4    1    3    3  502    0  0.28894972380E+02 -0.65169751959E+02  0.85726891905E+03  0.86022788584E+03  0.00000000000E+00 0. -1.
         -3    1    3    3    0  502  0.18057727771E+03 -0.13902561784E+03  0.19253655829E+04  0.19388060510E+04  0.00000000000E+00 0.  1.
         13    1    5    5    0    0 -0.46662048739E+02  0.13010994773E+03  0.14544523704E+03  0.20064960072E+03  0.00000000000E+00 0.  1.
        -13    1    5    5    0    0  0.37553633295E+02  0.16973355686E+03  0.21784531055E+03  0.27870474525E+03  0.00000000000E+00 0. -1.
          1    1    6    6  503    0 -0.86138783059E+02 -0.56274509595E+02 -0.26728381411E+03  0.28640416837E+03  0.00000000000E+00 0. -1.
         -1    1    6    6    0  503 -0.11422505159E+03 -0.39373625200E+02 -0.12512770355E+03  0.17393845741E+03  0.00000000000E+00 0.  1.
<mgrwt>
<rscale>  0 0.25290852E+04</rscale>
<asrwt>0</asrwt>
<pdfrwt beam="1">  1        2 0.49940340E+00 0.25290852E+04</pdfrwt>
<pdfrwt beam="2">  1       -1 0.75785954E-01 0.25290852E+04</pdfrwt>
<totfact> 0.21415634E+00</totfact>
</mgrwt>
</event>
<event>
12    7  0.1707730E-007  0.1348410E+04  0.7818608E-02  0.8992032E-01
         -1   -1    0    0    0  501 -0.00000000000E+00  0.00000000000E+00  0.22784312717E+03  0.22784312717E+03  0.00000000000E+00 0.  1.
          2   -1    0    0  501    0  0.00000000000E+00 -0.00000000000E+00 -0.19950245851E+04  0.19950245851E+04  0.00000000000E+00 0. -1.
         24    2    1    2    0    0  0.19679566050E+03 -0.29609193764E+03 -0.70051687943E+03  0.78959130963E+03  0.79571165300E+02 0.  0.
        254    2    1    2    0    0 -0.19679566050E+03  0.29609193764E+03 -0.10666645785E+04  0.14332764026E+04  0.88888073204E+03 0.  0.
         23    2    4    4    0    0 -0.33914316475E+03  0.13589258949E+03 -0.11309541265E+04  0.11919701559E+04  0.90833551506E+02 0.  0.
         23    2    4    4    0    0  0.14234750425E+03  0.16019934815E+03  0.64289548052E+02  0.24130624675E+03  0.90382053645E+02 0.  0.
          2    1    3    3  502    0  0.16649522903E+03 -0.21532011501E+03 -0.58682367106E+03  0.64687358436E+03  0.00000000000E+00 0. -1.
         -1    1    3    3    0  502  0.30300431478E+02 -0.80771822629E+02 -0.11369320836E+03  0.14271772527E+03  0.00000000000E+00 0.  1.
         13    1    5    5    0    0 -0.87756573810E+02  0.80378726698E+02 -0.36463125629E+03  0.38355952473E+03  0.00000000000E+00 0. -1.
        -13    1    5    5    0    0 -0.25138659094E+03  0.55513862796E+02 -0.76632287024E+03  0.80841063113E+03  0.00000000000E+00 0.  1.
          3    1    6    6  503    0  0.23458923783E+02  0.22725859259E+02 -0.22734837850E+02  0.39795208709E+02  0.00000000000E+00 0.  1.
         -3    1    6    6    0  503  0.11888858046E+03  0.13747348889E+03  0.87024385902E+02  0.20151103804E+03  0.00000000000E+00 0. -1.
<mgrwt>
<rscale>  0 0.13484104E+04</rscale>
<asrwt>0</asrwt>
<pdfrwt beam="1">  1        2 0.30692685E+00 0.13484104E+04</pdfrwt>
<pdfrwt beam="2">  1       -1 0.35052789E-01 0.13484104E+04</pdfrwt>
<totfact> 0.57947161E+01</totfact>
</mgrwt>
</event>
<event>
12    7  0.1707730E-007  0.1790095E+04  0.7818608E-02  0.8711584E-01
         -1   -1    0    0    0  501 -0.00000000000E+00  0.00000000000E+00  0.20090933859E+03  0.20090933859E+03  0.00000000000E+00 0.  1.
          2   -1    0    0  501    0  0.00000000000E+00 -0.00000000000E+00 -0.39874227694E+04  0.39874227694E+04  0.00000000000E+00 0. -1.
         24    2    1    2    0    0 -0.19891880180E+03  0.20928372709E+03 -0.28249575647E+04  0.28407258162E+04  0.77262877473E+02 0.  0.
        254    2    1    2    0    0  0.19891880180E+03 -0.20928372709E+03 -0.96155586612E+03  0.13476062918E+04  0.89893529575E+03 0.  0.
         23    2    4    4    0    0 -0.16444433018E+03  0.27010261112E+03 -0.26229128011E+03  0.42086362408E+03  0.91280426080E+02 0.  0.
         23    2    4    4    0    0  0.36336313198E+03 -0.47938633821E+03 -0.69926458601E+03  0.92674266775E+03  0.89649227703E+02 0.  0.
          2    1    3    3  502    0 -0.78640568348E+02  0.13844395965E+03 -0.14713895282E+04  0.14799791257E+04  0.00000000000E+00 0. -1.
         -1    1    3    3    0  502 -0.12027823345E+03  0.70839767439E+02 -0.13535680365E+04  0.13607466904E+04  0.00000000000E+00 0.  1.
         13    1    5    5    0    0 -0.16648717654E+03  0.24994100820E+03 -0.21478846588E+03  0.36921886816E+03  0.00000000000E+00 0. -1.
        -13    1    5    5    0    0  0.20428463577E+01  0.20161602927E+02 -0.47502814236E+02  0.51644755921E+02  0.00000000000E+00 0.  1.
          1    1    6    6  503    0  0.81623342310E+02 -0.17606917892E+03 -0.23218824168E+03  0.30261213682E+03  0.00000000000E+00 0. -1.
         -1    1    6    6    0  503  0.28173978967E+03 -0.30331715929E+03 -0.46707634433E+03  0.62413053093E+03  0.00000000000E+00 0.  1.
<mgrwt>
<rscale>  0 0.17900955E+04</rscale>
<asrwt>0</asrwt>
<pdfrwt beam="1">  1        2 0.61344966E+00 0.17900955E+04</pdfrwt>
<pdfrwt beam="2">  1       -1 0.30909129E-01 0.17900955E+04</pdfrwt>
<totfact> 0.37010234E+00</totfact>
</mgrwt>
</event>
<event>
12    7  0.1707730E-007  0.1642040E+04  0.7818608E-02  0.8795130E-01
          2   -1    0    0  501    0  0.00000000000E+00  0.00000000000E+00  0.12200869822E+04  0.12200869822E+04  0.00000000000E+00 0. -1.
         -1   -1    0    0    0  501 -0.00000000000E+00 -0.00000000000E+00 -0.55247988201E+03  0.55247988201E+03  0.00000000000E+00 0.  1.
         24    2    1    2    0    0  0.29334601495E+02 -0.43168880640E+03 -0.16548069097E+03  0.47010035469E+03  0.79967118096E+02 0.  0.
        254    2    1    2    0    0 -0.29334601495E+02  0.43168880640E+03  0.83308779116E+03  0.13024665095E+04  0.90286654398E+03 0.  0.
         23    2    4    4    0    0  0.28560930302E+03  0.24024808916E+03 -0.21854696951E+01  0.38448219737E+03  0.92357812331E+02 0.  0.
         23    2    4    4    0    0 -0.31494390452E+03  0.19144071724E+03  0.83527326085E+03  0.91798431216E+03  0.95783954073E+02 0.  0.
          2    1    3    3  502    0  0.35418412497E+01 -0.73766344171E+02 -0.62546448170E+02  0.96778491156E+02  0.00000000000E+00 0. -1.
         -1    1    3    3    0  502  0.25792760246E+02 -0.35792246223E+03 -0.10293424280E+03  0.37332186353E+03  0.00000000000E+00 0.  1.
         13    1    5    5    0    0  0.16879338345E+03  0.13247941274E+03 -0.46356344116E+02  0.21952428507E+03  0.00000000000E+00 0. -1.
        -13    1    5    5    0    0  0.11681591958E+03  0.10776867642E+03  0.44170874421E+02  0.16495791230E+03  0.00000000000E+00 0.  1.
          2    1    6    6  503    0 -0.28913858257E+03  0.18314834409E+03  0.81556419350E+03  0.88447124860E+03  0.00000000000E+00 0. -1.
         -2    1    6    6    0  503 -0.25805321946E+02  0.82923731494E+01  0.19709067353E+02  0.33513063559E+02  0.00000000000E+00 0.  1.
<mgrwt>
<rscale>  0 0.16420396E+04</rscale>
<asrwt>0</asrwt>
<pdfrwt beam="1">  1        2 0.18770569E+00 0.16420396E+04</pdfrwt>
<pdfrwt beam="2">  1       -1 0.84996905E-01 0.16420396E+04</pdfrwt>
<totfact> 0.27497778E+01</totfact>
</mgrwt>
</event>
<event>
12    7  0.1707730E-007  0.2566105E+04  0.7818608E-02  0.8379806E-01
         -1   -1    0    0    0  501 -0.00000000000E+00  0.00000000000E+00  0.96213506168E+03  0.96213506168E+03  0.00000000000E+00 0.  1.
          2   -1    0    0  501    0  0.00000000000E+00 -0.00000000000E+00 -0.17110116580E+04  0.17110116580E+04  0.00000000000E+00 0. -1.
         24    2    1    2    0    0  0.28181132856E+03  0.53531746085E+03  0.65709684342E+03  0.89669809354E+03  0.79427958161E+02 0.  0.
        254    2    1    2    0    0 -0.28181132856E+03 -0.53531746085E+03 -0.14059734398E+04  0.17764486262E+04  0.90167954359E+03 0.  0.
         23    2    4    4    0    0 -0.31248453442E+02  0.20418830446E+03 -0.64005883607E+03  0.67875901967E+03  0.91483133043E+02 0.  0.
         23    2    4    4    0    0 -0.25056287511E+03 -0.73950576531E+03 -0.76591460371E+03  0.10976896065E+04  0.92987960357E+02 0.  0.
          2    1    3    3  502    0  0.25646053248E+03  0.45785746649E+03  0.53111986773E+03  0.74665505974E+03  0.00000000000E+00 0. -1.
         -3    1    3    3    0  502  0.25350796072E+02  0.77459994358E+02  0.12597697569E+03  0.15004303380E+03  0.00000000000E+00 0.  1.
         13    1    5    5    0    0 -0.46474165502E+02  0.13807882427E+03 -0.32021903513E+03  0.35180369559E+03  0.00000000000E+00 0.  1.
        -13    1    5    5    0    0  0.15225712060E+02  0.66109480188E+02 -0.31983980094E+03  0.32695532408E+03  0.00000000000E+00 0. -1.
          1    1    6    6  503    0 -0.21719435610E+02 -0.57237565721E+02 -0.29184325123E+02  0.67820333572E+02  0.00000000000E+00 0. -1.
         -1    1    6    6    0  503 -0.22884343950E+03 -0.68226819959E+03 -0.73673027858E+03  0.10298692729E+04  0.00000000000E+00 0.  1.
<mgrwt>
<rscale>  0 0.25661055E+04</rscale>
<asrwt>0</asrwt>
<pdfrwt beam="1">  1        2 0.26323256E+00 0.25661055E+04</pdfrwt>
<pdfrwt beam="2">  1       -1 0.14802078E+00 0.25661055E+04</pdfrwt>
<totfact> 0.35309816E+00</totfact>
</mgrwt>
</event>
<event>
12    7  0.1707730E-007  0.1694637E+04  0.7818608E-02  0.8764429E-01
         -1   -1    0    0    0  501 -0.00000000000E+00  0.00000000000E+00  0.94779506826E+03  0.94779506826E+03  0.00000000000E+00 0.  1.
          2   -1    0    0  501    0  0.00000000000E+00 -0.00000000000E+00 -0.75749393270E+03  0.75749393270E+03  0.00000000000E+00 0. -1.
         24    2    1    2    0    0  0.86282580073E+02  0.25183361495E+03 -0.49030598476E+03  0.56422979860E+03  0.84204831784E+02 0.  0.
        254    2    1    2    0    0 -0.86282580073E+02 -0.25183361495E+03  0.68060712031E+03  0.11410592024E+04  0.87631341302E+03 0.  0.
         23    2    4    4    0    0  0.17999470422E+03 -0.47848114718E+03  0.54857948339E+03  0.75604100264E+03  0.96520704149E+02 0.  0.
         23    2    4    4    0    0 -0.26627728430E+03  0.22664753223E+03  0.13202763692E+03  0.38501819972E+03  0.92385178503E+02 0.  0.
          4    1    3    3  502    0  0.26041266888E+02  0.13558787617E+03 -0.17561887978E+03  0.22339250364E+03  0.00000000000E+00 0. -1.
         -3    1    3    3    0  502  0.60241313185E+02  0.11624573877E+03 -0.31468710497E+03  0.34083729496E+03  0.00000000000E+00 0.  1.
         13    1    5    5    0    0  0.10817786526E+02 -0.14054788641E+03  0.12528427996E+03  0.18859184416E+03  0.00000000000E+00 0.  1.
        -13    1    5    5    0    0  0.16917691770E+03 -0.33793326077E+03  0.42329520343E+03  0.56744915848E+03  0.00000000000E+00 0. -1.
          1    1    6    6  503    0 -0.18857412292E+03  0.10167517806E+03  0.85635157800E+02  0.23071935749E+03  0.00000000000E+00 0. -1.
         -1    1    6    6    0  503 -0.77703161374E+02  0.12497235417E+03  0.46392479120E+02  0.15429884223E+03  0.00000000000E+00 0.  1.
<mgrwt>
<rscale>  0 0.16946374E+04</rscale>
<asrwt>0</asrwt>
<pdfrwt beam="1">  1        2 0.11653753E+00 0.16946374E+04</pdfrwt>
<pdfrwt beam="2">  1       -1 0.14581463E+00 0.16946374E+04</pdfrwt>
<totfact> 0.15146509E+01</totfact>
</mgrwt>
</event>
<event>
12    7  0.1707730E-007  0.2513066E+04  0.7818608E-02  0.8398345E-01
         -1   -1    0    0    0  501 -0.00000000000E+00  0.00000000000E+00  0.51021779489E+03  0.51021779489E+03  0.00000000000E+00 0.  1.
          2   -1    0    0  501    0  0.00000000000E+00 -0.00000000000E+00 -0.30945124448E+04  0.30945124448E+04  0.00000000000E+00 0. -1.
         24    2    1    2    0    0  0.86402100523E+03 -0.48788053769E+03 -0.48178911174E+03  0.11050255779E+04  0.66340507891E+02 0.  0.
        254    2    1    2    0    0 -0.86402100523E+03  0.48788053769E+03 -0.21025055382E+04  0.24997046618E+04  0.91838670603E+03 0.  0.
         23    2    4    4    0    0 -0.77882386593E+02 -0.13051877520E+03 -0.96972011048E+03  0.98581868527E+03  0.91545457230E+02 0.  0.
         23    2    4    4    0    0 -0.78613861864E+03  0.61839931289E+03 -0.11327854277E+04  0.15138859765E+04  0.90643736350E+02 0.  0.
          4    1    3    3  502    0  0.24685477407E+02 -0.22265543561E+02 -0.61605662447E+01  0.33809463192E+02  0.00000000000E+00 0. -1.
         -3    1    3    3    0  502  0.83933552783E+03 -0.46561499413E+03 -0.47562854550E+03  0.10712161147E+04  0.00000000000E+00 0.  1.
         13    1    5    5    0    0 -0.10672726015E+02 -0.66333265824E+02 -0.63145749246E+03  0.63502171146E+03  0.00000000000E+00 0. -1.
        -13    1    5    5    0    0 -0.67209660578E+02 -0.64185509374E+02 -0.33826261802E+03  0.35079697382E+03  0.00000000000E+00 0.  1.
          3    1    6    6  503    0 -0.12347471651E+03  0.92752236629E+02 -0.22732243659E+03  0.27481716321E+03  0.00000000000E+00 0. -1.
         -3    1    6    6    0  503 -0.66266390213E+03  0.52564707626E+03 -0.90546299108E+03  0.12390688133E+04  0.00000000000E+00 0.  1.
<mgrwt>
<rscale>  0 0.25130661E+04</rscale>
<asrwt>0</asrwt>
<pdfrwt beam="1">  1        2 0.47607884E+00 0.25130661E+04</pdfrwt>
<pdfrwt beam="2">  1       -1 0.78495045E-01 0.25130661E+04</pdfrwt>
<totfact> 0.24971015E+00</totfact>
</mgrwt>
</event>
<event>
12    7  0.1707730E-007  0.1817408E+04  0.7818608E-02  0.8697096E-01
         -1   -1    0    0    0  501 -0.00000000000E+00  0.00000000000E+00  0.38437698954E+03  0.38437698954E+03  0.00000000000E+00 0.  1.
          2   -1    0    0  501    0  0.00000000000E+00 -0.00000000000E+00 -0.21482634383E+04  0.21482634383E+04  0.00000000000E+00 0. -1.
         24    2    1    2    0    0 -0.26023650077E+03 -0.37673574976E+03 -0.13322375977E+04  0.14107197960E+04  0.74969758618E+02 0.  0.
        254    2    1    2    0    0  0.26023650077E+03  0.37673574976E+03 -0.43164885106E+03  0.11219206318E+04  0.92883384518E+03 0.  0.
         23    2    4    4    0    0  0.22608797149E+02  0.37751321259E+03  0.20263262929E+03  0.43851987893E+03  0.90621842692E+02 0.  0.
         23    2    4    4    0    0  0.23762770362E+03 -0.77746283152E+00 -0.63428148035E+03  0.68340075286E+03  0.90862878690E+02 0.  0.
          2    1    3    3  502    0 -0.16583391493E+03 -0.29676884440E+03 -0.99866551001E+03  0.10549433327E+04  0.00000000000E+00 0. -1.
         -1    1    3    3    0  502 -0.94402585844E+02 -0.79966905362E+02 -0.33357208765E+03  0.35577646328E+03  0.00000000000E+00 0.  1.
         13    1    5    5    0    0 -0.11187749352E+02  0.29090130418E+03  0.18187138849E+03  0.34325782796E+03  0.00000000000E+00 0. -1.
        -13    1    5    5    0    0  0.33796546502E+02  0.86611908415E+02  0.20761240805E+02  0.95262050967E+02  0.00000000000E+00 0.  1.
          2    1    6    6  503    0  0.91755829127E+02  0.20549777139E+02 -0.35922993944E+03  0.37133216250E+03  0.00000000000E+00 0. -1.
         -2    1    6    6    0  503  0.14587187450E+03 -0.21327239971E+02 -0.27505154091E+03  0.31206859037E+03  0.00000000000E+00 0.  1.
<mgrwt>
<rscale>  0 0.18174081E+04</rscale>
<asrwt>0</asrwt>
<pdfrwt beam="1">  1        2 0.33050206E+00 0.18174081E+04</pdfrwt>
<pdfrwt beam="2">  1       -1 0.59134922E-01 0.18174081E+04</pdfrwt>
<totfact> 0.17184492E+01</totfact>
</mgrwt>
</event>
<event>
12    7  0.1707730E-007  0.2697524E+04  0.7818608E-02  0.8335809E-01
         -1   -1    0    0    0  501 -0.00000000000E+00  0.00000000000E+00  0.44522441039E+03  0.44522441039E+03  0.00000000000E+00 0.  1.
          2   -1    0    0  501    0  0.00000000000E+00 -0.00000000000E+00 -0.40859381781E+04  0.40859381781E+04  0.00000000000E+00 0. -1.
         24    2    1    2    0    0  0.24049064866E+03  0.40707736159E+03 -0.34603926065E+04  0.34934576692E+04  0.79885948676E+02 0.  0.
        254    2    1    2    0    0 -0.24049064866E+03 -0.40707736159E+03 -0.18032116120E+03  0.10377049193E+04  0.90596249809E+03 0.  0.
         23    2    4    4    0    0 -0.74392341199E+02  0.27873556325E+03 -0.11607613223E+03  0.32333990756E+03  0.88584946240E+02 0.  0.
         23    2    4    4    0    0 -0.16609830746E+03 -0.68581292483E+03 -0.64245028973E+02  0.71436501173E+03  0.90895162857E+02 0.  0.
          2    1    3    3  502    0  0.17056162831E+03  0.34723633856E+03 -0.28619394333E+04  0.28879684319E+04  0.00000000000E+00 0. -1.
         -1    1    3    3    0  502  0.69929020350E+02  0.59841023025E+02 -0.59845317320E+03  0.60548923726E+03  0.00000000000E+00 0.  1.
         13    1    5    5    0    0 -0.37643609498E+02  0.38263480450E+02 -0.44614867727E+02  0.69797003478E+02  0.00000000000E+00 0.  1.
        -13    1    5    5    0    0 -0.36748731701E+02  0.24047208280E+03 -0.71461264499E+02  0.25354290408E+03  0.00000000000E+00 0. -1.
          1    1    6    6  503    0 -0.13458182804E+03 -0.63341807568E+03 -0.76324120062E+02  0.65203995149E+03  0.00000000000E+00 0. -1.
         -1    1    6    6    0  503 -0.31516479416E+02 -0.52394849156E+02  0.12079091089E+02  0.62325060244E+02  0.00000000000E+00 0.  1.
<mgrwt>
<rscale>  0 0.26975244E+04</rscale>
<asrwt>0</asrwt>
<pdfrwt beam="1">  1        2 0.62860590E+00 0.26975244E+04</pdfrwt>
<pdfrwt beam="2">  1       -1 0.68496060E-01 0.26975244E+04</pdfrwt>
<totfact> 0.62678231E-01</totfact>
</mgrwt>
</event>
<event>
12    7  0.1707730E-007  0.1104491E+04  0.7818608E-02  0.9200826E-01
         -3   -1    0    0    0  501 -0.00000000000E+00  0.00000000000E+00  0.13778122271E+03  0.13778122271E+03  0.00000000000E+00 0.  1.
          2   -1    0    0  501    0  0.00000000000E+00 -0.00000000000E+00 -0.22134722158E+04  0.22134722158E+04  0.00000000000E+00 0. -1.
         24    2    1    2    0    0  0.34811961964E+02 -0.77609080467E+02 -0.39206292107E+02  0.11426493792E+03  0.65454569204E+02 0.  0.
        254    2    1    2    0    0 -0.34811961964E+02  0.77609080467E+02 -0.20364847010E+04  0.22369885006E+04  0.92174430963E+03 0.  0.
         23    2    4    4    0    0 -0.37547141406E+03  0.31604387256E+03 -0.11109525514E+04  0.12179349251E+04  0.91035148253E+02 0.  0.
         23    2    4    4    0    0  0.34065945210E+03 -0.23843479209E+03 -0.92553214955E+03  0.10190535754E+04  0.94659481086E+02 0.  0.
          2    1    3    3  502    0  0.84868251197E+01 -0.71247698192E+02 -0.47370789702E+02  0.85978208956E+02  0.00000000000E+00 0. -1.
         -1    1    3    3    0  502  0.26325136844E+02 -0.63613822746E+01  0.81644975951E+01  0.28286728961E+02  0.00000000000E+00 0.  1.
         13    1    5    5    0    0 -0.17551765393E+01  0.31733563373E+01 -0.52852551894E+02  0.52976816409E+02  0.00000000000E+00 0.  1.
        -13    1    5    5    0    0 -0.37371623752E+03  0.31287051622E+03 -0.10580999995E+04  0.11649581087E+04  0.00000000000E+00 0. -1.
          3    1    6    6  503    0  0.10946787302E+03 -0.13303813821E+03 -0.38386303816E+03  0.42075312656E+03  0.00000000000E+00 0.  1.
         -3    1    6    6    0  503  0.23119157907E+03 -0.10539665388E+03 -0.54166911139E+03  0.59830044887E+03  0.00000000000E+00 0. -1.
<mgrwt>
<rscale>  0 0.11044907E+04</rscale>
<asrwt>0</asrwt>
<pdfrwt beam="1">  1        2 0.34053419E+00 0.11044907E+04</pdfrwt>
<pdfrwt beam="2">  1       -3 0.21197111E-01 0.11044907E+04</pdfrwt>
<totfact> 0.67983912E+01</totfact>
</mgrwt>
</event>
<event>
12    7  0.1707730E-007  0.1810466E+04  0.7818608E-02  0.8700754E-01
         -1   -1    0    0    0  501 -0.00000000000E+00  0.00000000000E+00  0.46870932417E+03  0.46870932417E+03  0.00000000000E+00 0.  1.
          2   -1    0    0  501    0  0.00000000000E+00 -0.00000000000E+00 -0.17483039443E+04  0.17483039443E+04  0.00000000000E+00 0. -1.
         24    2    1    2    0    0  0.44051899067E+03  0.22490810706E+03 -0.10680299865E+04  0.11796604577E+04  0.79183997858E+02 0.  0.
        254    2    1    2    0    0 -0.44051899067E+03 -0.22490810706E+03 -0.21156463359E+03  0.10373528108E+04  0.88696145467E+03 0.  0.
         23    2    4    4    0    0 -0.31005821021E+03  0.23507210092E+03  0.15458780625E+03  0.42843887968E+03  0.90925779802E+02 0.  0.
         23    2    4    4    0    0 -0.13046078046E+03 -0.45998020798E+03 -0.36615243984E+03  0.60891393109E+03  0.90037543875E+02 0.  0.
          4    1    3    3  502    0  0.42184427990E+03  0.22850720184E+03 -0.10444492754E+04  0.11493660978E+04  0.00000000000E+00 0. -1.
         -3    1    3    3    0  502  0.18674710771E+02 -0.35990947830E+01 -0.23580711099E+02  0.30294359897E+02  0.00000000000E+00 0.  1.
         13    1    5    5    0    0 -0.12564502624E+03  0.10053942330E+03  0.11244072837E+03  0.19631038091E+03  0.00000000000E+00 0.  1.
        -13    1    5    5    0    0 -0.18441318397E+03  0.13453267762E+03  0.42147077883E+02  0.23212849878E+03  0.00000000000E+00 0. -1.
          3    1    6    6  503    0 -0.71754833907E+02 -0.15268973925E+03 -0.87936114768E+02  0.19025160431E+03  0.00000000000E+00 0. -1.
         -3    1    6    6    0  503 -0.58705946553E+02 -0.30729046873E+03 -0.27821632507E+03  0.41866232678E+03  0.00000000000E+00 0.  1.
<mgrwt>
<rscale>  0 0.18104655E+04</rscale>
<asrwt>0</asrwt>
<pdfrwt beam="1">  1        2 0.26896984E+00 0.18104655E+04</pdfrwt>
<pdfrwt beam="2">  1       -1 0.72109127E-01 0.18104655E+04</pdfrwt>
<totfact> 0.19219391E+01</totfact>
</mgrwt>
</event>
<event>
12    7  0.2295409E-007  0.2220235E+04  0.7818608E-02  0.8510053E-01
          2   -1    0    0  501    0  0.00000000000E+00  0.00000000000E+00  0.99279079026E+03  0.99279079026E+03  0.00000000000E+00 0. -1.
         -1   -1    0    0    0  501 -0.00000000000E+00 -0.00000000000E+00 -0.12413092863E+04  0.12413092863E+04  0.00000000000E+00 0.  1.
         24    2    1    2    0    0  0.31774784461E+03 -0.79327844545E+03  0.87870198084E+02  0.86283811075E+03  0.80709657885E+02 0.  0.
        254    2    1    2    0    0 -0.31774784461E+03  0.79327844545E+03 -0.33638869415E+03  0.13712619658E+04  0.10183062607E+04 0.  0.
         23    2    4    4    0    0 -0.34339303071E+03  0.26621724761E+03  0.30294696672E+03  0.53707387064E+03  0.88775455001E+02 0.  0.
         23    2    4    4    0    0  0.25645186103E+02  0.52706119784E+03 -0.63933566088E+03  0.83418809520E+03  0.93104828343E+02 0.  0.
          2    1    3    3  502    0  0.31265458944E+03 -0.79038554853E+03  0.81028134604E+02  0.85383122819E+03  0.00000000000E+00 0. -1.
         -1    1    3    3    0  502  0.50932551707E+01 -0.28928969166E+01  0.68420634800E+01  0.90068825610E+01  0.00000000000E+00 0.  1.
         13    1    5    5    0    0 -0.66987509569E+01  0.27370449757E+02  0.34981740259E+02  0.44919226795E+02  0.00000000000E+00 0. -1.
        -13    1    5    5    0    0 -0.33669427975E+03  0.23884679785E+03  0.26796522646E+03  0.49215464384E+03  0.00000000000E+00 0.  1.
          3    1    6    6  503    0 -0.18772275441E+02  0.38471650423E+03 -0.43165299103E+03  0.57851835892E+03  0.00000000000E+00 0. -1.
         -3    1    6    6    0  503  0.44417461544E+02  0.14234469361E+03 -0.20768266985E+03  0.25566973627E+03  0.00000000000E+00 0.  1.
<mgrwt>
<rscale>  0 0.22202346E+04</rscale>
<asrwt>0</asrwt>
<pdfrwt beam="1">  1        2 0.15273705E+00 0.22202346E+04</pdfrwt>
<pdfrwt beam="2">  1       -1 0.19097066E+00 0.22202346E+04</pdfrwt>
<totfact> 0.46087267E+00</totfact>
</mgrwt>
</event>
<event>
12    7  0.1707730E-007  0.1600012E+04  0.7818608E-02  0.8820541E-01
          2   -1    0    0  501    0  0.00000000000E+00  0.00000000000E+00  0.16789521741E+04  0.16789521741E+04  0.00000000000E+00 0. -1.
         -1   -1    0    0    0  501 -0.00000000000E+00 -0.00000000000E+00 -0.38119567862E+03  0.38119567862E+03  0.00000000000E+00 0.  1.
         24    2    1    2    0    0 -0.32181774579E+02 -0.54316392354E+03  0.41906873316E+03  0.69144384607E+03  0.80082923907E+02 0.  0.
        254    2    1    2    0    0  0.32181774579E+02  0.54316392354E+03  0.87868776233E+03  0.13687040067E+04  0.89732700826E+03 0.  0.
         23    2    4    4    0    0 -0.36763088735E+03  0.10288885061E+03  0.13903446703E+03  0.41521264034E+03  0.85629251803E+02 0.  0.
         23    2    4    4    0    0  0.39981266193E+03  0.44027507293E+03  0.73965329530E+03  0.95349136632E+03  0.91468485921E+02 0.  0.
          4    1    3    3  502    0 -0.93879770115E+01 -0.15349744504E+03  0.74927821583E+02  0.17106658994E+03  0.00000000000E+00 0. -1.
         -1    1    3    3    0  502 -0.22793797568E+02 -0.38966647850E+03  0.34414091158E+03  0.52037725613E+03  0.00000000000E+00 0.  1.
         13    1    5    5    0    0 -0.33874160557E+03  0.95292866109E+02  0.99547197831E+02  0.36569967224E+03  0.00000000000E+00 0. -1.
        -13    1    5    5    0    0 -0.28889281780E+02  0.75959844974E+01  0.39487269196E+02  0.49512968107E+02  0.00000000000E+00 0.  1.
          3    1    6    6  503    0  0.13615760751E+03  0.13540881676E+03  0.30762335471E+03  0.36263834616E+03  0.00000000000E+00 0. -1.
         -3    1    6    6    0  503  0.26365505442E+03  0.30486625617E+03  0.43202994058E+03  0.59085302016E+03  0.00000000000E+00 0.  1.
<mgrwt>
<rscale>  0 0.16000116E+04</rscale>
<asrwt>0</asrwt>
<pdfrwt beam="1">  1        2 0.25830033E+00 0.16000116E+04</pdfrwt>
<pdfrwt beam="2">  1       -1 0.58645490E-01 0.16000116E+04</pdfrwt>
<totfact> 0.32431244E+01</totfact>
</mgrwt>
</event>
<event>
12    7  0.1707730E-007  0.1396079E+04  0.7818608E-02  0.8956661E-01
         -1   -1    0    0    0  501 -0.00000000000E+00  0.00000000000E+00  0.99116824242E+03  0.99116824242E+03  0.00000000000E+00 0.  1.
          2   -1    0    0  501    0  0.00000000000E+00 -0.00000000000E+00 -0.49160117782E+03  0.49160117782E+03  0.00000000000E+00 0. -1.
         24    2    1    2    0    0 -0.12741175967E+03  0.32778084657E+03  0.40017012733E+03  0.53917650359E+03  0.83073048200E+02 0.  0.
        254    2    1    2    0    0  0.12741175967E+03 -0.32778084657E+03  0.99396937267E+02  0.94359291665E+03  0.86995045913E+03 0.  0.
         23    2    4    4    0    0  0.14771737953E+03 -0.61305348596E+03  0.59039508041E+02  0.63972580459E+03  0.90046880455E+02 0.  0.
         23    2    4    4    0    0 -0.20305619864E+02  0.28527263939E+03  0.40357429226E+02  0.30386711206E+03  0.94412407635E+02 0.  0.
          2    1    3    3  502    0 -0.10844773137E+03  0.19690136176E+03  0.21056677286E+03  0.30800880269E+03  0.00000000000E+00 0. -1.
         -1    1    3    3    0  502 -0.18964028298E+02  0.13087948481E+03  0.18960335447E+03  0.23116770090E+03  0.00000000000E+00 0.  1.
         13    1    5    5    0    0  0.24051823714E+02 -0.40662823381E+02  0.24230210139E+02  0.53094806834E+02  0.00000000000E+00 0. -1.
        -13    1    5    5    0    0  0.12366555582E+03 -0.57239066258E+03  0.34809297902E+02  0.58663099776E+03  0.00000000000E+00 0.  1.
          3    1    6    6  503    0 -0.20036757146E+02  0.77446861928E+02  0.52501840438E+02  0.95686630774E+02  0.00000000000E+00 0. -1.
         -3    1    6    6    0  503 -0.26886271769E+00  0.20782577746E+03 -0.12144411213E+02  0.20818048129E+03  0.00000000000E+00 0.  1.
<mgrwt>
<rscale>  0 0.13960795E+04</rscale>
<asrwt>0</asrwt>
<pdfrwt beam="1">  1        2 0.75630951E-01 0.13960795E+04</pdfrwt>
<pdfrwt beam="2">  1       -1 0.15248742E+00 0.13960795E+04</pdfrwt>
<totfact> 0.23332971E+01</totfact>
</mgrwt>
</event>
<event>
12    7  0.1707730E-007  0.2213214E+04  0.7818608E-02  0.8512948E-01
         -1   -1    0    0    0  501 -0.00000000000E+00  0.00000000000E+00  0.10749596555E+04  0.10749596555E+04  0.00000000000E+00 0.  1.
          2   -1    0    0  501    0  0.00000000000E+00 -0.00000000000E+00 -0.11391864998E+04  0.11391864998E+04  0.00000000000E+00 0. -1.
         24    2    1    2    0    0 -0.63629581001E+03  0.53607757396E+02 -0.69338765343E+03  0.94598500353E+03  0.79718501498E+02 0.  0.
        254    2    1    2    0    0  0.63629581001E+03 -0.53607757396E+02  0.62916080911E+03  0.12681611517E+04  0.89701908202E+03 0.  0.
         23    2    4    4    0    0  0.54477536387E+02 -0.17674837488E+03  0.63189361729E+03  0.66601934077E+03  0.10042125625E+03 0.  0.
         23    2    4    4    0    0  0.58181827362E+03  0.12314061749E+03 -0.27328081870E+01  0.60214181094E+03  0.94293038167E+02 0.  0.
          4    1    3    3  502    0 -0.32084037076E+03  0.15914435831E+02 -0.40487091927E+03  0.51682905689E+03  0.00000000000E+00 0. -1.
         -3    1    3    3    0  502 -0.31545543925E+03  0.37693321565E+02 -0.28851673416E+03  0.42915594663E+03  0.00000000000E+00 0.  1.
         13    1    5    5    0    0  0.27331158289E+02 -0.12415151903E+03  0.55281249485E+03  0.56724090680E+03  0.00000000000E+00 0.  1.
        -13    1    5    5    0    0  0.27146378098E+02 -0.52596855850E+02  0.79081122445E+02  0.98778433963E+02  0.00000000000E+00 0. -1.
          4    1    6    6  503    0  0.44338035724E+03  0.51878771546E+02 -0.45616788364E+01  0.44642844560E+03  0.00000000000E+00 0.  1.
         -4    1    6    6    0  503  0.13843791638E+03  0.71261845941E+02  0.18288706494E+01  0.15571336534E+03  0.00000000000E+00 0. -1.
<mgrwt>
<rscale>  0 0.22132144E+04</rscale>
<asrwt>0</asrwt>
<pdfrwt beam="1">  1        2 0.17525946E+00 0.22132144E+04</pdfrwt>
<pdfrwt beam="2">  1       -1 0.16537841E+00 0.22132144E+04</pdfrwt>
<totfact> 0.57131993E+00</totfact>
</mgrwt>
</event>
<event>
12    7  0.1707730E-007  0.3168576E+04  0.7818608E-02  0.8197166E-01
         -1   -1    0    0    0  501 -0.00000000000E+00  0.00000000000E+00  0.11738050491E+04  0.11738050491E+04  0.00000000000E+00 0.  1.
          2   -1    0    0  501    0  0.00000000000E+00 -0.00000000000E+00 -0.21383178721E+04  0.21383178721E+04  0.00000000000E+00 0. -1.
         24    2    1    2    0    0 -0.26368062494E+02  0.12196006050E+04  0.38583440946E+03  0.12821105642E+04  0.82573584658E+02 0.  0.
        254    2    1    2    0    0  0.26368062494E+02 -0.12196006050E+04 -0.13503472325E+04  0.20300123570E+04  0.89966194241E+03 0.  0.
         23    2    4    4    0    0  0.20992091306E+03 -0.37907782660E+03 -0.10072971591E+04  0.10996024166E+04  0.81921421843E+02 0.  0.
         23    2    4    4    0    0 -0.18355285057E+03 -0.84052277842E+03 -0.34305007339E+03  0.93040994041E+03  0.88369193583E+02 0.  0.
          4    1    3    3  502    0  0.35162469336E+01  0.48807578263E+03  0.11471258636E+03  0.50138738621E+03  0.00000000000E+00 0. -1.
         -1    1    3    3    0  502 -0.29884309427E+02  0.73152482238E+03  0.27112182310E+03  0.78072317800E+03  0.00000000000E+00 0.  1.
         13    1    5    5    0    0  0.13533393567E+03 -0.16094984435E+03 -0.46472223276E+03  0.51008516952E+03  0.00000000000E+00 0. -1.
        -13    1    5    5    0    0  0.74586977387E+02 -0.21812798224E+03 -0.54257492638E+03  0.58951724705E+03  0.00000000000E+00 0.  1.
          4    1    6    6  503    0 -0.51430065962E+02 -0.28984179507E+03 -0.16121559869E+03  0.33562447336E+03  0.00000000000E+00 0. -1.
         -4    1    6    6    0  503 -0.13212278460E+03 -0.55068098335E+03 -0.18183447470E+03  0.59478546705E+03  0.00000000000E+00 0.  1.
<mgrwt>
<rscale>  0 0.31685759E+04</rscale>
<asrwt>0</asrwt>
<pdfrwt beam="1">  1        2 0.32897198E+00 0.31685759E+04</pdfrwt>
<pdfrwt beam="2">  1       -1 0.18058539E+00 0.31685759E+04</pdfrwt>
<totfact> 0.11065924E+00</totfact>
</mgrwt>
</event>
<event>
12    7  0.1707730E-007  0.2002208E+04  0.7818608E-02  0.8605589E-01
          2   -1    0    0  501    0  0.00000000000E+00  0.00000000000E+00  0.15866649175E+04  0.15866649175E+04  0.00000000000E+00 0. -1.
         -1   -1    0    0    0  501 -0.00000000000E+00 -0.00000000000E+00 -0.63164505687E+03  0.63164505687E+03  0.00000000000E+00 0.  1.
         24    2    1    2    0    0  0.37424498515E+03 -0.88814878250E+02  0.11558432671E+04  0.12206119714E+04  0.77282177925E+02 0.  0.
        254    2    1    2    0    0 -0.37424498515E+03  0.88814878250E+02 -0.20082340648E+03  0.99769800300E+03  0.89840073079E+03 0.  0.
         23    2    4    4    0    0 -0.53633633674E+03 -0.64678088675E+02  0.15308821713E+03  0.56880235578E+03  0.90885622927E+02 0.  0.
         23    2    4    4    0    0  0.16209135159E+03  0.15349296692E+03 -0.35391162361E+03  0.42889564722E+03  0.94150633142E+02 0.  0.
          2    1    3    3  502    0  0.26331822170E+03 -0.96961816991E+02  0.85482910626E+03  0.89970599683E+03  0.00000000000E+00 0. -1.
         -1    1    3    3    0  502  0.11092676346E+03  0.81469387412E+01  0.30101416084E+03  0.32090597453E+03  0.00000000000E+00 0.  1.
         13    1    5    5    0    0 -0.46243547830E+02 -0.36441088087E+01  0.42018642206E+02  0.62588429743E+02  0.00000000000E+00 0. -1.
        -13    1    5    5    0    0 -0.49009278891E+03 -0.61033979866E+02  0.11106957492E+03  0.50621392604E+03  0.00000000000E+00 0.  1.
          1    1    6    6  503    0  0.98590844700E+02  0.14570568648E+03 -0.23136615681E+03  0.29065546657E+03  0.00000000000E+00 0.  1.
         -1    1    6    6    0  503  0.63500506885E+02  0.77872804453E+01 -0.12254546680E+03  0.13824018065E+03  0.00000000000E+00 0. -1.
<mgrwt>
<rscale>  0 0.20022078E+04</rscale>
<asrwt>0</asrwt>
<pdfrwt beam="1">  1        2 0.24410229E+00 0.20022078E+04</pdfrwt>
<pdfrwt beam="2">  1       -1 0.97176163E-01 0.20022078E+04</pdfrwt>
<totfact> 0.12214024E+01</totfact>
</mgrwt>
</event>
<event>
12    7  0.1707730E-007  0.1259210E+04  0.7818608E-02  0.9062552E-01
          2   -1    0    0  501    0  0.00000000000E+00  0.00000000000E+00  0.16050788434E+04  0.16050788434E+04  0.00000000000E+00 0. -1.
         -1   -1    0    0    0  501 -0.00000000000E+00 -0.00000000000E+00 -0.24696772200E+03  0.24696772200E+03  0.00000000000E+00 0.  1.
         24    2    1    2    0    0 -0.10665704374E+03 -0.26664088465E+03  0.50821408410E+03  0.58911045715E+03  0.79350419653E+02 0.  0.
        254    2    1    2    0    0  0.10665704374E+03  0.26664088465E+03  0.84989703730E+03  0.12629361082E+04  0.88893731678E+03 0.  0.
         23    2    4    4    0    0  0.23622759256E+03  0.33306971669E+03  0.25293684835E+02  0.42066129012E+03  0.97863368246E+02 0.  0.
         23    2    4    4    0    0 -0.12957054882E+03 -0.66428832041E+02  0.82460335246E+03  0.84227481813E+03  0.90856279448E+02 0.  0.
          2    1    3    3  502    0 -0.42691297176E+02 -0.19770516500E+03  0.31715044414E+03  0.37615725879E+03  0.00000000000E+00 0. -1.
         -1    1    3    3    0  502 -0.63965746561E+02 -0.68935719653E+02  0.19106363996E+03  0.21295319836E+03  0.00000000000E+00 0.  1.
         13    1    5    5    0    0  0.32053039643E+02  0.81791742686E+02  0.40065313835E+02  0.96553176512E+02  0.00000000000E+00 0. -1.
        -13    1    5    5    0    0  0.20417455292E+03  0.25127797401E+03 -0.14771629000E+02  0.32410811360E+03  0.00000000000E+00 0.  1.
          2    1    6    6  503    0 -0.64248236810E+02 -0.32126368045E+02  0.63122904599E+03  0.63530311503E+03  0.00000000000E+00 0. -1.
         -2    1    6    6    0  503 -0.65322312015E+02 -0.34302463996E+02  0.19337430647E+03  0.20697170310E+03  0.00000000000E+00 0.  1.
<mgrwt>
<rscale>  0 0.12592103E+04</rscale>
<asrwt>0</asrwt>
<pdfrwt beam="1">  1        2 0.24693520E+00 0.12592103E+04</pdfrwt>
<pdfrwt beam="2">  1       -1 0.37995035E-01 0.12592103E+04</pdfrwt>
<totfact> 0.82982235E+01</totfact>
</mgrwt>
</event>
<event>
12    7  0.1707730E-007  0.1590377E+04  0.7818608E-02  0.8826482E-01
          2   -1    0    0  501    0  0.00000000000E+00  0.00000000000E+00  0.17227119076E+04  0.17227119076E+04  0.00000000000E+00 0. -1.
         -1   -1    0    0    0  501 -0.00000000000E+00 -0.00000000000E+00 -0.36705172743E+03  0.36705172743E+03  0.00000000000E+00 0.  1.
         24    2    1    2    0    0 -0.33548307523E+03 -0.55285865206E+02  0.99024136307E+03  0.10500405157E+04  0.80010667393E+02 0.  0.
        254    2    1    2    0    0  0.33548307523E+03  0.55285865206E+02  0.36541881706E+03  0.10397231193E+04  0.91207885196E+03 0.  0.
         23    2    4    4    0    0  0.14454773216E+03 -0.32771476587E+03 -0.11743410070E+03  0.38804711251E+03  0.92188821880E+02 0.  0.
         23    2    4    4    0    0  0.19093534307E+03  0.38300063107E+03  0.48285291776E+03  0.65167600674E+03  0.91590877985E+02 0.  0.
          4    1    3    3  502    0 -0.31691452109E+03 -0.71229634869E+02  0.92108991404E+03  0.97668577563E+03  0.00000000000E+00 0. -1.
         -3    1    3    3    0  502 -0.18568554138E+02  0.15943769664E+02  0.69151449024E+02  0.73354740106E+02  0.00000000000E+00 0.  1.
         13    1    5    5    0    0  0.21215413789E+02 -0.25418750827E+01 -0.13544809137E+01  0.21410033389E+02  0.00000000000E+00 0. -1.
        -13    1    5    5    0    0  0.12333231837E+03 -0.32517289079E+03 -0.11607961979E+03  0.36663707912E+03  0.00000000000E+00 0.  1.
          1    1    6    6  503    0  0.41050995543E+00  0.16663780892E+02  0.53284428749E+02  0.55830819976E+02  0.00000000000E+00 0. -1.
         -1    1    6    6    0  503  0.19052483312E+03  0.36633685018E+03  0.42956848902E+03  0.59584518677E+03  0.00000000000E+00 0.  1.
<mgrwt>
<rscale>  0 0.15903765E+04</rscale>
<asrwt>0</asrwt>
<pdfrwt beam="1">  1        2 0.26503260E+00 0.15903765E+04</pdfrwt>
<pdfrwt beam="2">  1       -1 0.56469498E-01 0.15903765E+04</pdfrwt>
<totfact> 0.33048651E+01</totfact>
</mgrwt>
</event>
<event>
12    7  0.1707730E-007  0.2901359E+04  0.7818608E-02  0.8272473E-01
          2   -1    0    0  501    0  0.00000000000E+00  0.00000000000E+00  0.16925253621E+04  0.16925253621E+04  0.00000000000E+00 0. -1.
         -1   -1    0    0    0  501 -0.00000000000E+00 -0.00000000000E+00 -0.12433915164E+04  0.12433915164E+04  0.00000000000E+00 0.  1.
         24    2    1    2    0    0  0.95315587725E+03 -0.86991051550E+03  0.43938219692E+03  0.13655289472E+04  0.79763144641E+02 0.  0.
        254    2    1    2    0    0 -0.95315587725E+03  0.86991051550E+03  0.97516487336E+01  0.15703879313E+04  0.89485905535E+03 0.  0.
         23    2    4    4    0    0 -0.10061184351E+04  0.46463321544E+03  0.16382567475E+03  0.11239161325E+04  0.90500225789E+02 0.  0.
         23    2    4    4    0    0  0.52962557880E+02  0.40527730007E+03 -0.15407402602E+03  0.44647179881E+03  0.92431267189E+02 0.  0.
          2    1    3    3  502    0  0.52325142103E+02 -0.26808935749E+02  0.14006077321E+02  0.60438478918E+02  0.00000000000E+00 0. -1.
         -1    1    3    3    0  502  0.90083073514E+03 -0.84310157976E+03  0.42537611960E+03  0.13050904682E+04  0.00000000000E+00 0.  1.
         13    1    5    5    0    0 -0.74382567042E+03  0.37694953200E+03  0.14786315006E+03  0.84689496916E+03  0.00000000000E+00 0. -1.
        -13    1    5    5    0    0 -0.26229276471E+03  0.87683683441E+02  0.15962524688E+02  0.27702116337E+03  0.00000000000E+00 0.  1.
          1    1    6    6  503    0  0.74647418558E+02  0.33506117171E+03 -0.10856863141E+03  0.36003523940E+03  0.00000000000E+00 0. -1.
         -1    1    6    6    0  503 -0.21684860678E+02  0.70216128354E+02 -0.45505394609E+02  0.86436559407E+02  0.00000000000E+00 0.  1.
<mgrwt>
<rscale>  0 0.29013595E+04</rscale>
<asrwt>0</asrwt>
<pdfrwt beam="1">  1        2 0.26038852E+00 0.29013595E+04</pdfrwt>
<pdfrwt beam="2">  1       -1 0.19129100E+00 0.29013595E+04</pdfrwt>
<totfact> 0.16831710E+00</totfact>
</mgrwt>
</event>
<event>
12    7  0.1707730E-007  0.1384865E+04  0.7818608E-02  0.8964848E-01
         -1   -1    0    0    0  501 -0.00000000000E+00  0.00000000000E+00  0.45490936383E+03  0.45490936383E+03  0.00000000000E+00 0.  1.
          2   -1    0    0  501    0  0.00000000000E+00 -0.00000000000E+00 -0.10539741547E+04  0.10539741547E+04  0.00000000000E+00 0. -1.
         24    2    1    2    0    0 -0.68762496808E+02 -0.92203281594E+02 -0.57018244697E+03  0.58634083191E+03  0.73877075111E+02 0.  0.
        254    2    1    2    0    0  0.68762496808E+02  0.92203281594E+02 -0.28882343942E+02  0.92254268667E+03  0.91488856853E+03 0.  0.
         23    2    4    4    0    0  0.45091916342E+03  0.20530472913E+03 -0.77349564792E+02  0.50941889266E+03  0.89702448602E+02 0.  0.
         23    2    4    4    0    0 -0.38215666661E+03 -0.11310144754E+03  0.48467220850E+02  0.41312379401E+03  0.97398882994E+02 0.  0.
          2    1    3    3  502    0 -0.14086542608E+02 -0.46253296887E+02 -0.38223418108E+03  0.38528011542E+03  0.00000000000E+00 0. -1.
         -1    1    3    3    0  502 -0.54675954200E+02 -0.45949984708E+02 -0.18794826589E+03  0.20106071649E+03  0.00000000000E+00 0.  1.
         13    1    5    5    0    0  0.40455061618E+02  0.34311811907E+01 -0.28053348829E+02  0.49349522747E+02  0.00000000000E+00 0. -1.
        -13    1    5    5    0    0  0.41046410180E+03  0.20187354794E+03 -0.49296215963E+02  0.46006936991E+03  0.00000000000E+00 0.  1.
          2    1    6    6  503    0 -0.92214058606E+02 -0.13616201562E+02 -0.27746475906E+02  0.97255850594E+02  0.00000000000E+00 0. -1.
         -2    1    6    6    0  503 -0.28994260801E+03 -0.99485245974E+02  0.76213696756E+02  0.31586794341E+03  0.00000000000E+00 0.  1.
<mgrwt>
<rscale>  0 0.13848649E+04</rscale>
<asrwt>0</asrwt>
<pdfrwt beam="1">  1        2 0.16214987E+00 0.13848649E+04</pdfrwt>
<pdfrwt beam="2">  1       -1 0.69986057E-01 0.13848649E+04</pdfrwt>
<totfact> 0.53400371E+01</totfact>
</mgrwt>
</event>
<event>
12    7  0.1707730E-007  0.2100474E+04  0.7818608E-02  0.8561035E-01
         -1   -1    0    0    0  501 -0.00000000000E+00  0.00000000000E+00  0.13473465491E+04  0.13473465491E+04  0.00000000000E+00 0.  1.
          2   -1    0    0  501    0  0.00000000000E+00 -0.00000000000E+00 -0.81864407951E+03  0.81864407951E+03  0.00000000000E+00 0. -1.
         24    2    1    2    0    0  0.10562951963E+03 -0.57238599151E+03 -0.43641051975E+03  0.73060375929E+03  0.67412110513E+02 0.  0.
        254    2    1    2    0    0 -0.10562951963E+03  0.57238599151E+03  0.96511298936E+03  0.14353868694E+04  0.88888079278E+03 0.  0.
         23    2    4    4    0    0 -0.11101015524E+03  0.65368874049E+03  0.25710529712E+03  0.71705509710E+03  0.91829485722E+02 0.  0.
         23    2    4    4    0    0  0.53806356088E+01 -0.81302748980E+02  0.70800769224E+03  0.71833177226E+03  0.89925271925E+02 0.  0.
          2    1    3    3  502    0  0.10946326745E+03 -0.57137927391E+03 -0.43492030874E+03  0.72636915996E+03  0.00000000000E+00 0. -1.
         -1    1    3    3    0  502 -0.38337478204E+01 -0.10067175989E+01 -0.14902110076E+01  0.42345993343E+01  0.00000000000E+00 0.  1.
         13    1    5    5    0    0 -0.17551074981E+02  0.31497271779E+03  0.15285261370E+03  0.35054211544E+03  0.00000000000E+00 0. -1.
        -13    1    5    5    0    0 -0.93459080257E+02  0.33871602270E+03  0.10425268343E+03  0.36651298165E+03  0.00000000000E+00 0.  1.
          4    1    6    6  503    0 -0.30272572475E+02 -0.79610333822E+02  0.46850291591E+03  0.47618191494E+03  0.00000000000E+00 0. -1.
         -4    1    6    6    0  503  0.35653208084E+02 -0.16924151587E+01  0.23950477633E+03  0.24214985732E+03  0.00000000000E+00 0.  1.
<mgrwt>
<rscale>  0 0.21004735E+04</rscale>
<asrwt>0</asrwt>
<pdfrwt beam="1">  1        2 0.12594524E+00 0.21004735E+04</pdfrwt>
<pdfrwt beam="2">  1       -1 0.20728408E+00 0.21004735E+04</pdfrwt>
<totfact> 0.47107293E+00</totfact>
</mgrwt>
</event>
<event>
12    7  0.1707730E-007  0.1423395E+04  0.7818608E-02  0.8937056E-01
          2   -1    0    0  501    0  0.00000000000E+00  0.00000000000E+00  0.31467178683E+03  0.31467178683E+03  0.00000000000E+00 0. -1.
         -1   -1    0    0    0  501 -0.00000000000E+00 -0.00000000000E+00 -0.16096566487E+04  0.16096566487E+04  0.00000000000E+00 0.  1.
         24    2    1    2    0    0 -0.41135275100E+03 -0.24831479002E+02 -0.53482432452E+03  0.67988317322E+03  0.79852257471E+02 0.  0.
        254    2    1    2    0    0  0.41135275100E+03  0.24831479002E+02 -0.76016053739E+03  0.12444452624E+04  0.89497054717E+03 0.  0.
         23    2    4    4    0    0  0.71358313691E+02  0.41811680108E+03 -0.47784532100E+03  0.64554111397E+03  0.92051674340E+02 0.  0.
         23    2    4    4    0    0  0.33999443731E+03 -0.39328532208E+03 -0.28231521639E+03  0.59890414839E+03  0.93352748152E+02 0.  0.
          4    1    3    3  502    0 -0.15158889119E+03  0.24276837988E+02 -0.16610983279E+03  0.22618804863E+03  0.00000000000E+00 0. -1.
         -3    1    3    3    0  502 -0.25976385981E+03 -0.49108316989E+02 -0.36871449173E+03  0.45369512458E+03  0.00000000000E+00 0.  1.
         13    1    5    5    0    0  0.19534738317E+02  0.66344430350E+02 -0.13459564471E+03  0.15132474026E+03  0.00000000000E+00 0.  1.
        -13    1    5    5    0    0  0.51823575374E+02  0.35177237073E+03 -0.34324967630E+03  0.49421637372E+03  0.00000000000E+00 0. -1.
          3    1    6    6  503    0  0.34344663239E+03 -0.38447562634E+03 -0.26617515825E+03  0.58019506325E+03  0.00000000000E+00 0. -1.
         -3    1    6    6    0  503 -0.34521950852E+01 -0.88096957431E+01 -0.16140058139E+02  0.18709085139E+02  0.00000000000E+00 0.  1.
<mgrwt>
<rscale>  0 0.14233953E+04</rscale>
<asrwt>0</asrwt>
<pdfrwt beam="1">  1        2 0.48411045E-01 0.14233953E+04</pdfrwt>
<pdfrwt beam="2">  1       -1 0.24763948E+00 0.14233953E+04</pdfrwt>
<totfact> 0.83739372E+00</totfact>
</mgrwt>
</event>
<event>
12    7  0.1707730E-007  0.2014443E+04  0.7818608E-02  0.8599898E-01
          2   -1    0    0  501    0  0.00000000000E+00  0.00000000000E+00  0.18601269041E+04  0.18601269041E+04  0.00000000000E+00 0. -1.
         -1   -1    0    0    0  501 -0.00000000000E+00 -0.00000000000E+00 -0.54539041251E+03  0.54539041251E+03  0.00000000000E+00 0.  1.
         24    2    1    2    0    0  0.72556173124E+03  0.30022480556E+03  0.30959824123E+03  0.84785996269E+03  0.80253882448E+02 0.  0.
        254    2    1    2    0    0 -0.72556173124E+03 -0.30022480556E+03  0.10051382503E+04  0.15576573539E+04  0.89410221459E+03 0.  0.
         23    2    4    4    0    0  0.34823808018E+02  0.76236101918E+02 -0.10203512397E+03  0.15981999843E+03  0.90036795446E+02 0.  0.
         23    2    4    4    0    0 -0.76038553925E+03 -0.37646090748E+03  0.11071733743E+04  0.13978373555E+04  0.90594748034E+02 0.  0.
          2    1    3    3  502    0  0.50821981366E+03  0.20497302810E+03  0.25469241216E+03  0.60429259970E+03  0.00000000000E+00 0. -1.
         -1    1    3    3    0  502  0.21734191758E+03  0.95251777457E+02  0.54905829070E+02  0.24356736299E+03  0.00000000000E+00 0.  1.
         13    1    5    5    0    0  0.23307668602E+01 -0.44312898049E+01 -0.65172099504E+02  0.65364144278E+02  0.00000000000E+00 0. -1.
        -13    1    5    5    0    0  0.32493041158E+02  0.80667391722E+02 -0.36863024470E+02  0.94455854155E+02  0.00000000000E+00 0.  1.
          3    1    6    6  503    0 -0.11568540401E+03 -0.95238489579E+02  0.20207490716E+03  0.25157056804E+03  0.00000000000E+00 0. -1.
         -3    1    6    6    0  503 -0.64470013525E+03 -0.28122241790E+03  0.90509846715E+03  0.11462667874E+04  0.00000000000E+00 0.  1.
<mgrwt>
<rscale>  0 0.20144432E+04</rscale>
<asrwt>0</asrwt>
<pdfrwt beam="1">  1        2 0.28617337E+00 0.20144432E+04</pdfrwt>
<pdfrwt beam="2">  1       -1 0.83906218E-01 0.20144432E+04</pdfrwt>
<totfact> 0.11888180E+01</totfact>
</mgrwt>
</event>
<event>
12    7  0.1707730E-007  0.1247558E+04  0.7818608E-02  0.9072219E-01
         -1   -1    0    0    0  501 -0.00000000000E+00  0.00000000000E+00  0.10136882269E+04  0.10136882269E+04  0.00000000000E+00 0.  1.
          2   -1    0    0  501    0  0.00000000000E+00 -0.00000000000E+00 -0.38384580652E+03  0.38384580652E+03  0.00000000000E+00 0. -1.
         24    2    1    2    0    0 -0.15534518061E+03 -0.22505894586E+03  0.25500073347E+03  0.38184093537E+03  0.77417514852E+02 0.  0.
        254    2    1    2    0    0  0.15534518061E+03  0.22505894586E+03  0.37484168695E+03  0.10156930981E+04  0.90351675413E+03 0.  0.
         23    2    4    4    0    0 -0.69294467771E+02 -0.32383972542E+03  0.14153498483E+03  0.37167029645E+03  0.91830094777E+02 0.  0.
         23    2    4    4    0    0  0.22463964838E+03  0.54889867128E+03  0.23330670212E+03  0.64402280165E+03  0.92631683755E+02 0.  0.
          2    1    3    3  502    0 -0.14891452326E+03 -0.22918933939E+03  0.23509229655E+03  0.36051584768E+03  0.00000000000E+00 0. -1.
         -1    1    3    3    0  502 -0.64306573419E+01  0.41303935315E+01  0.19908436917E+02  0.21325087691E+02  0.00000000000E+00 0.  1.
         13    1    5    5    0    0 -0.67331588849E+02 -0.11174967837E+03  0.39575140900E+02  0.13633680813E+03  0.00000000000E+00 0. -1.
        -13    1    5    5    0    0 -0.19628789212E+01 -0.21209004704E+03  0.10195984393E+03  0.23533348832E+03  0.00000000000E+00 0.  1.
          4    1    6    6  503    0  0.61984408839E+02  0.25770115610E+03  0.12730585605E+03  0.29403866034E+03  0.00000000000E+00 0.  1.
         -4    1    6    6    0  503  0.16265523954E+03  0.29119751518E+03  0.10600084607E+03  0.34998414130E+03  0.00000000000E+00 0. -1.
<mgrwt>
<rscale>  0 0.12475576E+04</rscale>
<asrwt>0</asrwt>
<pdfrwt beam="1">  1        2 0.59053201E-01 0.12475576E+04</pdfrwt>
<pdfrwt beam="2">  1       -1 0.15595203E+00 0.12475576E+04</pdfrwt>
<totfact> 0.29433288E+01</totfact>
</mgrwt>
</event>
<event>
12    7  0.1707730E-007  0.1023262E+04  0.7818608E-02  0.9283393E-01
         -1   -1    0    0    0  501 -0.00000000000E+00  0.00000000000E+00  0.10198507998E+03  0.10198507998E+03  0.00000000000E+00 0.  1.
          2   -1    0    0  501    0  0.00000000000E+00 -0.00000000000E+00 -0.25667107418E+04  0.25667107418E+04  0.00000000000E+00 0. -1.
         24    2    1    2    0    0 -0.81079266041E+01  0.87300172567E+02 -0.25827529083E+03  0.28406254896E+03  0.79362127397E+02 0.  0.
        254    2    1    2    0    0  0.81079266041E+01 -0.87300172567E+02 -0.22064503710E+04  0.23846332728E+04  0.90020305911E+03 0.  0.
         23    2    4    4    0    0 -0.19114084769E+03  0.33451558239E+03 -0.13307666572E+04  0.13884016200E+04  0.91014636465E+02 0.  0.
         23    2    4    4    0    0  0.19924877429E+03 -0.42181575496E+03 -0.87568371382E+03  0.99623165283E+03  0.89593159722E+02 0.  0.
          2    1    3    3  502    0 -0.11325029838E+01  0.61412953584E+02 -0.24776545121E+03  0.25526565034E+03  0.00000000000E+00 0. -1.
         -1    1    3    3    0  502 -0.69754236203E+01  0.25887218983E+02 -0.10509839622E+02  0.28796898622E+02  0.00000000000E+00 0.  1.
         13    1    5    5    0    0  0.65064746337E+01 -0.81860622690E+00 -0.18881122605E+02  0.19987524088E+02  0.00000000000E+00 0.  1.
        -13    1    5    5    0    0 -0.19764732232E+03  0.33533418862E+03 -0.13118855345E+04  0.13684140959E+04  0.00000000000E+00 0. -1.
          4    1    6    6  503    0  0.12098029410E+03 -0.16790645277E+03 -0.33452631101E+03  0.39336581092E+03  0.00000000000E+00 0. -1.
         -4    1    6    6    0  503  0.78268480188E+02 -0.25390930219E+03 -0.54115740281E+03  0.60286584192E+03  0.00000000000E+00 0.  1.
<mgrwt>
<rscale>  0 0.10232618E+04</rscale>
<asrwt>0</asrwt>
<pdfrwt beam="1">  1        2 0.39487854E+00 0.10232618E+04</pdfrwt>
<pdfrwt beam="2">  1       -1 0.15690014E-01 0.10232618E+04</pdfrwt>
<totfact> 0.11195759E+02</totfact>
</mgrwt>
</event>
<event>
12    7  0.1707730E-007  0.3567703E+04  0.7818608E-02  0.8097930E-01
          2   -1    0    0  501    0  0.00000000000E+00  0.00000000000E+00  0.18856935480E+04  0.18856935480E+04  0.00000000000E+00 0. -1.
         -1   -1    0    0    0  501 -0.00000000000E+00 -0.00000000000E+00 -0.16875095404E+04  0.16875095404E+04  0.00000000000E+00 0.  1.
         24    2    1    2    0    0  0.93520293386E+03  0.13380035885E+04  0.45898617685E+03  0.16975081106E+04  0.77507062054E+02 0.  0.
        254    2    1    2    0    0 -0.93520293386E+03 -0.13380035885E+04 -0.26080216924E+03  0.18756949779E+04  0.88620299493E+03 0.  0.
         23    2    4    4    0    0 -0.10580803348E+04 -0.12504936254E+04 -0.35122043150E+03  0.16777490802E+04  0.90652536648E+02 0.  0.
         23    2    4    4    0    0  0.12287740098E+03 -0.87509963066E+02  0.90418262260E+02  0.19794589767E+03  0.90830980115E+02 0.  0.
          4    1    3    3  502    0  0.31935584778E+03  0.47590949074E+03  0.19799664501E+03  0.60636678036E+03  0.00000000000E+00 0. -1.
         -1    1    3    3    0  502  0.61584708608E+03  0.86209409774E+03  0.26098953183E+03  0.10911413302E+04  0.00000000000E+00 0.  1.
         13    1    5    5    0    0 -0.59356024771E+03 -0.63356193838E+03 -0.19715649159E+03  0.89027253108E+03  0.00000000000E+00 0. -1.
        -13    1    5    5    0    0 -0.46452008714E+03 -0.61693168704E+03 -0.15406393991E+03  0.78747654911E+03  0.00000000000E+00 0.  1.
          1    1    6    6  503    0  0.12070318235E+03 -0.91720522808E+02  0.53555320783E+02  0.16077961599E+03  0.00000000000E+00 0. -1.
         -1    1    6    6    0  503  0.21742186312E+01  0.42105597419E+01  0.36862941478E+02  0.37166281686E+02  0.00000000000E+00 0.  1.
<mgrwt>
<rscale>  0 0.35677028E+04</rscale>
<asrwt>0</asrwt>
<pdfrwt beam="1">  1        2 0.29010670E+00 0.35677028E+04</pdfrwt>
<pdfrwt beam="2">  1       -1 0.25961685E+00 0.35677028E+04</pdfrwt>
<totfact> 0.43391389E-01</totfact>
</mgrwt>
</event>
<event>
12    7  0.1707730E-007  0.2155411E+04  0.7818608E-02  0.8537220E-01
          2   -1    0    0  501    0  0.00000000000E+00  0.00000000000E+00  0.17270077121E+04  0.17270077121E+04  0.00000000000E+00 0. -1.
         -3   -1    0    0    0  501 -0.00000000000E+00 -0.00000000000E+00 -0.67252100886E+03  0.67252100886E+03  0.00000000000E+00 0.  1.
         24    2    1    2    0    0  0.72230786347E+03  0.22468365050E+03 -0.69395807752E+02  0.76372480299E+03  0.79046847706E+02 0.  0.
        254    2    1    2    0    0 -0.72230786347E+03 -0.22468365050E+03  0.11238825110E+04  0.16358039180E+04  0.91680486859E+03 0.  0.
         23    2    4    4    0    0 -0.57071254669E+03 -0.52323243843E+02  0.12357010842E+04  0.13647656388E+04  0.84720402259E+02 0.  0.
         23    2    4    4    0    0 -0.15159531678E+03 -0.17236040666E+03 -0.11181857324E+03  0.27103827913E+03  0.90934622561E+02 0.  0.
          4    1    3    3  502    0  0.22839316737E+02 -0.53748674199E+01 -0.82019452907E+01  0.24855492257E+02  0.00000000000E+00 0. -1.
         -1    1    3    3    0  502  0.69946854673E+03  0.23005851792E+03 -0.61193862461E+02  0.73886931073E+03  0.00000000000E+00 0.  1.
         13    1    5    5    0    0 -0.79832371871E+02  0.13196173007E+02  0.12847163022E+03  0.15182985988E+03  0.00000000000E+00 0. -1.
        -13    1    5    5    0    0 -0.49088017482E+03 -0.65519416850E+02  0.11072294540E+04  0.12129357789E+04  0.00000000000E+00 0.  1.
          4    1    6    6  503    0 -0.27722689104E+02 -0.24515084878E+02  0.15290603327E+02  0.40041721089E+02  0.00000000000E+00 0. -1.
         -4    1    6    6    0  503 -0.12387262768E+03 -0.14784532178E+03 -0.12710917657E+03  0.23099655804E+03  0.00000000000E+00 0.  1.
<mgrwt>
<rscale>  0 0.21554108E+04</rscale>
<asrwt>0</asrwt>
<pdfrwt beam="1">  1        2 0.26569349E+00 0.21554108E+04</pdfrwt>
<pdfrwt beam="2">  1       -3 0.10346477E+00 0.21554108E+04</pdfrwt>
<totfact> 0.44636182E+00</totfact>
</mgrwt>
</event>
<event>
12    7  0.1707730E-007  0.1537107E+04  0.7818608E-02  0.8860145E-01
          2   -1    0    0  501    0  0.00000000000E+00  0.00000000000E+00  0.37202340392E+04  0.37202340392E+04  0.00000000000E+00 0. -1.
         -1   -1    0    0    0  501 -0.00000000000E+00 -0.00000000000E+00 -0.15877347889E+03  0.15877347889E+03  0.00000000000E+00 0.  1.
         24    2    1    2    0    0  0.52390196765E+02 -0.19571777004E+03  0.16317172215E+02  0.21914672461E+03  0.81907622189E+02 0.  0.
        254    2    1    2    0    0 -0.52390196765E+02  0.19571777004E+03  0.35451433881E+04  0.36598607935E+04  0.88627828995E+03 0.  0.
         23    2    4    4    0    0  0.17881635439E+03  0.36511879229E+03  0.30597682170E+04  0.30881189399E+04  0.94921148220E+02 0.  0.
         23    2    4    4    0    0 -0.23120655115E+03 -0.16940102225E+03  0.48537517114E+03  0.57174185358E+03  0.95637412857E+02 0.  0.
          4    1    3    3  502    0  0.25702676485E+02 -0.19333170923E+02 -0.18910504944E+02  0.37309600288E+02  0.00000000000E+00 0. -1.
         -3    1    3    3    0  502  0.26687520280E+02 -0.17638459912E+03  0.35227677159E+02  0.18183712433E+03  0.00000000000E+00 0.  1.
         13    1    5    5    0    0  0.20234901623E+01  0.92515736612E+02  0.69587106428E+03  0.70199700436E+03  0.00000000000E+00 0. -1.
        -13    1    5    5    0    0  0.17679286423E+03  0.27260305568E+03  0.23638971527E+04  0.23861219355E+04  0.00000000000E+00 0.  1.
          1    1    6    6  503    0 -0.15633221967E+02 -0.34230605584E+02  0.23354703376E+02  0.44289661971E+02  0.00000000000E+00 0. -1.
         -1    1    6    6    0  503 -0.21557332919E+03 -0.13517041667E+03  0.46202046777E+03  0.52745219161E+03  0.00000000000E+00 0.  1.
<mgrwt>
<rscale>  0 0.15371070E+04</rscale>
<asrwt>0</asrwt>
<pdfrwt beam="1">  1        2 0.57234363E+00 0.15371070E+04</pdfrwt>
<pdfrwt beam="2">  1       -1 0.24426692E-01 0.15371070E+04</pdfrwt>
<totfact> 0.91713183E+00</totfact>
</mgrwt>
</event>
<event>
12    7  0.1707730E-007  0.1948615E+04  0.7818608E-02  0.8631029E-01
          2   -1    0    0  501    0  0.00000000000E+00  0.00000000000E+00  0.23068870869E+04  0.23068870869E+04  0.00000000000E+00 0. -1.
         -1   -1    0    0    0  501 -0.00000000000E+00 -0.00000000000E+00 -0.41149612367E+03  0.41149612367E+03  0.00000000000E+00 0.  1.
         24    2    1    2    0    0  0.37076985568E+03  0.47369872304E+03  0.75475297661E+02  0.61154796294E+03  0.80209876735E+02 0.  0.
        254    2    1    2    0    0 -0.37076985568E+03 -0.47369872304E+03  0.18199156655E+04  0.21068352476E+04  0.87452899594E+03 0.  0.
         23    2    4    4    0    0  0.47227772379E+02  0.24128529416E+02  0.11994415097E+04  0.12040924937E+04  0.91466659201E+02 0.  0.
         23    2    4    4    0    0 -0.41799762806E+03 -0.49782725246E+03  0.62047415584E+03  0.90274275391E+03  0.86036685906E+02 0.  0.
          2    1    3    3  502    0  0.14796893703E+03  0.21840971054E+03  0.68820349682E+02  0.27264234541E+03  0.00000000000E+00 0. -1.
         -1    1    3    3    0  502  0.22280091866E+03  0.25528901250E+03  0.66549479786E+01  0.33890561753E+03  0.00000000000E+00 0.  1.
         13    1    5    5    0    0  0.28884367178E+02 -0.57391750461E+01  0.10396497423E+03  0.10805535926E+03  0.00000000000E+00 0.  1.
        -13    1    5    5    0    0  0.18343405202E+02  0.29867704462E+02  0.10954765355E+04  0.10960371344E+04  0.00000000000E+00 0. -1.
          2    1    6    6  503    0 -0.21709285949E+03 -0.23603705304E+03  0.36163214467E+03  0.48334315771E+03  0.00000000000E+00 0.  1.
         -2    1    6    6    0  503 -0.20090476857E+03 -0.26179019942E+03  0.25884201117E+03  0.41939959620E+03  0.00000000000E+00 0. -1.
<mgrwt>
<rscale>  0 0.19486150E+04</rscale>
<asrwt>0</asrwt>
<pdfrwt beam="1">  1        2 0.35490570E+00 0.19486150E+04</pdfrwt>
<pdfrwt beam="2">  1       -1 0.63307097E-01 0.19486150E+04</pdfrwt>
<totfact> 0.12079263E+01</totfact>
</mgrwt>
</event>
<event>
12    7  0.1707730E-007  0.2133488E+04  0.7818608E-02  0.8546634E-01
         -1   -1    0    0    0  501 -0.00000000000E+00  0.00000000000E+00  0.12439828266E+04  0.12439828266E+04  0.00000000000E+00 0.  1.
          2   -1    0    0  501    0  0.00000000000E+00 -0.00000000000E+00 -0.91475741253E+03  0.91475741253E+03  0.00000000000E+00 0. -1.
         24    2    1    2    0    0 -0.54713873293E+02  0.83465079690E+03 -0.22593477526E+03  0.87003988121E+03  0.79292569085E+02 0.  0.
        254    2    1    2    0    0  0.54713873293E+02 -0.83465079690E+03  0.55516018933E+03  0.12887003579E+04  0.80802859848E+03 0.  0.
         23    2    4    4    0    0 -0.12728414255E+03 -0.22095330707E+03  0.58204400150E+03  0.64207638795E+03  0.92006801010E+02 0.  0.
         23    2    4    4    0    0  0.18199801584E+03 -0.61369748983E+03 -0.26883812171E+02  0.64662396996E+03  0.87475324345E+02 0.  0.
          4    1    3    3  502    0 -0.72639268951E+02  0.74586858833E+03 -0.20771831855E+03  0.77765243799E+03  0.00000000000E+00 0. -1.
         -1    1    3    3    0  502  0.17925395658E+02  0.88782208577E+02 -0.18216456719E+02  0.92387443220E+02  0.00000000000E+00 0.  1.
         13    1    5    5    0    0 -0.66337612839E+01 -0.99750436271E+01  0.73020083755E+00  0.12001728100E+02  0.00000000000E+00 0.  1.
        -13    1    5    5    0    0 -0.12065038127E+03 -0.21097826344E+03  0.58131380066E+03  0.63007465985E+03  0.00000000000E+00 0. -1.
          1    1    6    6  503    0  0.12719574643E+03 -0.34322346870E+03 -0.51141946845E+02  0.36958978084E+03  0.00000000000E+00 0. -1.
         -1    1    6    6    0  503  0.54802269411E+02 -0.27047402114E+03  0.24258134674E+02  0.27703418912E+03  0.00000000000E+00 0.  1.
<mgrwt>
<rscale>  0 0.21334878E+04</rscale>
<asrwt>0</asrwt>
<pdfrwt beam="1">  1        2 0.14073191E+00 0.21334878E+04</pdfrwt>
<pdfrwt beam="2">  1       -1 0.19138197E+00 0.21334878E+04</pdfrwt>
<totfact> 0.51912446E+00</totfact>
</mgrwt>
</event>
<event>
12    7  0.1707730E-007  0.2389457E+04  0.7818608E-02  0.8443461E-01
         -1   -1    0    0    0  501 -0.00000000000E+00  0.00000000000E+00  0.74242879938E+03  0.74242879938E+03  0.00000000000E+00 0.  1.
          2   -1    0    0  501    0  0.00000000000E+00 -0.00000000000E+00 -0.19225761413E+04  0.19225761413E+04  0.00000000000E+00 0. -1.
         24    2    1    2    0    0 -0.79521303363E+03 -0.36219516812E+03  0.85150245360E+02  0.88147499880E+03  0.78730556753E+02 0.  0.
        254    2    1    2    0    0  0.79521303363E+03  0.36219516812E+03 -0.12652975873E+04  0.17835299419E+04  0.90357731302E+03 0.  0.
         23    2    4    4    0    0  0.56991739999E+03  0.65413593187E+03 -0.95150246753E+03  0.12908832626E+04  0.91230432222E+02 0.  0.
         23    2    4    4    0    0  0.22529563364E+03 -0.29194076376E+03 -0.31379511980E+03  0.49264667934E+03  0.90806615227E+02 0.  0.
          4    1    3    3  502    0 -0.17500275675E+02 -0.14443358698E+02 -0.89105936861E+01  0.24377631940E+02  0.00000000000E+00 0. -1.
         -3    1    3    3    0  502 -0.77771275795E+03 -0.34775180942E+03  0.94060839046E+02  0.85709736686E+03  0.00000000000E+00 0.  1.
         13    1    5    5    0    0  0.34005318550E+03  0.45100376273E+03 -0.64230048295E+03  0.85533062225E+03  0.00000000000E+00 0.  1.
        -13    1    5    5    0    0  0.22986421449E+03  0.20313216914E+03 -0.30920198458E+03  0.43555264034E+03  0.00000000000E+00 0. -1.
          3    1    6    6  503    0  0.12359814954E+03 -0.22493077812E+03 -0.19309830729E+03  0.32118112303E+03  0.00000000000E+00 0. -1.
         -3    1    6    6    0  503  0.10169748409E+03 -0.67009985636E+02 -0.12069681252E+03  0.17146555630E+03  0.00000000000E+00 0.  1.
<mgrwt>
<rscale>  0 0.23894568E+04</rscale>
<asrwt>0</asrwt>
<pdfrwt beam="1">  1        2 0.29578094E+00 0.23894568E+04</pdfrwt>
<pdfrwt beam="2">  1       -1 0.11421982E+00 0.23894568E+04</pdfrwt>
<totfact> 0.52722761E+00</totfact>
</mgrwt>
</event>
<event>
12    7  0.1707730E-007  0.1315211E+04  0.7818608E-02  0.9017589E-01
         -1   -1    0    0    0  501 -0.00000000000E+00  0.00000000000E+00  0.25175690686E+03  0.25175690686E+03  0.00000000000E+00 0.  1.
          2   -1    0    0  501    0  0.00000000000E+00 -0.00000000000E+00 -0.17177080632E+04  0.17177080632E+04  0.00000000000E+00 0. -1.
         24    2    1    2    0    0 -0.48363518780E+02  0.14198181118E+03  0.73694620612E+02  0.18529180157E+03  0.80026807798E+02 0.  0.
        254    2    1    2    0    0  0.48363518780E+02 -0.14198181118E+03 -0.15396457770E+04  0.17841731685E+04  0.88896957879E+03 0.  0.
         23    2    4    4    0    0  0.17403086394E+03  0.96222776149E+02 -0.14771928793E+04  0.14933446598E+04  0.91836301205E+02 0.  0.
         23    2    4    4    0    0 -0.12566734516E+03 -0.23820458733E+03 -0.62452897696E+02  0.29082850867E+03  0.90261564153E+02 0.  0.
          2    1    3    3  502    0  0.32401626492E+00  0.20377221454E+02 -0.16526329065E+02  0.26238439228E+02  0.00000000000E+00 0. -1.
         -1    1    3    3    0  502 -0.48687535045E+02  0.12160458973E+03  0.90220949677E+02  0.15905336234E+03  0.00000000000E+00 0.  1.
         13    1    5    5    0    0  0.12037190034E+03  0.11001567782E+03 -0.10540117306E+04  0.10665521891E+04  0.00000000000E+00 0.  1.
        -13    1    5    5    0    0  0.53658963596E+02 -0.13792901666E+02 -0.42318114867E+03  0.42679247076E+03  0.00000000000E+00 0. -1.
          3    1    6    6  503    0 -0.41884155927E+02 -0.49855977180E+02  0.21025111497E+02  0.68424822190E+02  0.00000000000E+00 0. -1.
         -3    1    6    6    0  503 -0.83783189230E+02 -0.18834861015E+03 -0.83478009193E+02  0.22240368648E+03  0.00000000000E+00 0.  1.
<mgrwt>
<rscale>  0 0.13152108E+04</rscale>
<asrwt>0</asrwt>
<pdfrwt beam="1">  1        2 0.26426278E+00 0.13152108E+04</pdfrwt>
<pdfrwt beam="2">  1       -1 0.38731831E-01 0.13152108E+04</pdfrwt>
<totfact> 0.69085455E+01</totfact>
</mgrwt>
</event>
<event>
12    7  0.1707730E-007  0.1739121E+04  0.7818608E-02  0.8739361E-01
         -1   -1    0    0    0  501 -0.00000000000E+00  0.00000000000E+00  0.31000114891E+03  0.31000114891E+03  0.00000000000E+00 0.  1.
          2   -1    0    0  501    0  0.00000000000E+00 -0.00000000000E+00 -0.24391381424E+04  0.24391381424E+04  0.00000000000E+00 0. -1.
         24    2    1    2    0    0  0.44460521400E+03  0.31575344846E+03 -0.32768542351E+03  0.64108825538E+03  0.79008720211E+02 0.  0.
        254    2    1    2    0    0 -0.44460521400E+03 -0.31575344846E+03 -0.18014515700E+04  0.21080510359E+04  0.94935629484E+03 0.  0.
         23    2    4    4    0    0 -0.26662070732E+03  0.22755988324E+03 -0.12749028598E+04  0.13254933672E+04  0.93194755789E+02 0.  0.
         23    2    4    4    0    0 -0.17798450668E+03 -0.54331333170E+03 -0.52654871015E+03  0.78255766871E+03  0.90967574880E+02 0.  0.
          4    1    3    3  502    0  0.18563306466E+03  0.94837582283E+02 -0.97229131390E+02  0.23001588141E+03  0.00000000000E+00 0. -1.
         -3    1    3    3    0  502  0.25897214934E+03  0.22091586618E+03 -0.23045629212E+03  0.41107237397E+03  0.00000000000E+00 0.  1.
         13    1    5    5    0    0 -0.66557090710E+02  0.10774248333E+03 -0.37219836335E+03  0.39315380033E+03  0.00000000000E+00 0.  1.
        -13    1    5    5    0    0 -0.20006361661E+03  0.11981739991E+03 -0.90270449646E+03  0.93233956687E+03  0.00000000000E+00 0. -1.
          1    1    6    6  503    0 -0.58096593511E+02 -0.22847775889E+03 -0.16119567909E+03  0.28558947362E+03  0.00000000000E+00 0. -1.
         -1    1    6    6    0  503 -0.11988791317E+03 -0.31483557281E+03 -0.36535303105E+03  0.49696819509E+03  0.00000000000E+00 0.  1.
<mgrwt>
<rscale>  0 0.17391212E+04</rscale>
<asrwt>0</asrwt>
<pdfrwt beam="1">  1        2 0.37525201E+00 0.17391212E+04</pdfrwt>
<pdfrwt beam="2">  1       -1 0.47692486E-01 0.17391212E+04</pdfrwt>
<totfact> 0.17924223E+01</totfact>
</mgrwt>
</event>
<event>
12    7  0.1707730E-007  0.2456947E+04  0.7818608E-02  0.8418486E-01
          2   -1    0    0  501    0  0.00000000000E+00  0.00000000000E+00  0.24946506831E+04  0.24946506831E+04  0.00000000000E+00 0. -1.
         -1   -1    0    0    0  501 -0.00000000000E+00 -0.00000000000E+00 -0.60495347213E+03  0.60495347213E+03  0.00000000000E+00 0.  1.
         24    2    1    2    0    0  0.61845194602E+03 -0.42125068556E+03  0.17356431808E+04  0.18918261592E+04  0.81326599310E+02 0.  0.
        254    2    1    2    0    0 -0.61845194602E+03  0.42125068556E+03  0.15405403011E+03  0.12077779960E+04  0.93544646766E+03 0.  0.
         23    2    4    4    0    0 -0.83636509924E+03  0.40665744757E+03  0.22366510796E+03  0.96068988534E+03  0.89566268038E+02 0.  0.
         23    2    4    4    0    0  0.21791315322E+03  0.14593237989E+02 -0.69611077854E+02  0.24708811068E+03  0.92237342442E+02 0.  0.
          4    1    3    3  502    0  0.13579917205E+03 -0.99269858256E+02  0.31116811283E+03  0.35372519606E+03  0.00000000000E+00 0. -1.
         -3    1    3    3    0  502  0.48265277398E+03 -0.32198082730E+03  0.14244750680E+04  0.15381009631E+04  0.00000000000E+00 0.  1.
         13    1    5    5    0    0 -0.77694986513E+03  0.35140153259E+03  0.21237281906E+03  0.87876979028E+03  0.00000000000E+00 0.  1.
        -13    1    5    5    0    0 -0.59415234110E+02  0.55255914986E+02  0.11292288901E+02  0.81920095056E+02  0.00000000000E+00 0. -1.
          1    1    6    6  503    0  0.60571400054E+02 -0.13209893736E+02  0.18406038254E+02  0.64669761413E+02  0.00000000000E+00 0. -1.
         -1    1    6    6    0  503  0.15734175317E+03  0.27803131725E+02 -0.88017116109E+02  0.18241834927E+03  0.00000000000E+00 0.  1.
<mgrwt>
<rscale>  0 0.24569474E+04</rscale>
<asrwt>0</asrwt>
<pdfrwt beam="1">  1        2 0.38379241E+00 0.24569474E+04</pdfrwt>
<pdfrwt beam="2">  1       -1 0.93069766E-01 0.24569474E+04</pdfrwt>
<totfact> 0.40013868E+00</totfact>
</mgrwt>
</event>
<event>
12    7  0.1707730E-007  0.2028056E+04  0.7818608E-02  0.8593615E-01
          2   -1    0    0  501    0  0.00000000000E+00  0.00000000000E+00  0.13751809595E+04  0.13751809595E+04  0.00000000000E+00 0. -1.
         -1   -1    0    0    0  501 -0.00000000000E+00 -0.00000000000E+00 -0.74772168452E+03  0.74772168452E+03  0.00000000000E+00 0.  1.
         24    2    1    2    0    0 -0.65569019398E+03  0.31256601965E+03 -0.12971575999E+03  0.74208453866E+03  0.78969215576E+02 0.  0.
        254    2    1    2    0    0  0.65569019398E+03 -0.31256601965E+03  0.75717503498E+03  0.13808181054E+04  0.89761765770E+03 0.  0.
         23    2    4    4    0    0  0.27220946618E+03 -0.47876429543E+03  0.58965592365E+02  0.56257494894E+03  0.98490547962E+02 0.  0.
         23    2    4    4    0    0  0.38348072779E+03  0.16619827578E+03  0.69820944261E+03  0.81824315643E+03  0.85709403368E+02 0.  0.
          4    1    3    3  502    0 -0.26623361830E+03  0.11282451208E+03 -0.14663417610E+02  0.28952500040E+03  0.00000000000E+00 0. -1.
         -3    1    3    3    0  502 -0.38945657568E+03  0.19974150757E+03 -0.11505234237E+03  0.45255953826E+03  0.00000000000E+00 0.  1.
         13    1    5    5    0    0  0.27035292259E+03 -0.44558120115E+03  0.36503643758E+02  0.52246131491E+03  0.00000000000E+00 0. -1.
        -13    1    5    5    0    0  0.18565435945E+01 -0.33183094284E+02  0.22461948608E+02  0.40113634037E+02  0.00000000000E+00 0.  1.
          1    1    6    6  503    0  0.11187590171E+03  0.38935365433E+02  0.27591457442E+03  0.30026826746E+03  0.00000000000E+00 0. -1.
         -1    1    6    6    0  503  0.27160482608E+03  0.12726291034E+03  0.42229486819E+03  0.51797488897E+03  0.00000000000E+00 0.  1.
<mgrwt>
<rscale>  0 0.20280558E+04</rscale>
<asrwt>0</asrwt>
<pdfrwt beam="1">  1        2 0.21156630E+00 0.20280558E+04</pdfrwt>
<pdfrwt beam="2">  1       -1 0.11503411E+00 0.20280558E+04</pdfrwt>
<totfact> 0.10836029E+01</totfact>
</mgrwt>
</event>
<event>
12    7  0.1707730E-007  0.1292006E+04  0.7818608E-02  0.9035928E-01
         -1   -1    0    0    0  501 -0.00000000000E+00  0.00000000000E+00  0.10106788257E+03  0.10106788257E+03  0.00000000000E+00 0.  1.
          2   -1    0    0  501    0  0.00000000000E+00 -0.00000000000E+00 -0.41291058820E+04  0.41291058820E+04  0.00000000000E+00 0. -1.
         24    2    1    2    0    0 -0.23609372085E+03  0.21292134657E+03 -0.79414464890E+03  0.85906012891E+03  0.79011624774E+02 0.  0.
        254    2    1    2    0    0  0.23609372085E+03 -0.21292134657E+03 -0.32338933505E+04  0.33711136357E+04  0.89736569868E+03 0.  0.
         23    2    4    4    0    0  0.47566888257E+02  0.32519737841E+03 -0.80244860058E+03  0.87204106381E+03  0.92281724109E+02 0.  0.
         23    2    4    4    0    0  0.18852683259E+03 -0.53811872498E+03 -0.24314447500E+04  0.24990725719E+04  0.91247019851E+02 0.  0.
          4    1    3    3  502    0 -0.56888356374E+02  0.35419695541E+02 -0.98819211762E+02  0.11939881296E+03  0.00000000000E+00 0. -1.
         -3    1    3    3    0  502 -0.17920536448E+03  0.17750165103E+03 -0.69532543714E+03  0.73966131595E+03  0.00000000000E+00 0.  1.
         13    1    5    5    0    0  0.67989805212E+02  0.16747576784E+03 -0.38482462241E+03  0.42515965994E+03  0.00000000000E+00 0. -1.
        -13    1    5    5    0    0 -0.20422916955E+02  0.15772161057E+03 -0.41762397818E+03  0.44688140387E+03  0.00000000000E+00 0.  1.
          2    1    6    6  503    0  0.78971659991E+02 -0.31339572777E+03 -0.12186651635E+04  0.12607926816E+04  0.00000000000E+00 0. -1.
         -2    1    6    6    0  503  0.10955517260E+03 -0.22472299721E+03 -0.12127795865E+04  0.12382798903E+04  0.00000000000E+00 0.  1.
<mgrwt>
<rscale>  0 0.12920062E+04</rscale>
<asrwt>0</asrwt>
<pdfrwt beam="1">  1        2 0.63524692E+00 0.12920062E+04</pdfrwt>
<pdfrwt beam="2">  1       -1 0.15548908E-01 0.12920062E+04</pdfrwt>
<totfact> 0.96258936E+00</totfact>
</mgrwt>
</event>
<event>
12    7  0.1707730E-007  0.2069143E+04  0.7818608E-02  0.8574959E-01
         -1   -1    0    0    0  501 -0.00000000000E+00  0.00000000000E+00  0.75296522945E+03  0.75296522945E+03  0.00000000000E+00 0.  1.
          2   -1    0    0  501    0  0.00000000000E+00 -0.00000000000E+00 -0.14214979782E+04  0.14214979782E+04  0.00000000000E+00 0. -1.
         24    2    1    2    0    0 -0.42615104660E+03 -0.15182346214E+03  0.49737475592E+03  0.67842700702E+03  0.90699933060E+02 0.  0.
        254    2    1    2    0    0  0.42615104660E+03  0.15182346214E+03 -0.11659075046E+04  0.14960362006E+04  0.82105354635E+03 0.  0.
         23    2    4    4    0    0  0.16353644312E+03  0.25999887146E+03 -0.29768318535E+02  0.32136802597E+03  0.89708828675E+02 0.  0.
         23    2    4    4    0    0  0.26261460348E+03 -0.10817540932E+03 -0.11361391861E+04  0.11746681746E+04  0.91458849450E+02 0.  0.
          4    1    3    3  502    0 -0.13561147083E+03 -0.46281667327E+01  0.14710894271E+03  0.20013228618E+03  0.00000000000E+00 0. -1.
         -3    1    3    3    0  502 -0.29053957576E+03 -0.14719529541E+03  0.35026581321E+03  0.47829472083E+03  0.00000000000E+00 0.  1.
         13    1    5    5    0    0  0.89654935657E+02  0.20680051834E+03 -0.42716429843E+02  0.22941045148E+03  0.00000000000E+00 0. -1.
        -13    1    5    5    0    0  0.73881507458E+02  0.53198353124E+02  0.12948111308E+02  0.91957574489E+02  0.00000000000E+00 0.  1.
          4    1    6    6  503    0  0.28824178148E+02  0.80862249062E+00 -0.25276271478E+03  0.25440219555E+03  0.00000000000E+00 0. -1.
         -4    1    6    6    0  503  0.23379042533E+03 -0.10898403181E+03 -0.88337647133E+03  0.92026597909E+03  0.00000000000E+00 0.  1.
<mgrwt>
<rscale>  0 0.20691434E+04</rscale>
<asrwt>0</asrwt>
<pdfrwt beam="1">  1        2 0.21869199E+00 0.20691434E+04</pdfrwt>
<pdfrwt beam="2">  1       -1 0.11584081E+00 0.20691434E+04</pdfrwt>
<totfact> 0.99886859E+00</totfact>
</mgrwt>
</event>
<event>
12    7  0.1707730E-007  0.1172423E+04  0.7818608E-02  0.9137343E-01
         -1   -1    0    0    0  501 -0.00000000000E+00  0.00000000000E+00  0.33907716124E+03  0.33907716124E+03  0.00000000000E+00 0.  1.
          2   -1    0    0  501    0  0.00000000000E+00 -0.00000000000E+00 -0.10134689083E+04  0.10134689083E+04  0.00000000000E+00 0. -1.
         24    2    1    2    0    0  0.36203855482E+02 -0.44129933760E+02 -0.40503132530E+03  0.41647143149E+03  0.78357568670E+02 0.  0.
        254    2    1    2    0    0 -0.36203855482E+02  0.44129933760E+02 -0.26936042180E+03  0.93607463808E+03  0.89466335625E+03 0.  0.
         23    2    4    4    0    0 -0.35168473343E+03  0.22491933176E+03 -0.34978110593E+03  0.55271217752E+03  0.94196982890E+02 0.  0.
         23    2    4    4    0    0  0.31548087795E+03 -0.18078939800E+03  0.80420684132E+02  0.38336246056E+03  0.91029110457E+02 0.  0.
          2    1    3    3  502    0  0.31420418779E+02 -0.21931214534E+02 -0.38273085300E+03  0.38464415597E+03  0.00000000000E+00 0. -1.
         -1    1    3    3    0  502  0.47834367032E+01 -0.22198719226E+02 -0.22300472300E+02  0.31827275516E+02  0.00000000000E+00 0.  1.
         13    1    5    5    0    0 -0.14565326346E+03  0.55846011174E+02 -0.17271698419E+03  0.23273333828E+03  0.00000000000E+00 0.  1.
        -13    1    5    5    0    0 -0.20603146997E+03  0.16907332059E+03 -0.17706412174E+03  0.31997883924E+03  0.00000000000E+00 0. -1.
          4    1    6    6  503    0  0.26244356090E+03 -0.14968646706E+03  0.29568948927E+02  0.30357368763E+03  0.00000000000E+00 0. -1.
         -4    1    6    6    0  503  0.53037317045E+02 -0.31102930939E+02  0.50851735206E+02  0.79788772930E+02  0.00000000000E+00 0.  1.
<mgrwt>
<rscale>  0 0.11724234E+04</rscale>
<asrwt>0</asrwt>
<pdfrwt beam="1">  1        2 0.15591829E+00 0.11724234E+04</pdfrwt>
<pdfrwt beam="2">  1       -1 0.52165717E-01 0.11724234E+04</pdfrwt>
<totfact> 0.10300532E+02</totfact>
</mgrwt>
</event>
<event>
12    7  0.1815054E-007  0.1929832E+04  0.7818608E-02  0.8640148E-01
         -1   -1    0    0    0  501 -0.00000000000E+00  0.00000000000E+00  0.52024209202E+03  0.52024209202E+03  0.00000000000E+00 0.  1.
          2   -1    0    0  501    0  0.00000000000E+00 -0.00000000000E+00 -0.17896732266E+04  0.17896732266E+04  0.00000000000E+00 0. -1.
         24    2    1    2    0    0  0.23052654821E+03 -0.63395841408E+03 -0.10212760228E+03  0.68660653855E+03  0.77153946248E+02 0.  0.
        254    2    1    2    0    0 -0.23052654821E+03  0.63395841408E+03 -0.11673035323E+04  0.16233087800E+04  0.90415048456E+03 0.  0.
         23    2    4    4    0    0 -0.18250112373E+03  0.43444345941E+03 -0.12857478500E+04  0.13723791565E+04  0.90715135341E+02 0.  0.
         23    2    4    4    0    0 -0.48025424487E+02  0.19951495467E+03  0.11844431775E+03  0.25092962355E+03  0.82607269875E+02 0.  0.
          2    1    3    3  502    0  0.46491838062E+02 -0.96615332370E+02  0.99137541859E+01  0.10767681263E+03  0.00000000000E+00 0. -1.
         -1    1    3    3    0  502  0.18403471015E+03 -0.53734308170E+03 -0.11204135647E+03  0.57892972592E+03  0.00000000000E+00 0.  1.
         13    1    5    5    0    0 -0.11764036010E+03  0.36912746624E+03 -0.10603845922E+04  0.11289419046E+04  0.00000000000E+00 0. -1.
        -13    1    5    5    0    0 -0.64860763629E+02  0.65315993165E+02 -0.22536325781E+03  0.24343725186E+03  0.00000000000E+00 0.  1.
          3    1    6    6  503    0 -0.40042931274E+02  0.53586500808E+02  0.70338403001E+02  0.97069255434E+02  0.00000000000E+00 0. -1.
         -3    1    6    6    0  503 -0.79824932132E+01  0.14592845386E+03  0.48105914747E+02  0.15386036812E+03  0.00000000000E+00 0.  1.
<mgrwt>
<rscale>  0 0.19298325E+04</rscale>
<asrwt>0</asrwt>
<pdfrwt beam="1">  1        2 0.27533435E+00 0.19298325E+04</pdfrwt>
<pdfrwt beam="2">  1       -1 0.80037244E-01 0.19298325E+04</pdfrwt>
<totfact> 0.14497736E+01</totfact>
</mgrwt>
</event>
<event>
12    7  0.1707730E-007  0.1960869E+04  0.7818608E-02  0.8625137E-01
         -1   -1    0    0    0  501 -0.00000000000E+00  0.00000000000E+00  0.81128537512E+03  0.81128537512E+03  0.00000000000E+00 0.  1.
          2   -1    0    0  501    0  0.00000000000E+00 -0.00000000000E+00 -0.11848508018E+04  0.11848508018E+04  0.00000000000E+00 0. -1.
         24    2    1    2    0    0  0.58891803404E+03 -0.79214224342E+01 -0.65100830339E+03  0.88165717880E+03  0.81365656660E+02 0.  0.
        254    2    1    2    0    0 -0.58891803404E+03  0.79214224342E+01  0.27744287669E+03  0.11144789981E+04  0.90454501697E+03 0.  0.
         23    2    4    4    0    0 -0.52790845366E+03  0.30730311455E+02 -0.23762041682E+03  0.58688615035E+03  0.91324714614E+02 0.  0.
         23    2    4    4    0    0 -0.61009580387E+02 -0.22808889020E+02  0.51506329351E+03  0.52759284779E+03  0.93923385851E+02 0.  0.
          4    1    3    3  502    0  0.80421809018E+02  0.13646371665E+02 -0.57450514940E+02  0.99772002546E+02  0.00000000000E+00 0. -1.
         -3    1    3    3    0  502  0.50849622503E+03 -0.21567794099E+02 -0.59355778845E+03  0.78188517625E+03  0.00000000000E+00 0.  1.
         13    1    5    5    0    0 -0.48309963091E+03  0.18191598604E+02 -0.18758716793E+03  0.51856063601E+03  0.00000000000E+00 0. -1.
        -13    1    5    5    0    0 -0.44808822749E+02  0.12538712851E+02 -0.50033248887E+02  0.68325514343E+02  0.00000000000E+00 0.  1.
          4    1    6    6  503    0 -0.13671702591E+02 -0.33436485211E+02  0.41308995154E+03  0.41466639852E+03  0.00000000000E+00 0. -1.
         -4    1    6    6    0  503 -0.47337877795E+02  0.10627596191E+02  0.10197334197E+03  0.11292644928E+03  0.00000000000E+00 0.  1.
<mgrwt>
<rscale>  0 0.19608693E+04</rscale>
<asrwt>0</asrwt>
<pdfrwt beam="1">  1        2 0.18228474E+00 0.19608693E+04</pdfrwt>
<pdfrwt beam="2">  1       -1 0.12481314E+00 0.19608693E+04</pdfrwt>
<totfact> 0.11546534E+01</totfact>
</mgrwt>
</event>
<event>
12    7  0.1707730E-007  0.1800128E+04  0.7818608E-02  0.8706232E-01
          2   -1    0    0  501    0  0.00000000000E+00  0.00000000000E+00  0.15315707295E+04  0.15315707295E+04  0.00000000000E+00 0. -1.
         -1   -1    0    0    0  501 -0.00000000000E+00 -0.00000000000E+00 -0.52894389379E+03  0.52894389379E+03  0.00000000000E+00 0.  1.
         24    2    1    2    0    0 -0.63912462553E+03 -0.12402030328E+00  0.61337626912E+03  0.89062408970E+03  0.92198260860E+02 0.  0.
        254    2    1    2    0    0  0.63912462553E+03  0.12402030328E+00  0.38925056658E+03  0.11698905336E+04  0.89924832755E+03 0.  0.
         23    2    4    4    0    0  0.47691185165E+03 -0.19364606922E+02 -0.21936055414E+03  0.53337055732E+03  0.92440231801E+02 0.  0.
         23    2    4    4    0    0  0.16221277388E+03  0.19488627225E+02  0.60861112073E+03  0.63651997625E+03  0.89762983980E+02 0.  0.
          4    1    3    3  502    0 -0.20867471830E+01 -0.59186001063E+01  0.75051423270E-02  0.62756989533E+01  0.00000000000E+00 0. -1.
         -3    1    3    3    0  502 -0.63703787835E+03  0.57945798031E+01  0.61336876397E+03  0.88434839075E+03  0.00000000000E+00 0.  1.
         13    1    5    5    0    0  0.39961081712E+03  0.13438584038E+02 -0.20056052377E+03  0.44731859384E+03  0.00000000000E+00 0. -1.
        -13    1    5    5    0    0  0.77301034526E+02 -0.32803190961E+02 -0.18800030375E+02  0.86051963476E+02  0.00000000000E+00 0.  1.
          4    1    6    6  503    0  0.11213420922E+03  0.34353914029E+02  0.52493586068E+03  0.53787724447E+03  0.00000000000E+00 0. -1.
         -4    1    6    6    0  503  0.50078564658E+02 -0.14865286803E+02  0.83675260046E+02  0.98642731783E+02  0.00000000000E+00 0.  1.
<mgrwt>
<rscale>  0 0.18001278E+04</rscale>
<asrwt>0</asrwt>
<pdfrwt beam="1">  1        2 0.23562626E+00 0.18001278E+04</pdfrwt>
<pdfrwt beam="2">  1       -1 0.81375984E-01 0.18001278E+04</pdfrwt>
<totfact> 0.19710952E+01</totfact>
</mgrwt>
</event>
<event>
12    7  0.1707730E-007  0.3084706E+04  0.7818608E-02  0.8219948E-01
          2   -1    0    0  501    0  0.00000000000E+00  0.00000000000E+00  0.37454901714E+04  0.37454901714E+04  0.00000000000E+00 0. -1.
         -1   -1    0    0    0  501 -0.00000000000E+00 -0.00000000000E+00 -0.63512452644E+03  0.63512452644E+03  0.00000000000E+00 0.  1.
         24    2    1    2    0    0 -0.42687551091E+01  0.13390361820E+03  0.34182908946E+04  0.34218474042E+04  0.79866242343E+02 0.  0.
        254    2    1    2    0    0  0.42687551091E+01 -0.13390361820E+03 -0.30792524960E+03  0.95876729362E+03  0.89803583599E+03 0.  0.
         23    2    4    4    0    0 -0.35357940587E+02 -0.46689973360E+03  0.25761792958E+02  0.47804782909E+03  0.92846710892E+02 0.  0.
         23    2    4    4    0    0  0.39626695696E+02  0.33299611540E+03 -0.33368704256E+03  0.48071946453E+03  0.85366699132E+02 0.  0.
          2    1    3    3  502    0 -0.17312940807E+01  0.14478627725E+03  0.31730355425E+04  0.31763376107E+04  0.00000000000E+00 0. -1.
         -1    1    3    3    0  502 -0.25374610284E+01 -0.10882659044E+02  0.24525535210E+03  0.24550979351E+03  0.00000000000E+00 0.  1.
         13    1    5    5    0    0 -0.14259612740E+02 -0.17329976681E+03 -0.35279514716E+02  0.17742826689E+03  0.00000000000E+00 0.  1.
        -13    1    5    5    0    0 -0.21098327846E+02 -0.29359996679E+03  0.61041307674E+02  0.30061956220E+03  0.00000000000E+00 0. -1.
          1    1    6    6  503    0 -0.17838600650E+02  0.19346010977E+03 -0.20444924070E+03  0.28203638377E+03  0.00000000000E+00 0. -1.
         -1    1    6    6    0  503  0.57465296346E+02  0.13953600563E+03 -0.12923780186E+03  0.19868308076E+03  0.00000000000E+00 0.  1.
<mgrwt>
<rscale>  0 0.30847059E+04</rscale>
<asrwt>0</asrwt>
<pdfrwt beam="1">  1        2 0.57622924E+00 0.30847059E+04</pdfrwt>
<pdfrwt beam="2">  1       -1 0.97711468E-01 0.30847059E+04</pdfrwt>
<totfact> 0.52326274E-01</totfact>
</mgrwt>
</event>
<event>
12    7  0.1707730E-007  0.1795969E+04  0.7818608E-02  0.8708446E-01
         -1   -1    0    0    0  501 -0.00000000000E+00  0.00000000000E+00  0.62689387296E+03  0.62689387296E+03  0.00000000000E+00 0.  1.
          2   -1    0    0  501    0  0.00000000000E+00 -0.00000000000E+00 -0.12863040149E+04  0.12863040149E+04  0.00000000000E+00 0. -1.
         24    2    1    2    0    0  0.58947345224E+03 -0.18977675219E+03  0.11932326556E+02  0.62443114726E+03  0.79232005346E+02 0.  0.
        254    2    1    2    0    0 -0.58947345224E+03  0.18977675219E+03 -0.67134246848E+03  0.12887667406E+04  0.90924410092E+03 0.  0.
         23    2    4    4    0    0 -0.51365138934E+03  0.41770713292E+03 -0.11812283248E+03  0.67886834954E+03  0.92694302894E+02 0.  0.
         23    2    4    4    0    0 -0.75822062904E+02 -0.22793038072E+03 -0.55321963600E+03  0.60989839104E+03  0.90679865790E+02 0.  0.
          2    1    3    3  502    0  0.20558491194E+02  0.28551495817E+01 -0.10722150994E+02  0.23361677192E+02  0.00000000000E+00 0. -1.
         -1    1    3    3    0  502  0.56891496105E+03 -0.19263190178E+03  0.22654477549E+02  0.60106947006E+03  0.00000000000E+00 0.  1.
         13    1    5    5    0    0 -0.38273630363E+03  0.25664415478E+03 -0.87798091262E+02  0.46910745585E+03  0.00000000000E+00 0. -1.
        -13    1    5    5    0    0 -0.13091508571E+03  0.16106297814E+03 -0.30324741217E+02  0.20976089369E+03  0.00000000000E+00 0.  1.
          3    1    6    6  503    0 -0.71055683080E+02 -0.88298834438E+02 -0.19725696561E+03  0.22749924119E+03  0.00000000000E+00 0.  1.
         -3    1    6    6    0  503 -0.47663798234E+01 -0.13963154628E+03 -0.35596267040E+03  0.38239914985E+03  0.00000000000E+00 0. -1.
<mgrwt>
<rscale>  0 0.17959689E+04</rscale>
<asrwt>0</asrwt>
<pdfrwt beam="1">  1        2 0.19789293E+00 0.17959689E+04</pdfrwt>
<pdfrwt beam="2">  1       -1 0.96445211E-01 0.17959689E+04</pdfrwt>
<totfact> 0.18763379E+01</totfact>
</mgrwt>
</event>
<event>
12    7  0.1719756E-007  0.1830957E+04  0.7818608E-02  0.8690008E-01
          2   -1    0    0  501    0  0.00000000000E+00  0.00000000000E+00  0.65991991404E+03  0.65991991404E+03  0.00000000000E+00 0. -1.
         -1   -1    0    0    0  501 -0.00000000000E+00 -0.00000000000E+00 -0.12700043917E+04  0.12700043917E+04  0.00000000000E+00 0.  1.
         24    2    1    2    0    0 -0.57418500247E+03 -0.22352469224E+01  0.17284048261E+03  0.60497331146E+03  0.80158978009E+02 0.  0.
        254    2    1    2    0    0  0.57418500247E+03  0.22352469224E+01 -0.78292496031E+03  0.13249509943E+04  0.90157097915E+03 0.  0.
         23    2    4    4    0    0  0.22998362943E+03  0.26282247172E+03  0.66991961437E+02  0.36729122173E+03  0.91906459030E+02 0.  0.
         23    2    4    4    0    0  0.34420137304E+03 -0.26058722480E+03 -0.84991692174E+03  0.95765977258E+03  0.91505077563E+02 0.  0.
          2    1    3    3  502    0 -0.56461116043E+03  0.59989273974E+01  0.15979839072E+03  0.58681962756E+03  0.00000000000E+00 0. -1.
         -1    1    3    3    0  502 -0.95738420371E+01 -0.82341743197E+01  0.13042091890E+02  0.18153683894E+02  0.00000000000E+00 0.  1.
         13    1    5    5    0    0  0.19141165960E+03  0.16183598291E+03  0.65931690063E+02  0.25918390489E+03  0.00000000000E+00 0. -1.
        -13    1    5    5    0    0  0.38571969824E+02  0.10098648881E+03  0.10602713736E+01  0.10810731684E+03  0.00000000000E+00 0.  1.
          2    1    6    6  503    0  0.20630357952E+03 -0.17398306317E+03 -0.61727247213E+03  0.67368878427E+03  0.00000000000E+00 0. -1.
         -2    1    6    6    0  503  0.13789779352E+03 -0.86604161626E+02 -0.23264444961E+03  0.28397098831E+03  0.00000000000E+00 0.  1.
<mgrwt>
<rscale>  0 0.18309573E+04</rscale>
<asrwt>0</asrwt>
<pdfrwt beam="1">  1        2 0.10152614E+00 0.18309573E+04</pdfrwt>
<pdfrwt beam="2">  1       -1 0.19538529E+00 0.18309573E+04</pdfrwt>
<totfact> 0.76867488E+00</totfact>
</mgrwt>
</event>
<event>
12    7  0.1707730E-007  0.1510653E+04  0.7818608E-02  0.8877399E-01
         -3   -1    0    0    0  501 -0.00000000000E+00  0.00000000000E+00  0.21955809405E+03  0.21955809405E+03  0.00000000000E+00 0.  1.
          2   -1    0    0  501    0  0.00000000000E+00 -0.00000000000E+00 -0.25984841300E+04  0.25984841300E+04  0.00000000000E+00 0. -1.
         24    2    1    2    0    0 -0.35898979389E+03  0.28821777435E+03 -0.44836921151E+03  0.64723320484E+03  0.77024113383E+02 0.  0.
        254    2    1    2    0    0  0.35898979389E+03 -0.28821777435E+03 -0.19305568244E+04  0.21708090192E+04  0.87944243012E+03 0.  0.
         23    2    4    4    0    0  0.20620521212E+03 -0.21839392686E+03 -0.19546724796E+04  0.19796931543E+04  0.90686194451E+02 0.  0.
         23    2    4    4    0    0  0.15278458178E+03 -0.69823847495E+02  0.24115655217E+02  0.19111586486E+03  0.87893178721E+02 0.  0.
          2    1    3    3  502    0 -0.37177277249E+02  0.12452427434E+02 -0.17725124351E+02  0.43027815723E+02  0.00000000000E+00 0. -1.
         -1    1    3    3    0  502 -0.32181251664E+03  0.27576534692E+03 -0.43064408716E+03  0.60420538912E+03  0.00000000000E+00 0.  1.
         13    1    5    5    0    0  0.97771402771E+01 -0.47409714986E+02 -0.19852606273E+03  0.20434253382E+03  0.00000000000E+00 0. -1.
        -13    1    5    5    0    0  0.19642807184E+03 -0.17098421187E+03 -0.17561464169E+04  0.17753506205E+04  0.00000000000E+00 0.  1.
          3    1    6    6  503    0  0.88335567295E+01 -0.77804147168E+01  0.32069731179E+02  0.34161882787E+02  0.00000000000E+00 0. -1.
         -3    1    6    6    0  503  0.14395102505E+03 -0.62043432778E+02 -0.79540759620E+01  0.15695398207E+03  0.00000000000E+00 0.  1.
<mgrwt>
<rscale>  0 0.15106531E+04</rscale>
<asrwt>0</asrwt>
<pdfrwt beam="1">  1        2 0.39976681E+00 0.15106531E+04</pdfrwt>
<pdfrwt beam="2">  1       -3 0.33778166E-01 0.15106531E+04</pdfrwt>
<totfact> 0.16540393E+01</totfact>
</mgrwt>
</event>
<event>
12    7  0.1707730E-007  0.1161514E+04  0.7818608E-02  0.9147227E-01
          2   -1    0    0  501    0  0.00000000000E+00  0.00000000000E+00  0.14912432214E+04  0.14912432214E+04  0.00000000000E+00 0. -1.
         -1   -1    0    0    0  501 -0.00000000000E+00 -0.00000000000E+00 -0.22617272420E+03  0.22617272420E+03  0.00000000000E+00 0.  1.
         24    2    1    2    0    0 -0.13779362214E+03  0.83037442867E+02  0.28138151900E+02  0.18141421867E+03  0.78975084193E+02 0.  0.
        254    2    1    2    0    0  0.13779362214E+03 -0.83037442867E+02  0.12369323453E+04  0.15360017270E+04  0.89633552818E+03 0.  0.
         23    2    4    4    0    0 -0.21407839427E+03  0.24806654065E+03  0.83342534121E+03  0.89988096799E+03  0.88438621061E+02 0.  0.
         23    2    4    4    0    0  0.35187201641E+03 -0.33110398352E+03  0.40350700411E+03  0.63612075896E+03  0.91585772788E+02 0.  0.
          4    1    3    3  502    0 -0.12116581095E+03  0.82219572006E+02  0.49285633472E+02  0.15450011466E+03  0.00000000000E+00 0. -1.
         -3    1    3    3    0  502 -0.16627811186E+02  0.81787086154E+00 -0.21147481572E+02  0.26914104005E+02  0.00000000000E+00 0.  1.
         13    1    5    5    0    0 -0.30064753904E+02  0.84778239406E+02  0.17040201600E+03  0.19268649761E+03  0.00000000000E+00 0. -1.
        -13    1    5    5    0    0 -0.18401364037E+03  0.16328830125E+03  0.66302332521E+03  0.70719447038E+03  0.00000000000E+00 0.  1.
          3    1    6    6  503    0  0.16456692016E+03 -0.21076421230E+03  0.24660311733E+03  0.36375393039E+03  0.00000000000E+00 0. -1.
         -3    1    6    6    0  503  0.18730509625E+03 -0.12033977122E+03  0.15690388678E+03  0.27236682857E+03  0.00000000000E+00 0.  1.
<mgrwt>
<rscale>  0 0.11615137E+04</rscale>
<asrwt>0</asrwt>
<pdfrwt beam="1">  1        2 0.22942203E+00 0.11615137E+04</pdfrwt>
<pdfrwt beam="2">  1       -1 0.34795805E-01 0.11615137E+04</pdfrwt>
<totfact> 0.11340978E+02</totfact>
</mgrwt>
</event>
<event>
12    7  0.1707730E-007  0.1424681E+04  0.7818608E-02  0.8936145E-01
         -1   -1    0    0    0  501 -0.00000000000E+00  0.00000000000E+00  0.27623522583E+03  0.27623522583E+03  0.00000000000E+00 0.  1.
          2   -1    0    0  501    0  0.00000000000E+00 -0.00000000000E+00 -0.18369445586E+04  0.18369445586E+04  0.00000000000E+00 0. -1.
         24    2    1    2    0    0  0.16405593364E+03  0.21226150125E+03 -0.95380062064E+03  0.99403925073E+03  0.80056940901E+02 0.  0.
        254    2    1    2    0    0 -0.16405593364E+03 -0.21226150125E+03 -0.60690871214E+03  0.11191405337E+04  0.90120367012E+03 0.  0.
         23    2    4    4    0    0  0.36126796623E+03 -0.41053419609E+02 -0.17874103051E+03  0.41406622818E+03  0.85455009506E+02 0.  0.
         23    2    4    4    0    0 -0.52532389987E+03 -0.17120808164E+03 -0.42816768163E+03  0.70507430552E+03  0.92329874472E+02 0.  0.
          4    1    3    3  502    0  0.78944928696E+02  0.87622075929E+02 -0.28537103777E+03  0.30878238155E+03  0.00000000000E+00 0. -1.
         -3    1    3    3    0  502  0.85111004940E+02  0.12463942532E+03 -0.66842958286E+03  0.68525686918E+03  0.00000000000E+00 0.  1.
         13    1    5    5    0    0  0.15787211392E+03  0.19257695989E+02 -0.53991324820E+02  0.16795691818E+03  0.00000000000E+00 0.  1.
        -13    1    5    5    0    0  0.20339585231E+03 -0.60311115598E+02 -0.12474970569E+03  0.24610931001E+03  0.00000000000E+00 0. -1.
          2    1    6    6  503    0 -0.48542245798E+03 -0.18188537853E+03 -0.40401740024E+03  0.65722698768E+03  0.00000000000E+00 0. -1.
         -2    1    6    6    0  503 -0.39901441887E+02  0.10677296887E+02 -0.24150281386E+02  0.47847317840E+02  0.00000000000E+00 0.  1.
<mgrwt>
<rscale>  0 0.14246807E+04</rscale>
<asrwt>0</asrwt>
<pdfrwt beam="1">  1        2 0.28260684E+00 0.14246807E+04</pdfrwt>
<pdfrwt beam="2">  1       -1 0.42497729E-01 0.14246807E+04</pdfrwt>
<totfact> 0.49633900E+01</totfact>
</mgrwt>
</event>
<event>
12    7  0.1707730E-007  0.2559999E+04  0.7818608E-02  0.8381917E-01
          2   -1    0    0  501    0  0.00000000000E+00  0.00000000000E+00  0.16106137100E+04  0.16106137100E+04  0.00000000000E+00 0. -1.
         -1   -1    0    0    0  501 -0.00000000000E+00 -0.00000000000E+00 -0.10172509951E+04  0.10172509951E+04  0.00000000000E+00 0.  1.
         24    2    1    2    0    0 -0.96210224783E+03  0.38541114234E+03  0.69868214063E+03  0.12524814220E+04  0.79815379948E+02 0.  0.
        254    2    1    2    0    0  0.96210224783E+03 -0.38541114234E+03 -0.10531942568E+03  0.13753832831E+04  0.89800028399E+03 0.  0.
         23    2    4    4    0    0  0.66429898752E+03 -0.66160131654E+03  0.12902901216E+02  0.94213011852E+03  0.91832611325E+02 0.  0.
         23    2    4    4    0    0  0.29780326031E+03  0.27619017420E+03 -0.11822232689E+03  0.43325316456E+03  0.93616194375E+02 0.  0.
          2    1    3    3  502    0 -0.91839685390E+03  0.35560013071E+03  0.67811908756E+03  0.11957214271E+04  0.00000000000E+00 0. -1.
         -1    1    3    3    0  502 -0.43705393930E+02  0.29811011630E+02  0.20563053066E+02  0.56759994929E+02  0.00000000000E+00 0.  1.
         13    1    5    5    0    0  0.65329585580E+03 -0.66188365856E+03  0.17610492052E+02  0.93015890154E+03  0.00000000000E+00 0. -1.
        -13    1    5    5    0    0  0.11003131715E+02  0.28234202480E+00 -0.47075908362E+01  0.11971216982E+02  0.00000000000E+00 0.  1.
          4    1    6    6  503    0  0.19770481769E+03  0.22691306146E+03 -0.58106023652E+02  0.30651760534E+03  0.00000000000E+00 0. -1.
         -4    1    6    6    0  503  0.10009844262E+03  0.49277112739E+02 -0.60116303242E+02  0.12673555922E+03  0.00000000000E+00 0.  1.
<mgrwt>
<rscale>  0 0.25599987E+04</rscale>
<asrwt>0</asrwt>
<pdfrwt beam="1">  1        2 0.24778672E+00 0.25599987E+04</pdfrwt>
<pdfrwt beam="2">  1       -1 0.15650015E+00 0.25599987E+04</pdfrwt>
<totfact> 0.34547769E+00</totfact>
</mgrwt>
</event>
<event>
12    7  0.1707730E-007  0.2886367E+04  0.7818608E-02  0.8276945E-01
          2   -1    0    0  501    0  0.00000000000E+00  0.00000000000E+00  0.14844889728E+04  0.14844889728E+04  0.00000000000E+00 0. -1.
         -1   -1    0    0    0  501 -0.00000000000E+00 -0.00000000000E+00 -0.14030273022E+04  0.14030273022E+04  0.00000000000E+00 0.  1.
         24    2    1    2    0    0  0.11270024900E+04  0.48514107405E+02  0.68931096389E+03  0.13244439201E+04  0.80708496071E+02 0.  0.
        254    2    1    2    0    0 -0.11270024900E+04 -0.48514107405E+02 -0.60784929325E+03  0.15630723549E+04  0.89511239092E+03 0.  0.
         23    2    4    4    0    0 -0.12334136028E+04 -0.11961266831E+03 -0.40926847940E+03  0.13083340293E+04  0.92849005281E+02 0.  0.
         23    2    4    4    0    0  0.10641111283E+03  0.71098560907E+02 -0.19858081385E+03  0.25473832569E+03  0.95283496210E+02 0.  0.
          2    1    3    3  502    0  0.44399633413E+03  0.12650002511E+02  0.22620412437E+03  0.49845869755E+03  0.00000000000E+00 0. -1.
         -1    1    3    3    0  502  0.68300615588E+03  0.35864104894E+02  0.46310683952E+03  0.82598522251E+03  0.00000000000E+00 0.  1.
         13    1    5    5    0    0 -0.91594838101E+03 -0.57989451351E+02 -0.33061815476E+03  0.97551656952E+03  0.00000000000E+00 0. -1.
        -13    1    5    5    0    0 -0.31746522183E+03 -0.61623216961E+02 -0.78650324635E+02  0.33281745974E+03  0.00000000000E+00 0.  1.
          1    1    6    6  503    0  0.62618076719E+02  0.81801354556E+02 -0.88600689117E+02  0.13587702989E+03  0.00000000000E+00 0. -1.
         -1    1    6    6    0  503  0.43793036112E+02 -0.10702793650E+02 -0.10998012473E+03  0.11886129580E+03  0.00000000000E+00 0.  1.
<mgrwt>
<rscale>  0 0.28863670E+04</rscale>
<asrwt>0</asrwt>
<pdfrwt beam="1">  1        2 0.22838292E+00 0.28863670E+04</pdfrwt>
<pdfrwt beam="2">  1       -1 0.21585036E+00 0.28863670E+04</pdfrwt>
<totfact> 0.14956373E+00</totfact>
</mgrwt>
</event>
<event>
12    7  0.1707730E-007  0.1431158E+04  0.7818608E-02  0.8931569E-01
         -1   -1    0    0    0  501 -0.00000000000E+00  0.00000000000E+00  0.12999802786E+03  0.12999802786E+03  0.00000000000E+00 0.  1.
          2   -1    0    0  501    0  0.00000000000E+00 -0.00000000000E+00 -0.39389296229E+04  0.39389296229E+04  0.00000000000E+00 0. -1.
         24    2    1    2    0    0 -0.23522117643E+03 -0.78028615037E+01 -0.14801619856E+03  0.29002453721E+03  0.82556348388E+02 0.  0.
        254    2    1    2    0    0  0.23522117643E+03  0.78028615037E+01 -0.36609153965E+04  0.37789031136E+04  0.90687227046E+03 0.  0.
         23    2    4    4    0    0  0.96880403741E+02  0.16665207487E+03 -0.15055981684E+03  0.26106292510E+03  0.91251661501E+02 0.  0.
         23    2    4    4    0    0  0.13834077269E+03 -0.15884921337E+03 -0.35103555797E+04  0.35178401885E+04  0.90730667245E+02 0.  0.
          4    1    3    3  502    0 -0.10315575753E+03 -0.41029688564E+02 -0.47430307587E+02  0.12072356743E+03  0.00000000000E+00 0. -1.
         -3    1    3    3    0  502 -0.13206541890E+03  0.33226827060E+02 -0.10058589097E+03  0.16930096978E+03  0.00000000000E+00 0.  1.
         13    1    5    5    0    0  0.10557573320E+03  0.15291337287E+03 -0.15730348309E+03  0.24346071723E+03  0.00000000000E+00 0. -1.
        -13    1    5    5    0    0 -0.86953294584E+01  0.13738702005E+02  0.67436662564E+01  0.17602207866E+02  0.00000000000E+00 0.  1.
          3    1    6    6  503    0  0.14260875695E+03 -0.16732629523E+03 -0.33583338328E+04  0.33655224675E+04  0.00000000000E+00 0. -1.
         -3    1    6    6    0  503 -0.42679842599E+01  0.84770818611E+01 -0.15202174689E+03  0.15231772101E+03  0.00000000000E+00 0.  1.
<mgrwt>
<rscale>  0 0.14311577E+04</rscale>
<asrwt>0</asrwt>
<pdfrwt beam="1">  1        2 0.60598917E+00 0.14311577E+04</pdfrwt>
<pdfrwt beam="2">  1       -1 0.19999697E-01 0.14311577E+04</pdfrwt>
<totfact> 0.88855899E+00</totfact>
</mgrwt>
</event>
<event>
12    7  0.1707730E-007  0.1136324E+04  0.7818608E-02  0.9170493E-01
         -1   -1    0    0    0  501 -0.00000000000E+00  0.00000000000E+00  0.25138460310E+03  0.25138460310E+03  0.00000000000E+00 0.  1.
          2   -1    0    0  501    0  0.00000000000E+00 -0.00000000000E+00 -0.12841213456E+04  0.12841213456E+04  0.00000000000E+00 0. -1.
         24    2    1    2    0    0  0.15497770845E+03 -0.15797928721E+00 -0.35924589572E+03  0.39932311074E+03  0.79895044326E+02 0.  0.
        254    2    1    2    0    0 -0.15497770845E+03  0.15797928721E+00 -0.67349084679E+03  0.11361828380E+04  0.90183335796E+03 0.  0.
         23    2    4    4    0    0 -0.12000873814E+03  0.23928092561E+03 -0.80008737203E+03  0.84877435522E+03  0.92847426554E+02 0.  0.
         23    2    4    4    0    0 -0.34968970301E+02 -0.23912294632E+03  0.12659652524E+03  0.28740848275E+03  0.90412075611E+02 0.  0.
          4    1    3    3  502    0  0.60572322220E+02  0.24509050156E+02 -0.21850785191E+03  0.22806880783E+03  0.00000000000E+00 0. -1.
         -3    1    3    3    0  502  0.94405386225E+02 -0.24667029443E+02 -0.14073804380E+03  0.17125430291E+03  0.00000000000E+00 0.  1.
         13    1    5    5    0    0 -0.89087231015E+02  0.21754379075E+03 -0.58631033866E+03  0.63168160401E+03  0.00000000000E+00 0. -1.
        -13    1    5    5    0    0 -0.30921507129E+02  0.21737134859E+02 -0.21377703337E+03  0.21709275122E+03  0.00000000000E+00 0.  1.
          3    1    6    6  503    0  0.22413641862E+02 -0.12236760294E+03  0.38246966992E+02  0.13015003679E+03  0.00000000000E+00 0. -1.
         -3    1    6    6    0  503 -0.57382612163E+02 -0.11675534337E+03  0.88349558246E+02  0.15725844596E+03  0.00000000000E+00 0.  1.
<mgrwt>
<rscale>  0 0.11363245E+04</rscale>
<asrwt>0</asrwt>
<pdfrwt beam="1">  1        2 0.19755713E+00 0.11363245E+04</pdfrwt>
<pdfrwt beam="2">  1       -1 0.38674554E-01 0.11363245E+04</pdfrwt>
<totfact> 0.12343757E+02</totfact>
</mgrwt>
</event>
<event>
12    7  0.1707730E-007  0.1424034E+04  0.7818608E-02  0.8936603E-01
         -1   -1    0    0    0  501 -0.00000000000E+00  0.00000000000E+00  0.58988432170E+03  0.58988432170E+03  0.00000000000E+00 0.  1.
          2   -1    0    0  501    0  0.00000000000E+00 -0.00000000000E+00 -0.85943653124E+03  0.85943653124E+03  0.00000000000E+00 0. -1.
         24    2    1    2    0    0  0.10514211683E+03  0.78430239537E+02  0.32722255491E+03  0.36119846150E+03  0.78635621301E+02 0.  0.
        254    2    1    2    0    0 -0.10514211683E+03 -0.78430239537E+02 -0.59677476445E+03  0.10881223914E+04  0.90036884224E+03 0.  0.
         23    2    4    4    0    0 -0.11091314633E+02 -0.38492069342E+03 -0.64101106768E+03  0.75218435518E+03  0.81235200555E+02 0.  0.
         23    2    4    4    0    0 -0.94050802193E+02  0.30649045389E+03  0.44236303226E+02  0.33593803627E+03  0.90086413904E+02 0.  0.
          2    1    3    3  502    0  0.95685707181E+02  0.57814244665E+02  0.17753375390E+03  0.20980103722E+03  0.00000000000E+00 0. -1.
         -3    1    3    3    0  502  0.94564096447E+01  0.20615994872E+02  0.14968880101E+03  0.15139742428E+03  0.00000000000E+00 0.  1.
         13    1    5    5    0    0 -0.15973554367E+02 -0.36006904003E+03 -0.62707715718E+03  0.72327769846E+03  0.00000000000E+00 0. -1.
        -13    1    5    5    0    0  0.48822397340E+01 -0.24851653395E+02 -0.13933910495E+02  0.28906656724E+02  0.00000000000E+00 0.  1.
          3    1    6    6  503    0 -0.79657512580E+02  0.30644385883E+03  0.34370052588E+02  0.31848776811E+03  0.00000000000E+00 0. -1.
         -3    1    6    6    0  503 -0.14393289613E+02  0.46595061576E-01  0.98662506376E+01  0.17450268154E+02  0.00000000000E+00 0.  1.
<mgrwt>
<rscale>  0 0.14240339E+04</rscale>
<asrwt>0</asrwt>
<pdfrwt beam="1">  1        2 0.13222100E+00 0.14240339E+04</pdfrwt>
<pdfrwt beam="2">  1       -1 0.90751434E-01 0.14240339E+04</pdfrwt>
<totfact> 0.41132430E+01</totfact>
</mgrwt>
</event>
<event>
12    7  0.1707730E-007  0.2849069E+04  0.7818608E-02  0.8288194E-01
         -1   -1    0    0    0  501 -0.00000000000E+00  0.00000000000E+00  0.10756673467E+04  0.10756673467E+04  0.00000000000E+00 0.  1.
          2   -1    0    0  501    0  0.00000000000E+00 -0.00000000000E+00 -0.18865485707E+04  0.18865485707E+04  0.00000000000E+00 0. -1.
         24    2    1    2    0    0 -0.68593983301E+03  0.87228306828E+03  0.30940108992E+03  0.11544573336E+04  0.75176426029E+02 0.  0.
        254    2    1    2    0    0  0.68593983301E+03 -0.87228306828E+03 -0.11202823139E+04  0.18077585838E+04  0.88406302309E+03 0.  0.
         23    2    4    4    0    0  0.53535735683E+03 -0.10136686334E+04 -0.10842788430E+04  0.15802283841E+04  0.85612723700E+02 0.  0.
         23    2    4    4    0    0  0.15058247618E+03  0.14138556516E+03 -0.36003470856E+02  0.22753019973E+03  0.88367311299E+02 0.  0.
          2    1    3    3  502    0 -0.18718451540E+03  0.26491937050E+03  0.59597449744E+02  0.32980626387E+03  0.00000000000E+00 0. -1.
         -3    1    3    3    0  502 -0.49875531761E+03  0.60736369777E+03  0.24980364018E+03  0.82465106977E+03  0.00000000000E+00 0.  1.
         13    1    5    5    0    0  0.38621033006E+03 -0.80678257793E+03 -0.84961598203E+03  0.12336546778E+04  0.00000000000E+00 0.  1.
        -13    1    5    5    0    0  0.14914702677E+03 -0.20688605551E+03 -0.23466286098E+03  0.34657370628E+03  0.00000000000E+00 0. -1.
          3    1    6    6  503    0  0.29102121799E+02  0.73432153821E+02 -0.39451462775E+02  0.88292879799E+02  0.00000000000E+00 0. -1.
         -3    1    6    6    0  503  0.12148035438E+03  0.67953411342E+02  0.34479919190E+01  0.13923731993E+03  0.00000000000E+00 0.  1.
<mgrwt>
<rscale>  0 0.28490691E+04</rscale>
<asrwt>0</asrwt>
<pdfrwt beam="1">  1        2 0.29023824E+00 0.28490691E+04</pdfrwt>
<pdfrwt beam="2">  1       -1 0.16548729E+00 0.28490691E+04</pdfrwt>
<totfact> 0.20245657E+00</totfact>
</mgrwt>
</event>
<event>
12    7  0.1707730E-007  0.2626322E+04  0.7818608E-02  0.8359315E-01
          2   -1    0    0  501    0  0.00000000000E+00  0.00000000000E+00  0.12880278678E+04  0.12880278678E+04  0.00000000000E+00 0. -1.
         -1   -1    0    0    0  501 -0.00000000000E+00 -0.00000000000E+00 -0.13387844729E+04  0.13387844729E+04  0.00000000000E+00 0.  1.
         24    2    1    2    0    0  0.38476634614E+03 -0.61823112433E+03  0.80916315610E+03  0.10914813081E+04  0.79571154115E+02 0.  0.
        254    2    1    2    0    0 -0.38476634614E+03  0.61823112433E+03 -0.85991976123E+03  0.15353310326E+04  0.10428444369E+04 0.  0.
         23    2    4    4    0    0 -0.30686939701E+03  0.52838608938E+03 -0.10934792095E+04  0.12559478170E+04  0.91364386365E+02 0.  0.
         23    2    4    4    0    0 -0.77896949132E+02  0.89845034947E+02  0.23355944824E+03  0.27938321561E+03  0.96772415065E+02 0.  0.
          4    1    3    3  502    0  0.35237919761E+03 -0.54472607475E+03  0.75034386030E+03  0.99192414231E+03  0.00000000000E+00 0. -1.
         -3    1    3    3    0  502  0.32387148536E+02 -0.73505049584E+02  0.58819295799E+02  0.99557165804E+02  0.00000000000E+00 0.  1.
         13    1    5    5    0    0 -0.13105085750E+03  0.28359110141E+03 -0.62799368357E+03  0.70140880139E+03  0.00000000000E+00 0.  1.
        -13    1    5    5    0    0 -0.17581853950E+03  0.24479498797E+03 -0.46548552589E+03  0.55453901556E+03  0.00000000000E+00 0. -1.
          4    1    6    6  503    0  0.11014875371E+01 -0.17070108056E+02  0.49245311695E+02  0.52131589155E+02  0.00000000000E+00 0. -1.
         -4    1    6    6    0  503 -0.78998436669E+02  0.10691514300E+03  0.18431413654E+03  0.22725162646E+03  0.00000000000E+00 0.  1.
<mgrwt>
<rscale>  0 0.26263219E+04</rscale>
<asrwt>0</asrwt>
<pdfrwt beam="1">  1        2 0.19815813E+00 0.26263219E+04</pdfrwt>
<pdfrwt beam="2">  1       -1 0.20596684E+00 0.26263219E+04</pdfrwt>
<totfact> 0.23138564E+00</totfact>
</mgrwt>
</event>
<event>
12    7  0.1707730E-007  0.1655203E+04  0.7818608E-02  0.8787334E-01
         -1   -1    0    0    0  501 -0.00000000000E+00  0.00000000000E+00  0.54315820371E+03  0.54315820371E+03  0.00000000000E+00 0.  1.
          2   -1    0    0  501    0  0.00000000000E+00 -0.00000000000E+00 -0.12610032035E+04  0.12610032035E+04  0.00000000000E+00 0. -1.
         24    2    1    2    0    0 -0.37819937876E+03 -0.30040321525E+03  0.10057498620E+03  0.49909361747E+03  0.75513239356E+02 0.  0.
        254    2    1    2    0    0  0.37819937876E+03  0.30040321525E+03 -0.81841998599E+03  0.13050677898E+04  0.89449080518E+03 0.  0.
         23    2    4    4    0    0  0.56193401813E+03  0.19915118904E+03 -0.18430172702E+03  0.63091077679E+03  0.93006692572E+02 0.  0.
         23    2    4    4    0    0 -0.18373463936E+03  0.10125202621E+03 -0.63411825896E+03  0.67415701296E+03  0.91494924742E+02 0.  0.
          2    1    3    3  502    0 -0.18178367763E+03 -0.16831312131E+03  0.84869991072E+02  0.26187311363E+03  0.00000000000E+00 0. -1.
         -1    1    3    3    0  502 -0.19641570114E+03 -0.13209009395E+03  0.15704995126E+02  0.23722050384E+03  0.00000000000E+00 0.  1.
         13    1    5    5    0    0  0.22678075518E+02  0.29064827100E+02 -0.20679948153E+02  0.42269605382E+02  0.00000000000E+00 0. -1.
        -13    1    5    5    0    0  0.53925594261E+03  0.17008636194E+03 -0.16362177887E+03  0.58864117141E+03  0.00000000000E+00 0.  1.
          4    1    6    6  503    0 -0.53670360897E+02 -0.22772011503E-01 -0.82387375894E+02  0.98326943733E+02  0.00000000000E+00 0. -1.
         -4    1    6    6    0  503 -0.13006427847E+03  0.10127479822E+03 -0.55173088307E+03  0.57583006922E+03  0.00000000000E+00 0.  1.
<mgrwt>
<rscale>  0 0.16552030E+04</rscale>
<asrwt>0</asrwt>
<pdfrwt beam="1">  1        2 0.19400049E+00 0.16552030E+04</pdfrwt>
<pdfrwt beam="2">  1       -1 0.83562802E-01 0.16552030E+04</pdfrwt>
<totfact> 0.26951458E+01</totfact>
</mgrwt>
</event>
<event>
12    7  0.1707730E-007  0.2442733E+04  0.7818608E-02  0.8423676E-01
          2   -1    0    0  501    0  0.00000000000E+00  0.00000000000E+00  0.16377260366E+04  0.16377260366E+04  0.00000000000E+00 0. -1.
         -1   -1    0    0    0  501 -0.00000000000E+00 -0.00000000000E+00 -0.91085797061E+03  0.91085797061E+03  0.00000000000E+00 0.  1.
         24    2    1    2    0    0  0.65977683126E+03  0.67783664492E+03  0.79724809932E+03  0.12399278155E+04  0.83955175975E+02 0.  0.
        254    2    1    2    0    0 -0.65977683126E+03 -0.67783664492E+03 -0.70380033322E+02  0.13086561917E+04  0.90158731950E+03 0.  0.
         23    2    4    4    0    0 -0.39252519525E+02  0.83314081390E+02 -0.27401509652E+03  0.30158201762E+03  0.85938604729E+02 0.  0.
         23    2    4    4    0    0 -0.62052431174E+03 -0.76115072631E+03  0.20363506320E+03  0.10070741741E+04  0.91270496223E+02 0.  0.
          2    1    3    3  502    0  0.48681764294E+03  0.50319737131E+03  0.63664767659E+03  0.94631880256E+03  0.00000000000E+00 0. -1.
         -1    1    3    3    0  502  0.17295918832E+03  0.17463927361E+03  0.16060042273E+03  0.29360901297E+03  0.00000000000E+00 0.  1.
         13    1    5    5    0    0 -0.36341656922E+02  0.39729130429E+02 -0.24069128475E+03  0.24664025298E+03  0.00000000000E+00 0.  1.
        -13    1    5    5    0    0 -0.29108626036E+01  0.43584950961E+02 -0.33323811772E+02  0.54941764646E+02  0.00000000000E+00 0. -1.
          1    1    6    6  503    0 -0.31905136836E+03 -0.44951174803E+03  0.86880854739E+02  0.55803482883E+03  0.00000000000E+00 0. -1.
         -1    1    6    6    0  503 -0.30147294338E+03 -0.31163897829E+03  0.11675420846E+03  0.44903934524E+03  0.00000000000E+00 0.  1.
<mgrwt>
<rscale>  0 0.24427327E+04</rscale>
<asrwt>0</asrwt>
<pdfrwt beam="1">  1        2 0.25195785E+00 0.24427327E+04</pdfrwt>
<pdfrwt beam="2">  1       -1 0.14013200E+00 0.24427327E+04</pdfrwt>
<totfact> 0.45324492E+00</totfact>
</mgrwt>
</event>
<event>
12    7  0.1707730E-007  0.2087702E+04  0.7818608E-02  0.8566680E-01
          2   -1    0    0  501    0  0.00000000000E+00  0.00000000000E+00  0.13520171736E+04  0.13520171736E+04  0.00000000000E+00 0. -1.
         -1   -1    0    0    0  501 -0.00000000000E+00 -0.00000000000E+00 -0.80592540857E+03  0.80592540857E+03  0.00000000000E+00 0.  1.
         24    2    1    2    0    0 -0.79036917089E+03  0.29265678751E+03  0.13460049375E+03  0.85772797016E+03  0.85138453747E+02 0.  0.
        254    2    1    2    0    0  0.79036917089E+03 -0.29265678751E+03  0.41149127129E+03  0.13002146120E+04  0.90050072149E+03 0.  0.
         23    2    4    4    0    0  0.58413602041E+03 -0.49585313097E+03  0.56837137485E+03  0.95837879336E+03  0.91425784034E+02 0.  0.
         23    2    4    4    0    0  0.20623315048E+03  0.20319634346E+03 -0.15688010356E+03  0.34183581866E+03  0.91757798976E+02 0.  0.
          2    1    3    3  502    0 -0.52477546978E+02  0.67052824636E+01  0.26006640178E+02  0.58950819189E+02  0.00000000000E+00 0. -1.
         -1    1    3    3    0  502 -0.73789162391E+03  0.28595150505E+03  0.10859385358E+03  0.79877715097E+03  0.00000000000E+00 0.  1.
         13    1    5    5    0    0  0.22702653218E+03 -0.24919058074E+03  0.23084230446E+03  0.40856475787E+03  0.00000000000E+00 0.  1.
        -13    1    5    5    0    0  0.35710948822E+03 -0.24666255023E+03  0.33752907039E+03  0.54981403549E+03  0.00000000000E+00 0. -1.
          3    1    6    6  503    0  0.31899197236E+02 -0.36085385880E+01 -0.79896290660E+01  0.33081936274E+02  0.00000000000E+00 0.  1.
         -3    1    6    6    0  503  0.17433395324E+03  0.20680488205E+03 -0.14889047449E+03  0.30875388239E+03  0.00000000000E+00 0. -1.
<mgrwt>
<rscale>  0 0.20877021E+04</rscale>
<asrwt>0</asrwt>
<pdfrwt beam="1">  1        2 0.20800264E+00 0.20877021E+04</pdfrwt>
<pdfrwt beam="2">  1       -1 0.12398853E+00 0.20877021E+04</pdfrwt>
<totfact> 0.92585860E+00</totfact>
</mgrwt>
</event>
<event>
12    7  0.1707730E-007  0.2889621E+04  0.7818608E-02  0.8275972E-01
          2   -1    0    0  501    0  0.00000000000E+00  0.00000000000E+00  0.16702094282E+04  0.16702094282E+04  0.00000000000E+00 0. -1.
         -1   -1    0    0    0  501 -0.00000000000E+00 -0.00000000000E+00 -0.12498293929E+04  0.12498293929E+04  0.00000000000E+00 0.  1.
         24    2    1    2    0    0 -0.74078555839E+03 -0.10257372998E+04 -0.16236813320E+03  0.12781389853E+04  0.79847376018E+02 0.  0.
        254    2    1    2    0    0  0.74078555839E+03  0.10257372998E+04  0.58274816843E+03  0.16418998358E+04  0.86910263562E+03 0.  0.
         23    2    4    4    0    0  0.57148019112E+03  0.10537791287E+03  0.29175037326E+03  0.65661489017E+03  0.91272779734E+02 0.  0.
         23    2    4    4    0    0  0.16930536727E+03  0.92035938691E+03  0.29099779517E+03  0.98528494561E+03  0.10188718664E+03 0.  0.
          2    1    3    3  502    0 -0.55257573612E+03 -0.76879753438E+03 -0.86444778585E+02  0.95071672583E+03  0.00000000000E+00 0. -1.
         -1    1    3    3    0  502 -0.18820982228E+03 -0.25693976539E+03 -0.75923354610E+02  0.32742225950E+03  0.00000000000E+00 0.  1.
         13    1    5    5    0    0  0.11925456913E+03 -0.86980207348E+00  0.93499500751E+02  0.15154063961E+03  0.00000000000E+00 0.  1.
        -13    1    5    5    0    0  0.45222562199E+03  0.10624771494E+03  0.19825087251E+03  0.50507425055E+03  0.00000000000E+00 0. -1.
          3    1    6    6  503    0  0.17192190345E+03  0.76917885333E+03  0.26720658062E+03  0.83222148856E+03  0.00000000000E+00 0. -1.
         -3    1    6    6    0  503 -0.26165361866E+01  0.15118053358E+03  0.23791214550E+02  0.15306345705E+03  0.00000000000E+00 0.  1.
<mgrwt>
<rscale>  0 0.28896206E+04</rscale>
<asrwt>0</asrwt>
<pdfrwt beam="1">  1        2 0.25695530E+00 0.28896206E+04</pdfrwt>
<pdfrwt beam="2">  1       -1 0.19228144E+00 0.28896206E+04</pdfrwt>
<totfact> 0.17063262E+00</totfact>
</mgrwt>
</event>
<event>
12    7  0.1707730E-007  0.4951065E+04  0.7818608E-02  0.7836100E-01
         -1   -1    0    0    0  501 -0.00000000000E+00  0.00000000000E+00  0.19540668762E+04  0.19540668762E+04  0.00000000000E+00 0.  1.
          2   -1    0    0  501    0  0.00000000000E+00 -0.00000000000E+00 -0.31361579114E+04  0.31361579114E+04  0.00000000000E+00 0. -1.
         24    2    1    2    0    0 -0.10883570896E+04  0.62219010916E+03 -0.26605697104E+04  0.29422020560E+04  0.79246878680E+02 0.  0.
        254    2    1    2    0    0  0.10883570896E+04 -0.62219010916E+03  0.14784786753E+04  0.21480227316E+04  0.92545166043E+03 0.  0.
         23    2    4    4    0    0  0.11063328570E+04 -0.71552518408E+03  0.10130881050E+04  0.16643889374E+04  0.88850136686E+02 0.  0.
         23    2    4    4    0    0 -0.17975767385E+02  0.93335074915E+02  0.46539057031E+03  0.48363379426E+03  0.90987359560E+02 0.  0.
          4    1    3    3  502    0 -0.10672397503E+04  0.60740521425E+03 -0.25747034461E+04  0.28525496691E+04  0.00000000000E+00 0. -1.
         -3    1    3    3    0  502 -0.21117339272E+02  0.14784894908E+02 -0.85866264333E+02  0.89652386950E+02  0.00000000000E+00 0.  1.
         13    1    5    5    0    0  0.74025165783E+03 -0.52718554238E+03  0.68931325199E+03  0.11406357317E+04  0.00000000000E+00 0. -1.
        -13    1    5    5    0    0  0.36608119917E+03 -0.18833964170E+03  0.32377485300E+03  0.52375320567E+03  0.00000000000E+00 0.  1.
          2    1    6    6  503    0  0.47972082658E+00  0.83169275329E+02  0.44979507875E+03  0.45741990704E+03  0.00000000000E+00 0. -1.
         -2    1    6    6    0  503 -0.18455488211E+02  0.10165799586E+02  0.15595491560E+02  0.26213887223E+02  0.00000000000E+00 0.  1.
<mgrwt>
<rscale>  0 0.49510655E+04</rscale>
<asrwt>0</asrwt>
<pdfrwt beam="1">  1        2 0.48248583E+00 0.49510655E+04</pdfrwt>
<pdfrwt beam="2">  1       -1 0.30062567E+00 0.49510655E+04</pdfrwt>
<totfact> 0.38731406E-02</totfact>
</mgrwt>
</event>
<event>
12    7  0.1707730E-007  0.1519708E+04  0.7818608E-02  0.8871452E-01
         -1   -1    0    0    0  501 -0.00000000000E+00  0.00000000000E+00  0.16009378576E+04  0.16009378576E+04  0.00000000000E+00 0.  1.
          2   -1    0    0  501    0  0.00000000000E+00 -0.00000000000E+00 -0.36064977529E+03  0.36064977529E+03  0.00000000000E+00 0. -1.
         24    2    1    2    0    0  0.22044568232E+03 -0.40534784072E+03  0.11770889963E+03  0.48323549232E+03  0.82206965366E+02 0.  0.
        254    2    1    2    0    0 -0.22044568232E+03  0.40534784072E+03  0.11225791827E+04  0.14783521406E+04  0.84406034105E+03 0.  0.
         23    2    4    4    0    0 -0.12144163855E+03  0.49436404988E+03  0.11941337909E+04  0.13013284352E+04  0.91412800659E+02 0.  0.
         23    2    4    4    0    0 -0.99004043768E+02 -0.89016209158E+02 -0.71554608224E+02  0.17702370544E+03  0.92150117489E+02 0.  0.
          2    1    3    3  502    0  0.10309266247E+03 -0.13408827804E+03  0.12836334929E+02  0.16962468823E+03  0.00000000000E+00 0. -1.
         -1    1    3    3    0  502  0.11735301985E+03 -0.27125956268E+03  0.10487256470E+03  0.31361080409E+03  0.00000000000E+00 0.  1.
         13    1    5    5    0    0 -0.11218299509E+03  0.29048186364E+03  0.66865133128E+03  0.73760378274E+03  0.00000000000E+00 0. -1.
        -13    1    5    5    0    0 -0.92586434671E+01  0.20388218624E+03  0.52548245965E+03  0.56372465242E+03  0.00000000000E+00 0.  1.
          3    1    6    6  503    0 -0.93384054380E+01 -0.69535957501E+02 -0.31115586401E+02  0.76750471782E+02  0.00000000000E+00 0. -1.
         -3    1    6    6    0  503 -0.89665638329E+02 -0.19480251658E+02 -0.40439021823E+02  0.10027323366E+03  0.00000000000E+00 0.  1.
<mgrwt>
<rscale>  0 0.15197077E+04</rscale>
<asrwt>0</asrwt>
<pdfrwt beam="1">  1        2 0.55484582E-01 0.15197077E+04</pdfrwt>
<pdfrwt beam="2">  1       -1 0.24629813E+00 0.15197077E+04</pdfrwt>
<totfact> 0.72757521E+00</totfact>
</mgrwt>
</event>
<event>
12    7  0.1707730E-007  0.2485198E+04  0.7818608E-02  0.8408278E-01
          2   -1    0    0  501    0  0.00000000000E+00  0.00000000000E+00  0.26580167341E+04  0.26580167341E+04  0.00000000000E+00 0. -1.
         -1   -1    0    0    0  501 -0.00000000000E+00 -0.00000000000E+00 -0.58090379191E+03  0.58090379191E+03  0.00000000000E+00 0.  1.
         24    2    1    2    0    0  0.52811963945E+03 -0.71971822964E+02  0.21438445650E+04  0.22105477110E+04  0.79758177533E+02 0.  0.
        254    2    1    2    0    0 -0.52811963945E+03  0.71971822964E+02 -0.66731622718E+02  0.10283728151E+04  0.87693057904E+03 0.  0.
         23    2    4    4    0    0 -0.29699186595E+03  0.46594728053E+03 -0.20919534862E+02  0.56041979373E+03  0.91223251423E+02 0.  0.
         23    2    4    4    0    0 -0.23112777351E+03 -0.39397545757E+03 -0.45812087857E+02  0.46795302135E+03  0.90799636266E+02 0.  0.
          2    1    3    3  502    0  0.42105648327E+03 -0.41403905253E+02  0.15704313333E+04  0.16264247349E+04  0.00000000000E+00 0. -1.
         -1    1    3    3    0  502  0.10706315618E+03 -0.30567917711E+02  0.57341323161E+03  0.58412297608E+03  0.00000000000E+00 0.  1.
         13    1    5    5    0    0 -0.23270973045E+02  0.66567828155E+01  0.64557009448E+01  0.25050489389E+02  0.00000000000E+00 0. -1.
        -13    1    5    5    0    0 -0.27372089290E+03  0.45929049771E+03 -0.27375235806E+02  0.53536930435E+03  0.00000000000E+00 0.  1.
          1    1    6    6  503    0 -0.35868744410E+02 -0.82089942989E+02 -0.44402981896E+02  0.99984750670E+02  0.00000000000E+00 0. -1.
         -1    1    6    6    0  503 -0.19525902910E+03 -0.31188551458E+03 -0.14091059613E+01  0.36796827068E+03  0.00000000000E+00 0.  1.
<mgrwt>
<rscale>  0 0.24851978E+04</rscale>
<asrwt>0</asrwt>
<pdfrwt beam="1">  1        2 0.40892564E+00 0.24851978E+04</pdfrwt>
<pdfrwt beam="2">  1       -1 0.89369816E-01 0.24851978E+04</pdfrwt>
<totfact> 0.35039344E+00</totfact>
</mgrwt>
</event>
<event>
12    7  0.1707730E-007  0.1956548E+04  0.7818608E-02  0.8627210E-01
          2   -1    0    0  501    0  0.00000000000E+00  0.00000000000E+00  0.12895593875E+04  0.12895593875E+04  0.00000000000E+00 0. -1.
         -1   -1    0    0    0  501 -0.00000000000E+00 -0.00000000000E+00 -0.74212938170E+03  0.74212938170E+03  0.00000000000E+00 0.  1.
         24    2    1    2    0    0  0.67363646394E+03 -0.33049028537E+03  0.38955136773E+03  0.84894892087E+03  0.77162736271E+02 0.  0.
        254    2    1    2    0    0 -0.67363646394E+03  0.33049028537E+03  0.15787863806E+03  0.11827398483E+04  0.90052094376E+03 0.  0.
         23    2    4    4    0    0  0.14549711958E+03  0.48736809227E+02  0.25011300573E+03  0.30746824921E+03  0.91845088346E+02 0.  0.
         23    2    4    4    0    0 -0.81913358353E+03  0.28175347614E+03 -0.92234367671E+02  0.87527159911E+03  0.85019672107E+02 0.  0.
          2    1    3    3  502    0  0.16764783266E+03 -0.10981214219E+03  0.77790517081E+02  0.21497875922E+03  0.00000000000E+00 0. -1.
         -1    1    3    3    0  502  0.50598863129E+03 -0.22067814317E+03  0.31176085065E+03  0.63397016165E+03  0.00000000000E+00 0.  1.
         13    1    5    5    0    0  0.11615725378E+03  0.59225636598E+01  0.21610656080E+03  0.24541725690E+03  0.00000000000E+00 0. -1.
        -13    1    5    5    0    0  0.29339865799E+02  0.42814245567E+02  0.34006444936E+02  0.62050992303E+02  0.00000000000E+00 0.  1.
          1    1    6    6  503    0 -0.59107377693E+03  0.17057397159E+03 -0.41971366215E+02  0.61662410360E+03  0.00000000000E+00 0. -1.
         -1    1    6    6    0  503 -0.22805980660E+03  0.11117950455E+03 -0.50263001456E+02  0.25864749551E+03  0.00000000000E+00 0.  1.
<mgrwt>
<rscale>  0 0.19565479E+04</rscale>
<asrwt>0</asrwt>
<pdfrwt beam="1">  1        2 0.19839375E+00 0.19565479E+04</pdfrwt>
<pdfrwt beam="2">  1       -1 0.11417375E+00 0.19565479E+04</pdfrwt>
<totfact> 0.12444838E+01</totfact>
</mgrwt>
</event>
<event>
12    7  0.1707730E-007  0.1579162E+04  0.7818608E-02  0.8833453E-01
         -1   -1    0    0    0  501 -0.00000000000E+00  0.00000000000E+00  0.20333951965E+04  0.20333951965E+04  0.00000000000E+00 0.  1.
          2   -1    0    0  501    0  0.00000000000E+00 -0.00000000000E+00 -0.30659952167E+03  0.30659952167E+03  0.00000000000E+00 0. -1.
         24    2    1    2    0    0  0.36019683928E+03  0.32084711319E+03  0.33659106083E+03  0.59404283369E+03  0.83118667894E+02 0.  0.
        254    2    1    2    0    0 -0.36019683928E+03 -0.32084711319E+03  0.13902046140E+04  0.17459518845E+04  0.93967786027E+03 0.  0.
         23    2    4    4    0    0  0.18441913723E+03  0.20537204627E+03  0.44608348128E+03  0.53250915495E+03  0.91582925635E+02 0.  0.
         23    2    4    4    0    0 -0.54461597651E+03 -0.52621915946E+03  0.94412113270E+03  0.12134427295E+04  0.86979186955E+02 0.  0.
          2    1    3    3  502    0  0.28334869574E+03  0.23515963571E+03  0.21401667947E+03  0.42589866957E+03  0.00000000000E+00 0. -1.
         -1    1    3    3    0  502  0.76848143540E+02  0.85687477480E+02  0.12257438136E+03  0.16814416412E+03  0.00000000000E+00 0.  1.
         13    1    5    5    0    0  0.92427527014E+02  0.38880755362E+02  0.14205987360E+03  0.17388377893E+03  0.00000000000E+00 0. -1.
        -13    1    5    5    0    0  0.91991610213E+02  0.16649129091E+03  0.30402360768E+03  0.35862537602E+03  0.00000000000E+00 0.  1.
          1    1    6    6  503    0 -0.20927359942E+03 -0.18383607801E+03  0.41189127419E+03  0.49723793575E+03  0.00000000000E+00 0. -1.
         -1    1    6    6    0  503 -0.33534237708E+03 -0.34238308145E+03  0.53222985851E+03  0.71620479377E+03  0.00000000000E+00 0.  1.
<mgrwt>
<rscale>  0 0.15791618E+04</rscale>
<asrwt>0</asrwt>
<pdfrwt beam="1">  1        2 0.47169158E-01 0.15791618E+04</pdfrwt>
<pdfrwt beam="2">  1       -1 0.31283002E+00 0.15791618E+04</pdfrwt>
<totfact> 0.32196916E+00</totfact>
</mgrwt>
</event>
<event>
12    7  0.1707730E-007  0.1615669E+04  0.7818608E-02  0.8810979E-01
          4   -1    0    0  501    0  0.00000000000E+00  0.00000000000E+00  0.72445501035E+03  0.72445501035E+03  0.00000000000E+00 0. -1.
         -3   -1    0    0    0  501 -0.00000000000E+00 -0.00000000000E+00 -0.90081055737E+03  0.90081055737E+03  0.00000000000E+00 0.  1.
         24    2    1    2    0    0  0.36369635789E+03 -0.11607010537E+03 -0.48519481089E+03  0.62246875173E+03  0.79410529919E+02 0.  0.
        254    2    1    2    0    0 -0.36369635789E+03  0.11607010537E+03  0.30883926387E+03  0.10027968160E+04  0.87434115376E+03 0.  0.
         23    2    4    4    0    0 -0.47025600073E+03  0.39434771654E+03  0.30364285172E+03  0.69083919251E+03  0.91700494779E+02 0.  0.
         23    2    4    4    0    0  0.10655964285E+03 -0.27827761117E+03  0.51964121575E+01  0.31195762348E+03  0.92180094307E+02 0.  0.
          4    1    3    3  502    0  0.30402006013E+02 -0.36072239754E+02 -0.57722169399E+02  0.74547550534E+02  0.00000000000E+00 0. -1.
         -3    1    3    3    0  502  0.33329435187E+03 -0.79997865615E+02 -0.42747264149E+03  0.54792120119E+03  0.00000000000E+00 0.  1.
         13    1    5    5    0    0 -0.84713835211E+02  0.35140807562E+02  0.26545015787E+02  0.95477474283E+02  0.00000000000E+00 0.  1.
        -13    1    5    5    0    0 -0.38554216552E+03  0.35920690898E+03  0.27709783593E+03  0.59536171823E+03  0.00000000000E+00 0. -1.
          1    1    6    6  503    0  0.33748111136E+02 -0.20707202761E+03 -0.25730895207E+01  0.20981987612E+03  0.00000000000E+00 0. -1.
         -1    1    6    6    0  503  0.72811531711E+02 -0.71205583558E+02  0.77695016782E+01  0.10213774736E+03  0.00000000000E+00 0.  1.
<mgrwt>
<rscale>  0 0.16156692E+04</rscale>
<asrwt>0</asrwt>
<pdfrwt beam="1">  1        4 0.11145462E+00 0.16156692E+04</pdfrwt>
<pdfrwt beam="2">  1       -3 0.13858624E+00 0.16156692E+04</pdfrwt>
<totfact> 0.55008815E-01</totfact>
</mgrwt>
</event>
<event>
12    7  0.1707730E-007  0.1329022E+04  0.7818608E-02  0.9006862E-01
          2   -1    0    0  501    0  0.00000000000E+00  0.00000000000E+00  0.99012891379E+03  0.99012891379E+03  0.00000000000E+00 0. -1.
         -1   -1    0    0    0  501 -0.00000000000E+00 -0.00000000000E+00 -0.44597706223E+03  0.44597706223E+03  0.00000000000E+00 0.  1.
         24    2    1    2    0    0 -0.13524395780E+03 -0.14384527294E+03  0.46579101721E+03  0.51215875934E+03  0.79767990991E+02 0.  0.
        254    2    1    2    0    0  0.13524395780E+03  0.14384527294E+03  0.78360834353E+02  0.92394721669E+03  0.89919722430E+03 0.  0.
         23    2    4    4    0    0  0.27262142023E+03  0.32674437931E+03 -0.25866321358E+03  0.50645869737E+03  0.92246549583E+02 0.  0.
         23    2    4    4    0    0 -0.13737746243E+03 -0.18289910637E+03  0.33702404793E+03  0.41748851931E+03  0.91579498669E+02 0.  0.
          2    1    3    3  502    0 -0.59086193764E+02 -0.48424763350E+02  0.27692256598E+03  0.28726685076E+03  0.00000000000E+00 0. -1.
         -1    1    3    3    0  502 -0.76157764034E+02 -0.95420509585E+02  0.18886845123E+03  0.22489190857E+03  0.00000000000E+00 0.  1.
         13    1    5    5    0    0  0.17880477801E+03  0.15089316182E+03 -0.11454197520E+03  0.26049905759E+03  0.00000000000E+00 0. -1.
        -13    1    5    5    0    0  0.93816642214E+02  0.17585121749E+03 -0.14412123838E+03  0.24595963978E+03  0.00000000000E+00 0.  1.
          4    1    6    6  503    0 -0.11712137251E+03 -0.80753810951E+02  0.19436290187E+03  0.24086413494E+03  0.00000000000E+00 0. -1.
         -4    1    6    6    0  503 -0.20256089922E+02 -0.10214529542E+03  0.14266114607E+03  0.17662438437E+03  0.00000000000E+00 0.  1.
<mgrwt>
<rscale>  0 0.13290219E+04</rscale>
<asrwt>0</asrwt>
<pdfrwt beam="1">  1        2 0.15232753E+00 0.13290219E+04</pdfrwt>
<pdfrwt beam="2">  1       -1 0.68611856E-01 0.13290219E+04</pdfrwt>
<totfact> 0.61335735E+01</totfact>
</mgrwt>
</event>
<event>
12    7  0.1707730E-007  0.1710397E+04  0.7818608E-02  0.8755456E-01
         -1   -1    0    0    0  501 -0.00000000000E+00  0.00000000000E+00  0.40983867628E+03  0.40983867628E+03  0.00000000000E+00 0.  1.
          2   -1    0    0  501    0  0.00000000000E+00 -0.00000000000E+00 -0.17845186668E+04  0.17845186668E+04  0.00000000000E+00 0. -1.
         24    2    1    2    0    0 -0.54853888138E+02 -0.97940443172E+02 -0.12729730128E+04  0.12803757155E+04  0.79375071400E+02 0.  0.
        254    2    1    2    0    0  0.54853888138E+02  0.97940443172E+02 -0.10170697770E+03  0.91398162760E+03  0.90134168151E+03 0.  0.
         23    2    4    4    0    0 -0.29212641452E+03  0.28797429901E+02 -0.35496708581E+03  0.46996785388E+03  0.93279245533E+02 0.  0.
         23    2    4    4    0    0  0.34698030266E+03  0.69143013271E+02  0.25326010811E+03  0.44401377372E+03  0.88495548905E+02 0.  0.
          4    1    3    3  502    0 -0.42345687380E+02 -0.10494988794E+03 -0.12272560827E+04  0.12324630335E+04  0.00000000000E+00 0. -1.
         -3    1    3    3    0  502 -0.12508200758E+02  0.70094447664E+01 -0.45716930060E+02  0.47912681998E+02  0.00000000000E+00 0.  1.
         13    1    5    5    0    0 -0.13222682492E+03 -0.27912528525E+02 -0.12418867511E+03  0.18353710661E+03  0.00000000000E+00 0. -1.
        -13    1    5    5    0    0 -0.15989958960E+03  0.56709958426E+02 -0.23077841070E+03  0.28643074727E+03  0.00000000000E+00 0.  1.
          2    1    6    6  503    0  0.30524656375E+03  0.35345249696E+02  0.19107141348E+03  0.36184670291E+03  0.00000000000E+00 0. -1.
         -2    1    6    6    0  503  0.41733738911E+02  0.33797763575E+02  0.62188694631E+02  0.82167070813E+02  0.00000000000E+00 0.  1.
<mgrwt>
<rscale>  0 0.17103973E+04</rscale>
<asrwt>0</asrwt>
<pdfrwt beam="1">  1        2 0.27454134E+00 0.17103973E+04</pdfrwt>
<pdfrwt beam="2">  1       -1 0.63052103E-01 0.17103973E+04</pdfrwt>
<totfact> 0.24317029E+01</totfact>
</mgrwt>
</event>
<event>
12    7  0.1707730E-007  0.3716112E+04  0.7818608E-02  0.8064401E-01
          2   -1    0    0  501    0  0.00000000000E+00  0.00000000000E+00  0.35478493492E+04  0.35478493492E+04  0.00000000000E+00 0. -1.
         -1   -1    0    0    0  501 -0.00000000000E+00 -0.00000000000E+00 -0.97308881806E+03  0.97308881806E+03  0.00000000000E+00 0.  1.
         24    2    1    2    0    0  0.25505343216E+03  0.17225630585E+04  0.10178965884E+04  0.20186368491E+04  0.80656804196E+02 0.  0.
        254    2    1    2    0    0 -0.25505343216E+03 -0.17225630585E+04  0.15568639428E+04  0.25023013182E+04  0.89744682679E+03 0.  0.
         23    2    4    4    0    0 -0.34949981510E+02 -0.31363664562E+03 -0.69536218786E+02  0.33735997363E+03  0.96886631681E+02 0.  0.
         23    2    4    4    0    0 -0.22010345065E+03 -0.14089264129E+04  0.16264001615E+04  0.21649413446E+04  0.90963585953E+02 0.  0.
          2    1    3    3  502    0 -0.87301230108E+00  0.23940677822E+02  0.50710200118E+01  0.24487414094E+02  0.00000000000E+00 0. -1.
         -1    1    3    3    0  502  0.25592644446E+03  0.16986223807E+04  0.10128255684E+04  0.19941494350E+04  0.00000000000E+00 0.  1.
         13    1    5    5    0    0 -0.50035128206E+02 -0.19477130211E+03 -0.81420797829E+02  0.21695326801E+03  0.00000000000E+00 0. -1.
        -13    1    5    5    0    0  0.15085146696E+02 -0.11886534352E+03  0.11884579043E+02  0.12040670562E+03  0.00000000000E+00 0.  1.
          3    1    6    6  503    0 -0.75885176422E+02 -0.40430173327E+03  0.41086040850E+03  0.58139893945E+03  0.00000000000E+00 0. -1.
         -3    1    6    6    0  503 -0.14421827422E+03 -0.10046246796E+04  0.12155397530E+04  0.15835424051E+04  0.00000000000E+00 0.  1.
<mgrwt>
<rscale>  0 0.37161122E+04</rscale>
<asrwt>0</asrwt>
<pdfrwt beam="1">  1        2 0.54582297E+00 0.37161122E+04</pdfrwt>
<pdfrwt beam="2">  1       -1 0.14970597E+00 0.37161122E+04</pdfrwt>
<totfact> 0.24130130E-01</totfact>
</mgrwt>
</event>
<event>
12    7  0.1707730E-007  0.1285142E+04  0.7818608E-02  0.9041431E-01
          2   -1    0    0  501    0  0.00000000000E+00  0.00000000000E+00  0.54270092029E+03  0.54270092029E+03  0.00000000000E+00 0. -1.
         -1   -1    0    0    0  501 -0.00000000000E+00 -0.00000000000E+00 -0.76082008771E+03  0.76082008771E+03  0.00000000000E+00 0.  1.
         24    2    1    2    0    0  0.82671592662E+02  0.28049103931E+03  0.10107442723E+03  0.31927550830E+03  0.78809866105E+02 0.  0.
        254    2    1    2    0    0 -0.82671592662E+02 -0.28049103931E+03 -0.31919359465E+03  0.98424549970E+03  0.88393712302E+03 0.  0.
         23    2    4    4    0    0 -0.32559650328E+03 -0.48798968940E+03 -0.25359312287E+03  0.64540792466E+03  0.89971647358E+02 0.  0.
         23    2    4    4    0    0  0.24292491062E+03  0.20749865009E+03 -0.65600471778E+02  0.33883757505E+03  0.91865545098E+02 0.  0.
          2    1    3    3  502    0  0.67727827022E+02  0.26428061398E+03  0.70861562442E+02  0.28187348671E+03  0.00000000000E+00 0. -1.
         -1    1    3    3    0  502  0.14943765640E+02  0.16210425337E+02  0.30212864783E+02  0.37402021597E+02  0.00000000000E+00 0.  1.
         13    1    5    5    0    0 -0.31758799811E+02 -0.91445756586E+02 -0.67180311260E+02  0.11783098907E+03  0.00000000000E+00 0.  1.
        -13    1    5    5    0    0 -0.29383770347E+03 -0.39654393282E+03 -0.18641281161E+03  0.52757693559E+03  0.00000000000E+00 0. -1.
          1    1    6    6  503    0  0.24285705693E+03  0.21446903596E+03 -0.59181204561E+02  0.32936140098E+03  0.00000000000E+00 0. -1.
         -1    1    6    6    0  503  0.67853693565E-01 -0.69703858678E+01 -0.64192672173E+01  0.94761740633E+01  0.00000000000E+00 0.  1.
<mgrwt>
<rscale>  0 0.12851424E+04</rscale>
<asrwt>0</asrwt>
<pdfrwt beam="1">  1        2 0.83492449E-01 0.12851424E+04</pdfrwt>
<pdfrwt beam="2">  1       -1 0.11704925E+00 0.12851424E+04</pdfrwt>
<totfact> 0.41285331E+01</totfact>
</mgrwt>
</event>
<event>
12    7  0.1707730E-007  0.2458895E+04  0.7818608E-02  0.8417778E-01
          2   -1    0    0  501    0  0.00000000000E+00  0.00000000000E+00  0.16908049458E+04  0.16908049458E+04  0.00000000000E+00 0. -1.
         -1   -1    0    0    0  501 -0.00000000000E+00 -0.00000000000E+00 -0.89397716208E+03  0.89397716208E+03  0.00000000000E+00 0.  1.
         24    2    1    2    0    0 -0.51474998817E+02  0.98785053026E+03  0.75349064956E+03  0.12461060903E+04  0.80832442734E+02 0.  0.
        254    2    1    2    0    0  0.51474998817E+02 -0.98785053026E+03  0.43337134154E+02  0.13386760175E+04  0.90093119995E+03 0.  0.
         23    2    4    4    0    0  0.38357893200E+03 -0.79578733963E+03  0.20671941545E+03  0.91176556380E+03  0.90405971220E+02 0.  0.
         23    2    4    4    0    0 -0.33210393318E+03 -0.19206319063E+03 -0.16338228129E+03  0.42691045371E+03  0.91528542114E+02 0.  0.
          4    1    3    3  502    0 -0.55580037529E+02  0.87244696612E+03  0.63382279867E+03  0.10798074779E+04  0.00000000000E+00 0. -1.
         -3    1    3    3    0  502  0.41050387124E+01  0.11540356413E+03  0.11966785089E+03  0.16629861242E+03  0.00000000000E+00 0.  1.
         13    1    5    5    0    0  0.15816111556E+03 -0.40640442451E+03  0.71164447945E+02  0.44186408927E+03  0.00000000000E+00 0.  1.
        -13    1    5    5    0    0  0.22541781644E+03 -0.38938291512E+03  0.13555496750E+03  0.46990147453E+03  0.00000000000E+00 0. -1.
          3    1    6    6  503    0 -0.25415558368E+03 -0.18581805185E+03 -0.14476833081E+03  0.34652745737E+03  0.00000000000E+00 0. -1.
         -3    1    6    6    0  503 -0.77948349499E+02 -0.62451387814E+01 -0.18613950483E+02  0.80382996340E+02  0.00000000000E+00 0.  1.
<mgrwt>
<rscale>  0 0.24588949E+04</rscale>
<asrwt>0</asrwt>
<pdfrwt beam="1">  1        2 0.26012384E+00 0.24588949E+04</pdfrwt>
<pdfrwt beam="2">  1       -1 0.13753495E+00 0.24588949E+04</pdfrwt>
<totfact> 0.44391826E+00</totfact>
</mgrwt>
</event>
<event>
12    7  0.1707730E-007  0.1584105E+04  0.7818608E-02  0.8830373E-01
          2   -1    0    0  501    0  0.00000000000E+00  0.00000000000E+00  0.24915039903E+04  0.24915039903E+04  0.00000000000E+00 0. -1.
         -1   -1    0    0    0  501 -0.00000000000E+00 -0.00000000000E+00 -0.25179457294E+03  0.25179457294E+03  0.00000000000E+00 0.  1.
         24    2    1    2    0    0 -0.26003670494E+03  0.38808032857E+03  0.31241483690E+03  0.56765305756E+03  0.80009587594E+02 0.  0.
        254    2    1    2    0    0  0.26003670494E+03 -0.38808032857E+03  0.19272945805E+04  0.21756455057E+04  0.89484274437E+03 0.  0.
         23    2    4    4    0    0  0.28189333166E+03 -0.15830341359E+03  0.12899242414E+03  0.36028409861E+03  0.92961094213E+02 0.  0.
         23    2    4    4    0    0 -0.21856626721E+02 -0.22977691498E+03  0.17983021563E+04  0.18153614071E+04  0.91494535576E+02 0.  0.
          4    1    3    3  502    0 -0.11922787852E+03  0.19158519665E+03  0.19799384544E+03  0.30020282715E+03  0.00000000000E+00 0. -1.
         -3    1    3    3    0  502 -0.14080882641E+03  0.19649513192E+03  0.11442099146E+03  0.26745023041E+03  0.00000000000E+00 0.  1.
         13    1    5    5    0    0  0.20917109851E+03 -0.14069245193E+03  0.13363488770E+03  0.28531596116E+03  0.00000000000E+00 0. -1.
        -13    1    5    5    0    0  0.72722233151E+02 -0.17610961661E+02 -0.46424635599E+01  0.74968137452E+02  0.00000000000E+00 0.  1.
          1    1    6    6  503    0 -0.37661460906E+02 -0.21044480114E+03  0.17184152847E+04  0.17316629264E+04  0.00000000000E+00 0. -1.
         -1    1    6    6    0  503  0.15804834185E+02 -0.19332113840E+02  0.79886871683E+02  0.83698480729E+02  0.00000000000E+00 0.  1.
<mgrwt>
<rscale>  0 0.15841050E+04</rscale>
<asrwt>0</asrwt>
<pdfrwt beam="1">  1        2 0.38330829E+00 0.15841050E+04</pdfrwt>
<pdfrwt beam="2">  1       -1 0.38737628E-01 0.15841050E+04</pdfrwt>
<totfact> 0.24917499E+01</totfact>
</mgrwt>
</event>
<event>
12    7  0.1707730E-007  0.1990288E+04  0.7818608E-02  0.8611175E-01
          2   -1    0    0  501    0  0.00000000000E+00  0.00000000000E+00  0.27288329489E+04  0.27288329489E+04  0.00000000000E+00 0. -1.
         -1   -1    0    0    0  501 -0.00000000000E+00 -0.00000000000E+00 -0.36290654200E+03  0.36290654200E+03  0.00000000000E+00 0.  1.
         24    2    1    2    0    0  0.22799903337E+03 -0.30245360238E+03 -0.13239317843E+03  0.40891866867E+03  0.78897294517E+02 0.  0.
        254    2    1    2    0    0 -0.22799903337E+03  0.30245360238E+03  0.24983195854E+04  0.26828208223E+04  0.90136844463E+03 0.  0.
         23    2    4    4    0    0 -0.20967890277E+03 -0.82127797417E+02  0.21242500132E+04  0.21381633872E+04  0.92705632992E+02 0.  0.
         23    2    4    4    0    0 -0.18320130597E+02  0.38458139980E+03  0.37406957220E+03  0.54465743511E+03  0.92115126447E+02 0.  0.
          2    1    3    3  502    0  0.17332458863E+02 -0.70475732890E-01 -0.12517664291E+02  0.21380154732E+02  0.00000000000E+00 0. -1.
         -1    1    3    3    0  502  0.21066657451E+03 -0.30238312665E+03 -0.11987551413E+03  0.38753851394E+03  0.00000000000E+00 0.  1.
         13    1    5    5    0    0 -0.10028210955E+00  0.13012125599E+02  0.90454468816E+02  0.91385646564E+02  0.00000000000E+00 0. -1.
        -13    1    5    5    0    0 -0.20957862066E+03 -0.95139923016E+02  0.20337955443E+04  0.20467777406E+04  0.00000000000E+00 0.  1.
          4    1    6    6  503    0  0.20944827926E+01  0.21282492461E+02  0.61004700976E+02  0.64644449760E+02  0.00000000000E+00 0. -1.
         -4    1    6    6    0  503 -0.20414613389E+02  0.36329890733E+03  0.31306487123E+03  0.48001298535E+03  0.00000000000E+00 0.  1.
<mgrwt>
<rscale>  0 0.19902877E+04</rscale>
<asrwt>0</asrwt>
<pdfrwt beam="1">  1        2 0.41982044E+00 0.19902877E+04</pdfrwt>
<pdfrwt beam="2">  1       -1 0.55831777E-01 0.19902877E+04</pdfrwt>
<totfact> 0.87762095E+00</totfact>
</mgrwt>
</event>
<event>
12    7  0.1707730E-007  0.1311276E+04  0.7818608E-02  0.9020671E-01
         -1   -1    0    0    0  501 -0.00000000000E+00  0.00000000000E+00  0.54443741850E+03  0.54443741850E+03  0.00000000000E+00 0.  1.
          2   -1    0    0  501    0  0.00000000000E+00 -0.00000000000E+00 -0.78955140741E+03  0.78955140741E+03  0.00000000000E+00 0. -1.
         24    2    1    2    0    0  0.93305164709E+02  0.87366661692E+02 -0.38580215921E+03  0.41540014679E+03  0.85878918049E+02 0.  0.
        254    2    1    2    0    0 -0.93305164709E+02 -0.87366661692E+02  0.14068817030E+03  0.91858867912E+03  0.89870641080E+03 0.  0.
         23    2    4    4    0    0  0.26970005234E+03 -0.31431100874E+03  0.21384153715E+03  0.47478902311E+03  0.90370819429E+02 0.  0.
         23    2    4    4    0    0 -0.36300521705E+03  0.22694434705E+03 -0.73153366850E+02  0.44379965601E+03  0.91269903770E+02 0.  0.
          2    1    3    3  502    0  0.91551575794E+02  0.31269850842E+02 -0.26758240767E+03  0.28453442585E+03  0.00000000000E+00 0. -1.
         -1    1    3    3    0  502  0.17535889147E+01  0.56096810850E+02 -0.11821975154E+03  0.13086572094E+03  0.00000000000E+00 0.  1.
         13    1    5    5    0    0  0.16910712983E+03 -0.24642107848E+03  0.12295274227E+03  0.32316860322E+03  0.00000000000E+00 0.  1.
        -13    1    5    5    0    0  0.10059292251E+03 -0.67889930260E+02  0.90888794883E+02  0.15162041988E+03  0.00000000000E+00 0. -1.
          4    1    6    6  503    0 -0.18966382877E+03  0.83485282786E+02 -0.70140120464E+02  0.21877339163E+03  0.00000000000E+00 0. -1.
         -4    1    6    6    0  503 -0.17334138828E+03  0.14345906426E+03 -0.30132463859E+01  0.22502626439E+03  0.00000000000E+00 0.  1.
<mgrwt>
<rscale>  0 0.13112762E+04</rscale>
<asrwt>0</asrwt>
<pdfrwt beam="1">  1        2 0.12146945E+00 0.13112762E+04</pdfrwt>
<pdfrwt beam="2">  1       -1 0.83759603E-01 0.13112762E+04</pdfrwt>
<totfact> 0.55427619E+01</totfact>
</mgrwt>
</event>
<event>
12    7  0.1707730E-007  0.1671427E+04  0.7818608E-02  0.8777830E-01
         -1   -1    0    0    0  501 -0.00000000000E+00  0.00000000000E+00  0.35399971055E+03  0.35399971055E+03  0.00000000000E+00 0.  1.
          2   -1    0    0  501    0  0.00000000000E+00 -0.00000000000E+00 -0.19729315473E+04  0.19729315473E+04  0.00000000000E+00 0. -1.
         24    2    1    2    0    0 -0.50137437203E+03 -0.25177093500E+03 -0.77632173489E+03  0.96118136583E+03  0.80183023869E+02 0.  0.
        254    2    1    2    0    0  0.50137437203E+03  0.25177093500E+03 -0.84261010188E+03  0.13657498921E+04  0.91679666187E+03 0.  0.
         23    2    4    4    0    0  0.25459850112E+03 -0.33459308721E+03 -0.31821115015E+03  0.53598590643E+03  0.96174970935E+02 0.  0.
         23    2    4    4    0    0  0.24677587091E+03  0.58636402220E+03 -0.52439895173E+03  0.82976398562E+03  0.93770540466E+02 0.  0.
          2    1    3    3  502    0 -0.46142915054E+03 -0.25084145748E+03 -0.73811196752E+03  0.90589600637E+03  0.00000000000E+00 0. -1.
         -1    1    3    3    0  502 -0.39945221486E+02 -0.92947751681E+00 -0.38209767376E+02  0.55285359463E+02  0.00000000000E+00 0.  1.
         13    1    5    5    0    0  0.58134810956E+02 -0.10565714648E+03 -0.14321543650E+03  0.18722646741E+03  0.00000000000E+00 0.  1.
        -13    1    5    5    0    0  0.19646369017E+03 -0.22893594073E+03 -0.17499571364E+03  0.34875943902E+03  0.00000000000E+00 0. -1.
          3    1    6    6  503    0  0.19275498655E+03  0.52190733133E+03 -0.47921110489E+03  0.73429219687E+03  0.00000000000E+00 0. -1.
         -3    1    6    6    0  503  0.54020884355E+02  0.64456690868E+02 -0.45187846846E+02  0.95471788748E+02  0.00000000000E+00 0.  1.
<mgrwt>
<rscale>  0 0.16714272E+04</rscale>
<asrwt>0</asrwt>
<pdfrwt beam="1">  1        2 0.30352793E+00 0.16714272E+04</pdfrwt>
<pdfrwt beam="2">  1       -1 0.54461495E-01 0.16714272E+04</pdfrwt>
<totfact> 0.25589639E+01</totfact>
</mgrwt>
</event>
<event>
12    7  0.1707730E-007  0.1765725E+04  0.7818608E-02  0.8724742E-01
         -1   -1    0    0    0  501 -0.00000000000E+00  0.00000000000E+00  0.42638642219E+03  0.42638642219E+03  0.00000000000E+00 0.  1.
          2   -1    0    0  501    0  0.00000000000E+00 -0.00000000000E+00 -0.18280277644E+04  0.18280277644E+04  0.00000000000E+00 0. -1.
         24    2    1    2    0    0  0.19827817101E+03 -0.24625154585E+03 -0.12447968052E+04  0.12866026577E+04  0.76637168740E+02 0.  0.
        254    2    1    2    0    0 -0.19827817101E+03  0.24625154585E+03 -0.15684453693E+03  0.96781152881E+03  0.90116862440E+03 0.  0.
         23    2    4    4    0    0  0.26373858411E+03 -0.12526035182E+03 -0.20089707262E+03  0.36633798354E+03  0.92712932806E+02 0.  0.
         23    2    4    4    0    0 -0.46201675512E+03  0.37151189767E+03  0.44052535691E+02  0.60147354528E+03  0.91374108168E+02 0.  0.
          4    1    3    3  502    0  0.11219556761E+03 -0.19540521136E+03 -0.86662003025E+03  0.89543359265E+03  0.00000000000E+00 0. -1.
         -3    1    3    3    0  502  0.86082603408E+02 -0.50846334490E+02 -0.37817677500E+03  0.39116906510E+03  0.00000000000E+00 0.  1.
         13    1    5    5    0    0 -0.67636968437E+01 -0.75785113935E+01 -0.14791710826E+01  0.10264958696E+02  0.00000000000E+00 0. -1.
        -13    1    5    5    0    0  0.27050228095E+03 -0.11768184043E+03 -0.19941790153E+03  0.35607302484E+03  0.00000000000E+00 0.  1.
          2    1    6    6  503    0 -0.16996078565E+03  0.83687182018E+02  0.23652502479E+02  0.19091792468E+03  0.00000000000E+00 0. -1.
         -2    1    6    6    0  503 -0.29205596948E+03  0.28782471565E+03  0.20400033212E+02  0.41055562059E+03  0.00000000000E+00 0.  1.
<mgrwt>
<rscale>  0 0.17657250E+04</rscale>
<asrwt>0</asrwt>
<pdfrwt beam="1">  1        2 0.28123504E+00 0.17657250E+04</pdfrwt>
<pdfrwt beam="2">  1       -1 0.65597911E-01 0.17657250E+04</pdfrwt>
<totfact> 0.21144168E+01</totfact>
</mgrwt>
</event>
<event>
12    7  0.1707730E-007  0.1974115E+04  0.7818608E-02  0.8618819E-01
         -3   -1    0    0    0  501 -0.00000000000E+00  0.00000000000E+00  0.14937108562E+04  0.14937108562E+04  0.00000000000E+00 0.  1.
          2   -1    0    0  501    0  0.00000000000E+00 -0.00000000000E+00 -0.65225633774E+03  0.65225633774E+03  0.00000000000E+00 0. -1.
         24    2    1    2    0    0  0.55148998298E+03  0.37818841252E+03  0.76982610972E+03  0.10228220835E+04  0.79781567972E+02 0.  0.
        254    2    1    2    0    0 -0.55148998298E+03 -0.37818841252E+03  0.71628408731E+02  0.11231451104E+04  0.89953134101E+03 0.  0.
         23    2    4    4    0    0 -0.45752777425E+03  0.20500780827E+03  0.11920809788E+03  0.52352273612E+03  0.92225912728E+02 0.  0.
         23    2    4    4    0    0 -0.93962208730E+02 -0.58319622079E+03 -0.47579689154E+02  0.59962237431E+03  0.91304087184E+02 0.  0.
          2    1    3    3  502    0  0.13919732382E+03  0.61843212979E+02  0.14720621358E+03  0.21182574741E+03  0.00000000000E+00 0. -1.
         -1    1    3    3    0  502  0.41229265915E+03  0.31634519954E+03  0.62261989614E+03  0.81099633608E+03  0.00000000000E+00 0.  1.
         13    1    5    5    0    0 -0.12075431340E+02 -0.54645044855E+01 -0.69331055953E+01  0.14958101634E+02  0.00000000000E+00 0.  1.
        -13    1    5    5    0    0 -0.44545234291E+03  0.21047231275E+03  0.12614120348E+03  0.50856463449E+03  0.00000000000E+00 0. -1.
          3    1    6    6  503    0 -0.10385056539E+03 -0.56486537172E+03 -0.56211405822E+02  0.57707672821E+03  0.00000000000E+00 0. -1.
         -3    1    6    6    0  503  0.98883566643E+01 -0.18330849073E+02  0.86317166684E+01  0.22545646096E+02  0.00000000000E+00 0.  1.
<mgrwt>
<rscale>  0 0.19741149E+04</rscale>
<asrwt>0</asrwt>
<pdfrwt beam="1">  1        2 0.10034713E+00 0.19741149E+04</pdfrwt>
<pdfrwt beam="2">  1       -3 0.22980167E+00 0.19741149E+04</pdfrwt>
<totfact> 0.25089569E+00</totfact>
</mgrwt>
</event>
<event>
12    7  0.1707730E-007  0.1502306E+04  0.7818608E-02  0.8882921E-01
          2   -1    0    0  501    0  0.00000000000E+00  0.00000000000E+00  0.10309801830E+04  0.10309801830E+04  0.00000000000E+00 0. -1.
         -1   -1    0    0    0  501 -0.00000000000E+00 -0.00000000000E+00 -0.54727618454E+03  0.54727618454E+03  0.00000000000E+00 0.  1.
         24    2    1    2    0    0 -0.38912997866E+03 -0.21725373014E+03 -0.25995635795E+02  0.45339675719E+03  0.79192946630E+02 0.  0.
        254    2    1    2    0    0  0.38912997866E+03  0.21725373014E+03  0.50969963429E+03  0.11248596104E+04  0.89827284404E+03 0.  0.
         23    2    4    4    0    0  0.46412515010E+03  0.50118503662E+03  0.40779182761E+03  0.80077626089E+03  0.91377510651E+02 0.  0.
         23    2    4    4    0    0 -0.74995171444E+02 -0.28393130648E+03  0.10190780668E+03  0.32408334949E+03  0.91670899502E+02 0.  0.
          4    1    3    3  502    0 -0.11467529488E+03 -0.53482427020E+02 -0.42192975576E+02  0.13338305905E+03  0.00000000000E+00 0. -1.
         -3    1    3    3    0  502 -0.27445468378E+03 -0.16377130312E+03  0.16197339780E+02  0.32001369813E+03  0.00000000000E+00 0.  1.
         13    1    5    5    0    0  0.89904963513E+02  0.76808382876E+02  0.35448991216E+02  0.12344659219E+03  0.00000000000E+00 0. -1.
        -13    1    5    5    0    0  0.37422018659E+03  0.42437665375E+03  0.37234283639E+03  0.67732966870E+03  0.00000000000E+00 0.  1.
          4    1    6    6  503    0 -0.48552114349E+02 -0.84340680872E+02  0.70829986900E+02  0.12036421936E+03  0.00000000000E+00 0. -1.
         -4    1    6    6    0  503 -0.26443057095E+02 -0.19959062561E+03  0.31077819780E+02  0.20371913013E+03  0.00000000000E+00 0.  1.
<mgrwt>
<rscale>  0 0.15023061E+04</rscale>
<asrwt>0</asrwt>
<pdfrwt beam="1">  1        2 0.15861234E+00 0.15023061E+04</pdfrwt>
<pdfrwt beam="2">  1       -1 0.84196336E-01 0.15023061E+04</pdfrwt>
<totfact> 0.37074626E+01</totfact>
</mgrwt>
</event>
<event>
12    7  0.1707730E-007  0.1426334E+04  0.7818608E-02  0.8934974E-01
          2   -1    0    0  501    0  0.00000000000E+00  0.00000000000E+00  0.22127199169E+04  0.22127199169E+04  0.00000000000E+00 0. -1.
         -1   -1    0    0    0  501 -0.00000000000E+00 -0.00000000000E+00 -0.22985608852E+03  0.22985608852E+03  0.00000000000E+00 0.  1.
         24    2    1    2    0    0  0.16800569343E+03  0.31071926251E+03  0.19117643985E+03  0.40955265507E+03  0.80078542720E+02 0.  0.
        254    2    1    2    0    0 -0.16800569343E+03 -0.31071926251E+03  0.17916873886E+04  0.20330233504E+04  0.89345837716E+03 0.  0.
         23    2    4    4    0    0  0.37755975834E+02  0.14707639959E+03  0.80585036639E+01  0.17755717292E+03  0.91676764473E+02 0.  0.
         23    2    4    4    0    0 -0.20576166927E+03 -0.45779566210E+03  0.17836288849E+04  0.18554661774E+04  0.97508993799E+02 0.  0.
          4    1    3    3  502    0  0.20372697035E+02  0.35701282877E+02  0.55839234995E+02  0.69337208974E+02  0.00000000000E+00 0. -1.
         -3    1    3    3    0  502  0.14763299640E+03  0.27501797963E+03  0.13533720485E+03  0.34021544610E+03  0.00000000000E+00 0.  1.
         13    1    5    5    0    0  0.53766630831E+02  0.92522586064E+02  0.37677513770E+02  0.11344987689E+03  0.00000000000E+00 0. -1.
        -13    1    5    5    0    0 -0.16010654996E+02  0.54553813530E+02 -0.29619010106E+02  0.64107296026E+02  0.00000000000E+00 0.  1.
          4    1    6    6  503    0 -0.14781791318E+03 -0.27799147342E+03  0.95442555599E+03  0.10050161873E+04  0.00000000000E+00 0. -1.
         -4    1    6    6    0  503 -0.57943756087E+02 -0.17980418868E+03  0.82920332890E+03  0.85044999018E+03  0.00000000000E+00 0.  1.
<mgrwt>
<rscale>  0 0.14263340E+04</rscale>
<asrwt>0</asrwt>
<pdfrwt beam="1">  1        2 0.34041843E+00 0.14263340E+04</pdfrwt>
<pdfrwt beam="2">  1       -1 0.35362477E-01 0.14263340E+04</pdfrwt>
<totfact> 0.42875398E+01</totfact>
</mgrwt>
</event>
<event>
12    7  0.1707730E-007  0.1900187E+04  0.7818608E-02  0.8654763E-01
          2   -1    0    0  501    0  0.00000000000E+00  0.00000000000E+00  0.94545517085E+03  0.94545517085E+03  0.00000000000E+00 0. -1.
         -1   -1    0    0    0  501 -0.00000000000E+00 -0.00000000000E+00 -0.95475461047E+03  0.95475461047E+03  0.00000000000E+00 0.  1.
         24    2    1    2    0    0 -0.50273125551E+03  0.53455824474E+03 -0.10281986018E+02  0.73892740199E+03  0.86120577575E+02 0.  0.
        254    2    1    2    0    0  0.50273125551E+03 -0.53455824474E+03  0.98254640223E+00  0.11612823793E+04  0.90004698036E+03 0.  0.
         23    2    4    4    0    0  0.75355645876E+02 -0.68638762438E+03  0.35296056743E+02  0.69727188655E+03  0.90198824162E+02 0.  0.
         23    2    4    4    0    0  0.42737560964E+03  0.15182937965E+03 -0.34313510340E+02  0.46401049278E+03  0.91794597790E+02 0.  0.
          2    1    3    3  502    0 -0.12914853938E+03  0.86390638281E+02  0.21168904515E+00  0.15537931786E+03  0.00000000000E+00 0. -1.
         -1    1    3    3    0  502 -0.37358271614E+03  0.44816760646E+03 -0.10493675063E+02  0.58354808413E+03  0.00000000000E+00 0.  1.
         13    1    5    5    0    0  0.94618927293E+02 -0.49291684440E+03  0.28552700136E+02  0.50272757392E+03  0.00000000000E+00 0. -1.
        -13    1    5    5    0    0 -0.19263281416E+02 -0.19347077998E+03  0.67433566070E+01  0.19454431263E+03  0.00000000000E+00 0.  1.
          2    1    6    6  503    0  0.78982743428E+02  0.64629997665E+02  0.80930587652E+01  0.10237581725E+03  0.00000000000E+00 0. -1.
         -2    1    6    6    0  503  0.34839286621E+03  0.87199381981E+02 -0.42406569106E+02  0.36163467553E+03  0.00000000000E+00 0.  1.
<mgrwt>
<rscale>  0 0.19001870E+04</rscale>
<asrwt>0</asrwt>
<pdfrwt beam="1">  1        2 0.14545464E+00 0.19001870E+04</pdfrwt>
<pdfrwt beam="2">  1       -1 0.14688532E+00 0.19001870E+04</pdfrwt>
<totfact> 0.10784157E+01</totfact>
</mgrwt>
</event>
<event>
12    7  0.1707730E-007  0.1542967E+04  0.7818608E-02  0.8856372E-01
          2   -1    0    0  501    0  0.00000000000E+00  0.00000000000E+00  0.11305472184E+04  0.11305472184E+04  0.00000000000E+00 0. -1.
         -1   -1    0    0    0  501 -0.00000000000E+00 -0.00000000000E+00 -0.52645914455E+03  0.52645914455E+03  0.00000000000E+00 0.  1.
         24    2    1    2    0    0  0.26942399598E+03  0.38785918542E+03  0.38410343467E+03  0.61366002021E+03  0.77583081645E+02 0.  0.
        254    2    1    2    0    0 -0.26942399598E+03 -0.38785918542E+03  0.21998463922E+03  0.10433463428E+04  0.90396587997E+03 0.  0.
         23    2    4    4    0    0  0.28429624545E+03  0.19954790534E+01 -0.60031780907E+02  0.30468702302E+03  0.91662588715E+02 0.  0.
         23    2    4    4    0    0 -0.55372024142E+03 -0.38985466447E+03  0.28001642013E+03  0.73865931975E+03  0.92820417657E+02 0.  0.
          4    1    3    3  502    0  0.24945101548E+03  0.38096390589E+03  0.35351210599E+03  0.57648080263E+03  0.00000000000E+00 0. -1.
         -3    1    3    3    0  502  0.19972980501E+02  0.68952795270E+01  0.30591328679E+02  0.37179217584E+02  0.00000000000E+00 0.  1.
         13    1    5    5    0    0  0.77924433728E+02  0.62735287650E+01  0.24065684470E+02  0.81796892997E+02  0.00000000000E+00 0. -1.
        -13    1    5    5    0    0  0.20637181172E+03 -0.42780497116E+01 -0.84097465377E+02  0.22289013003E+03  0.00000000000E+00 0.  1.
          2    1    6    6  503    0 -0.36786454675E+03 -0.20599578705E+03  0.15933283568E+03  0.45071669768E+03  0.00000000000E+00 0. -1.
         -2    1    6    6    0  503 -0.18585569467E+03 -0.18385887742E+03  0.12068358445E+03  0.28794262207E+03  0.00000000000E+00 0.  1.
<mgrwt>
<rscale>  0 0.15429672E+04</rscale>
<asrwt>0</asrwt>
<pdfrwt beam="1">  1        2 0.17393034E+00 0.15429672E+04</pdfrwt>
<pdfrwt beam="2">  1       -1 0.80993715E-01 0.15429672E+04</pdfrwt>
<totfact> 0.34822630E+01</totfact>
</mgrwt>
</event>
<event>
12    7  0.1707730E-007  0.1780888E+04  0.7818608E-02  0.8716530E-01
         -1   -1    0    0    0  501 -0.00000000000E+00  0.00000000000E+00  0.91707043624E+03  0.91707043624E+03  0.00000000000E+00 0.  1.
          2   -1    0    0  501    0  0.00000000000E+00 -0.00000000000E+00 -0.86459048912E+03  0.86459048912E+03  0.00000000000E+00 0. -1.
         24    2    1    2    0    0 -0.19086016827E+03  0.31525630087E+03 -0.52815174720E+03  0.64908220964E+03  0.80927793395E+02 0.  0.
        254    2    1    2    0    0  0.19086016827E+03 -0.31525630087E+03  0.58063169431E+03  0.11325787157E+04  0.89988179434E+03 0.  0.
         23    2    4    4    0    0  0.36288731220E+03 -0.27849176621E+03  0.74200488874E+03  0.87700698579E+03  0.96566728277E+02 0.  0.
         23    2    4    4    0    0 -0.17202714393E+03 -0.36764534659E+02 -0.16137319443E+03  0.25557172992E+03  0.91272295896E+02 0.  0.
          2    1    3    3  502    0 -0.14903985330E+03  0.27810050103E+03 -0.40162384804E+03  0.51073915246E+03  0.00000000000E+00 0. -1.
         -1    1    3    3    0  502 -0.41820314964E+02  0.37155799839E+02 -0.12652789916E+03  0.13834305718E+03  0.00000000000E+00 0.  1.
         13    1    5    5    0    0  0.25625829465E+03 -0.14732372907E+03  0.42397962071E+03  0.51684747605E+03  0.00000000000E+00 0. -1.
        -13    1    5    5    0    0  0.10662901755E+03 -0.13116803714E+03  0.31802526802E+03  0.36015950974E+03  0.00000000000E+00 0.  1.
          3    1    6    6  503    0 -0.14497732308E+03 -0.55409131147E+01 -0.15740759072E+03  0.21407072556E+03  0.00000000000E+00 0. -1.
         -3    1    6    6    0  503 -0.27049820852E+02 -0.31223621544E+02 -0.39656037088E+01  0.41501004364E+02  0.00000000000E+00 0.  1.
<mgrwt>
<rscale>  0 0.17808878E+04</rscale>
<asrwt>0</asrwt>
<pdfrwt beam="1">  1        2 0.13301392E+00 0.17808878E+04</pdfrwt>
<pdfrwt beam="2">  1       -1 0.14108776E+00 0.17808878E+04</pdfrwt>
<totfact> 0.13743857E+01</totfact>
</mgrwt>
</event>
<event>
12    7  0.1707730E-007  0.2593456E+04  0.7818608E-02  0.8370427E-01
         -1   -1    0    0    0  501 -0.00000000000E+00  0.00000000000E+00  0.10869375578E+04  0.10869375578E+04  0.00000000000E+00 0.  1.
          2   -1    0    0  501    0  0.00000000000E+00 -0.00000000000E+00 -0.15470105339E+04  0.15470105339E+04  0.00000000000E+00 0. -1.
         24    2    1    2    0    0  0.89717030713E+03  0.17322793559E+03 -0.89467080350E+03  0.12813809798E+04  0.81110363771E+02 0.  0.
        254    2    1    2    0    0 -0.89717030713E+03 -0.17322793559E+03  0.43459782733E+03  0.13525671119E+04  0.89757453340E+03 0.  0.
         23    2    4    4    0    0 -0.50508208850E+03  0.34737777892E+03  0.16377452424E+03  0.64081043431E+03  0.89647534972E+02 0.  0.
         23    2    4    4    0    0 -0.39208821863E+03 -0.52060571451E+03  0.27082330309E+03  0.71175667758E+03  0.92134821980E+02 0.  0.
          4    1    3    3  502    0  0.69835755679E+03  0.10478344164E+03 -0.66513124304E+03  0.97009402494E+03  0.00000000000E+00 0. -1.
         -3    1    3    3    0  502  0.19881275034E+03  0.68444493956E+02 -0.22953956047E+03  0.31128695486E+03  0.00000000000E+00 0.  1.
         13    1    5    5    0    0 -0.44913510039E+03  0.33930467498E+03  0.15225273706E+03  0.58312168268E+03  0.00000000000E+00 0.  1.
        -13    1    5    5    0    0 -0.55946988107E+02  0.80731039387E+01  0.11521787180E+02  0.57688751636E+02  0.00000000000E+00 0. -1.
          4    1    6    6  503    0 -0.35000011555E+03 -0.41665189924E+03  0.20353951973E+03  0.58097093053E+03  0.00000000000E+00 0.  1.
         -4    1    6    6    0  503 -0.42088103078E+02 -0.10395381527E+03  0.67283783364E+02  0.13078574706E+03  0.00000000000E+00 0. -1.
<mgrwt>
<rscale>  0 0.25934563E+04</rscale>
<asrwt>0</asrwt>
<pdfrwt beam="1">  1        2 0.23800162E+00 0.25934563E+04</pdfrwt>
<pdfrwt beam="2">  1       -1 0.16722116E+00 0.25934563E+04</pdfrwt>
<totfact> 0.31052612E+00</totfact>
</mgrwt>
</event>
<event>
12    7  0.1707730E-007  0.1744812E+04  0.7818608E-02  0.8736211E-01
         -1   -1    0    0    0  501 -0.00000000000E+00  0.00000000000E+00  0.78922065309E+03  0.78922065309E+03  0.00000000000E+00 0.  1.
          2   -1    0    0  501    0  0.00000000000E+00 -0.00000000000E+00 -0.96435937098E+03  0.96435937098E+03  0.00000000000E+00 0. -1.
         24    2    1    2    0    0  0.16359830713E+02 -0.24996189848E+03 -0.64871523239E+03  0.69999218027E+03  0.80056261171E+02 0.  0.
        254    2    1    2    0    0 -0.16359830713E+02  0.24996189848E+03  0.47357651451E+03  0.10535878438E+04  0.90720672107E+03 0.  0.
         23    2    4    4    0    0  0.43467043235E+03  0.15427031580E+03  0.21882002601E+03  0.51886037740E+03  0.92715545396E+02 0.  0.
         23    2    4    4    0    0 -0.45103026306E+03  0.95691582678E+02  0.25475648850E+03  0.53472746640E+03  0.91909834591E+02 0.  0.
          4    1    3    3  502    0  0.31118394901E+02 -0.24537217465E+03 -0.61635142721E+03  0.66412720198E+03  0.00000000000E+00 0. -1.
         -3    1    3    3    0  502 -0.14758564188E+02 -0.45897238337E+01 -0.32363805184E+02  0.35864978290E+02  0.00000000000E+00 0.  1.
         13    1    5    5    0    0  0.40515497821E+03  0.16616297434E+03  0.19638070306E+03  0.47992298439E+03  0.00000000000E+00 0.  1.
        -13    1    5    5    0    0  0.29515454142E+02 -0.11892658539E+02  0.22439322953E+02  0.38937393017E+02  0.00000000000E+00 0. -1.
          1    1    6    6  503    0 -0.19844811029E+02 -0.11733210382E+02  0.26637667705E+02  0.35228540864E+02  0.00000000000E+00 0. -1.
         -1    1    6    6    0  503 -0.43118545203E+03  0.10742479306E+03  0.22811882079E+03  0.49949892553E+03  0.00000000000E+00 0.  1.
<mgrwt>
<rscale>  0 0.17448121E+04</rscale>
<asrwt>0</asrwt>
<pdfrwt beam="1">  1        2 0.14836298E+00 0.17448121E+04</pdfrwt>
<pdfrwt beam="2">  1       -1 0.12141856E+00 0.17448121E+04</pdfrwt>
<totfact> 0.17289720E+01</totfact>
</mgrwt>
</event>
<event>
12    7  0.1707730E-007  0.1089932E+04  0.7818608E-02  0.9215060E-01
          2   -1    0    0  501    0  0.00000000000E+00  0.00000000000E+00  0.20843818272E+04  0.20843818272E+04  0.00000000000E+00 0. -1.
         -1   -1    0    0    0  501 -0.00000000000E+00 -0.00000000000E+00 -0.14248263397E+03  0.14248263397E+03  0.00000000000E+00 0.  1.
         24    2    1    2    0    0  0.88688314949E+02 -0.34595805408E+02  0.55794840811E+03  0.57271525630E+03  0.87371916107E+02 0.  0.
        254    2    1    2    0    0 -0.88688314949E+02  0.34595805408E+02  0.13839507851E+04  0.16541492048E+04  0.90101461106E+03 0.  0.
         23    2    4    4    0    0 -0.36064592112E+03  0.94555866237E+02  0.12901656834E+04  0.13459825504E+04  0.90195581882E+02 0.  0.
         23    2    4    4    0    0  0.27195760617E+03 -0.59960060829E+02  0.93785101664E+02  0.30816665445E+03  0.92816448842E+02 0.  0.
          4    1    3    3  502    0  0.10191256467E+03 -0.11462816790E+02  0.44613259373E+03  0.45776834556E+03  0.00000000000E+00 0. -1.
         -3    1    3    3    0  502 -0.13224249725E+02 -0.23132988618E+02  0.11181581438E+03  0.11494691074E+03  0.00000000000E+00 0.  1.
         13    1    5    5    0    0 -0.12107992154E+01  0.14013766231E+02  0.30927458645E+02  0.33975864625E+02  0.00000000000E+00 0.  1.
        -13    1    5    5    0    0 -0.35943512190E+03  0.80542100005E+02  0.12592382248E+04  0.13120066857E+04  0.00000000000E+00 0. -1.
          3    1    6    6  503    0  0.15714699573E+03 -0.14745974472E+02  0.83006842584E+01  0.15805544403E+03  0.00000000000E+00 0. -1.
         -3    1    6    6    0  503  0.11481061044E+03 -0.45214086357E+02  0.85484417406E+02  0.15011121042E+03  0.00000000000E+00 0.  1.
<mgrwt>
<rscale>  0 0.10899325E+04</rscale>
<asrwt>0</asrwt>
<pdfrwt beam="1">  1        2 0.32067410E+00 0.10899325E+04</pdfrwt>
<pdfrwt beam="2">  1       -1 0.21920407E-01 0.10899325E+04</pdfrwt>
<totfact> 0.11929485E+02</totfact>
</mgrwt>
</event>
<event>
12    7  0.1707730E-007  0.1741751E+04  0.7818608E-02  0.8737904E-01
         -1   -1    0    0    0  501 -0.00000000000E+00  0.00000000000E+00  0.60083614224E+03  0.60083614224E+03  0.00000000000E+00 0.  1.
          2   -1    0    0  501    0  0.00000000000E+00 -0.00000000000E+00 -0.12622816911E+04  0.12622816911E+04  0.00000000000E+00 0. -1.
         24    2    1    2    0    0  0.58718181363E+03 -0.22287878541E+03 -0.16989079854E+03  0.65558903760E+03  0.80477745723E+02 0.  0.
        254    2    1    2    0    0 -0.58718181363E+03  0.22287878541E+03 -0.49155475031E+03  0.12075287957E+04  0.90666547563E+03 0.  0.
         23    2    4    4    0    0 -0.63133262306E+03  0.48226341556E+03 -0.47187211920E+03  0.92855467076E+03  0.91605659091E+02 0.  0.
         23    2    4    4    0    0  0.44150809436E+02 -0.25938463015E+03 -0.19682631118E+02  0.27897412496E+03  0.90606159265E+02 0.  0.
          2    1    3    3  502    0  0.40100665924E+02  0.34235166345E+01 -0.19632551194E+02  0.44779693390E+02  0.00000000000E+00 0. -1.
         -1    1    3    3    0  502  0.54708114770E+03 -0.22630230204E+03 -0.15025824734E+03  0.61080934421E+03  0.00000000000E+00 0.  1.
         13    1    5    5    0    0 -0.29926680225E+03  0.25093525937E+03 -0.18276638266E+03  0.43119911172E+03  0.00000000000E+00 0. -1.
        -13    1    5    5    0    0 -0.33206582082E+03  0.23132815619E+03 -0.28910573654E+03  0.49735555903E+03  0.00000000000E+00 0.  1.
          1    1    6    6  503    0  0.19564994232E+02 -0.17638939406E+03 -0.54534571617E+02  0.18566105364E+03  0.00000000000E+00 0. -1.
         -1    1    6    6    0  503  0.24585815204E+02 -0.82995236091E+02  0.34851940499E+02  0.93313071322E+02  0.00000000000E+00 0.  1.
<mgrwt>
<rscale>  0 0.17417514E+04</rscale>
<asrwt>0</asrwt>
<pdfrwt beam="1">  1        2 0.19419718E+00 0.17417514E+04</pdfrwt>
<pdfrwt beam="2">  1       -1 0.92436330E-01 0.17417514E+04</pdfrwt>
<totfact> 0.21414611E+01</totfact>
</mgrwt>
</event>
<event>
12    7  0.1707730E-007  0.1382318E+04  0.7818608E-02  0.8966718E-01
         -1   -1    0    0    0  501 -0.00000000000E+00  0.00000000000E+00  0.32651812889E+03  0.32651812889E+03  0.00000000000E+00 0.  1.
          2   -1    0    0  501    0  0.00000000000E+00 -0.00000000000E+00 -0.14630153254E+04  0.14630153254E+04  0.00000000000E+00 0. -1.
         24    2    1    2    0    0  0.26923443279E+02  0.36385972824E+03 -0.52690875376E+03  0.64579738317E+03  0.79389241635E+02 0.  0.
        254    2    1    2    0    0 -0.26923443279E+02 -0.36385972824E+03 -0.60958844274E+03  0.11437360711E+04  0.89633440033E+03 0.  0.
         23    2    4    4    0    0 -0.25910649003E+03 -0.41994264453E+03 -0.70936764071E+03  0.86887085179E+03  0.90808091756E+02 0.  0.
         23    2    4    4    0    0  0.23218304676E+03  0.56082916294E+02  0.99779197969E+02  0.27486521932E+03  0.92416122752E+02 0.  0.
          2    1    3    3  502    0  0.48596007151E+02  0.22820990622E+03 -0.36809377505E+03  0.43581459411E+03  0.00000000000E+00 0. -1.
         -1    1    3    3    0  502 -0.21672563872E+02  0.13564982202E+03 -0.15881497871E+03  0.20998278906E+03  0.00000000000E+00 0.  1.
         13    1    5    5    0    0 -0.24220616963E+03 -0.41592398785E+03 -0.66243492121E+03  0.81882636567E+03  0.00000000000E+00 0.  1.
        -13    1    5    5    0    0 -0.16900320406E+02 -0.40186566797E+01 -0.46932719500E+02  0.50044486120E+02  0.00000000000E+00 0. -1.
          3    1    6    6  503    0  0.11043166546E+03  0.57458221418E+02  0.12615854828E+02  0.12512297846E+03  0.00000000000E+00 0. -1.
         -3    1    6    6    0  503  0.12175138129E+03 -0.13753051234E+01  0.87163343141E+02  0.14974224086E+03  0.00000000000E+00 0.  1.
<mgrwt>
<rscale>  0 0.13823184E+04</rscale>
<asrwt>0</asrwt>
<pdfrwt beam="1">  1        2 0.22507928E+00 0.13823184E+04</pdfrwt>
<pdfrwt beam="2">  1       -1 0.50233558E-01 0.13823184E+04</pdfrwt>
<totfact> 0.58845867E+01</totfact>
</mgrwt>
</event>
<event>
12    7  0.1707730E-007  0.1645439E+04  0.7818608E-02  0.8793109E-01
          2   -1    0    0  501    0  0.00000000000E+00  0.00000000000E+00  0.27678125102E+04  0.27678125102E+04  0.00000000000E+00 0. -1.
         -1   -1    0    0    0  501 -0.00000000000E+00 -0.00000000000E+00 -0.24454956816E+03  0.24454956816E+03  0.00000000000E+00 0.  1.
         24    2    1    2    0    0 -0.18890207058E+03  0.54012037239E+03  0.94482072101E+03  0.11074151676E+04  0.79171646052E+02 0.  0.
        254    2    1    2    0    0  0.18890207058E+03 -0.54012037239E+03  0.15784422210E+04  0.19049469108E+04  0.89996048740E+03 0.  0.
         23    2    4    4    0    0 -0.33166934763E+03 -0.37069038578E+03  0.84964935218E+03  0.98881725312E+03  0.91867405146E+02 0.  0.
         23    2    4    4    0    0  0.52057141821E+03 -0.16942998661E+03  0.72879286883E+03  0.91612965766E+03  0.91942276301E+02 0.  0.
          2    1    3    3  502    0 -0.13682453933E+03  0.39353159131E+03  0.75158676393E+03  0.85934319782E+03  0.00000000000E+00 0. -1.
         -1    1    3    3    0  502 -0.52077531251E+02  0.14658878108E+03  0.19323395707E+03  0.24807196973E+03  0.00000000000E+00 0.  1.
         13    1    5    5    0    0 -0.35406184461E+02 -0.25789046398E+02  0.35793436275E+02  0.56567153831E+02  0.00000000000E+00 0. -1.
        -13    1    5    5    0    0 -0.29626316317E+03 -0.34490133939E+03  0.81385591590E+03  0.93225009928E+03  0.00000000000E+00 0.  1.
          1    1    6    6  503    0  0.45594921813E+03 -0.12213437432E+03  0.65403127239E+03  0.80657510510E+03  0.00000000000E+00 0.  1.
         -1    1    6    6    0  503  0.64622200082E+02 -0.47295612284E+02  0.74761596438E+02  0.10955455256E+03  0.00000000000E+00 0. -1.
<mgrwt>
<rscale>  0 0.16454390E+04</rscale>
<asrwt>0</asrwt>
<pdfrwt beam="1">  1        2 0.42581729E+00 0.16454390E+04</pdfrwt>
<pdfrwt beam="2">  1       -1 0.37623012E-01 0.16454390E+04</pdfrwt>
<totfact> 0.17986150E+01</totfact>
</mgrwt>
</event>
<event>
12    7  0.1707730E-007  0.2858347E+04  0.7818608E-02  0.8285379E-01
         -1   -1    0    0    0  501 -0.00000000000E+00  0.00000000000E+00  0.70499124285E+03  0.70499124285E+03  0.00000000000E+00 0.  1.
          2   -1    0    0  501    0  0.00000000000E+00 -0.00000000000E+00 -0.28972515657E+04  0.28972515657E+04  0.00000000000E+00 0. -1.
         24    2    1    2    0    0  0.94886057811E+03  0.86871546920E+03 -0.97002696428E+03  0.16132809912E+04  0.81977326264E+02 0.  0.
        254    2    1    2    0    0 -0.94886057811E+03 -0.86871546920E+03 -0.12222333585E+04  0.19889618173E+04  0.89839399201E+03 0.  0.
         23    2    4    4    0    0 -0.68248602334E+01 -0.51761881350E+03 -0.62330668702E+03  0.81510435326E+03  0.88927306368E+02 0.  0.
         23    2    4    4    0    0 -0.94203571788E+03 -0.35109665570E+03 -0.59892667153E+03  0.11738574641E+04  0.92347347861E+02 0.  0.
          4    1    3    3  502    0  0.65187054893E+03  0.59882999876E+03 -0.71421210856E+03  0.11373792314E+04  0.00000000000E+00 0. -1.
         -3    1    3    3    0  502  0.29699002919E+03  0.26988547044E+03 -0.25581485572E+03  0.47590175982E+03  0.00000000000E+00 0.  1.
         13    1    5    5    0    0 -0.19407822491E+02 -0.45044134804E+03 -0.49376629834E+03  0.66863983502E+03  0.00000000000E+00 0.  1.
        -13    1    5    5    0    0  0.12582962258E+02 -0.67177465452E+02 -0.12954038867E+03  0.14646451823E+03  0.00000000000E+00 0. -1.
          1    1    6    6  503    0 -0.14375078802E+03 -0.19542462554E+02 -0.91775856449E+02  0.17166538593E+03  0.00000000000E+00 0. -1.
         -1    1    6    6    0  503 -0.79828492986E+03 -0.33155419315E+03 -0.50715081508E+03  0.10021920781E+04  0.00000000000E+00 0.  1.
<mgrwt>
<rscale>  0 0.28583471E+04</rscale>
<asrwt>0</asrwt>
<pdfrwt beam="1">  1        2 0.44573100E+00 0.28583471E+04</pdfrwt>
<pdfrwt beam="2">  1       -1 0.10846019E+00 0.28583471E+04</pdfrwt>
<totfact> 0.15655563E+00</totfact>
</mgrwt>
</event>
<event>
12    7  0.1707730E-007  0.2214481E+04  0.7818608E-02  0.8512425E-01
          2   -1    0    0  501    0  0.00000000000E+00  0.00000000000E+00  0.28531129353E+04  0.28531129353E+04  0.00000000000E+00 0. -1.
         -1   -1    0    0    0  501 -0.00000000000E+00 -0.00000000000E+00 -0.42969941944E+03  0.42969941944E+03  0.00000000000E+00 0.  1.
         24    2    1    2    0    0 -0.46309328102E+03 -0.50773283518E+03  0.10059868480E+03  0.69916145992E+03  0.80365619495E+02 0.  0.
        254    2    1    2    0    0  0.46309328102E+03  0.50773283518E+03  0.23228148310E+04  0.25836508948E+04  0.89862961671E+03 0.  0.
         23    2    4    4    0    0  0.44426521595E+03 -0.13951661064E+03  0.88237468259E+03  0.10016896598E+04  0.89222347738E+02 0.  0.
         23    2    4    4    0    0  0.18828065074E+02  0.64724944582E+03  0.14404401484E+04  0.15819612350E+04  0.91908577391E+02 0.  0.
          2    1    3    3  502    0 -0.94238772163E+02 -0.13696334052E+03  0.50599037603E+02  0.17378194795E+03  0.00000000000E+00 0. -1.
         -1    1    3    3    0  502 -0.36885450886E+03 -0.37076949466E+03  0.49999647200E+02  0.52537951197E+03  0.00000000000E+00 0.  1.
         13    1    5    5    0    0  0.37518273231E+03 -0.91256532911E+02  0.67146225477E+03  0.77456529550E+03  0.00000000000E+00 0. -1.
        -13    1    5    5    0    0  0.69082483637E+02 -0.48260077729E+02  0.21091242783E+03  0.22712436430E+03  0.00000000000E+00 0.  1.
          1    1    6    6  503    0 -0.12506675974E+02  0.37481410292E+03  0.92451908372E+03  0.99768610537E+03  0.00000000000E+00 0. -1.
         -1    1    6    6    0  503  0.31334741048E+02  0.27243534290E+03  0.51592106472E+03  0.58427512961E+03  0.00000000000E+00 0.  1.
<mgrwt>
<rscale>  0 0.22144805E+04</rscale>
<asrwt>0</asrwt>
<pdfrwt beam="1">  1        2 0.43894044E+00 0.22144805E+04</pdfrwt>
<pdfrwt beam="2">  1       -1 0.66107605E-01 0.22144805E+04</pdfrwt>
<totfact> 0.51750486E+00</totfact>
</mgrwt>
</event>
<event>
12    7  0.1707730E-007  0.1602079E+04  0.7818608E-02  0.8819272E-01
          2   -1    0    0  501    0  0.00000000000E+00  0.00000000000E+00  0.18847664471E+04  0.18847664471E+04  0.00000000000E+00 0. -1.
         -1   -1    0    0    0  501 -0.00000000000E+00 -0.00000000000E+00 -0.34044773980E+03  0.34044773980E+03  0.00000000000E+00 0.  1.
         24    2    1    2    0    0 -0.24891064637E+03  0.13591274036E+03 -0.11696515737E+03  0.31428953974E+03  0.68324840889E+02 0.  0.
        254    2    1    2    0    0  0.24891064637E+03 -0.13591274036E+03  0.16612838646E+04  0.19109246471E+04  0.90074421742E+03 0.  0.
         23    2    4    4    0    0  0.34518925817E+02 -0.49763420384E+03  0.79637227390E+03  0.94415877854E+03  0.91627743441E+02 0.  0.
         23    2    4    4    0    0  0.21439172055E+03  0.36172146348E+03  0.86491159074E+03  0.96676586859E+03  0.98782376465E+02 0.  0.
          2    1    3    3  502    0 -0.35713580118E+02  0.47618530420E+01  0.40635730724E+01  0.36258070486E+02  0.00000000000E+00 0. -1.
         -1    1    3    3    0  502 -0.21319706625E+03  0.13115088732E+03 -0.12102873044E+03  0.27803146926E+03  0.00000000000E+00 0.  1.
         13    1    5    5    0    0 -0.17932698021E+02 -0.20927720544E+02  0.40912135181E+02  0.49329037600E+02  0.00000000000E+00 0.  1.
        -13    1    5    5    0    0  0.52451623838E+02 -0.47670648330E+03  0.75546013872E+03  0.89482974094E+03  0.00000000000E+00 0. -1.
          1    1    6    6  503    0  0.20534308871E+03  0.36718271414E+03  0.83407028764E+03  0.93416389053E+03  0.00000000000E+00 0. -1.
         -1    1    6    6    0  503  0.90486318392E+01 -0.54612506584E+01  0.30841303096E+02  0.32601978063E+02  0.00000000000E+00 0.  1.
<mgrwt>
<rscale>  0 0.16020792E+04</rscale>
<asrwt>0</asrwt>
<pdfrwt beam="1">  1        2 0.28996406E+00 0.16020792E+04</pdfrwt>
<pdfrwt beam="2">  1       -1 0.52376576E-01 0.16020792E+04</pdfrwt>
<totfact> 0.31055106E+01</totfact>
</mgrwt>
</event>
<event>
12    7  0.1707730E-007  0.2004803E+04  0.7818608E-02  0.8604378E-01
         -1   -1    0    0    0  501 -0.00000000000E+00  0.00000000000E+00  0.53608313227E+03  0.53608313227E+03  0.00000000000E+00 0.  1.
          2   -1    0    0  501    0  0.00000000000E+00 -0.00000000000E+00 -0.18743528305E+04  0.18743528305E+04  0.00000000000E+00 0. -1.
         24    2    1    2    0    0  0.12589541755E+03 -0.53358492960E+03  0.16538221743E+03  0.57864329146E+03  0.83151955168E+02 0.  0.
        254    2    1    2    0    0 -0.12589541755E+03  0.53358492960E+03 -0.15036519157E+04  0.18317926713E+04  0.89102905338E+03 0.  0.
         23    2    4    4    0    0  0.23506914074E+03  0.38254718201E+03 -0.26449671862E+03  0.52917507841E+03  0.92021204354E+02 0.  0.
         23    2    4    4    0    0 -0.36096455829E+03  0.15103774759E+03 -0.12391551971E+04  0.13026175929E+04  0.90549309622E+02 0.  0.
          4    1    3    3  502    0  0.50527698940E+02 -0.22967862784E+03  0.28404934126E+02  0.23688005558E+03  0.00000000000E+00 0. -1.
         -3    1    3    3    0  502  0.75367718608E+02 -0.30390630176E+03  0.13697728331E+03  0.34176323588E+03  0.00000000000E+00 0.  1.
         13    1    5    5    0    0  0.23319962604E+03  0.35242735203E+03 -0.26532945891E+03  0.49898579720E+03  0.00000000000E+00 0.  1.
        -13    1    5    5    0    0  0.18695147040E+01  0.30119829981E+02  0.83274028743E+00  0.30189281205E+02  0.00000000000E+00 0. -1.
          1    1    6    6  503    0 -0.75373701880E+02  0.28354142267E+01 -0.32014280223E+03  0.32890826734E+03  0.00000000000E+00 0. -1.
         -1    1    6    6    0  503 -0.28559085641E+03  0.14820233337E+03 -0.91901239483E+03  0.97370932559E+03  0.00000000000E+00 0.  1.
<mgrwt>
<rscale>  0 0.20048032E+04</rscale>
<asrwt>0</asrwt>
<pdfrwt beam="1">  1        2 0.28836198E+00 0.20048032E+04</pdfrwt>
<pdfrwt beam="2">  1       -1 0.82474327E-01 0.20048032E+04</pdfrwt>
<totfact> 0.12125087E+01</totfact>
</mgrwt>
</event>
<event>
12    7  0.1707730E-007  0.1334733E+04  0.7818608E-02  0.9002466E-01
         -1   -1    0    0    0  501 -0.00000000000E+00  0.00000000000E+00  0.22003911996E+03  0.22003911996E+03  0.00000000000E+00 0.  1.
          2   -1    0    0  501    0  0.00000000000E+00 -0.00000000000E+00 -0.20240854559E+04  0.20240854559E+04  0.00000000000E+00 0. -1.
         24    2    1    2    0    0  0.19626103126E+03  0.19305053943E+03 -0.11714758079E+03  0.30949717872E+03  0.79234113775E+02 0.  0.
        254    2    1    2    0    0 -0.19626103126E+03 -0.19305053943E+03 -0.16868987551E+04  0.19346273971E+04  0.90629402098E+03 0.  0.
         23    2    4    4    0    0 -0.38710712207E+03  0.23492665878E+03 -0.94671869308E+03  0.10537834232E+04  0.95607322656E+02 0.  0.
         23    2    4    4    0    0  0.19084609081E+03 -0.42797719821E+03 -0.74018006206E+03  0.88084397397E+03  0.91830657378E+02 0.  0.
          2    1    3    3  502    0  0.51152509554E+02  0.73846274559E+02 -0.75018343651E+02  0.11703676082E+03  0.00000000000E+00 0. -1.
         -1    1    3    3    0  502  0.14510852170E+03  0.11920426487E+03 -0.42129237135E+02  0.19246041790E+03  0.00000000000E+00 0.  1.
         13    1    5    5    0    0 -0.35525947828E+03  0.22918447046E+03 -0.91735197225E+03  0.10100838873E+04  0.00000000000E+00 0.  1.
        -13    1    5    5    0    0 -0.31847643790E+02  0.57421883177E+01 -0.29366720827E+02  0.43699535853E+02  0.00000000000E+00 0. -1.
          3    1    6    6  503    0  0.51280038861E+02 -0.10668163297E+03 -0.26743355554E+03  0.29245738122E+03  0.00000000000E+00 0. -1.
         -3    1    6    6    0  503  0.13956605195E+03 -0.32129556524E+03 -0.47274650652E+03  0.58838659275E+03  0.00000000000E+00 0.  1.
<mgrwt>
<rscale>  0 0.13347329E+04</rscale>
<asrwt>0</asrwt>
<pdfrwt beam="1">  1        2 0.31139776E+00 0.13347329E+04</pdfrwt>
<pdfrwt beam="2">  1       -1 0.33852173E-01 0.13347329E+04</pdfrwt>
<totfact> 0.59490601E+01</totfact>
</mgrwt>
</event>
<event>
12    7  0.1707730E-007  0.1901057E+04  0.7818608E-02  0.8654330E-01
          2   -1    0    0  501    0  0.00000000000E+00  0.00000000000E+00  0.64886216401E+03  0.64886216401E+03  0.00000000000E+00 0. -1.
         -1   -1    0    0    0  501 -0.00000000000E+00 -0.00000000000E+00 -0.13924445701E+04  0.13924445701E+04  0.00000000000E+00 0.  1.
         24    2    1    2    0    0  0.60914453063E+02  0.51457506228E+03 -0.87251157796E+03  0.10187916195E+04  0.90342930424E+02 0.  0.
        254    2    1    2    0    0 -0.60914453063E+02 -0.51457506228E+03  0.12892917185E+03  0.10225151146E+04  0.87201855650E+03 0.  0.
         23    2    4    4    0    0 -0.11618180838E+03 -0.70933827452E+03  0.25290014498E+03  0.76828437132E+03  0.98200771826E+02 0.  0.
         23    2    4    4    0    0  0.55267355312E+02  0.19476321224E+03 -0.12397097314E+03  0.25423074326E+03  0.90979553921E+02 0.  0.
          4    1    3    3  502    0  0.20637507580E+02  0.39049590142E+02 -0.11831247293E+03  0.12628783971E+03  0.00000000000E+00 0. -1.
         -3    1    3    3    0  502  0.40276945484E+02  0.47552547214E+03 -0.75419910503E+03  0.89250377983E+03  0.00000000000E+00 0.  1.
         13    1    5    5    0    0 -0.12805672359E+03 -0.67749020718E+03  0.22820537806E+03  0.72627074831E+03  0.00000000000E+00 0.  1.
        -13    1    5    5    0    0  0.11874915217E+02 -0.31848067348E+02  0.24694766929E+02  0.42013623015E+02  0.00000000000E+00 0. -1.
          1    1    6    6  503    0  0.26396305673E+02  0.35235559320E+02 -0.71249595506E+02  0.83754489155E+02  0.00000000000E+00 0. -1.
         -1    1    6    6    0  503  0.28871049638E+02  0.15952765292E+03 -0.52721377630E+02  0.17047625411E+03  0.00000000000E+00 0.  1.
<mgrwt>
<rscale>  0 0.19010572E+04</rscale>
<asrwt>0</asrwt>
<pdfrwt beam="1">  1        2 0.99824949E-01 0.19010572E+04</pdfrwt>
<pdfrwt beam="2">  1       -1 0.21422224E+00 0.19010572E+04</pdfrwt>
<totfact> 0.57988453E+00</totfact>
</mgrwt>
</event>
<event>
12    7  0.1707730E-007  0.1860284E+04  0.7818608E-02  0.8674882E-01
          2   -1    0    0  501    0  0.00000000000E+00  0.00000000000E+00  0.15390097886E+04  0.15390097886E+04  0.00000000000E+00 0. -1.
         -1   -1    0    0    0  501 -0.00000000000E+00 -0.00000000000E+00 -0.56215616109E+03  0.56215616109E+03  0.00000000000E+00 0.  1.
         24    2    1    2    0    0  0.25203623108E+03  0.45053642770E+03  0.92089454629E+03  0.10586680900E+04  0.78905164251E+02 0.  0.
        254    2    1    2    0    0 -0.25203623108E+03 -0.45053642770E+03  0.55959081215E+02  0.10424978597E+04  0.90397181052E+03 0.  0.
         23    2    4    4    0    0  0.25545927436E+03 -0.14104629730E+03 -0.22333182357E+03  0.37956692528E+03  0.95081273160E+02 0.  0.
         23    2    4    4    0    0 -0.50749550544E+03 -0.30949013040E+03  0.27929090479E+03  0.66293093441E+03  0.90211891918E+02 0.  0.
          2    1    3    3  502    0  0.22129434824E+03  0.35555942760E+03  0.69055230105E+03  0.80762378345E+03  0.00000000000E+00 0. -1.
         -1    1    3    3    0  502  0.30741882847E+02  0.94977000100E+02  0.23034224525E+03  0.25104430656E+03  0.00000000000E+00 0.  1.
         13    1    5    5    0    0  0.21773805304E+03 -0.14252274384E+03 -0.22155733378E+03  0.34177513719E+03  0.00000000000E+00 0.  1.
        -13    1    5    5    0    0  0.37721221322E+02  0.14764465406E+01 -0.17744897916E+01  0.37791788082E+02  0.00000000000E+00 0. -1.
          1    1    6    6  503    0 -0.30783478886E+03 -0.23787747969E+03  0.17564821466E+03  0.42684920978E+03  0.00000000000E+00 0.  1.
         -1    1    6    6    0  503 -0.19966071658E+03 -0.71612650707E+02  0.10364269013E+03  0.23608172463E+03  0.00000000000E+00 0. -1.
<mgrwt>
<rscale>  0 0.18602837E+04</rscale>
<asrwt>0</asrwt>
<pdfrwt beam="1">  1        2 0.23677074E+00 0.18602837E+04</pdfrwt>
<pdfrwt beam="2">  1       -1 0.86485564E-01 0.18602837E+04</pdfrwt>
<totfact> 0.17029618E+01</totfact>
</mgrwt>
</event>
<event>
12    7  0.1707730E-007  0.2866240E+04  0.7818608E-02  0.8282994E-01
          2   -1    0    0  501    0  0.00000000000E+00  0.00000000000E+00  0.11150520324E+04  0.11150520324E+04  0.00000000000E+00 0. -1.
         -3   -1    0    0    0  501 -0.00000000000E+00 -0.00000000000E+00 -0.18419161744E+04  0.18419161744E+04  0.00000000000E+00 0.  1.
         24    2    1    2    0    0 -0.60688394090E+03 -0.82632464229E+03 -0.11257922715E+04  0.15246628668E+04  0.77897923105E+02 0.  0.
        254    2    1    2    0    0  0.60688394090E+03  0.82632464229E+03  0.39892812958E+03  0.14323053400E+04  0.91718831347E+03 0.  0.
         23    2    4    4    0    0 -0.10161002593E+03  0.39412019219E+03  0.42718058696E+03  0.59672824287E+03  0.89140443674E+02 0.  0.
         23    2    4    4    0    0  0.70849396682E+03  0.43220445011E+03 -0.28252457386E+02  0.83557709718E+03  0.92878933337E+02 0.  0.
          4    1    3    3  502    0 -0.16687717566E+03 -0.21460755762E+03 -0.34973026312E+03  0.44296236013E+03  0.00000000000E+00 0. -1.
         -3    1    3    3    0  502 -0.44000676524E+03 -0.61171708467E+03 -0.77606200842E+03  0.10817005066E+04  0.00000000000E+00 0.  1.
         13    1    5    5    0    0 -0.59553158689E+02  0.34472223402E+03  0.38001779396E+03  0.51652059113E+03  0.00000000000E+00 0.  1.
        -13    1    5    5    0    0 -0.42056867238E+02  0.49397958163E+02  0.47162793007E+02  0.80207651735E+02  0.00000000000E+00 0. -1.
          3    1    6    6  503    0  0.33846010737E+02  0.19650865725E+02  0.18737492044E+02  0.43391273024E+02  0.00000000000E+00 0. -1.
         -3    1    6    6    0  503  0.67464795609E+03  0.41255358438E+03 -0.46989949430E+02  0.79218582415E+03  0.00000000000E+00 0.  1.
<mgrwt>
<rscale>  0 0.28662396E+04</rscale>
<asrwt>0</asrwt>
<pdfrwt beam="1">  1        2 0.17154647E+00 0.28662396E+04</pdfrwt>
<pdfrwt beam="2">  1       -3 0.28337172E+00 0.28662396E+04</pdfrwt>
<totfact> 0.54531283E-01</totfact>
</mgrwt>
</event>
<event>
12    7  0.1707730E-007  0.2540017E+04  0.7818608E-02  0.8388866E-01
         -1   -1    0    0    0  501 -0.00000000000E+00  0.00000000000E+00  0.65149985007E+03  0.65149985007E+03  0.00000000000E+00 0.  1.
          2   -1    0    0  501    0  0.00000000000E+00 -0.00000000000E+00 -0.24757054098E+04  0.24757054098E+04  0.00000000000E+00 0. -1.
         24    2    1    2    0    0 -0.67051198737E+03 -0.27782586413E+03  0.23796331983E+03  0.76783180654E+03  0.78521370118E+02 0.  0.
        254    2    1    2    0    0  0.67051198737E+03  0.27782586413E+03 -0.20621688795E+04  0.23593734533E+04  0.88731565322E+03 0.  0.
         23    2    4    4    0    0  0.76705081282E+03  0.47488512170E+03 -0.16926417155E+04  0.19200410851E+04  0.87401161767E+02 0.  0.
         23    2    4    4    0    0 -0.96538825452E+02 -0.19705925757E+03 -0.36952716402E+03  0.43933236821E+03  0.91161993150E+02 0.  0.
          2    1    3    3  502    0 -0.10826637743E+03 -0.75586251971E+02  0.32519762151E+02  0.13598685561E+03  0.00000000000E+00 0. -1.
         -1    1    3    3    0  502 -0.56224560994E+03 -0.20223961216E+03  0.20544355767E+03  0.63184495093E+03  0.00000000000E+00 0.  1.
         13    1    5    5    0    0  0.47488811315E+01 -0.24118019307E+00 -0.29046888459E+02  0.29433514385E+02  0.00000000000E+00 0. -1.
        -13    1    5    5    0    0  0.76230193169E+03  0.47512630190E+03 -0.16635948270E+04  0.18906075707E+04  0.00000000000E+00 0.  1.
          1    1    6    6  503    0 -0.67973192702E+02 -0.11111243666E+03 -0.29341681220E+03  0.32102921080E+03  0.00000000000E+00 0. -1.
         -1    1    6    6    0  503 -0.28565632749E+02 -0.85946820911E+02 -0.76110351825E+02  0.11830315741E+03  0.00000000000E+00 0.  1.
<mgrwt>
<rscale>  0 0.25400171E+04</rscale>
<asrwt>0</asrwt>
<pdfrwt beam="1">  1        2 0.38087776E+00 0.25400171E+04</pdfrwt>
<pdfrwt beam="2">  1       -1 0.10023074E+00 0.25400171E+04</pdfrwt>
<totfact> 0.34459909E+00</totfact>
</mgrwt>
</event>
<event>
12    7  0.1707730E-007  0.1949468E+04  0.7818608E-02  0.8630617E-01
          2   -1    0    0  501    0  0.00000000000E+00  0.00000000000E+00  0.15833062928E+04  0.15833062928E+04  0.00000000000E+00 0. -1.
         -1   -1    0    0    0  501 -0.00000000000E+00 -0.00000000000E+00 -0.60007743800E+03  0.60007743800E+03  0.00000000000E+00 0.  1.
         24    2    1    2    0    0 -0.17798798866E+03 -0.64010961116E+02 -0.44239259858E+03  0.48764222030E+03  0.79414082428E+02 0.  0.
        254    2    1    2    0    0  0.17798798866E+03  0.64010961116E+02  0.14256214534E+04  0.16957415105E+04  0.89853526077E+03 0.  0.
         23    2    4    4    0    0  0.11918705865E+03  0.29117761163E+03  0.14050201718E+04  0.14427235096E+04  0.91539530648E+02 0.  0.
         23    2    4    4    0    0  0.58800930007E+02 -0.22716665051E+03  0.20601281600E+02  0.25301800087E+03  0.92365900034E+02 0.  0.
          4    1    3    3  502    0 -0.24563008989E+02 -0.31656450555E+02 -0.44035061863E+02  0.59536198616E+02  0.00000000000E+00 0. -1.
         -3    1    3    3    0  502 -0.15342497967E+03 -0.32354510561E+02 -0.39835753672E+03  0.42810602169E+03  0.00000000000E+00 0.  1.
         13    1    5    5    0    0  0.13241140592E+03  0.25110756355E+03  0.11701067645E+04  0.12040505094E+04  0.00000000000E+00 0.  1.
        -13    1    5    5    0    0 -0.13224347265E+02  0.40070048075E+02  0.23491340724E+03  0.23867300018E+03  0.00000000000E+00 0. -1.
          3    1    6    6  503    0  0.36585300068E+02 -0.25752575594E+02  0.23132654356E+02  0.50366645991E+02  0.00000000000E+00 0. -1.
         -3    1    6    6    0  503  0.22215629939E+02 -0.20141407492E+03 -0.25313727564E+01  0.20265135488E+03  0.00000000000E+00 0.  1.
<mgrwt>
<rscale>  0 0.19494680E+04</rscale>
<asrwt>0</asrwt>
<pdfrwt beam="1">  1        2 0.24358558E+00 0.19494680E+04</pdfrwt>
<pdfrwt beam="2">  1       -1 0.92319607E-01 0.19494680E+04</pdfrwt>
<totfact> 0.13824145E+01</totfact>
</mgrwt>
</event>
<event>
12    7  0.1707730E-007  0.1918197E+04  0.7818608E-02  0.8645851E-01
         -1   -1    0    0    0  501 -0.00000000000E+00  0.00000000000E+00  0.66096520681E+03  0.66096520681E+03  0.00000000000E+00 0.  1.
          2   -1    0    0  501    0  0.00000000000E+00 -0.00000000000E+00 -0.13917064001E+04  0.13917064001E+04  0.00000000000E+00 0. -1.
         24    2    1    2    0    0 -0.31966230783E+03 -0.28276626668E+02 -0.10007258404E+04  0.10542229664E+04  0.83368437927E+02 0.  0.
        254    2    1    2    0    0  0.31966230783E+03  0.28276626668E+02  0.26998464711E+03  0.99844864057E+03  0.90610397831E+03 0.  0.
         23    2    4    4    0    0  0.48018007870E+02 -0.40394622927E+03  0.48559334376E+01  0.41607820941E+03  0.87288092174E+02 0.  0.
         23    2    4    4    0    0  0.27164429996E+03  0.43222285594E+03  0.26512871367E+03  0.58237043116E+03  0.90856267711E+02 0.  0.
          2    1    3    3  502    0 -0.26288114693E+03 -0.93257738635E+01 -0.70443009637E+03  0.75194097384E+03  0.00000000000E+00 0. -1.
         -1    1    3    3    0  502 -0.56781160897E+02 -0.18950852804E+02 -0.29629574407E+03  0.30228199253E+03  0.00000000000E+00 0.  1.
         13    1    5    5    0    0 -0.66526051995E+01  0.76034359540E+00  0.37903691782E+01  0.76942950835E+01  0.00000000000E+00 0.  1.
        -13    1    5    5    0    0  0.54670613070E+02 -0.40470657286E+03  0.10655642594E+01  0.40838391432E+03  0.00000000000E+00 0. -1.
          4    1    6    6  503    0  0.23384584975E+03  0.40876957762E+03  0.25903513935E+03  0.53747153641E+03  0.00000000000E+00 0. -1.
         -4    1    6    6    0  503  0.37798450204E+02  0.23453278314E+02  0.60935743255E+01  0.44898894747E+02  0.00000000000E+00 0.  1.
<mgrwt>
<rscale>  0 0.19181966E+04</rscale>
<asrwt>0</asrwt>
<pdfrwt beam="1">  1        2 0.21410867E+00 0.19181966E+04</pdfrwt>
<pdfrwt beam="2">  1       -1 0.10168696E+00 0.19181966E+04</pdfrwt>
<totfact> 0.14301421E+01</totfact>
</mgrwt>
</event>
<event>
12    7  0.1707730E-007  0.1441036E+04  0.7818608E-02  0.8924639E-01
          2   -1    0    0  501    0  0.00000000000E+00  0.00000000000E+00  0.12131539907E+04  0.12131539907E+04  0.00000000000E+00 0. -1.
         -1   -1    0    0    0  501 -0.00000000000E+00 -0.00000000000E+00 -0.42793112519E+03  0.42793112519E+03  0.00000000000E+00 0.  1.
         24    2    1    2    0    0 -0.41736623157E+02 -0.40418554529E+03  0.52365432360E+02  0.41695061484E+03  0.77445309583E+02 0.  0.
        254    2    1    2    0    0  0.41736623157E+02  0.40418554529E+03  0.73285743313E+03  0.12241345010E+04  0.89236615725E+03 0.  0.
         23    2    4    4    0    0  0.24206802678E+03 -0.20438291593E+03  0.20140479183E+03  0.38677030145E+03  0.93048750644E+02 0.  0.
         23    2    4    4    0    0 -0.20033140363E+03  0.60856846122E+03  0.53145264130E+03  0.83736419959E+03  0.90822076254E+02 0.  0.
          2    1    3    3  502    0  0.62888323164E+01 -0.20258393605E+02 -0.12515840015E+02  0.24629213845E+02  0.00000000000E+00 0. -1.
         -1    1    3    3    0  502 -0.48025455474E+02 -0.38392715168E+03  0.64881272375E+02  0.39232140099E+03  0.00000000000E+00 0.  1.
         13    1    5    5    0    0  0.11219015246E+03 -0.37134222775E+02  0.79562943260E+02  0.14246347866E+03  0.00000000000E+00 0. -1.
        -13    1    5    5    0    0  0.12987787432E+03 -0.16724869316E+03  0.12184184857E+03  0.24430682280E+03  0.00000000000E+00 0.  1.
          3    1    6    6  503    0 -0.23329486160E+02  0.20628598118E+02  0.41212699906E+02  0.51655499401E+02  0.00000000000E+00 0. -1.
         -3    1    6    6    0  503 -0.17700191747E+03  0.58793986310E+03  0.49023994140E+03  0.78570870019E+03  0.00000000000E+00 0.  1.
<mgrwt>
<rscale>  0 0.14410362E+04</rscale>
<asrwt>0</asrwt>
<pdfrwt beam="1">  1        2 0.18663907E+00 0.14410362E+04</pdfrwt>
<pdfrwt beam="2">  1       -1 0.65835558E-01 0.14410362E+04</pdfrwt>
<totfact> 0.48130732E+01</totfact>
</mgrwt>
</event>
<event>
12    7  0.1707730E-007  0.1856126E+04  0.7818608E-02  0.8677009E-01
          2   -1    0    0  501    0  0.00000000000E+00  0.00000000000E+00  0.17844720704E+04  0.17844720704E+04  0.00000000000E+00 0. -1.
         -1   -1    0    0    0  501 -0.00000000000E+00 -0.00000000000E+00 -0.48266433443E+03  0.48266433443E+03  0.00000000000E+00 0.  1.
         24    2    1    2    0    0 -0.28055437373E+03  0.58232697300E+03  0.16849145631E+03  0.67252212859E+03  0.77981936966E+02 0.  0.
        254    2    1    2    0    0  0.28055437373E+03 -0.58232697300E+03  0.11333162796E+04  0.15946142762E+04  0.91682792284E+03 0.  0.
         23    2    4    4    0    0  0.21873523229E+03 -0.44106781200E+03  0.57048977643E+02  0.50329809974E+03  0.87569827725E+02 0.  0.
         23    2    4    4    0    0  0.61819141442E+02 -0.14125916100E+03  0.10762673020E+04  0.10913161765E+04  0.94042197306E+02 0.  0.
          2    1    3    3  502    0 -0.14001682339E+03  0.32518625205E+03  0.12907443368E+03  0.37684349376E+03  0.00000000000E+00 0. -1.
         -1    1    3    3    0  502 -0.14053755034E+03  0.25714072095E+03  0.39417022626E+02  0.29567863484E+03  0.00000000000E+00 0.  1.
         13    1    5    5    0    0  0.58490834133E+02 -0.82963618814E+02  0.44337452435E+02  0.11076980370E+03  0.00000000000E+00 0. -1.
        -13    1    5    5    0    0  0.16024439815E+03 -0.35810419318E+03  0.12711525207E+02  0.39252829604E+03  0.00000000000E+00 0.  1.
          3    1    6    6  503    0 -0.14064624447E+02 -0.84394202387E+02  0.48335614368E+03  0.49086999979E+03  0.00000000000E+00 0. -1.
         -3    1    6    6    0  503  0.75883765889E+02 -0.56864958617E+02  0.59291115830E+03  0.60044617667E+03  0.00000000000E+00 0.  1.
<mgrwt>
<rscale>  0 0.18561261E+04</rscale>
<asrwt>0</asrwt>
<pdfrwt beam="1">  1        2 0.27453416E+00 0.18561261E+04</pdfrwt>
<pdfrwt beam="2">  1       -1 0.74256052E-01 0.18561261E+04</pdfrwt>
<totfact> 0.17199256E+01</totfact>
</mgrwt>
</event>
<event>
12    7  0.1707730E-007  0.1816744E+04  0.7818608E-02  0.8697445E-01
          2   -1    0    0  501    0  0.00000000000E+00  0.00000000000E+00  0.14361967679E+04  0.14361967679E+04  0.00000000000E+00 0. -1.
         -1   -1    0    0    0  501 -0.00000000000E+00 -0.00000000000E+00 -0.57453123614E+03  0.57453123614E+03  0.00000000000E+00 0.  1.
         24    2    1    2    0    0  0.95662177889E+02 -0.16577664227E+03 -0.39475146534E+03  0.44565693875E+03  0.78410715257E+02 0.  0.
        254    2    1    2    0    0 -0.95662177889E+02  0.16577664227E+03  0.12564169971E+04  0.15650710653E+04  0.91336226186E+03 0.  0.
         23    2    4    4    0    0  0.31397197493E+03 -0.16090359551E+03  0.30646458617E+03  0.47630495413E+03  0.92073333048E+02 0.  0.
         23    2    4    4    0    0 -0.40963415282E+03  0.32668023778E+03  0.94995241093E+03  0.10887661112E+04  0.92097474744E+02 0.  0.
          4    1    3    3  502    0 -0.12044028307E+01 -0.16473744340E+02 -0.51039140211E+01  0.17288284389E+02  0.00000000000E+00 0. -1.
         -3    1    3    3    0  502  0.96866580720E+02 -0.14930289793E+03 -0.38964755132E+03  0.42836865436E+03  0.00000000000E+00 0.  1.
         13    1    5    5    0    0  0.25669672142E+03 -0.15978583031E+03  0.28382843900E+03  0.41470869432E+03  0.00000000000E+00 0.  1.
        -13    1    5    5    0    0  0.57275253515E+02 -0.11177652050E+01  0.22636147164E+02  0.61596259811E+02  0.00000000000E+00 0. -1.
          1    1    6    6  503    0 -0.17068203201E+03  0.14509763767E+03  0.31587425336E+03  0.38724956352E+03  0.00000000000E+00 0. -1.
         -1    1    6    6    0  503 -0.23895212081E+03  0.18158260011E+03  0.63407815757E+03  0.70151654764E+03  0.00000000000E+00 0.  1.
<mgrwt>
<rscale>  0 0.18167442E+04</rscale>
<asrwt>0</asrwt>
<pdfrwt beam="1">  1        2 0.22095335E+00 0.18167442E+04</pdfrwt>
<pdfrwt beam="2">  1       -1 0.88389422E-01 0.18167442E+04</pdfrwt>
<totfact> 0.18634712E+01</totfact>
</mgrwt>
</event>
<event>
12    7  0.1707730E-007  0.1666395E+04  0.7818608E-02  0.8780766E-01
          2   -1    0    0  501    0  0.00000000000E+00  0.00000000000E+00  0.18378850107E+04  0.18378850107E+04  0.00000000000E+00 0. -1.
         -1   -1    0    0    0  501 -0.00000000000E+00 -0.00000000000E+00 -0.37772681750E+03  0.37772681750E+03  0.00000000000E+00 0.  1.
         24    2    1    2    0    0 -0.48855891755E+03 -0.22776258770E+03  0.82634895355E+03  0.98978114881E+03  0.79047563072E+02 0.  0.
        254    2    1    2    0    0  0.48855891755E+03  0.22776258770E+03  0.63380923960E+03  0.12258306793E+04  0.90021169174E+03 0.  0.
         23    2    4    4    0    0  0.34844565244E+03 -0.26694082675E+03  0.64428843033E+02  0.45324132634E+03  0.92762311300E+02 0.  0.
         23    2    4    4    0    0  0.14011326511E+03  0.49470341445E+03  0.56938039657E+03  0.77258935300E+03  0.91307595821E+02 0.  0.
          4    1    3    3  502    0 -0.40894254145E+03 -0.17670567325E+03  0.62716396303E+03  0.76928117987E+03  0.00000000000E+00 0. -1.
         -3    1    3    3    0  502 -0.79616376100E+02 -0.51056914447E+02  0.19918499052E+03  0.22049996894E+03  0.00000000000E+00 0.  1.
         13    1    5    5    0    0  0.24071375427E+03 -0.15042279551E+03  0.76842735211E+02  0.29406620829E+03  0.00000000000E+00 0. -1.
        -13    1    5    5    0    0  0.10773189818E+03 -0.11651803124E+03 -0.12413892178E+02  0.15917511806E+03  0.00000000000E+00 0.  1.
          4    1    6    6  503    0  0.14305578958E+03  0.36026891080E+03  0.41579810936E+03  0.56845995001E+03  0.00000000000E+00 0. -1.
         -4    1    6    6    0  503 -0.29425244758E+01  0.13443450364E+03  0.15358228721E+03  0.20412940299E+03  0.00000000000E+00 0.  1.
<mgrwt>
<rscale>  0 0.16663955E+04</rscale>
<asrwt>0</asrwt>
<pdfrwt beam="1">  1        2 0.28275153E+00 0.16663955E+04</pdfrwt>
<pdfrwt beam="2">  1       -1 0.58111819E-01 0.16663955E+04</pdfrwt>
<totfact> 0.26802931E+01</totfact>
</mgrwt>
</event>
<event>
12    7  0.1707730E-007  0.1695262E+04  0.7818608E-02  0.8764071E-01
         -1   -1    0    0    0  501 -0.00000000000E+00  0.00000000000E+00  0.60665633859E+03  0.60665633859E+03  0.00000000000E+00 0.  1.
          2   -1    0    0  501    0  0.00000000000E+00 -0.00000000000E+00 -0.11843250870E+04  0.11843250870E+04  0.00000000000E+00 0. -1.
         24    2    1    2    0    0 -0.27569872767E+03  0.48274490705E+03 -0.43663436766E+03  0.71175835278E+03  0.83053886191E+02 0.  0.
        254    2    1    2    0    0  0.27569872767E+03 -0.48274490705E+03 -0.14103438078E+03  0.10792230728E+04  0.91420966450E+03 0.  0.
         23    2    4    4    0    0  0.30057843251E+02 -0.30866017941E+03 -0.50409655454E+03  0.59886795184E+03  0.91405181167E+02 0.  0.
         23    2    4    4    0    0  0.24564088441E+03 -0.17408472764E+03  0.36306217376E+03  0.48035512100E+03  0.91005295239E+02 0.  0.
          4    1    3    3  502    0 -0.23870984293E+03  0.41472602066E+03 -0.33561526639E+03  0.58448068263E+03  0.00000000000E+00 0. -1.
         -3    1    3    3    0  502 -0.36988884739E+02  0.68018886383E+02 -0.10101910126E+03  0.12727767015E+03  0.00000000000E+00 0.  1.
         13    1    5    5    0    0  0.23096035614E+01 -0.18698989464E+03 -0.22110820895E+03  0.28958486672E+03  0.00000000000E+00 0. -1.
        -13    1    5    5    0    0  0.27748239689E+02 -0.12167028477E+03 -0.28298834559E+03  0.30928308512E+03  0.00000000000E+00 0.  1.
          3    1    6    6  503    0  0.25246379633E+03 -0.17457533818E+03  0.35926508342E+03  0.47253139294E+03  0.00000000000E+00 0. -1.
         -3    1    6    6    0  503 -0.68229119103E+01  0.49061053761E+00  0.37970903470E+01  0.78237280589E+01  0.00000000000E+00 0.  1.
<mgrwt>
<rscale>  0 0.16952620E+04</rscale>
<asrwt>0</asrwt>
<pdfrwt beam="1">  1        2 0.18220386E+00 0.16952620E+04</pdfrwt>
<pdfrwt beam="2">  1       -1 0.93331745E-01 0.16952620E+04</pdfrwt>
<totfact> 0.23411347E+01</totfact>
</mgrwt>
</event>
<event>
12    7  0.1707730E-007  0.1683580E+04  0.7818608E-02  0.8770785E-01
         -1   -1    0    0    0  501 -0.00000000000E+00  0.00000000000E+00  0.88271075583E+03  0.88271075583E+03  0.00000000000E+00 0.  1.
          2   -1    0    0  501    0  0.00000000000E+00 -0.00000000000E+00 -0.80276615214E+03  0.80276615214E+03  0.00000000000E+00 0. -1.
         24    2    1    2    0    0 -0.22792354207E+03 -0.51675980097E+03 -0.16579021351E+03  0.59401845620E+03  0.79885533609E+02 0.  0.
        254    2    1    2    0    0  0.22792354207E+03  0.51675980097E+03  0.24573481720E+03  0.10914584518E+04  0.90105833253E+03 0.  0.
         23    2    4    4    0    0  0.23826772690E+03  0.14871806563E+02  0.46987213548E+03  0.53359981152E+03  0.83404165659E+02 0.  0.
         23    2    4    4    0    0 -0.10344184823E+02  0.50188799441E+03 -0.22413731827E+03  0.55785864024E+03  0.94710949529E+02 0.  0.
          4    1    3    3  502    0 -0.23160429350E+03 -0.51710964030E+03 -0.16562534322E+03  0.59031744271E+03  0.00000000000E+00 0. -1.
         -3    1    3    3    0  502  0.36807514244E+01  0.34983932828E+00 -0.16487028951E+00  0.37010134850E+01  0.00000000000E+00 0.  1.
         13    1    5    5    0    0  0.19395798598E+03 -0.21532203307E+02  0.37511092365E+03  0.42283748787E+03  0.00000000000E+00 0.  1.
        -13    1    5    5    0    0  0.44309740912E+02  0.36404009869E+02  0.94761211827E+02  0.11076232365E+03  0.00000000000E+00 0. -1.
          1    1    6    6  503    0  0.11798397927E+02  0.56252476047E+02 -0.58252015408E+02  0.81834226056E+02  0.00000000000E+00 0. -1.
         -1    1    6    6    0  503 -0.22142582749E+02  0.44563551836E+03 -0.16588530287E+03  0.47602441419E+03  0.00000000000E+00 0.  1.
<mgrwt>
<rscale>  0 0.16835799E+04</rscale>
<asrwt>0</asrwt>
<pdfrwt beam="1">  1        2 0.12350249E+00 0.16835799E+04</pdfrwt>
<pdfrwt beam="2">  1       -1 0.13580165E+00 0.16835799E+04</pdfrwt>
<totfact> 0.16922274E+01</totfact>
</mgrwt>
</event>
<event>
12    7  0.1707730E-007  0.2144624E+04  0.7818608E-02  0.8541837E-01
         -1   -1    0    0    0  501 -0.00000000000E+00  0.00000000000E+00  0.12044214914E+04  0.12044214914E+04  0.00000000000E+00 0.  1.
          2   -1    0    0  501    0  0.00000000000E+00 -0.00000000000E+00 -0.95469302963E+03  0.95469302963E+03  0.00000000000E+00 0. -1.
         24    2    1    2    0    0  0.78534944641E+03 -0.38987648485E+03  0.46695758709E+02  0.88168779057E+03  0.80096440314E+02 0.  0.
        254    2    1    2    0    0 -0.78534944641E+03  0.38987648485E+03  0.20303270308E+03  0.12774267305E+04  0.90654252343E+03 0.  0.
         23    2    4    4    0    0 -0.10637636657E+03  0.13698356443E+03  0.46238760097E+03  0.50235404101E+03  0.92069868564E+02 0.  0.
         23    2    4    4    0    0 -0.67897307983E+03  0.25289292042E+03 -0.25935489789E+03  0.77507268946E+03  0.92268296591E+02 0.  0.
          4    1    3    3  502    0  0.71428728477E+03 -0.33778050669E+03  0.23077644764E+02  0.79046478326E+03  0.00000000000E+00 0. -1.
         -3    1    3    3    0  502  0.71062161637E+02 -0.52095978159E+02  0.23618113946E+02  0.91223007313E+02  0.00000000000E+00 0.  1.
         13    1    5    5    0    0  0.16448843986E+02  0.15189579777E+02  0.71022893186E+02  0.74468376905E+02  0.00000000000E+00 0. -1.
        -13    1    5    5    0    0 -0.12282521056E+03  0.12179398466E+03  0.39136470778E+03  0.42788566410E+03  0.00000000000E+00 0.  1.
          3    1    6    6  503    0 -0.12769748744E+03  0.20413310592E+02 -0.72641206081E+02  0.14832429460E+03  0.00000000000E+00 0. -1.
         -3    1    6    6    0  503 -0.55127559239E+03  0.23247960983E+03 -0.18671369181E+03  0.62674839486E+03  0.00000000000E+00 0.  1.
<mgrwt>
<rscale>  0 0.21446238E+04</rscale>
<asrwt>0</asrwt>
<pdfrwt beam="1">  1        2 0.14687585E+00 0.21446238E+04</pdfrwt>
<pdfrwt beam="2">  1       -1 0.18529561E+00 0.21446238E+04</pdfrwt>
<totfact> 0.53853321E+00</totfact>
</mgrwt>
</event>
<event>
12    7  0.1707730E-007  0.2139862E+04  0.7818608E-02  0.8543884E-01
          2   -1    0    0  501    0  0.00000000000E+00  0.00000000000E+00  0.21591664781E+04  0.21591664781E+04  0.00000000000E+00 0. -1.
         -1   -1    0    0    0  501 -0.00000000000E+00 -0.00000000000E+00 -0.53018244983E+03  0.53018244983E+03  0.00000000000E+00 0.  1.
         24    2    1    2    0    0  0.13260594035E+03 -0.59410643777E+03 -0.12593823414E+03  0.62664172462E+03  0.79199857313E+02 0.  0.
        254    2    1    2    0    0 -0.13260594035E+03  0.59410643777E+03  0.17549222624E+04  0.20627072033E+04  0.89691809251E+03 0.  0.
         23    2    4    4    0    0 -0.30880746451E+03  0.71842022167E+03  0.15974962385E+04  0.17810239417E+04  0.92533150461E+02 0.  0.
         23    2    4    4    0    0  0.17620152416E+03 -0.12431378390E+03  0.15742602389E+03  0.28168326157E+03  0.89786484871E+02 0.  0.
          2    1    3    3  502    0  0.21335159818E+02 -0.25221130019E+02 -0.15747855488E+02  0.36596303042E+02  0.00000000000E+00 0. -1.
         -1    1    3    3    0  502  0.11127078053E+03 -0.56888530775E+03 -0.11019037865E+03  0.59004542158E+03  0.00000000000E+00 0.  1.
         13    1    5    5    0    0 -0.90281416919E+02  0.32594323532E+03  0.68274665721E+03  0.76192698130E+03  0.00000000000E+00 0.  1.
        -13    1    5    5    0    0 -0.21852604759E+03  0.39247698635E+03  0.91474958130E+03  0.10190969604E+04  0.00000000000E+00 0. -1.
          4    1    6    6  503    0  0.60328860001E+02 -0.66216377732E+02  0.11399418960E+03  0.14497880980E+03  0.00000000000E+00 0.  1.
         -4    1    6    6    0  503  0.11587266416E+03 -0.58097406172E+02  0.43431834291E+02  0.13670445177E+03  0.00000000000E+00 0. -1.
<mgrwt>
<rscale>  0 0.21398618E+04</rscale>
<asrwt>0</asrwt>
<pdfrwt beam="1">  1        2 0.33217945E+00 0.21398618E+04</pdfrwt>
<pdfrwt beam="2">  1       -1 0.81566532E-01 0.21398618E+04</pdfrwt>
<totfact> 0.85174048E+00</totfact>
</mgrwt>
</event>
<event>
12    7  0.1707730E-007  0.1287134E+04  0.7818608E-02  0.9039831E-01
         -1   -1    0    0    0  501 -0.00000000000E+00  0.00000000000E+00  0.10171555900E+04  0.10171555900E+04  0.00000000000E+00 0.  1.
          2   -1    0    0  501    0  0.00000000000E+00 -0.00000000000E+00 -0.40719285560E+03  0.40719285560E+03  0.00000000000E+00 0. -1.
         24    2    1    2    0    0 -0.11735290154E+03 -0.27491943256E+03  0.32483501177E+03  0.44899591723E+03  0.82019210649E+02 0.  0.
        254    2    1    2    0    0  0.11735290154E+03  0.27491943256E+03  0.28512772267E+03  0.97535252842E+03  0.88355098243E+03 0.  0.
         23    2    4    4    0    0 -0.30101529866E+02 -0.11933625435E+02  0.54330897477E+03  0.55184560651E+03  0.91106629019E+02 0.  0.
         23    2    4    4    0    0  0.14745443141E+03  0.28685305800E+03 -0.25818125210E+03  0.42350692190E+03  0.93129306544E+02 0.  0.
          2    1    3    3  502    0 -0.12846227954E+03 -0.26706656378E+03  0.30999934140E+03  0.42886676069E+03  0.00000000000E+00 0. -1.
         -1    1    3    3    0  502  0.11109378001E+02 -0.78528687808E+01  0.14835670374E+02  0.20129156542E+02  0.00000000000E+00 0.  1.
         13    1    5    5    0    0  0.32468596211E+02 -0.87660380133E+01  0.16630027071E+03  0.16966682999E+03  0.00000000000E+00 0. -1.
        -13    1    5    5    0    0 -0.62570126077E+02 -0.31675874217E+01  0.37700870406E+03  0.38217877652E+03  0.00000000000E+00 0.  1.
          2    1    6    6  503    0  0.20148237421E+02  0.14720614726E+02  0.33585329164E+01  0.25177921130E+02  0.00000000000E+00 0. -1.
         -2    1    6    6    0  503  0.12730619399E+03  0.27213244327E+03 -0.26153978502E+03  0.39832900077E+03  0.00000000000E+00 0.  1.
<mgrwt>
<rscale>  0 0.12871340E+04</rscale>
<asrwt>0</asrwt>
<pdfrwt beam="1">  1        2 0.62645055E-01 0.12871340E+04</pdfrwt>
<pdfrwt beam="2">  1       -1 0.15648547E+00 0.12871340E+04</pdfrwt>
<totfact> 0.27196537E+01</totfact>
</mgrwt>
</event>
<event>
12    7  0.1707730E-007  0.1482323E+04  0.7818608E-02  0.8896294E-01
          2   -1    0    0  501    0  0.00000000000E+00  0.00000000000E+00  0.24745374834E+04  0.24745374834E+04  0.00000000000E+00 0. -1.
         -1   -1    0    0    0  501 -0.00000000000E+00 -0.00000000000E+00 -0.22198896126E+03  0.22198896126E+03  0.00000000000E+00 0.  1.
         24    2    1    2    0    0 -0.26762698181E+03  0.46999409772E+01  0.13537222550E+04  0.13822249620E+04  0.79596551837E+02 0.  0.
        254    2    1    2    0    0  0.26762698181E+03 -0.46999409772E+01  0.89882626709E+03  0.13143014826E+04  0.92078957312E+03 0.  0.
         23    2    4    4    0    0  0.59535082010E+03 -0.85738478849E+02  0.54507269253E+03  0.81669638687E+03  0.89972564845E+02 0.  0.
         23    2    4    4    0    0 -0.32772383830E+03  0.81038537872E+02  0.35375357456E+03  0.49760509575E+03  0.92190460433E+02 0.  0.
          4    1    3    3  502    0 -0.13685743478E+03 -0.33697373727E+02  0.77097016720E+03  0.78374770760E+03  0.00000000000E+00 0. -1.
         -3    1    3    3    0  502 -0.13076954703E+03  0.38397314704E+02  0.58275208784E+03  0.59847725444E+03  0.00000000000E+00 0.  1.
         13    1    5    5    0    0  0.58662989740E+03 -0.87180687487E+02  0.51538457499E+03  0.78572028670E+03  0.00000000000E+00 0.  1.
        -13    1    5    5    0    0  0.87209227059E+01  0.14422086382E+01  0.29688117537E+02  0.30976100166E+02  0.00000000000E+00 0. -1.
          1    1    6    6  503    0 -0.21721602122E+02  0.17072988736E+02  0.30522863765E+01  0.27796247863E+02  0.00000000000E+00 0. -1.
         -1    1    6    6    0  503 -0.30600223618E+03  0.63965549135E+02  0.35070128818E+03  0.46980884789E+03  0.00000000000E+00 0.  1.
<mgrwt>
<rscale>  0 0.14823225E+04</rscale>
<asrwt>0</asrwt>
<pdfrwt beam="1">  1        2 0.38069805E+00 0.14823225E+04</pdfrwt>
<pdfrwt beam="2">  1       -1 0.34152150E-01 0.14823225E+04</pdfrwt>
<totfact> 0.32263716E+01</totfact>
</mgrwt>
</event>
<event>
12    7  0.1707730E-007  0.1777868E+04  0.7818608E-02  0.8718159E-01
          2   -1    0    0  501    0  0.00000000000E+00  0.00000000000E+00  0.16878985871E+04  0.16878985871E+04  0.00000000000E+00 0. -1.
         -1   -1    0    0    0  501 -0.00000000000E+00 -0.00000000000E+00 -0.46815805098E+03  0.46815805098E+03  0.00000000000E+00 0.  1.
         24    2    1    2    0    0 -0.64370102254E+03 -0.39420080234E+02  0.29327970590E+03  0.71302875504E+03  0.80573385648E+02 0.  0.
        254    2    1    2    0    0  0.64370102254E+03  0.39420080234E+02  0.92646083022E+03  0.14430278830E+04  0.89894096144E+03 0.  0.
         23    2    4    4    0    0  0.35068114963E+03 -0.21236203034E+03  0.95569622163E+03  0.10439159153E+04  0.91270310763E+02 0.  0.
         23    2    4    4    0    0  0.29301987292E+03  0.25178211057E+03 -0.29235391407E+02  0.39911196771E+03  0.95816373995E+02 0.  0.
          4    1    3    3  502    0 -0.14542079752E+03 -0.11128954804E+02  0.10457216225E+03  0.17946141397E+03  0.00000000000E+00 0. -1.
         -3    1    3    3    0  502 -0.49828022502E+03 -0.28291125430E+02  0.18870754364E+03  0.53356734107E+03  0.00000000000E+00 0.  1.
         13    1    5    5    0    0  0.12692018609E+03 -0.11642806991E+03  0.32410747762E+03  0.36702845414E+03  0.00000000000E+00 0. -1.
        -13    1    5    5    0    0  0.22376096354E+03 -0.95933960428E+02  0.63158874401E+03  0.67688746120E+03  0.00000000000E+00 0.  1.
          1    1    6    6  503    0  0.10270766827E+03  0.15118908325E+03 -0.12791127403E+02  0.18322286144E+03  0.00000000000E+00 0. -1.
         -1    1    6    6    0  503  0.19031220465E+03  0.10059302733E+03 -0.16444264004E+02  0.21588910627E+03  0.00000000000E+00 0.  1.
<mgrwt>
<rscale>  0 0.17778676E+04</rscale>
<asrwt>0</asrwt>
<pdfrwt beam="1">  1        2 0.25967670E+00 0.17778676E+04</pdfrwt>
<pdfrwt beam="2">  1       -1 0.72024317E-01 0.17778676E+04</pdfrwt>
<totfact> 0.20872567E+01</totfact>
</mgrwt>
</event>
<event>
12    7  0.1707730E-007  0.1216741E+04  0.7818608E-02  0.9098328E-01
          2   -1    0    0  501    0  0.00000000000E+00  0.00000000000E+00  0.16151278721E+04  0.16151278721E+04  0.00000000000E+00 0. -1.
         -1   -1    0    0    0  501 -0.00000000000E+00 -0.00000000000E+00 -0.22915500114E+03  0.22915500114E+03  0.00000000000E+00 0.  1.
         24    2    1    2    0    0 -0.42670070628E+02  0.14111580001E+03  0.64980667982E+03  0.67119837083E+03  0.80772073883E+02 0.  0.
        254    2    1    2    0    0  0.42670070628E+02 -0.14111580001E+03  0.73616619114E+03  0.11730845024E+04  0.90136129543E+03 0.  0.
         23    2    4    4    0    0  0.12032428276E+03  0.33745209106E+03  0.13036373983E+03  0.39137807889E+03  0.88488695284E+02 0.  0.
         23    2    4    4    0    0 -0.77654212130E+02 -0.47856789107E+03  0.60580245131E+03  0.78170642354E+03  0.94925863487E+02 0.  0.
          2    1    3    3  502    0 -0.61593440852E+02  0.10245223867E+03  0.39198282211E+03  0.40980574178E+03  0.00000000000E+00 0. -1.
         -3    1    3    3    0  502  0.18923370223E+02  0.38663561345E+02  0.25782385771E+03  0.26139262905E+03  0.00000000000E+00 0.  1.
         13    1    5    5    0    0  0.11065991407E+03  0.25669041176E+03  0.13394238227E+03  0.30996152316E+03  0.00000000000E+00 0.  1.
        -13    1    5    5    0    0  0.96643686839E+01  0.80761679293E+02 -0.35786424413E+01  0.81416555725E+02  0.00000000000E+00 0. -1.
          4    1    6    6  503    0 -0.16320307945E+02 -0.34634784464E+02  0.17351693811E+02  0.42035723194E+02  0.00000000000E+00 0. -1.
         -4    1    6    6    0  503 -0.61333904185E+02 -0.44393310660E+03  0.58845075750E+03  0.73967070034E+03  0.00000000000E+00 0.  1.
<mgrwt>
<rscale>  0 0.12167409E+04</rscale>
<asrwt>0</asrwt>
<pdfrwt beam="1">  1        2 0.24848120E+00 0.12167409E+04</pdfrwt>
<pdfrwt beam="2">  1       -1 0.35254617E-01 0.12167409E+04</pdfrwt>
<totfact> 0.94042508E+01</totfact>
</mgrwt>
</event>
<event>
12    7  0.1707730E-007  0.1631182E+04  0.7818608E-02  0.8801617E-01
         -1   -1    0    0    0  501 -0.00000000000E+00  0.00000000000E+00  0.12082388938E+04  0.12082388938E+04  0.00000000000E+00 0.  1.
          2   -1    0    0  501    0  0.00000000000E+00 -0.00000000000E+00 -0.55054396434E+03  0.55054396434E+03  0.00000000000E+00 0. -1.
         24    2    1    2    0    0  0.21319389175E+03  0.51287432032E+03  0.34738152665E+03  0.66012604508E+03  0.81245100929E+02 0.  0.
        254    2    1    2    0    0 -0.21319389175E+03 -0.51287432032E+03  0.31031340281E+03  0.10986568130E+04  0.89569005854E+03 0.  0.
         23    2    4    4    0    0  0.98010272611E+01 -0.71796230004E+03  0.13128975049E+03  0.73503882821E+03  0.86482113647E+02 0.  0.
         23    2    4    4    0    0 -0.22299491901E+03  0.20508797972E+03  0.17902365232E+03  0.36361798483E+03  0.91546477121E+02 0.  0.
          2    1    3    3  502    0  0.19405125327E+03  0.42533075628E+03  0.25989871273E+03  0.53489202837E+03  0.00000000000E+00 0. -1.
         -1    1    3    3    0  502  0.19142638479E+02  0.87543564035E+02  0.87482813917E+02  0.12523401672E+03  0.00000000000E+00 0.  1.
         13    1    5    5    0    0 -0.37336217992E+02 -0.23902149549E+03  0.40107189865E+02  0.24522205275E+03  0.00000000000E+00 0.  1.
        -13    1    5    5    0    0  0.47137245254E+02 -0.47894080455E+03  0.91182560621E+02  0.48981677546E+03  0.00000000000E+00 0. -1.
          3    1    6    6  503    0 -0.10727350840E+03  0.15835922467E+03  0.11745813673E+03  0.22445860092E+03  0.00000000000E+00 0. -1.
         -3    1    6    6    0  503 -0.11572141060E+03  0.46728755055E+02  0.61565515591E+02  0.13915938391E+03  0.00000000000E+00 0.  1.
<mgrwt>
<rscale>  0 0.16311819E+04</rscale>
<asrwt>0</asrwt>
<pdfrwt beam="1">  1        2 0.84699072E-01 0.16311819E+04</pdfrwt>
<pdfrwt beam="2">  1       -1 0.18588291E+00 0.16311819E+04</pdfrwt>
<totfact> 0.11355231E+01</totfact>
</mgrwt>
</event>
<event>
12    7  0.1707730E-007  0.1367012E+04  0.7818608E-02  0.8978049E-01
          2   -1    0    0  501    0  0.00000000000E+00  0.00000000000E+00  0.31813700331E+04  0.31813700331E+04  0.00000000000E+00 0. -1.
         -1   -1    0    0    0  501 -0.00000000000E+00 -0.00000000000E+00 -0.14684880635E+03  0.14684880635E+03  0.00000000000E+00 0.  1.
         24    2    1    2    0    0  0.20028097165E+03 -0.32599100701E+03  0.96579740204E+03  0.10419058157E+04  0.80128040069E+02 0.  0.
        254    2    1    2    0    0 -0.20028097165E+03  0.32599100701E+03  0.20687238247E+04  0.22863130237E+04  0.89511249307E+03 0.  0.
         23    2    4    4    0    0  0.12525128901E+03  0.17769671795E+03  0.61223468343E+02  0.24509333227E+03  0.95175729468E+02 0.  0.
         23    2    4    4    0    0 -0.32553226066E+03  0.14829428906E+03  0.20075003563E+04  0.20412196914E+04  0.92507832424E+02 0.  0.
          2    1    3    3  502    0  0.16245753038E+03 -0.28587658308E+03  0.74512633749E+03  0.81445142811E+03  0.00000000000E+00 0. -1.
         -1    1    3    3    0  502  0.37823441275E+02 -0.40114423927E+02  0.22067106455E+03  0.22745438762E+03  0.00000000000E+00 0.  1.
         13    1    5    5    0    0  0.12706506637E+03  0.18569087308E+03  0.48841252285E+02  0.23024356530E+03  0.00000000000E+00 0. -1.
        -13    1    5    5    0    0 -0.18137773610E+01 -0.79941551327E+01  0.12382216058E+02  0.14849766971E+02  0.00000000000E+00 0.  1.
          3    1    6    6  503    0 -0.27337621969E+03  0.84992788364E+02  0.14888953113E+04  0.15161687173E+04  0.00000000000E+00 0. -1.
         -3    1    6    6    0  503 -0.52156040975E+02  0.63301500697E+02  0.51860504508E+03  0.52505097408E+03  0.00000000000E+00 0.  1.
<mgrwt>
<rscale>  0 0.13670119E+04</rscale>
<asrwt>0</asrwt>
<pdfrwt beam="1">  1        2 0.48944149E+00 0.13670119E+04</pdfrwt>
<pdfrwt beam="2">  1       -1 0.22592126E-01 0.13670119E+04</pdfrwt>
<totfact> 0.24986329E+01</totfact>
</mgrwt>
</event>
<event>
12    7  0.1707730E-007  0.1803142E+04  0.7818608E-02  0.8704630E-01
         -1   -1    0    0    0  501 -0.00000000000E+00  0.00000000000E+00  0.49975532491E+03  0.49975532491E+03  0.00000000000E+00 0.  1.
          2   -1    0    0  501    0  0.00000000000E+00 -0.00000000000E+00 -0.16264570492E+04  0.16264570492E+04  0.00000000000E+00 0. -1.
         24    2    1    2    0    0 -0.63208510069E+03  0.17080901596E+03 -0.26734278690E+03  0.71180598810E+03  0.80550012659E+02 0.  0.
        254    2    1    2    0    0  0.63208510069E+03 -0.17080901596E+03 -0.85935893744E+03  0.14144063861E+04  0.91287477077E+03 0.  0.
         23    2    4    4    0    0  0.45565582663E+03  0.24268393381E+03 -0.79300553719E+03  0.95077819713E+03  0.92755991965E+02 0.  0.
         23    2    4    4    0    0  0.17642927406E+03 -0.41349294977E+03 -0.66353400247E+02  0.46362818893E+03  0.91894589569E+02 0.  0.
          4    1    3    3  502    0 -0.12413646630E+03  0.33533988721E+02 -0.88390410053E+02  0.15603607036E+03  0.00000000000E+00 0. -1.
         -3    1    3    3    0  502 -0.50794863439E+03  0.13727502724E+03 -0.17895237685E+03  0.55576991773E+03  0.00000000000E+00 0.  1.
         13    1    5    5    0    0  0.27826155630E+03  0.15705063710E+03 -0.56822357051E+03  0.65189908914E+03  0.00000000000E+00 0. -1.
        -13    1    5    5    0    0  0.17739427033E+03  0.85633296705E+02 -0.22478196668E+03  0.29887910799E+03  0.00000000000E+00 0.  1.
          1    1    6    6  503    0  0.16758173634E+03 -0.29074639733E+03 -0.54687160808E+02  0.34001145786E+03  0.00000000000E+00 0. -1.
         -1    1    6    6    0  503  0.88475377218E+01 -0.12274655243E+03 -0.11666239439E+02  0.12361673107E+03  0.00000000000E+00 0.  1.
<mgrwt>
<rscale>  0 0.18031423E+04</rscale>
<asrwt>0</asrwt>
<pdfrwt beam="1">  1        2 0.25022416E+00 0.18031423E+04</pdfrwt>
<pdfrwt beam="2">  1       -1 0.76885435E-01 0.18031423E+04</pdfrwt>
<totfact> 0.19665773E+01</totfact>
</mgrwt>
</event>
<event>
12    7  0.1707730E-007  0.2589719E+04  0.7818608E-02  0.8371702E-01
          2   -1    0    0  501    0  0.00000000000E+00  0.00000000000E+00  0.99562421483E+03  0.99562421483E+03  0.00000000000E+00 0. -1.
         -1   -1    0    0    0  501 -0.00000000000E+00 -0.00000000000E+00 -0.16840302201E+04  0.16840302201E+04  0.00000000000E+00 0.  1.
         24    2    1    2    0    0  0.57618832617E+03  0.74510092675E+02 -0.13123302448E+04  0.14373786816E+04  0.79385525157E+02 0.  0.
        254    2    1    2    0    0 -0.57618832617E+03 -0.74510092675E+02  0.62392423953E+03  0.12422757534E+04  0.90356120416E+03 0.  0.
         23    2    4    4    0    0  0.11433661713E+03 -0.17411112617E+03 -0.86025603554E+02  0.24264941463E+03  0.89948805890E+02 0.  0.
         23    2    4    4    0    0 -0.69052494330E+03  0.99601033496E+02  0.70994984308E+03  0.99962633876E+03  0.92081345878E+02 0.  0.
          4    1    3    3  502    0  0.10445333958E+03 -0.15016918912E+02 -0.26450522989E+03  0.28477890484E+03  0.00000000000E+00 0. -1.
         -3    1    3    3    0  502  0.47173498659E+03  0.89527011588E+02 -0.10478250149E+04  0.11525997767E+04  0.00000000000E+00 0.  1.
         13    1    5    5    0    0  0.92063737915E+00 -0.64084624516E+02 -0.48135368668E+02  0.80154228768E+02  0.00000000000E+00 0. -1.
        -13    1    5    5    0    0  0.11341597975E+03 -0.11002650166E+03 -0.37890234885E+02  0.16249518586E+03  0.00000000000E+00 0.  1.
          4    1    6    6  503    0 -0.69490409067E+02 -0.10976881670E+02  0.99097065010E+02  0.12153039610E+03  0.00000000000E+00 0. -1.
         -4    1    6    6    0  503 -0.62103453423E+03  0.11057791517E+03  0.61085277807E+03  0.87809594266E+03  0.00000000000E+00 0.  1.
<mgrwt>
<rscale>  0 0.25897191E+04</rscale>
<asrwt>0</asrwt>
<pdfrwt beam="1">  1        2 0.15317296E+00 0.25897191E+04</pdfrwt>
<pdfrwt beam="2">  1       -1 0.25908157E+00 0.25897191E+04</pdfrwt>
<totfact> 0.15564852E+00</totfact>
</mgrwt>
</event>
<event>
12    7  0.1707730E-007  0.1372090E+04  0.7818608E-02  0.8974273E-01
         -1   -1    0    0    0  501 -0.00000000000E+00  0.00000000000E+00  0.39567405566E+03  0.39567405566E+03  0.00000000000E+00 0.  1.
          2   -1    0    0  501    0  0.00000000000E+00 -0.00000000000E+00 -0.11895085998E+04  0.11895085998E+04  0.00000000000E+00 0. -1.
         24    2    1    2    0    0 -0.96668899770E+02  0.10458769878E+03 -0.66432925908E+03  0.68409238231E+03  0.79784460543E+02 0.  0.
        254    2    1    2    0    0  0.96668899770E+02 -0.10458769878E+03 -0.12950528501E+03  0.90109027311E+03  0.88028892900E+03 0.  0.
         23    2    4    4    0    0  0.25170892906E+03 -0.46445983474E+02  0.31549842418E+03  0.41654495898E+03  0.91955602587E+02 0.  0.
         23    2    4    4    0    0 -0.15504002929E+03 -0.58141715308E+02 -0.44500370919E+03  0.48454531412E+03  0.96633278434E+02 0.  0.
          4    1    3    3  502    0 -0.51230996252E+02  0.79468777211E+02 -0.26420828392E+03  0.28061703231E+03  0.00000000000E+00 0. -1.
         -3    1    3    3    0  502 -0.45437903518E+02  0.25118921572E+02 -0.40012097516E+03  0.40347535000E+03  0.00000000000E+00 0.  1.
         13    1    5    5    0    0  0.54959791125E+02  0.27646142765E+02  0.78508726441E+02  0.99742207604E+02  0.00000000000E+00 0.  1.
        -13    1    5    5    0    0  0.19674913794E+03 -0.74092126239E+02  0.23698969773E+03  0.31680275138E+03  0.00000000000E+00 0. -1.
          1    1    6    6  503    0 -0.14589614719E+03 -0.80723270959E+02 -0.40020868324E+03  0.43355382870E+03  0.00000000000E+00 0. -1.
         -1    1    6    6    0  503 -0.91438820992E+01  0.22581555650E+02 -0.44795025946E+02  0.50991485416E+02  0.00000000000E+00 0.  1.
<mgrwt>
<rscale>  0 0.13720899E+04</rscale>
<asrwt>0</asrwt>
<pdfrwt beam="1">  1        2 0.18300132E+00 0.13720899E+04</pdfrwt>
<pdfrwt beam="2">  1       -1 0.60872931E-01 0.13720899E+04</pdfrwt>
<totfact> 0.58484827E+01</totfact>
</mgrwt>
</event>
<event>
12    7  0.1707730E-007  0.1214318E+04  0.7818608E-02  0.9100415E-01
         -1   -1    0    0    0  501 -0.00000000000E+00  0.00000000000E+00  0.29156485174E+03  0.29156485174E+03  0.00000000000E+00 0.  1.
          2   -1    0    0  501    0  0.00000000000E+00 -0.00000000000E+00 -0.12643575933E+04  0.12643575933E+04  0.00000000000E+00 0. -1.
         24    2    1    2    0    0  0.24710207801E+03 -0.59773021444E+02 -0.98692629401E+02  0.28410817547E+03  0.79655315108E+02 0.  0.
        254    2    1    2    0    0 -0.24710207801E+03  0.59773021444E+02 -0.87410011214E+03  0.12718142696E+04  0.88816005266E+03 0.  0.
         23    2    4    4    0    0 -0.52704274103E+03  0.29577813270E+02 -0.27252572860E+03  0.60132769562E+03  0.93144118728E+02 0.  0.
         23    2    4    4    0    0  0.27994066303E+03  0.30195208174E+02 -0.60157438354E+03  0.67048657393E+03  0.91553162055E+02 0.  0.
          2    1    3    3  502    0  0.14098517637E+03 -0.44574937054E+02 -0.97101394294E+02  0.17689665272E+03  0.00000000000E+00 0. -1.
         -1    1    3    3    0  502  0.10611690164E+03 -0.15198084389E+02 -0.15912351070E+01  0.10721152275E+03  0.00000000000E+00 0.  1.
         13    1    5    5    0    0 -0.12476369616E+03  0.44848953731E+02 -0.52879812996E+02  0.14273641144E+03  0.00000000000E+00 0. -1.
        -13    1    5    5    0    0 -0.40227904488E+03 -0.15271140461E+02 -0.21964591561E+03  0.45859128417E+03  0.00000000000E+00 0.  1.
          3    1    6    6  503    0  0.74824158151E+02 -0.28782753144E+02 -0.12788513516E+03  0.15093611004E+03  0.00000000000E+00 0. -1.
         -3    1    6    6    0  503  0.20511650488E+03  0.58977961317E+02 -0.47368924838E+03  0.51955046389E+03  0.00000000000E+00 0.  1.
<mgrwt>
<rscale>  0 0.12143183E+04</rscale>
<asrwt>0</asrwt>
<pdfrwt beam="1">  1        2 0.19451656E+00 0.12143183E+04</pdfrwt>
<pdfrwt beam="2">  1       -1 0.44856130E-01 0.12143183E+04</pdfrwt>
<totfact> 0.95990680E+01</totfact>
</mgrwt>
</event>
<event>
12    7  0.1707730E-007  0.1455117E+04  0.7818608E-02  0.8914860E-01
         -1   -1    0    0    0  501 -0.00000000000E+00  0.00000000000E+00  0.98098998724E+03  0.98098998724E+03  0.00000000000E+00 0.  1.
          2   -1    0    0  501    0  0.00000000000E+00 -0.00000000000E+00 -0.53959949177E+03  0.53959949177E+03  0.00000000000E+00 0. -1.
         24    2    1    2    0    0  0.23745029634E+03 -0.21360451972E+03  0.45159608623E+03  0.55863877335E+03  0.78286141266E+02 0.  0.
        254    2    1    2    0    0 -0.23745029634E+03  0.21360451972E+03 -0.10205590764E+02  0.96195070566E+03  0.90732324558E+03 0.  0.
         23    2    4    4    0    0  0.79543963770E+02  0.44730850256E+03 -0.21245319062E+03  0.50991284039E+03  0.91992434211E+02 0.  0.
         23    2    4    4    0    0 -0.31699426011E+03 -0.23370398284E+03  0.20224759986E+03  0.45203786528E+03  0.91275557821E+02 0.  0.
          4    1    3    3  502    0  0.38036104436E+02 -0.80641225428E+02  0.12382206101E+03  0.15258327324E+03  0.00000000000E+00 0. -1.
         -3    1    3    3    0  502  0.19941419191E+03 -0.13296329429E+03  0.32777402522E+03  0.40605550011E+03  0.00000000000E+00 0.  1.
         13    1    5    5    0    0  0.99284007057E+02  0.39736913604E+03 -0.19322721874E+03  0.45287559263E+03  0.00000000000E+00 0.  1.
        -13    1    5    5    0    0 -0.19740043288E+02  0.49939366515E+02 -0.19225971884E+02  0.57037247758E+02  0.00000000000E+00 0. -1.
          2    1    6    6  503    0 -0.28925138491E+03 -0.21566316771E+03  0.15119818225E+03  0.39120053157E+03  0.00000000000E+00 0.  1.
         -2    1    6    6    0  503 -0.27742875201E+02 -0.18040815126E+02  0.51049417609E+02  0.60837333711E+02  0.00000000000E+00 0. -1.
<mgrwt>
<rscale>  0 0.14551175E+04</rscale>
<asrwt>0</asrwt>
<pdfrwt beam="1">  1        2 0.83015307E-01 0.14551175E+04</pdfrwt>
<pdfrwt beam="2">  1       -1 0.15092154E+00 0.14551175E+04</pdfrwt>
<totfact> 0.21415141E+01</totfact>
</mgrwt>
</event>
<event>
12    7  0.1707730E-007  0.3316566E+04  0.7818608E-02  0.8158693E-01
         -1   -1    0    0    0  501 -0.00000000000E+00  0.00000000000E+00  0.10347825085E+04  0.10347825085E+04  0.00000000000E+00 0.  1.
          2   -1    0    0  501    0  0.00000000000E+00 -0.00000000000E+00 -0.26574690911E+04  0.26574690911E+04  0.00000000000E+00 0. -1.
         24    2    1    2    0    0 -0.84773802763E+03 -0.12240965091E+04 -0.33478094996E+03  0.15281831112E+04  0.78697584657E+02 0.  0.
        254    2    1    2    0    0  0.84773802763E+03  0.12240965091E+04 -0.12879056327E+04  0.21640684884E+04  0.89856523225E+03 0.  0.
         23    2    4    4    0    0  0.89884212760E+03  0.56796383107E+03 -0.89238892377E+03  0.13908866021E+04  0.87792168798E+02 0.  0.
         23    2    4    4    0    0 -0.51104099971E+02  0.65613267802E+03 -0.39551670890E+03  0.77318188625E+03  0.90857261758E+02 0.  0.
          4    1    3    3  502    0 -0.53302384924E+02 -0.64824760050E+02 -0.19485822524E+01  0.83947547474E+02  0.00000000000E+00 0. -1.
         -3    1    3    3    0  502 -0.79443564271E+03 -0.11592717490E+04 -0.33283236771E+03  0.14442355637E+04  0.00000000000E+00 0.  1.
         13    1    5    5    0    0  0.57155426050E+03  0.32479771897E+03 -0.51184738431E+03  0.83315999410E+03  0.00000000000E+00 0. -1.
        -13    1    5    5    0    0  0.32728786710E+03  0.24316611210E+03 -0.38054153946E+03  0.55772660801E+03  0.00000000000E+00 0.  1.
          3    1    6    6  503    0 -0.40461788166E+02  0.63119488664E+03 -0.35764382524E+03  0.72660391339E+03  0.00000000000E+00 0. -1.
         -3    1    6    6    0  503 -0.10642311805E+02  0.24937791380E+02 -0.37872883659E+02  0.46577972864E+02  0.00000000000E+00 0.  1.
<mgrwt>
<rscale>  0 0.33165660E+04</rscale>
<asrwt>0</asrwt>
<pdfrwt beam="1">  1        2 0.40884140E+00 0.33165660E+04</pdfrwt>
<pdfrwt beam="2">  1       -1 0.15919731E+00 0.33165660E+04</pdfrwt>
<totfact> 0.79027074E-01</totfact>
</mgrwt>
</event>
<event>
12    7  0.1707730E-007  0.1621311E+04  0.7818608E-02  0.8807562E-01
         -1   -1    0    0    0  501 -0.00000000000E+00  0.00000000000E+00  0.24569385793E+03  0.24569385793E+03  0.00000000000E+00 0.  1.
          2   -1    0    0  501    0  0.00000000000E+00 -0.00000000000E+00 -0.26747205607E+04  0.26747205607E+04  0.00000000000E+00 0. -1.
         24    2    1    2    0    0 -0.17201907899E+03 -0.34479949219E+03 -0.11946577390E+03  0.41130614036E+03  0.80146220230E+02 0.  0.
        254    2    1    2    0    0  0.17201907899E+03  0.34479949219E+03 -0.23095609288E+04  0.25091082782E+04  0.90170694493E+03 0.  0.
         23    2    4    4    0    0 -0.25918910445E+03  0.44173161594E+03 -0.10630209403E+04  0.11834421393E+04  0.90641961536E+02 0.  0.
         23    2    4    4    0    0  0.43120818344E+03 -0.96932123748E+02 -0.12465399886E+04  0.13256661390E+04  0.90512069834E+02 0.  0.
          2    1    3    3  502    0 -0.34552841197E+02 -0.25689875965E+02  0.23272653463E+01  0.43119423998E+02  0.00000000000E+00 0. -1.
         -1    1    3    3    0  502 -0.13746623779E+03 -0.31910961622E+03 -0.12179303925E+03  0.36818671637E+03  0.00000000000E+00 0.  1.
         13    1    5    5    0    0 -0.57281835929E+02  0.42973521029E+02 -0.18063541246E+03  0.19431182278E+03  0.00000000000E+00 0.  1.
        -13    1    5    5    0    0 -0.20190726852E+03  0.39875809491E+03 -0.88238552780E+03  0.98913031649E+03  0.00000000000E+00 0. -1.
          1    1    6    6  503    0  0.12903670104E+03  0.55887167491E+01 -0.29455930926E+03  0.32163160703E+03  0.00000000000E+00 0. -1.
         -1    1    6    6    0  503  0.30217148239E+03 -0.10252084050E+03 -0.95198067932E+03  0.10040345319E+04  0.00000000000E+00 0.  1.
<mgrwt>
<rscale>  0 0.16213111E+04</rscale>
<asrwt>0</asrwt>
<pdfrwt beam="1">  1        2 0.41149546E+00 0.16213111E+04</pdfrwt>
<pdfrwt beam="2">  1       -1 0.37799056E-01 0.16213111E+04</pdfrwt>
<totfact> 0.20303112E+01</totfact>
</mgrwt>
</event>
<event>
12    7  0.1707730E-007  0.2176484E+04  0.7818608E-02  0.8528280E-01
          2   -1    0    0  501    0  0.00000000000E+00  0.00000000000E+00  0.17976339179E+04  0.17976339179E+04  0.00000000000E+00 0. -1.
         -1   -1    0    0    0  501 -0.00000000000E+00 -0.00000000000E+00 -0.65879388320E+03  0.65879388320E+03  0.00000000000E+00 0.  1.
         24    2    1    2    0    0 -0.20351833502E+03 -0.89021800436E+03  0.41503859890E+03  0.10061993572E+04  0.79197852315E+02 0.  0.
        254    2    1    2    0    0  0.20351833502E+03  0.89021800436E+03  0.72380143580E+03  0.14502284439E+04  0.86334594059E+03 0.  0.
         23    2    4    4    0    0 -0.76012234391E+02  0.36558832511E+03 -0.12979733968E+03  0.40546038351E+03  0.90100443831E+02 0.  0.
         23    2    4    4    0    0  0.27953056941E+03  0.52462967925E+03  0.85359877547E+03  0.10447680604E+04  0.97651374746E+02 0.  0.
          4    1    3    3  502    0 -0.14715447724E+03 -0.54910924109E+03  0.29306683794E+03  0.63958077701E+03  0.00000000000E+00 0. -1.
         -3    1    3    3    0  502 -0.56363857777E+02 -0.34110876327E+03  0.12197176095E+03  0.36661858015E+03  0.00000000000E+00 0.  1.
         13    1    5    5    0    0  0.19379630551E+02  0.10091258024E+03 -0.32655934358E+02  0.10782081886E+03  0.00000000000E+00 0.  1.
        -13    1    5    5    0    0 -0.95391864943E+02  0.26467574486E+03 -0.97141405318E+02  0.29763956465E+03  0.00000000000E+00 0. -1.
          2    1    6    6  503    0  0.21241350752E+03  0.31201411910E+03  0.49471129562E+03  0.62226326800E+03  0.00000000000E+00 0. -1.
         -2    1    6    6    0  503  0.67117061896E+02  0.21261556016E+03  0.35888747986E+03  0.42250479242E+03  0.00000000000E+00 0.  1.
<mgrwt>
<rscale>  0 0.21764836E+04</rscale>
<asrwt>0</asrwt>
<pdfrwt beam="1">  1        2 0.27655906E+00 0.21764836E+04</pdfrwt>
<pdfrwt beam="2">  1       -1 0.10135291E+00 0.21764836E+04</pdfrwt>
<totfact> 0.83395428E+00</totfact>
</mgrwt>
</event>
<event>
12    7  0.1707730E-007  0.2101718E+04  0.7818608E-02  0.8560487E-01
         -3   -1    0    0    0  501 -0.00000000000E+00  0.00000000000E+00  0.14417258330E+04  0.14417258330E+04  0.00000000000E+00 0.  1.
          4   -1    0    0  501    0  0.00000000000E+00 -0.00000000000E+00 -0.76596036284E+03  0.76596036284E+03  0.00000000000E+00 0. -1.
         24    2    1    2    0    0  0.33880962973E+03  0.98484284382E+02  0.10940976244E+04  0.11524280984E+04  0.80930778100E+02 0.  0.
        254    2    1    2    0    0 -0.33880962973E+03 -0.98484284382E+02 -0.41833215424E+03  0.10552580974E+04  0.90226201374E+03 0.  0.
         23    2    4    4    0    0 -0.13097018828E+03  0.10744720295E+03  0.25324404507E+03  0.31714718344E+03  0.88043727546E+02 0.  0.
         23    2    4    4    0    0 -0.20783944145E+03 -0.20593148733E+03 -0.67157619930E+03  0.73811091399E+03  0.90488225652E+02 0.  0.
          4    1    3    3  502    0  0.74501637678E+02 -0.84309931721E+01  0.27923693191E+03  0.28912772230E+03  0.00000000000E+00 0. -1.
         -3    1    3    3    0  502  0.26430799206E+03  0.10691527755E+03  0.81486069252E+03  0.86330037614E+03  0.00000000000E+00 0.  1.
         13    1    5    5    0    0  0.81953786993E+01  0.30130069422E+02  0.50409681516E+02  0.59296891200E+02  0.00000000000E+00 0. -1.
        -13    1    5    5    0    0 -0.13916556698E+03  0.77317133529E+02  0.20283436355E+03  0.25785029224E+03  0.00000000000E+00 0.  1.
          1    1    6    6  503    0 -0.17998267951E+03 -0.13278896603E+03 -0.43857776382E+03  0.49231811803E+03  0.00000000000E+00 0. -1.
         -1    1    6    6    0  503 -0.27856761944E+02 -0.73142521306E+02 -0.23299843548E+03  0.24579279596E+03  0.00000000000E+00 0.  1.
<mgrwt>
<rscale>  0 0.21017182E+04</rscale>
<asrwt>0</asrwt>
<pdfrwt beam="1">  1        4 0.11784006E+00 0.21017182E+04</pdfrwt>
<pdfrwt beam="2">  1       -3 0.22180397E+00 0.21017182E+04</pdfrwt>
<totfact> 0.12529680E-01</totfact>
</mgrwt>
</event>
<event>
12    7  0.1707730E-007  0.1477954E+04  0.7818608E-02  0.8899247E-01
          2   -1    0    0  501    0  0.00000000000E+00  0.00000000000E+00  0.13035919443E+04  0.13035919443E+04  0.00000000000E+00 0. -1.
         -1   -1    0    0    0  501 -0.00000000000E+00 -0.00000000000E+00 -0.41890924967E+03  0.41890924967E+03  0.00000000000E+00 0.  1.
         24    2    1    2    0    0 -0.15712963341E+03 -0.54273185719E+02 -0.21968968555E+03  0.28604593886E+03  0.76963763022E+02 0.  0.
        254    2    1    2    0    0  0.15712963341E+03  0.54273185719E+02  0.11043723802E+04  0.14364552551E+04  0.90339916174E+03 0.  0.
         23    2    4    4    0    0  0.23985418583E+03 -0.37595226879E+03  0.68724285819E+03  0.82454141619E+03  0.93250533620E+02 0.  0.
         23    2    4    4    0    0 -0.82724552414E+02  0.43022545451E+03  0.41712952200E+03  0.61191383892E+03  0.92218300038E+02 0.  0.
          2    1    3    3  502    0  0.23800838994E+01 -0.17702242520E+02 -0.11526045308E+02  0.21257561244E+02  0.00000000000E+00 0. -1.
         -1    1    3    3    0  502 -0.15950971731E+03 -0.36570943199E+02 -0.20816364024E+03  0.26478837762E+03  0.00000000000E+00 0.  1.
         13    1    5    5    0    0  0.10404222424E+03 -0.95077234456E+02  0.25664570752E+03  0.29279939229E+03  0.00000000000E+00 0.  1.
        -13    1    5    5    0    0  0.13581196159E+03 -0.28087503433E+03  0.43059715067E+03  0.53174202390E+03  0.00000000000E+00 0. -1.
          1    1    6    6  503    0 -0.67938186764E+02  0.12635368465E+03  0.13130666758E+03  0.19447954081E+03  0.00000000000E+00 0. -1.
         -1    1    6    6    0  503 -0.14786365650E+02  0.30387176986E+03  0.28582285443E+03  0.41743429811E+03  0.00000000000E+00 0.  1.
<mgrwt>
<rscale>  0 0.14779536E+04</rscale>
<asrwt>0</asrwt>
<pdfrwt beam="1">  1        2 0.20055261E+00 0.14779536E+04</pdfrwt>
<pdfrwt beam="2">  1       -1 0.64447577E-01 0.14779536E+04</pdfrwt>
<totfact> 0.44310721E+01</totfact>
</mgrwt>
</event>
<event>
12    7  0.1707730E-007  0.1701509E+04  0.7818608E-02  0.8760504E-01
         -1   -1    0    0    0  501 -0.00000000000E+00  0.00000000000E+00  0.29697815628E+03  0.29697815628E+03  0.00000000000E+00 0.  1.
          2   -1    0    0  501    0  0.00000000000E+00 -0.00000000000E+00 -0.24371601500E+04  0.24371601500E+04  0.00000000000E+00 0. -1.
         24    2    1    2    0    0 -0.12016080234E+02 -0.37902216836E+03 -0.65477857222E+01  0.38745323266E+03  0.79214542276E+02 0.  0.
        254    2    1    2    0    0  0.12016080234E+02  0.37902216836E+03 -0.21336342080E+04  0.23466850736E+04  0.90040752490E+03 0.  0.
         23    2    4    4    0    0 -0.41211157573E+03  0.24495322863E+03 -0.14118093512E+04  0.14937029838E+04  0.90027354574E+02 0.  0.
         23    2    4    4    0    0  0.42412765597E+03  0.13406893973E+03 -0.72182485681E+03  0.85298208984E+03  0.93212512675E+02 0.  0.
          2    1    3    3  502    0 -0.31279433400E+01 -0.78656656677E+02 -0.33912246600E+02  0.85712858653E+02  0.00000000000E+00 0. -1.
         -1    1    3    3    0  502 -0.88881368941E+01 -0.30036551168E+03  0.27364460878E+02  0.30174037401E+03  0.00000000000E+00 0.  1.
         13    1    5    5    0    0 -0.26074850852E+03  0.14519367546E+03 -0.74136509683E+03  0.79918282945E+03  0.00000000000E+00 0. -1.
        -13    1    5    5    0    0 -0.15136306721E+03  0.99759553175E+02 -0.67044425435E+03  0.69452015432E+03  0.00000000000E+00 0.  1.
          3    1    6    6  503    0  0.35738653677E+03  0.14280623702E+03 -0.58114097292E+03  0.69702481190E+03  0.00000000000E+00 0. -1.
         -3    1    6    6    0  503  0.66741119196E+02 -0.87372972922E+01 -0.14068388389E+03  0.15595727794E+03  0.00000000000E+00 0.  1.
<mgrwt>
<rscale>  0 0.17015091E+04</rscale>
<asrwt>0</asrwt>
<pdfrwt beam="1">  1        2 0.37494773E+00 0.17015091E+04</pdfrwt>
<pdfrwt beam="2">  1       -1 0.45688945E-01 0.17015091E+04</pdfrwt>
<totfact> 0.19544792E+01</totfact>
</mgrwt>
</event>
<event>
12    7  0.1707730E-007  0.1640927E+04  0.7818608E-02  0.8795792E-01
          2   -1    0    0  501    0  0.00000000000E+00  0.00000000000E+00  0.23689930856E+04  0.23689930856E+04  0.00000000000E+00 0. -1.
         -1   -1    0    0    0  501 -0.00000000000E+00 -0.00000000000E+00 -0.28415462323E+03  0.28415462323E+03  0.00000000000E+00 0.  1.
         24    2    1    2    0    0  0.43887331411E+03  0.91446183061E+02  0.12959573684E+04  0.13736360089E+04  0.79988711319E+02 0.  0.
        254    2    1    2    0    0 -0.43887331411E+03 -0.91446183061E+02  0.78888109392E+03  0.12795116999E+04  0.90213337130E+03 0.  0.
         23    2    4    4    0    0 -0.51769060881E+03 -0.39597690994E+03  0.64664607105E+03  0.92254684881E+03  0.90223430367E+02 0.  0.
         23    2    4    4    0    0  0.78817294697E+02  0.30453072688E+03  0.14223502287E+03  0.35696485109E+03  0.90785316147E+02 0.  0.
          2    1    3    3  502    0  0.26294656996E+03  0.61236043151E+02  0.65954362524E+03  0.71266299555E+03  0.00000000000E+00 0. -1.
         -1    1    3    3    0  502  0.17592674415E+03  0.30210139909E+02  0.63641374317E+03  0.66097301333E+03  0.00000000000E+00 0.  1.
         13    1    5    5    0    0 -0.15855030332E+03 -0.12111699998E+03  0.25870589414E+03  0.32670516682E+03  0.00000000000E+00 0. -1.
        -13    1    5    5    0    0 -0.35914030549E+03 -0.27485990996E+03  0.38794017691E+03  0.59584168199E+03  0.00000000000E+00 0.  1.
          4    1    6    6  503    0  0.38127017484E+02  0.27676337001E+02  0.13973312698E+02  0.49141658090E+02  0.00000000000E+00 0. -1.
         -4    1    6    6    0  503  0.40690277213E+02  0.27685438988E+03  0.12826171017E+03  0.30782319300E+03  0.00000000000E+00 0.  1.
<mgrwt>
<rscale>  0 0.16409270E+04</rscale>
<asrwt>0</asrwt>
<pdfrwt beam="1">  1        2 0.36446046E+00 0.16409270E+04</pdfrwt>
<pdfrwt beam="2">  1       -1 0.43716098E-01 0.16409270E+04</pdfrwt>
<totfact> 0.23334729E+01</totfact>
</mgrwt>
</event>
<event>
12    7  0.1707730E-007  0.2051796E+04  0.7818608E-02  0.8582780E-01
         -3   -1    0    0    0  501 -0.00000000000E+00  0.00000000000E+00  0.46379870968E+03  0.46379870968E+03  0.00000000000E+00 0.  1.
          2   -1    0    0  501    0  0.00000000000E+00 -0.00000000000E+00 -0.22692307739E+04  0.22692307739E+04  0.00000000000E+00 0. -1.
         24    2    1    2    0    0  0.44713853566E+03  0.69688277918E+03 -0.79145401738E+03  0.11484814986E+04  0.83855906339E+02 0.  0.
        254    2    1    2    0    0 -0.44713853566E+03 -0.69688277918E+03 -0.10139780468E+04  0.15845479850E+04  0.89278348957E+03 0.  0.
         23    2    4    4    0    0 -0.60038816257E+03 -0.19030773765E+03 -0.33644826386E+03  0.71990627194E+03  0.91567599956E+02 0.  0.
         23    2    4    4    0    0  0.15324962691E+03 -0.50657504153E+03 -0.67752978299E+03  0.86464171305E+03  0.91950879596E+02 0.  0.
          2    1    3    3  502    0  0.42341780541E+03  0.66388042067E+03 -0.77439558369E+03  0.11044040796E+04  0.00000000000E+00 0. -1.
         -1    1    3    3    0  502  0.23720730244E+02  0.33002358510E+02 -0.17058433685E+02  0.44077419052E+02  0.00000000000E+00 0.  1.
         13    1    5    5    0    0 -0.24927208423E+02 -0.17929407832E+01 -0.36243304821E+02  0.44024510227E+02  0.00000000000E+00 0. -1.
        -13    1    5    5    0    0 -0.57546095414E+03 -0.18851479686E+03 -0.30020495904E+03  0.67588176171E+03  0.00000000000E+00 0.  1.
          1    1    6    6  503    0  0.10729727391E+03 -0.34474009110E+03 -0.52749226128E+03  0.63922337341E+03  0.00000000000E+00 0. -1.
         -1    1    6    6    0  503  0.45952352999E+02 -0.16183495043E+03 -0.15003752171E+03  0.22541833964E+03  0.00000000000E+00 0.  1.
<mgrwt>
<rscale>  0 0.20517956E+04</rscale>
<asrwt>0</asrwt>
<pdfrwt beam="1">  1        2 0.34911243E+00 0.20517956E+04</pdfrwt>
<pdfrwt beam="2">  1       -3 0.71353648E-01 0.20517956E+04</pdfrwt>
<totfact> 0.52375958E+00</totfact>
</mgrwt>
</event>
<event>
12    7  0.1707730E-007  0.1982496E+04  0.7818608E-02  0.8614848E-01
          2   -1    0    0  501    0  0.00000000000E+00  0.00000000000E+00  0.12482304952E+04  0.12482304952E+04  0.00000000000E+00 0. -1.
         -1   -1    0    0    0  501 -0.00000000000E+00 -0.00000000000E+00 -0.78717214578E+03  0.78717214578E+03  0.00000000000E+00 0.  1.
         24    2    1    2    0    0 -0.71615618888E+03 -0.80809555429E+02  0.43362895782E+03  0.84495298659E+03  0.80632532875E+02 0.  0.
        254    2    1    2    0    0  0.71615618888E+03  0.80809555429E+02  0.27429391607E+02  0.11904496544E+04  0.94710513515E+03 0.  0.
         23    2    4    4    0    0  0.50823110095E+03 -0.33784109489E+03 -0.21839521674E+03  0.65458765264E+03  0.91395114322E+02 0.  0.
         23    2    4    4    0    0  0.20792508793E+03  0.41865065032E+03  0.24582460835E+03  0.53586200176E+03  0.90648428888E+02 0.  0.
          4    1    3    3  502    0 -0.39459981932E+03 -0.53522247714E+02  0.28479678040E+03  0.48957415632E+03  0.00000000000E+00 0. -1.
         -3    1    3    3    0  502 -0.32155636956E+03 -0.27287307715E+02  0.14883217742E+03  0.35537883027E+03  0.00000000000E+00 0.  1.
         13    1    5    5    0    0  0.48244929655E+02 -0.23712713566E+02  0.59634931593E+01  0.54087237615E+02  0.00000000000E+00 0. -1.
        -13    1    5    5    0    0  0.45998617129E+03 -0.31412838132E+03 -0.22435870990E+03  0.60050041502E+03  0.00000000000E+00 0.  1.
          3    1    6    6  503    0  0.15521057188E+03  0.37013964542E+03  0.18528233888E+03  0.44206699021E+03  0.00000000000E+00 0. -1.
         -3    1    6    6    0  503  0.52714516052E+02  0.48511004896E+02  0.60542269476E+02  0.93795011552E+02  0.00000000000E+00 0.  1.
<mgrwt>
<rscale>  0 0.19824957E+04</rscale>
<asrwt>0</asrwt>
<pdfrwt beam="1">  1        2 0.19203546E+00 0.19824957E+04</pdfrwt>
<pdfrwt beam="2">  1       -1 0.12110341E+00 0.19824957E+04</pdfrwt>
<totfact> 0.11384284E+01</totfact>
</mgrwt>
</event>
<event>
12    7  0.1707730E-007  0.1226231E+04  0.7818608E-02  0.9090201E-01
         -1   -1    0    0    0  501 -0.00000000000E+00  0.00000000000E+00  0.24398183423E+03  0.24398183423E+03  0.00000000000E+00 0.  1.
          2   -1    0    0  501    0  0.00000000000E+00 -0.00000000000E+00 -0.15407322971E+04  0.15407322971E+04  0.00000000000E+00 0. -1.
         24    2    1    2    0    0  0.16012247384E+03  0.58410256094E+02  0.23414802612E+02  0.19056638177E+03  0.81953207590E+02 0.  0.
        254    2    1    2    0    0 -0.16012247384E+03 -0.58410256094E+02 -0.13201652655E+04  0.15941477496E+04  0.87716575095E+03 0.  0.
         23    2    4    4    0    0 -0.50034500031E+03 -0.91495165467E+02 -0.60013504088E+03  0.79199018101E+03  0.91487129621E+02 0.  0.
         23    2    4    4    0    0  0.34022252647E+03  0.33084909373E+02 -0.72003022464E+03  0.80215756859E+03  0.90372903622E+02 0.  0.
          2    1    3    3  502    0 -0.79199261792E+01  0.11153190815E+02  0.66278795682E+01  0.15200252748E+02  0.00000000000E+00 0. -1.
         -1    1    3    3    0  502  0.16804240002E+03  0.47257065279E+02  0.16786923044E+02  0.17536612902E+03  0.00000000000E+00 0.  1.
         13    1    5    5    0    0 -0.12442268846E+03 -0.59156309032E+02 -0.19008267620E+03  0.23475923431E+03  0.00000000000E+00 0. -1.
        -13    1    5    5    0    0 -0.37592231185E+03 -0.32338856435E+02 -0.41005236468E+03  0.55723094670E+03  0.00000000000E+00 0.  1.
          3    1    6    6  503    0  0.13824146064E+03  0.29760985217E+02 -0.20606109188E+03  0.24991516814E+03  0.00000000000E+00 0. -1.
         -3    1    6    6    0  503  0.20198106583E+03  0.33239241563E+01 -0.51396913276E+03  0.55224240045E+03  0.00000000000E+00 0.  1.
<mgrwt>
<rscale>  0 0.12262311E+04</rscale>
<asrwt>0</asrwt>
<pdfrwt beam="1">  1        2 0.23703574E+00 0.12262311E+04</pdfrwt>
<pdfrwt beam="2">  1       -1 0.37535667E-01 0.12262311E+04</pdfrwt>
<totfact> 0.92387429E+01</totfact>
</mgrwt>
</event>
<event>
12    7  0.1707730E-007  0.1051415E+04  0.7818608E-02  0.9253884E-01
          2   -1    0    0  501    0  0.00000000000E+00  0.00000000000E+00  0.32624930578E+03  0.32624930578E+03  0.00000000000E+00 0. -1.
         -1   -1    0    0    0  501 -0.00000000000E+00 -0.00000000000E+00 -0.84710828176E+03  0.84710828176E+03  0.00000000000E+00 0.  1.
         24    2    1    2    0    0 -0.70268968286E+02 -0.96317892474E+02  0.46618574754E+02  0.15083345003E+03  0.79765743397E+02 0.  0.
        254    2    1    2    0    0  0.70268968286E+02  0.96317892474E+02 -0.56747755073E+03  0.10225241375E+04  0.84220542440E+03 0.  0.
         23    2    4    4    0    0 -0.22358203035E+03  0.12116424831E+03  0.97327987454E+02  0.28967980578E+03  0.98853191020E+02 0.  0.
         23    2    4    4    0    0  0.29385099863E+03 -0.24846355834E+02 -0.66480553819E+03  0.73284433172E+03  0.90159082405E+02 0.  0.
          2    1    3    3  502    0 -0.84762599405E+02 -0.66953994752E+02  0.47676644525E+02  0.11807031000E+03  0.00000000000E+00 0. -1.
         -1    1    3    3    0  502  0.14493631119E+02 -0.29363897721E+02 -0.10580697709E+01  0.32763140021E+02  0.00000000000E+00 0.  1.
         13    1    5    5    0    0 -0.11069550521E+03  0.96736707487E+02  0.14853589473E+02  0.14775694423E+03  0.00000000000E+00 0. -1.
        -13    1    5    5    0    0 -0.11288652514E+03  0.24427540821E+02  0.82474397981E+02  0.14192286155E+03  0.00000000000E+00 0.  1.
          1    1    6    6  503    0  0.18369793767E+03 -0.14253264027E+02 -0.30427158031E+03  0.35570954784E+03  0.00000000000E+00 0. -1.
         -1    1    6    6    0  503  0.11015306096E+03 -0.10593091807E+02 -0.36053395788E+03  0.37713478389E+03  0.00000000000E+00 0.  1.
<mgrwt>
<rscale>  0 0.10514152E+04</rscale>
<asrwt>0</asrwt>
<pdfrwt beam="1">  1        2 0.50192202E-01 0.10514152E+04</pdfrwt>
<pdfrwt beam="2">  1       -1 0.13032435E+00 0.10514152E+04</pdfrwt>
<totfact> 0.57483007E+01</totfact>
</mgrwt>
</event>
<event>
12    7  0.1707730E-007  0.1541077E+04  0.7818608E-02  0.8857587E-01
          2   -1    0    0  501    0  0.00000000000E+00  0.00000000000E+00  0.15131258405E+04  0.15131258405E+04  0.00000000000E+00 0. -1.
         -1   -1    0    0    0  501 -0.00000000000E+00 -0.00000000000E+00 -0.39238624731E+03  0.39238624731E+03  0.00000000000E+00 0.  1.
         24    2    1    2    0    0 -0.17060852891E+03 -0.19727320730E+02 -0.21312315227E+03  0.28514524032E+03  0.79936804561E+02 0.  0.
        254    2    1    2    0    0  0.17060852891E+03  0.19727320730E+02  0.13338627454E+04  0.16203668475E+04  0.90382656488E+03 0.  0.
         23    2    4    4    0    0 -0.33436315561E+03 -0.15262134764E+03  0.54217188586E+03  0.66128711927E+03  0.90875215018E+02 0.  0.
         23    2    4    4    0    0  0.50497168451E+03  0.17234866837E+03  0.79169085958E+03  0.95907972821E+03  0.91427798065E+02 0.  0.
          2    1    3    3  502    0 -0.25620447364E+01 -0.62207908225E+01 -0.50362390963E+02  0.50809770076E+02  0.00000000000E+00 0. -1.
         -1    1    3    3    0  502 -0.16804648417E+03 -0.13506529908E+02 -0.16276076131E+03  0.23433547024E+03  0.00000000000E+00 0.  1.
         13    1    5    5    0    0 -0.89411723164E+02 -0.36988803357E+02  0.79834523769E+02  0.12544392771E+03  0.00000000000E+00 0. -1.
        -13    1    5    5    0    0 -0.24495143244E+03 -0.11563254429E+03  0.46233736210E+03  0.53584319156E+03  0.00000000000E+00 0.  1.
          1    1    6    6  503    0  0.10417474413E+03  0.98185245824E+00  0.17985337089E+03  0.20784748344E+03  0.00000000000E+00 0. -1.
         -1    1    6    6    0  503  0.40079694038E+03  0.17136681592E+03  0.61183748869E+03  0.75123224477E+03  0.00000000000E+00 0.  1.
<mgrwt>
<rscale>  0 0.15410772E+04</rscale>
<asrwt>0</asrwt>
<pdfrwt beam="1">  1        2 0.23278859E+00 0.15410772E+04</pdfrwt>
<pdfrwt beam="2">  1       -1 0.60367115E-01 0.15410772E+04</pdfrwt>
<totfact> 0.38110798E+01</totfact>
</mgrwt>
</event>
<event>
12    7  0.1707730E-007  0.2080367E+04  0.7818608E-02  0.8569942E-01
         -1   -1    0    0    0  501 -0.00000000000E+00  0.00000000000E+00  0.49417064540E+03  0.49417064540E+03  0.00000000000E+00 0.  1.
          2   -1    0    0  501    0  0.00000000000E+00 -0.00000000000E+00 -0.21894890863E+04  0.21894890863E+04  0.00000000000E+00 0. -1.
         24    2    1    2    0    0 -0.57533348212E+03 -0.44351214085E+03 -0.13562605323E+03  0.74325698226E+03  0.79529118101E+02 0.  0.
        254    2    1    2    0    0  0.57533348212E+03  0.44351214085E+03 -0.15596923876E+04  0.19404027494E+04  0.89711250752E+03 0.  0.
         23    2    4    4    0    0  0.66539865024E+03  0.48043147611E+03 -0.73822394094E+03  0.11077599028E+04  0.92669564838E+02 0.  0.
         23    2    4    4    0    0 -0.90065168115E+02 -0.36919335266E+02 -0.82146844669E+03  0.83264284662E+03  0.94915379743E+02 0.  0.
          2    1    3    3  502    0 -0.21014647910E+02 -0.10940355113E+02  0.91183817004E+01  0.25386052895E+02  0.00000000000E+00 0. -1.
         -1    1    3    3    0  502 -0.55431883421E+03 -0.43257178574E+03 -0.14474443493E+03  0.71787092936E+03  0.00000000000E+00 0.  1.
         13    1    5    5    0    0  0.46071824132E+03  0.29746276293E+03 -0.44666183264E+03  0.70728508111E+03  0.00000000000E+00 0.  1.
        -13    1    5    5    0    0  0.20468040892E+03  0.18296871318E+03 -0.29156210830E+03  0.40047482167E+03  0.00000000000E+00 0. -1.
          4    1    6    6  503    0 -0.65373524358E+02 -0.52542568176E+02 -0.75965879323E+03  0.76427475510E+03  0.00000000000E+00 0.  1.
         -4    1    6    6    0  503 -0.24691643757E+02  0.15623232910E+02 -0.61809653459E+02  0.68368091525E+02  0.00000000000E+00 0. -1.
<mgrwt>
<rscale>  0 0.20803665E+04</rscale>
<asrwt>0</asrwt>
<pdfrwt beam="1">  1        2 0.33684448E+00 0.20803665E+04</pdfrwt>
<pdfrwt beam="2">  1       -1 0.76026253E-01 0.20803665E+04</pdfrwt>
<totfact> 0.95566032E+00</totfact>
</mgrwt>
</event>
<event>
12    7  0.1707730E-007  0.3063336E+04  0.7818608E-02  0.8225873E-01
          2   -1    0    0  501    0  0.00000000000E+00  0.00000000000E+00  0.30188698427E+04  0.30188698427E+04  0.00000000000E+00 0. -1.
         -1   -1    0    0    0  501 -0.00000000000E+00 -0.00000000000E+00 -0.77711443764E+03  0.77711443764E+03  0.00000000000E+00 0.  1.
         24    2    1    2    0    0 -0.39256019993E+03 -0.51372238752E+02  0.26744507921E+04  0.27049101455E+04  0.84316299399E+02 0.  0.
        254    2    1    2    0    0  0.39256019993E+03  0.51372238752E+02 -0.43269538712E+03  0.10910741348E+04  0.92004067955E+03 0.  0.
         23    2    4    4    0    0 -0.21951520352E+03  0.22546488160E+03 -0.27838565814E+03  0.43002031522E+03  0.91638198553E+02 0.  0.
         23    2    4    4    0    0  0.61207540345E+03 -0.17409264285E+03 -0.15430972898E+03  0.66105381954E+03  0.90753027907E+02 0.  0.
          4    1    3    3  502    0 -0.27378407907E+03 -0.21354305907E+02  0.15875281556E+04  0.16111050162E+04  0.00000000000E+00 0. -1.
         -3    1    3    3    0  502 -0.11877612086E+03 -0.30017932845E+02  0.10869226365E+04  0.10938051293E+04  0.00000000000E+00 0.  1.
         13    1    5    5    0    0 -0.84584190577E+01 -0.29369903913E+01  0.41374878096E+01  0.98635475813E+01  0.00000000000E+00 0.  1.
        -13    1    5    5    0    0 -0.21105678446E+03  0.22840187199E+03 -0.28252314595E+03  0.42015676764E+03  0.00000000000E+00 0. -1.
          3    1    6    6  503    0  0.49995447985E+03 -0.11502785096E+03 -0.97605885985E+02  0.52221910861E+03  0.00000000000E+00 0. -1.
         -3    1    6    6    0  503  0.11212092360E+03 -0.59064791892E+02 -0.56703842994E+02  0.13883471093E+03  0.00000000000E+00 0.  1.
<mgrwt>
<rscale>  0 0.30633363E+04</rscale>
<asrwt>0</asrwt>
<pdfrwt beam="1">  1        2 0.46444151E+00 0.30633363E+04</pdfrwt>
<pdfrwt beam="2">  1       -1 0.11955607E+00 0.30633363E+04</pdfrwt>
<totfact> 0.10233326E+00</totfact>
</mgrwt>
</event>
<event>
12    7  0.1707730E-007  0.2400323E+04  0.7818608E-02  0.8439383E-01
         -1   -1    0    0    0  501 -0.00000000000E+00  0.00000000000E+00  0.55239581816E+03  0.55239581816E+03  0.00000000000E+00 0.  1.
          2   -1    0    0  501    0  0.00000000000E+00 -0.00000000000E+00 -0.26075288561E+04  0.26075288561E+04  0.00000000000E+00 0. -1.
         24    2    1    2    0    0 -0.60328033353E+03  0.60041031727E+03 -0.84555070111E+02  0.85879287080E+03  0.77044955346E+02 0.  0.
        254    2    1    2    0    0  0.60328033353E+03 -0.60041031727E+03 -0.19705779678E+04  0.23011318034E+04  0.82921067269E+03 0.  0.
         23    2    4    4    0    0  0.15839122844E+03  0.19416227424E+02  0.26338363456E+01  0.18357432971E+03  0.90707366290E+02 0.  0.
         23    2    4    4    0    0  0.44488910509E+03 -0.61982654469E+03 -0.19732118042E+04  0.21175574737E+04  0.91507208421E+02 0.  0.
          2    1    3    3  502    0 -0.19831907585E+03  0.21023901574E+03 -0.64321559754E+02  0.29608809945E+03  0.00000000000E+00 0. -1.
         -1    1    3    3    0  502 -0.40496125768E+03  0.39017130153E+03 -0.20233510357E+02  0.56270477135E+03  0.00000000000E+00 0.  1.
         13    1    5    5    0    0  0.76380428044E+02  0.95678256656E+01  0.46618458736E+02  0.89993298479E+02  0.00000000000E+00 0. -1.
        -13    1    5    5    0    0  0.82010800398E+02  0.98484017585E+01 -0.43984622391E+02  0.93581031230E+02  0.00000000000E+00 0.  1.
          1    1    6    6  503    0  0.36708446134E+03 -0.46163842553E+03 -0.14462238117E+04  0.15618656636E+04  0.00000000000E+00 0. -1.
         -1    1    6    6    0  503  0.77804643746E+02 -0.15818811917E+03 -0.52698799249E+03  0.55569181015E+03  0.00000000000E+00 0.  1.
<mgrwt>
<rscale>  0 0.24003233E+04</rscale>
<asrwt>0</asrwt>
<pdfrwt beam="1">  1        2 0.40115828E+00 0.24003233E+04</pdfrwt>
<pdfrwt beam="2">  1       -1 0.84983973E-01 0.24003233E+04</pdfrwt>
<totfact> 0.42200593E+00</totfact>
</mgrwt>
</event>
<event>
12    7  0.1707730E-007  0.2046331E+04  0.7818608E-02  0.8585260E-01
         -1   -1    0    0    0  501 -0.00000000000E+00  0.00000000000E+00  0.15398392796E+04  0.15398392796E+04  0.00000000000E+00 0.  1.
          2   -1    0    0  501    0  0.00000000000E+00 -0.00000000000E+00 -0.67985544235E+03  0.67985544235E+03  0.00000000000E+00 0. -1.
         24    2    1    2    0    0  0.19211315848E+03 -0.78908117051E+03  0.34161298827E+03  0.88407971233E+03  0.73081767101E+02 0.  0.
        254    2    1    2    0    0 -0.19211315848E+03  0.78908117051E+03  0.51837084902E+03  0.13356150097E+04  0.92498786889E+03 0.  0.
         23    2    4    4    0    0  0.35664959740E+02 -0.16161391389E+03 -0.57324123882E+02  0.19737495092E+03  0.90993239059E+02 0.  0.
         23    2    4    4    0    0 -0.22777811822E+03  0.95069508440E+03  0.57569497290E+03  0.11382400587E+04  0.91987579975E+02 0.  0.
          2    1    3    3  502    0  0.15461414893E+03 -0.65713273086E+03  0.25381704877E+03  0.72121567874E+03  0.00000000000E+00 0. -1.
         -1    1    3    3    0  502  0.37499009547E+02 -0.13194843965E+03  0.87795939507E+02  0.16286403359E+03  0.00000000000E+00 0.  1.
         13    1    5    5    0    0 -0.18556855287E+02 -0.93131461295E+02 -0.40223474051E+01  0.95047384182E+02  0.00000000000E+00 0.  1.
        -13    1    5    5    0    0  0.54221815027E+02 -0.68482452593E+02 -0.53301776477E+02  0.10232756673E+03  0.00000000000E+00 0. -1.
          1    1    6    6  503    0 -0.89675810148E+02  0.56435772926E+03  0.32368095300E+03  0.65674253466E+03  0.00000000000E+00 0. -1.
         -1    1    6    6    0  503 -0.13810230807E+03  0.38633735514E+03  0.25201401991E+03  0.48149752408E+03  0.00000000000E+00 0.  1.
<mgrwt>
<rscale>  0 0.20463315E+04</rscale>
<asrwt>0</asrwt>
<pdfrwt beam="1">  1        2 0.10459315E+00 0.20463315E+04</pdfrwt>
<pdfrwt beam="2">  1       -1 0.23689835E+00 0.20463315E+04</pdfrwt>
<totfact> 0.38167718E+00</totfact>
</mgrwt>
</event>
<event>
12    7  0.1707730E-007  0.1477738E+04  0.7818608E-02  0.8899394E-01
         -1   -1    0    0    0  501 -0.00000000000E+00  0.00000000000E+00  0.55014801288E+03  0.55014801288E+03  0.00000000000E+00 0.  1.
          2   -1    0    0  501    0  0.00000000000E+00 -0.00000000000E+00 -0.99232767848E+03  0.99232767848E+03  0.00000000000E+00 0. -1.
         24    2    1    2    0    0  0.15644399825E+03 -0.40162222113E+03  0.34589527650E+02  0.43952176617E+03  0.78789684756E+02 0.  0.
        254    2    1    2    0    0 -0.15644399825E+03  0.40162222113E+03 -0.47676919326E+03  0.11029539252E+04  0.89633886692E+03 0.  0.
         23    2    4    4    0    0 -0.12493509946E+03 -0.11744804288E+03  0.17692112066E+03  0.26292822610E+03  0.91800584371E+02 0.  0.
         23    2    4    4    0    0 -0.31508898785E+02  0.51907026401E+03 -0.65369031391E+03  0.84002569909E+03  0.88912310408E+02 0.  0.
          4    1    3    3  502    0  0.83098733582E+01 -0.89821238585E+02 -0.12708985935E+02  0.91095703629E+02  0.00000000000E+00 0. -1.
         -3    1    3    3    0  502  0.14813412489E+03 -0.31180098255E+03  0.47298513585E+02  0.34842606254E+03  0.00000000000E+00 0.  1.
         13    1    5    5    0    0  0.82240695427E+01 -0.38906560912E+02  0.40251084092E+02  0.56581848436E+02  0.00000000000E+00 0. -1.
        -13    1    5    5    0    0 -0.13315916901E+03 -0.78541481969E+02  0.13667003657E+03  0.20634637766E+03  0.00000000000E+00 0.  1.
          2    1    6    6  503    0  0.24603434427E+02  0.15324811503E+03 -0.15881146469E+03  0.22206169202E+03  0.00000000000E+00 0. -1.
         -2    1    6    6    0  503 -0.56112333212E+02  0.36582214898E+03 -0.49487884922E+03  0.61796400707E+03  0.00000000000E+00 0.  1.
<mgrwt>
<rscale>  0 0.14777376E+04</rscale>
<asrwt>0</asrwt>
<pdfrwt beam="1">  1        2 0.15266580E+00 0.14777376E+04</pdfrwt>
<pdfrwt beam="2">  1       -1 0.84638156E-01 0.14777376E+04</pdfrwt>
<totfact> 0.38882911E+01</totfact>
</mgrwt>
</event>
<event>
12    7  0.1707730E-007  0.1409653E+04  0.7818608E-02  0.8946861E-01
          2   -1    0    0  501    0  0.00000000000E+00  0.00000000000E+00  0.12489871360E+04  0.12489871360E+04  0.00000000000E+00 0. -1.
         -3   -1    0    0    0  501 -0.00000000000E+00 -0.00000000000E+00 -0.39774656427E+03  0.39774656427E+03  0.00000000000E+00 0.  1.
         24    2    1    2    0    0  0.93394855671E+02  0.46236003290E+02 -0.21171954169E+03  0.24886184951E+03  0.79035996483E+02 0.  0.
        254    2    1    2    0    0 -0.93394855671E+02 -0.46236003290E+02  0.10629601134E+04  0.13978718508E+04  0.90183210266E+03 0.  0.
         23    2    4    4    0    0  0.25348195350E+03  0.28758482733E+03  0.31965149771E+03  0.50762896752E+03  0.92476780989E+02 0.  0.
         23    2    4    4    0    0 -0.34687680917E+03 -0.33382083062E+03  0.74330861571E+03  0.89024288325E+03  0.90911084463E+02 0.  0.
          2    1    3    3  502    0  0.71401040935E+02  0.66092300161E+02 -0.13329968221E+03  0.16503062160E+03  0.00000000000E+00 0. -1.
         -1    1    3    3    0  502  0.21993814736E+02 -0.19856296871E+02 -0.78419859475E+02  0.83831227906E+02  0.00000000000E+00 0.  1.
         13    1    5    5    0    0  0.14202148776E+02 -0.20851308583E+01  0.29880394746E+02  0.33149461394E+02  0.00000000000E+00 0. -1.
        -13    1    5    5    0    0  0.23927980472E+03  0.28966995819E+03  0.28977110296E+03  0.47447950613E+03  0.00000000000E+00 0.  1.
          2    1    6    6  503    0 -0.12183266537E+03 -0.64292575934E+02  0.18404293819E+03  0.22988809619E+03  0.00000000000E+00 0. -1.
         -2    1    6    6    0  503 -0.22504414380E+03 -0.26952825469E+03  0.55926567753E+03  0.66035478706E+03  0.00000000000E+00 0.  1.
<mgrwt>
<rscale>  0 0.14096529E+04</rscale>
<asrwt>0</asrwt>
<pdfrwt beam="1">  1        2 0.19215187E+00 0.14096529E+04</pdfrwt>
<pdfrwt beam="2">  1       -3 0.61191779E-01 0.14096529E+04</pdfrwt>
<totfact> 0.28622144E+01</totfact>
</mgrwt>
</event>
<event>
12    7  0.1707730E-007  0.1412795E+04  0.7818608E-02  0.8944609E-01
          2   -1    0    0  501    0  0.00000000000E+00  0.00000000000E+00  0.56142154369E+03  0.56142154369E+03  0.00000000000E+00 0. -1.
         -1   -1    0    0    0  501 -0.00000000000E+00 -0.00000000000E+00 -0.88881022351E+03  0.88881022351E+03  0.00000000000E+00 0.  1.
         24    2    1    2    0    0  0.34079582400E+03  0.11579504330E+03 -0.30238273980E+03  0.47677741157E+03  0.79568166681E+02 0.  0.
        254    2    1    2    0    0 -0.34079582400E+03 -0.11579504330E+03 -0.25005940019E+02  0.97345435563E+03  0.90412266853E+03 0.  0.
         23    2    4    4    0    0  0.17613380223E+03  0.25843314066E+03  0.34246105825E+02  0.32604208653E+03  0.85556074842E+02 0.  0.
         23    2    4    4    0    0 -0.51692962624E+03 -0.37422818396E+03 -0.59252045843E+02  0.64741226910E+03  0.91481523217E+02 0.  0.
          2    1    3    3  502    0  0.23359161804E+03  0.63888436102E+02 -0.15603897246E+03  0.28808841909E+03  0.00000000000E+00 0. -1.
         -1    1    3    3    0  502  0.10720420596E+03  0.51906607199E+02 -0.14634376733E+03  0.18868899248E+03  0.00000000000E+00 0.  1.
         13    1    5    5    0    0  0.13839071977E+03  0.21054397151E+03 -0.76349902914E+01  0.25206953076E+03  0.00000000000E+00 0.  1.
        -13    1    5    5    0    0  0.37743082461E+02  0.47889169148E+02  0.41881096116E+02  0.73972555770E+02  0.00000000000E+00 0. -1.
          4    1    6    6  503    0 -0.12805809305E+03 -0.49097021274E+02 -0.24683933547E+02  0.13935095719E+03  0.00000000000E+00 0. -1.
         -4    1    6    6    0  503 -0.38887153319E+03 -0.32513116269E+03 -0.34568112296E+02  0.50806131191E+03  0.00000000000E+00 0.  1.
<mgrwt>
<rscale>  0 0.14127947E+04</rscale>
<asrwt>0</asrwt>
<pdfrwt beam="1">  1        2 0.86372546E-01 0.14127947E+04</pdfrwt>
<pdfrwt beam="2">  1       -1 0.13674003E+00 0.14127947E+04</pdfrwt>
<totfact> 0.26617934E+01</totfact>
</mgrwt>
</event>
<event>
12    7  0.1707730E-007  0.1350280E+04  0.7818608E-02  0.8990616E-01
         -1   -1    0    0    0  501 -0.00000000000E+00  0.00000000000E+00  0.31399377045E+03  0.31399377045E+03  0.00000000000E+00 0.  1.
          2   -1    0    0  501    0  0.00000000000E+00 -0.00000000000E+00 -0.14516663748E+04  0.14516663748E+04  0.00000000000E+00 0. -1.
         24    2    1    2    0    0 -0.79167096212E+02  0.35409302291E+03 -0.34251452172E+03  0.50543139027E+03  0.80594011474E+02 0.  0.
        254    2    1    2    0    0  0.79167096212E+02 -0.35409302291E+03 -0.79515808263E+03  0.12602287550E+04  0.90788261384E+03 0.  0.
         23    2    4    4    0    0 -0.38665250165E+03 -0.29307671478E+02 -0.26744689484E+03  0.47937410953E+03  0.88952789081E+02 0.  0.
         23    2    4    4    0    0  0.46581959786E+03 -0.32478535143E+03 -0.52771118779E+03  0.78085464545E+03  0.93709430433E+02 0.  0.
          2    1    3    3  502    0 -0.42689353049E+02  0.53520677686E+02 -0.72961135097E+02  0.10005084227E+03  0.00000000000E+00 0. -1.
         -1    1    3    3    0  502 -0.36477743163E+02  0.30057234522E+03 -0.26955338662E+03  0.40538054800E+03  0.00000000000E+00 0.  1.
         13    1    5    5    0    0 -0.90574809069E+02 -0.22092971896E+02 -0.10919211075E+03  0.14357859344E+03  0.00000000000E+00 0.  1.
        -13    1    5    5    0    0 -0.29607769258E+03 -0.72146995816E+01 -0.15825478409E+03  0.33579551609E+03  0.00000000000E+00 0. -1.
          1    1    6    6  503    0  0.12790100701E+03 -0.14177446397E+03 -0.18736602639E+03  0.26751578284E+03  0.00000000000E+00 0. -1.
         -1    1    6    6    0  503  0.33791859086E+03 -0.18301088747E+03 -0.34034516140E+03  0.51333886261E+03  0.00000000000E+00 0.  1.
<mgrwt>
<rscale>  0 0.13502803E+04</rscale>
<asrwt>0</asrwt>
<pdfrwt beam="1">  1        2 0.22333329E+00 0.13502803E+04</pdfrwt>
<pdfrwt beam="2">  1       -1 0.48306734E-01 0.13502803E+04</pdfrwt>
<totfact> 0.64481444E+01</totfact>
</mgrwt>
</event>
<event>
12    7  0.1707730E-007  0.1342817E+04  0.7818608E-02  0.8996283E-01
          2   -1    0    0  501    0  0.00000000000E+00  0.00000000000E+00  0.11674517707E+04  0.11674517707E+04  0.00000000000E+00 0. -1.
         -1   -1    0    0    0  501 -0.00000000000E+00 -0.00000000000E+00 -0.38613125997E+03  0.38613125997E+03  0.00000000000E+00 0.  1.
         24    2    1    2    0    0 -0.63544934101E+02  0.22361299966E+03 -0.10639593880E+03  0.26800108522E+03  0.80397472721E+02 0.  0.
        254    2    1    2    0    0  0.63544934101E+02 -0.22361299966E+03  0.88771644958E+03  0.12855819455E+04  0.90035532512E+03 0.  0.
         23    2    4    4    0    0 -0.16244077209E+03 -0.84903940036E+02 -0.11962849660E+03  0.23911886280E+03  0.96286914366E+02 0.  0.
         23    2    4    4    0    0  0.22598570619E+03 -0.13870905962E+03  0.10073449462E+04  0.10464630827E+04  0.10015687805E+03 0.  0.
          4    1    3    3  502    0 -0.23413066210E+02  0.99025793190E+02 -0.90444383961E+02  0.13614134558E+03  0.00000000000E+00 0. -1.
         -3    1    3    3    0  502 -0.40131867891E+02  0.12458720647E+03 -0.15951554836E+02  0.13185973964E+03  0.00000000000E+00 0.  1.
         13    1    5    5    0    0 -0.40677731114E+02 -0.63404817418E+02 -0.14267593750E+02  0.76670808733E+02  0.00000000000E+00 0. -1.
        -13    1    5    5    0    0 -0.12176304098E+03 -0.21499122617E+02 -0.10536090285E+03  0.16244805407E+03  0.00000000000E+00 0.  1.
          4    1    6    6  503    0  0.20650003740E+03 -0.11230228347E+03  0.96312999868E+03  0.99139974918E+03  0.00000000000E+00 0.  1.
         -4    1    6    6    0  503  0.19485668789E+02 -0.26406776153E+02  0.44214947497E+02  0.55063333509E+02  0.00000000000E+00 0. -1.
<mgrwt>
<rscale>  0 0.13428174E+04</rscale>
<asrwt>0</asrwt>
<pdfrwt beam="1">  1        2 0.17960796E+00 0.13428174E+04</pdfrwt>
<pdfrwt beam="2">  1       -1 0.59404810E-01 0.13428174E+04</pdfrwt>
<totfact> 0.63425611E+01</totfact>
</mgrwt>
</event>
<event>
12    7  0.1707730E-007  0.1501199E+04  0.7818608E-02  0.8883656E-01
          2   -1    0    0  501    0  0.00000000000E+00  0.00000000000E+00  0.68946715869E+03  0.68946715869E+03  0.00000000000E+00 0. -1.
         -1   -1    0    0    0  501 -0.00000000000E+00 -0.00000000000E+00 -0.81715252435E+03  0.81715252435E+03  0.00000000000E+00 0.  1.
         24    2    1    2    0    0 -0.26579849602E+03 -0.11949166190E+03 -0.42061916963E+03  0.51791833215E+03  0.79948828434E+02 0.  0.
        254    2    1    2    0    0  0.26579849602E+03  0.11949166190E+03  0.29293380397E+03  0.98870135090E+03  0.89821659415E+03 0.  0.
         23    2    4    4    0    0  0.15673071904E+03 -0.27456022716E+02 -0.30549826163E+03  0.35630124568E+03  0.91121009316E+02 0.  0.
         23    2    4    4    0    0  0.10906777698E+03  0.14694768462E+03  0.59843206559E+03  0.63240010522E+03  0.91211588975E+02 0.  0.
          4    1    3    3  502    0 -0.66725994554E+01 -0.18059442698E+02 -0.94784415286E+01  0.21459447986E+02  0.00000000000E+00 0. -1.
         -3    1    3    3    0  502 -0.25912589656E+03 -0.10143221920E+03 -0.41114072810E+03  0.49645888416E+03  0.00000000000E+00 0.  1.
         13    1    5    5    0    0  0.42448423668E+02 -0.40686694652E+02 -0.54406772649E+02  0.80108505814E+02  0.00000000000E+00 0.  1.
        -13    1    5    5    0    0  0.11428229537E+03  0.13230671936E+02 -0.25109148898E+03  0.27619273986E+03  0.00000000000E+00 0. -1.
          4    1    6    6  503    0 -0.13243210418E+02  0.47106879365E+01  0.76465249463E+02  0.77746431291E+02  0.00000000000E+00 0.  1.
         -4    1    6    6    0  503  0.12231098739E+03  0.14223699668E+03  0.52196681613E+03  0.55465367393E+03  0.00000000000E+00 0. -1.
<mgrwt>
<rscale>  0 0.15011993E+04</rscale>
<asrwt>0</asrwt>
<pdfrwt beam="1">  1        2 0.10607187E+00 0.15011993E+04</pdfrwt>
<pdfrwt beam="2">  1       -1 0.12571577E+00 0.15011993E+04</pdfrwt>
<totfact> 0.25435099E+01</totfact>
</mgrwt>
</event>
<event>
12    7  0.1707730E-007  0.3239651E+04  0.7818608E-02  0.8178423E-01
         -1   -1    0    0    0  501 -0.00000000000E+00  0.00000000000E+00  0.13650949786E+04  0.13650949786E+04  0.00000000000E+00 0.  1.
          2   -1    0    0  501    0  0.00000000000E+00 -0.00000000000E+00 -0.19220897002E+04  0.19220897002E+04  0.00000000000E+00 0. -1.
         24    2    1    2    0    0  0.31015615460E+03  0.61976185410E+03 -0.15984567125E+04  0.17436600538E+04  0.70604004378E+02 0.  0.
        254    2    1    2    0    0 -0.31015615460E+03 -0.61976185410E+03  0.10414619909E+04  0.15435246249E+04  0.90417011306E+03 0.  0.
         23    2    4    4    0    0 -0.51361190378E+03 -0.46675416148E+02  0.50887291630E+03  0.73021644590E+03  0.91041917435E+02 0.  0.
         23    2    4    4    0    0  0.20345574919E+03 -0.57308643795E+03  0.53258907456E+03  0.81330817905E+03  0.89424630383E+02 0.  0.
          4    1    3    3  502    0  0.25042433760E+03  0.53015445623E+03 -0.14010810718E+04  0.15188167322E+04  0.00000000000E+00 0. -1.
         -3    1    3    3    0  502  0.59731816992E+02  0.89607397868E+02 -0.19737564071E+03  0.22484332158E+03  0.00000000000E+00 0.  1.
         13    1    5    5    0    0 -0.19647728089E+03  0.25480113522E+02  0.20548670152E+03  0.28544236300E+03  0.00000000000E+00 0.  1.
        -13    1    5    5    0    0 -0.31713462289E+03 -0.72155529670E+02  0.30338621478E+03  0.44477408290E+03  0.00000000000E+00 0. -1.
          1    1    6    6  503    0 -0.42005648022E+01 -0.10019501901E+01  0.10845040118E+02  0.11673197677E+02  0.00000000000E+00 0. -1.
         -1    1    6    6    0  503  0.20765631399E+03 -0.57208448776E+03  0.52174403445E+03  0.80163498137E+03  0.00000000000E+00 0.  1.
<mgrwt>
<rscale>  0 0.32396512E+04</rscale>
<asrwt>0</asrwt>
<pdfrwt beam="1">  1        2 0.29570610E+00 0.32396512E+04</pdfrwt>
<pdfrwt beam="2">  1       -1 0.21001461E+00 0.32396512E+04</pdfrwt>
<totfact> 0.90597636E-01</totfact>
</mgrwt>
</event>
<event>
12    7  0.1707730E-007  0.1559393E+04  0.7818608E-02  0.8845890E-01
          2   -1    0    0  501    0  0.00000000000E+00  0.00000000000E+00  0.14638830590E+04  0.14638830590E+04  0.00000000000E+00 0. -1.
         -1   -1    0    0    0  501 -0.00000000000E+00 -0.00000000000E+00 -0.41528356717E+03  0.41528356717E+03  0.00000000000E+00 0.  1.
         24    2    1    2    0    0 -0.14642015714E+02  0.35934247602E+03  0.78571128580E+03  0.86722012465E+03  0.73396977254E+02 0.  0.
        254    2    1    2    0    0  0.14642015714E+02 -0.35934247602E+03  0.26288820604E+03  0.10119465015E+04  0.90861659096E+03 0.  0.
         23    2    4    4    0    0 -0.29815885353E+03  0.79644158136E+02 -0.12129421967E+03  0.34415983496E+03  0.92151019577E+02 0.  0.
         23    2    4    4    0    0  0.31280086925E+03 -0.43898663416E+03  0.38418242571E+03  0.66778666657E+03  0.88256711044E+02 0.  0.
          4    1    3    3  502    0 -0.38566543537E+01  0.30565416634E+03  0.71638108656E+03  0.77887175091E+03  0.00000000000E+00 0. -1.
         -3    1    3    3    0  502 -0.10785361360E+02  0.53688309683E+02  0.69330199236E+02  0.88348373739E+02  0.00000000000E+00 0.  1.
         13    1    5    5    0    0 -0.26636182316E+03  0.91096995061E+02 -0.83877265880E+02  0.29373913440E+03  0.00000000000E+00 0.  1.
        -13    1    5    5    0    0 -0.31797030375E+02 -0.11452836924E+02 -0.37416953790E+02  0.50420700562E+02  0.00000000000E+00 0. -1.
          3    1    6    6  503    0  0.84543898635E+01 -0.39321389268E+02  0.51146226084E+02  0.65066003447E+02  0.00000000000E+00 0. -1.
         -3    1    6    6    0  503  0.30434647938E+03 -0.39966524489E+03  0.33303619963E+03  0.60272066312E+03  0.00000000000E+00 0.  1.
<mgrwt>
<rscale>  0 0.15593929E+04</rscale>
<asrwt>0</asrwt>
<pdfrwt beam="1">  1        2 0.22521278E+00 0.15593929E+04</pdfrwt>
<pdfrwt beam="2">  1       -1 0.63889780E-01 0.15593929E+04</pdfrwt>
<totfact> 0.36236641E+01</totfact>
</mgrwt>
</event>
<event>
12    7  0.1707730E-007  0.1699741E+04  0.7818608E-02  0.8761512E-01
         -1   -1    0    0    0  501 -0.00000000000E+00  0.00000000000E+00  0.10212059793E+04  0.10212059793E+04  0.00000000000E+00 0.  1.
          2   -1    0    0  501    0  0.00000000000E+00 -0.00000000000E+00 -0.70728139965E+03  0.70728139965E+03  0.00000000000E+00 0. -1.
         24    2    1    2    0    0 -0.27505446603E+03  0.25595823787E+03 -0.37132772452E+03  0.53432380937E+03  0.80299909344E+02 0.  0.
        254    2    1    2    0    0  0.27505446603E+03 -0.25595823787E+03  0.68525230416E+03  0.11941635696E+04  0.90293207480E+03 0.  0.
         23    2    4    4    0    0 -0.24065621495E+03 -0.23145820652E+03  0.19948759155E+02  0.34705098174E+03  0.92510084709E+02 0.  0.
         23    2    4    4    0    0  0.51571068098E+03 -0.24500031352E+02  0.66530354500E+03  0.84711258782E+03  0.91723341885E+02 0.  0.
          2    1    3    3  502    0 -0.14218374491E+03  0.86400304339E+02 -0.19178741619E+03  0.25389691396E+03  0.00000000000E+00 0. -1.
         -1    1    3    3    0  502 -0.13287072111E+03  0.16955793353E+03 -0.17954030833E+03  0.28042689541E+03  0.00000000000E+00 0.  1.
         13    1    5    5    0    0 -0.17739915927E+02 -0.22806526323E+02 -0.25275426576E+02  0.38388663022E+02  0.00000000000E+00 0.  1.
        -13    1    5    5    0    0 -0.22291629903E+03 -0.20865168019E+03  0.45224185731E+02  0.30866231872E+03  0.00000000000E+00 0. -1.
          1    1    6    6  503    0  0.36956100481E+03 -0.50862809897E+01  0.40761148035E+03  0.55022570409E+03  0.00000000000E+00 0. -1.
         -1    1    6    6    0  503  0.14614967617E+03 -0.19413750362E+02  0.25769206465E+03  0.29688688373E+03  0.00000000000E+00 0.  1.
<mgrwt>
<rscale>  0 0.16997412E+04</rscale>
<asrwt>0</asrwt>
<pdfrwt beam="1">  1        2 0.10881252E+00 0.16997412E+04</pdfrwt>
<pdfrwt beam="2">  1       -1 0.15710861E+00 0.16997412E+04</pdfrwt>
<totfact> 0.13509896E+01</totfact>
</mgrwt>
</event>
<event>
12    7  0.1707730E-007  0.1422054E+04  0.7818608E-02  0.8938007E-01
         -1   -1    0    0    0  501 -0.00000000000E+00  0.00000000000E+00  0.41455339467E+03  0.41455339467E+03  0.00000000000E+00 0.  1.
          2   -1    0    0  501    0  0.00000000000E+00 -0.00000000000E+00 -0.12195285530E+04  0.12195285530E+04  0.00000000000E+00 0. -1.
         24    2    1    2    0    0 -0.36562145988E+03  0.27921436046E+02 -0.44794449556E+03  0.58435417094E+03  0.79729966034E+02 0.  0.
        254    2    1    2    0    0  0.36562145988E+03 -0.27921436046E+02 -0.35703066282E+03  0.10497277768E+04  0.91651451303E+03 0.  0.
         23    2    4    4    0    0  0.64807844251E+03 -0.12681067691E+03 -0.30042881825E+03  0.73133448281E+03  0.92228170794E+02 0.  0.
         23    2    4    4    0    0 -0.28245698262E+03  0.98889240867E+02 -0.56601844562E+02  0.31839329395E+03  0.92787347360E+02 0.  0.
          4    1    3    3  502    0 -0.33564464962E+03  0.30820069439E+02 -0.43791999473E+03  0.55261300137E+03  0.00000000000E+00 0. -1.
         -3    1    3    3    0  502 -0.29976810268E+02 -0.28986333923E+01 -0.10024500826E+02  0.31741169578E+02  0.00000000000E+00 0.  1.
         13    1    5    5    0    0  0.26955195161E+02  0.27176020694E+01  0.43587308185E+01  0.27440233992E+02  0.00000000000E+00 0. -1.
        -13    1    5    5    0    0  0.62112324735E+03 -0.12952827898E+03 -0.30478754907E+03  0.70389424882E+03  0.00000000000E+00 0.  1.
          4    1    6    6  503    0 -0.90947956518E+02  0.54580286266E+02  0.19057977576E+02  0.10776708659E+03  0.00000000000E+00 0. -1.
         -4    1    6    6    0  503 -0.19150902611E+03  0.44308954601E+02 -0.75659822138E+02  0.21062620735E+03  0.00000000000E+00 0.  1.
<mgrwt>
<rscale>  0 0.14220544E+04</rscale>
<asrwt>0</asrwt>
<pdfrwt beam="1">  1        2 0.18761978E+00 0.14220544E+04</pdfrwt>
<pdfrwt beam="2">  1       -1 0.63777446E-01 0.14220544E+04</pdfrwt>
<totfact> 0.50938418E+01</totfact>
</mgrwt>
</event>
<event>
12    7  0.1707730E-007  0.1936358E+04  0.7818608E-02  0.8636967E-01
          2   -1    0    0  501    0  0.00000000000E+00  0.00000000000E+00  0.15231902752E+04  0.15231902752E+04  0.00000000000E+00 0. -1.
         -1   -1    0    0    0  501 -0.00000000000E+00 -0.00000000000E+00 -0.61539982040E+03  0.61539982040E+03  0.00000000000E+00 0.  1.
         24    2    1    2    0    0  0.73220165435E+03 -0.16648368560E+03  0.45018664546E+03  0.87882664190E+03  0.76368649013E+02 0.  0.
        254    2    1    2    0    0 -0.73220165435E+03  0.16648368560E+03  0.45760380932E+03  0.12597634537E+04  0.90209014669E+03 0.  0.
         23    2    4    4    0    0 -0.91237932385E+02 -0.25127553962E+03  0.39639118077E+03  0.48679973845E+03  0.91565605186E+02 0.  0.
         23    2    4    4    0    0 -0.64096372197E+03  0.41775922522E+03  0.61212628555E+02  0.77296371524E+03  0.91480358813E+02 0.  0.
          2    1    3    3  502    0  0.12638246070E+03  0.24493723732E+00  0.72121781212E+02  0.14551335916E+03  0.00000000000E+00 0. -1.
         -1    1    3    3    0  502  0.60581919365E+03 -0.16672862284E+03  0.37806486425E+03  0.73331328274E+03  0.00000000000E+00 0.  1.
         13    1    5    5    0    0 -0.38552165580E+02 -0.16960051184E+02  0.67298196449E+02  0.79391183719E+02  0.00000000000E+00 0.  1.
        -13    1    5    5    0    0 -0.52685766805E+02 -0.23431548843E+03  0.32909298432E+03  0.40740855474E+03  0.00000000000E+00 0. -1.
          4    1    6    6  503    0 -0.38756608106E+03  0.20088139733E+03  0.21358036585E+02  0.43705488066E+03  0.00000000000E+00 0. -1.
         -4    1    6    6    0  503 -0.25339764090E+03  0.21687782789E+03  0.39854591970E+02  0.33590883458E+03  0.00000000000E+00 0.  1.
<mgrwt>
<rscale>  0 0.19363585E+04</rscale>
<asrwt>0</asrwt>
<pdfrwt beam="1">  1        2 0.23433696E+00 0.19363585E+04</pdfrwt>
<pdfrwt beam="2">  1       -1 0.94676896E-01 0.19363585E+04</pdfrwt>
<totfact> 0.14140080E+01</totfact>
</mgrwt>
</event>
<event>
12    7  0.1707730E-007  0.2027348E+04  0.7818608E-02  0.8593940E-01
         -3   -1    0    0    0  501 -0.00000000000E+00  0.00000000000E+00  0.38127677663E+03  0.38127677663E+03  0.00000000000E+00 0.  1.
          2   -1    0    0  501    0  0.00000000000E+00 -0.00000000000E+00 -0.26949835836E+04  0.26949835836E+04  0.00000000000E+00 0. -1.
         24    2    1    2    0    0 -0.35677789453E+03 -0.65855608646E+03 -0.43771374663E+03  0.87093443016E+03  0.77115968608E+02 0.  0.
        254    2    1    2    0    0  0.35677789453E+03  0.65855608646E+03 -0.18759930603E+04  0.22053259301E+04  0.88494401536E+03 0.  0.
         23    2    4    4    0    0  0.43417173389E+03  0.70563572385E+03 -0.92185188700E+03  0.12427643301E+04  0.90694042237E+02 0.  0.
         23    2    4    4    0    0 -0.77393839362E+02 -0.47079637388E+02 -0.95414117334E+03  0.96256159997E+03  0.89068268478E+02 0.  0.
          4    1    3    3  502    0 -0.10777686530E+03 -0.22957254633E+03 -0.11000975882E+03  0.27644448585E+03  0.00000000000E+00 0. -1.
         -3    1    3    3    0  502 -0.24900102923E+03 -0.42898354013E+03 -0.32770398781E+03  0.59448994431E+03  0.00000000000E+00 0.  1.
         13    1    5    5    0    0  0.41173478144E+03  0.65611494602E+03 -0.88949610615E+03  0.11794980608E+04  0.00000000000E+00 0. -1.
        -13    1    5    5    0    0  0.22436952457E+02  0.49520777825E+02 -0.32355780846E+02  0.63266269260E+02  0.00000000000E+00 0.  1.
          3    1    6    6  503    0 -0.82580418932E+02 -0.58907348134E+02 -0.92667716075E+03  0.93221250877E+03  0.00000000000E+00 0. -1.
         -3    1    6    6    0  503  0.51865795696E+01  0.11827710746E+02 -0.27464012589E+02  0.30349091199E+02  0.00000000000E+00 0.  1.
<mgrwt>
<rscale>  0 0.20273477E+04</rscale>
<asrwt>0</asrwt>
<pdfrwt beam="1">  1        2 0.41461285E+00 0.20273477E+04</pdfrwt>
<pdfrwt beam="2">  1       -3 0.58657967E-01 0.20273477E+04</pdfrwt>
<totfact> 0.45465414E+00</totfact>
</mgrwt>
</event>
<event>
12    7  0.1707730E-007  0.1407417E+04  0.7818608E-02  0.8948467E-01
         -1   -1    0    0    0  501 -0.00000000000E+00  0.00000000000E+00  0.19152158457E+03  0.19152158457E+03  0.00000000000E+00 0.  1.
          2   -1    0    0  501    0  0.00000000000E+00 -0.00000000000E+00 -0.25856374278E+04  0.25856374278E+04  0.00000000000E+00 0. -1.
         24    2    1    2    0    0 -0.26443429217E+03 -0.88649874604E+02 -0.12035450629E+03  0.31427407215E+03  0.80614453403E+02 0.  0.
        254    2    1    2    0    0  0.26443429217E+03  0.88649874604E+02 -0.22737613369E+04  0.24628849402E+04  0.90444862556E+03 0.  0.
         23    2    4    4    0    0 -0.13027338261E+03 -0.32825322116E+03 -0.89343076255E+03  0.96505019613E+03  0.91553384238E+02 0.  0.
         23    2    4    4    0    0  0.39470767478E+03  0.41690309577E+03 -0.13803305744E+04  0.14978347441E+04  0.92704294517E+02 0.  0.
          4    1    3    3  502    0 -0.60051765109E+02 -0.54714445688E+02 -0.50392488324E+02  0.95599623112E+02  0.00000000000E+00 0. -1.
         -3    1    3    3    0  502 -0.20438252706E+03 -0.33935428917E+02 -0.69962017970E+02  0.21867444904E+03  0.00000000000E+00 0.  1.
         13    1    5    5    0    0 -0.20423499410E+02 -0.16409920619E+03 -0.45717978536E+03  0.48616769221E+03  0.00000000000E+00 0.  1.
        -13    1    5    5    0    0 -0.10984988320E+03 -0.16415401497E+03 -0.43625097718E+03  0.47888250392E+03  0.00000000000E+00 0. -1.
          1    1    6    6  503    0  0.33360196857E+03  0.34903649868E+03 -0.12369519722E+04  0.13278429622E+04  0.00000000000E+00 0. -1.
         -1    1    6    6    0  503  0.61105706214E+02  0.67866597084E+02 -0.14337860222E+03  0.16999178188E+03  0.00000000000E+00 0.  1.
<mgrwt>
<rscale>  0 0.14074166E+04</rscale>
<asrwt>0</asrwt>
<pdfrwt beam="1">  1        2 0.39779034E+00 0.14074166E+04</pdfrwt>
<pdfrwt beam="2">  1       -1 0.29464862E-01 0.14074166E+04</pdfrwt>
<totfact> 0.36362180E+01</totfact>
</mgrwt>
</event>
<event>
12    7  0.1707730E-007  0.2187329E+04  0.7818608E-02  0.8523721E-01
          2   -1    0    0  501    0  0.00000000000E+00  0.00000000000E+00  0.14038013205E+04  0.14038013205E+04  0.00000000000E+00 0. -1.
         -1   -1    0    0    0  501 -0.00000000000E+00 -0.00000000000E+00 -0.85204477862E+03  0.85204477862E+03  0.00000000000E+00 0.  1.
         24    2    1    2    0    0 -0.72213909639E+03 -0.25062352482E+02  0.79083636227E+03  0.10741573428E+04  0.79239188858E+02 0.  0.
        254    2    1    2    0    0  0.72213909639E+03  0.25062352482E+02 -0.23907982034E+03  0.11816887564E+04  0.90394477734E+03 0.  0.
         23    2    4    4    0    0 -0.46761470380E+02 -0.89979264577E+02  0.23141061014E+03  0.26859051597E+03  0.91143247797E+02 0.  0.
         23    2    4    4    0    0  0.76890056677E+03  0.11504161706E+03 -0.47049043047E+03  0.91309824044E+03  0.89131903864E+02 0.  0.
          2    1    3    3  502    0 -0.60432757486E+03  0.36026836983E+00  0.62773429388E+03  0.87135658099E+03  0.00000000000E+00 0. -1.
         -1    1    3    3    0  502 -0.11781152154E+03 -0.25422620851E+02  0.16310206839E+03  0.20280076176E+03  0.00000000000E+00 0.  1.
         13    1    5    5    0    0 -0.14033253360E+00  0.68947062023E+01  0.93368113448E+02  0.93622440022E+02  0.00000000000E+00 0. -1.
        -13    1    5    5    0    0 -0.46621137846E+02 -0.96873970780E+02  0.13804249669E+03  0.17496807595E+03  0.00000000000E+00 0.  1.
          2    1    6    6  503    0  0.45504970981E+03  0.11033730235E+03 -0.29645475609E+03  0.55419309009E+03  0.00000000000E+00 0.  1.
         -2    1    6    6    0  503  0.31385085696E+03  0.47043147069E+01 -0.17403567438E+03  0.35890515035E+03  0.00000000000E+00 0. -1.
<mgrwt>
<rscale>  0 0.21873286E+04</rscale>
<asrwt>0</asrwt>
<pdfrwt beam="1">  1        2 0.21596943E+00 0.21873286E+04</pdfrwt>
<pdfrwt beam="2">  1       -1 0.13108381E+00 0.21873286E+04</pdfrwt>
<totfact> 0.74550480E+00</totfact>
</mgrwt>
</event>
<event>
12    7  0.1707730E-007  0.1179895E+04  0.7818608E-02  0.9130639E-01
          2   -1    0    0  501    0  0.00000000000E+00  0.00000000000E+00  0.73180955637E+03  0.73180955637E+03  0.00000000000E+00 0. -1.
         -1   -1    0    0    0  501 -0.00000000000E+00 -0.00000000000E+00 -0.47558527488E+03  0.47558527488E+03  0.00000000000E+00 0.  1.
         24    2    1    2    0    0  0.12309833702E+03 -0.86555777192E+02  0.24016966732E+03  0.29385995042E+03  0.77634388120E+02 0.  0.
        254    2    1    2    0    0 -0.12309833702E+03  0.86555777192E+02  0.16054614167E+02  0.91353488083E+03  0.90091238459E+03 0.  0.
         23    2    4    4    0    0  0.35828806329E+01  0.55019652265E+02 -0.42779000676E+03  0.44191987799E+03  0.96171146998E+02 0.  0.
         23    2    4    4    0    0 -0.12668121765E+03  0.31536124928E+02  0.44384462092E+03  0.47161500284E+03  0.91542368857E+02 0.  0.
          4    1    3    3  502    0  0.11854336022E+03 -0.78274531737E+02  0.24503177773E+03  0.28323135891E+03  0.00000000000E+00 0. -1.
         -3    1    3    3    0  502  0.45549767975E+01 -0.82812454552E+01 -0.48621104103E+01  0.10628591513E+02  0.00000000000E+00 0.  1.
         13    1    5    5    0    0  0.46033142353E+02  0.21107312560E+02 -0.27812233400E+03  0.28269524494E+03  0.00000000000E+00 0. -1.
        -13    1    5    5    0    0 -0.42450261720E+02  0.33912339705E+02 -0.14966767275E+03  0.15922463306E+03  0.00000000000E+00 0.  1.
          3    1    6    6  503    0 -0.24689275457E+02  0.16458142550E+02  0.20921243149E+02  0.36306048996E+02  0.00000000000E+00 0. -1.
         -3    1    6    6    0  503 -0.10199194220E+03  0.15077982377E+02  0.42292337777E+03  0.43530895384E+03  0.00000000000E+00 0.  1.
<mgrwt>
<rscale>  0 0.11798947E+04</rscale>
<asrwt>0</asrwt>
<pdfrwt beam="1">  1        2 0.11258609E+00 0.11798947E+04</pdfrwt>
<pdfrwt beam="2">  1       -1 0.73166965E-01 0.11798947E+04</pdfrwt>
<totfact> 0.82263819E+01</totfact>
</mgrwt>
</event>
<event>
12    7  0.1707730E-007  0.1057892E+04  0.7818608E-02  0.9247234E-01
         -1   -1    0    0    0  501 -0.00000000000E+00  0.00000000000E+00  0.66243503504E+03  0.66243503504E+03  0.00000000000E+00 0.  1.
          2   -1    0    0  501    0  0.00000000000E+00 -0.00000000000E+00 -0.42235644925E+03  0.42235644925E+03  0.00000000000E+00 0. -1.
         24    2    1    2    0    0  0.45197130175E+02 -0.10565702474E+03  0.62429172547E+02  0.15351806733E+03  0.80400298252E+02 0.  0.
        254    2    1    2    0    0 -0.45197130175E+02  0.10565702474E+03  0.17764941325E+03  0.93127341695E+03  0.90692043512E+03 0.  0.
         23    2    4    4    0    0  0.24477304666E+03 -0.15007107344E+03  0.38034760404E+03  0.48529673267E+03  0.91724846077E+02 0.  0.
         23    2    4    4    0    0 -0.28997017684E+03  0.25572809819E+03 -0.20269819079E+03  0.44597668428E+03  0.91263808356E+02 0.  0.
          2    1    3    3  502    0  0.54135944983E+02 -0.46162314965E+02  0.66143732397E+01  0.71452150391E+02  0.00000000000E+00 0. -1.
         -1    1    3    3    0  502 -0.89388148084E+01 -0.59494709780E+02  0.55814799307E+02  0.82065916943E+02  0.00000000000E+00 0.  1.
         13    1    5    5    0    0  0.21689037945E+03 -0.97266606766E+02  0.26920830208E+03  0.35913136788E+03  0.00000000000E+00 0.  1.
        -13    1    5    5    0    0  0.27882667210E+02 -0.52804466677E+02  0.11113930196E+03  0.12616536479E+03  0.00000000000E+00 0. -1.
          2    1    6    6  503    0 -0.22252000635E+02  0.40939266751E+02  0.14575507923E+01  0.46618660949E+02  0.00000000000E+00 0. -1.
         -2    1    6    6    0  503 -0.26771817620E+03  0.21478883144E+03 -0.20415574158E+03  0.39935802333E+03  0.00000000000E+00 0.  1.
<mgrwt>
<rscale>  0 0.10578917E+04</rscale>
<asrwt>0</asrwt>
<pdfrwt beam="1">  1        2 0.64977915E-01 0.10578917E+04</pdfrwt>
<pdfrwt beam="2">  1       -1 0.10191308E+00 0.10578917E+04</pdfrwt>
<totfact> 0.77743900E+01</totfact>
</mgrwt>
</event>
<event>
12    7  0.1707730E-007  0.1906609E+04  0.7818608E-02  0.8651574E-01
          2   -1    0    0  501    0  0.00000000000E+00  0.00000000000E+00  0.18888077253E+04  0.18888077253E+04  0.00000000000E+00 0. -1.
         -1   -1    0    0    0  501 -0.00000000000E+00 -0.00000000000E+00 -0.48114458275E+03  0.48114458275E+03  0.00000000000E+00 0.  1.
         24    2    1    2    0    0  0.36062007550E+03 -0.29799686299E+02  0.13604494812E+04  0.14099257660E+04  0.78313564829E+02 0.  0.
        254    2    1    2    0    0 -0.36062007550E+03  0.29799686299E+02  0.47213661302E+02  0.96002654205E+03  0.88796788876E+03 0.  0.
         23    2    4    4    0    0 -0.65379994401E+02 -0.39542227333E+03 -0.81391144215E+02  0.41891115346E+03  0.90712282660E+02 0.  0.
         23    2    4    4    0    0 -0.29524008110E+03  0.42522195963E+03  0.12860480552E+03  0.54111538859E+03  0.91028826916E+02 0.  0.
          2    1    3    3  502    0  0.33836170034E+03 -0.33083441529E+02  0.13251437835E+04  0.13680603792E+04  0.00000000000E+00 0. -1.
         -1    1    3    3    0  502  0.22258375159E+02  0.32837552301E+01  0.35305697771E+02  0.41865386756E+02  0.00000000000E+00 0.  1.
         13    1    5    5    0    0 -0.72151329820E+02 -0.17293305015E+03 -0.22997610027E+02  0.18878703424E+03  0.00000000000E+00 0. -1.
        -13    1    5    5    0    0  0.67713354186E+01 -0.22248922318E+03 -0.58393534187E+02  0.23012411922E+03  0.00000000000E+00 0.  1.
          2    1    6    6  503    0 -0.18463091784E+02  0.84911534215E+02  0.24357733857E+02  0.90244964400E+02  0.00000000000E+00 0. -1.
         -2    1    6    6    0  503 -0.27677698932E+03  0.34031042541E+03  0.10424707166E+03  0.45087042419E+03  0.00000000000E+00 0.  1.
<mgrwt>
<rscale>  0 0.19066091E+04</rscale>
<asrwt>0</asrwt>
<pdfrwt beam="1">  1        2 0.29058580E+00 0.19066091E+04</pdfrwt>
<pdfrwt beam="2">  1       -1 0.74022245E-01 0.19066091E+04</pdfrwt>
<totfact> 0.15088299E+01</totfact>
</mgrwt>
</event>
<event>
12    7  0.1707730E-007  0.2438649E+04  0.7818608E-02  0.8425174E-01
          2   -1    0    0  501    0  0.00000000000E+00  0.00000000000E+00  0.26048489755E+04  0.26048489755E+04  0.00000000000E+00 0. -1.
         -1   -1    0    0    0  501 -0.00000000000E+00 -0.00000000000E+00 -0.57076347209E+03  0.57076347209E+03  0.00000000000E+00 0.  1.
         24    2    1    2    0    0  0.16267438303E+03 -0.74206541267E+03  0.18263274588E+04  0.19796453627E+04  0.79998398613E+02 0.  0.
        254    2    1    2    0    0 -0.16267438303E+03  0.74206541267E+03  0.20775804460E+03  0.11959670849E+04  0.90002768368E+03 0.  0.
         23    2    4    4    0    0 -0.35792009391E+03 -0.10592321550E+02 -0.48332740345E+02  0.37253348655E+03  0.90698147206E+02 0.  0.
         23    2    4    4    0    0  0.19524571088E+03  0.75265773422E+03  0.25609078494E+03  0.82343359831E+03  0.88576792637E+02 0.  0.
          2    1    3    3  502    0  0.15230026499E+03 -0.72690903930E+03  0.17487998210E+04  0.18999718251E+04  0.00000000000E+00 0. -1.
         -1    1    3    3    0  502  0.10374118035E+02 -0.15156373374E+02  0.77527637729E+02  0.79673537581E+02  0.00000000000E+00 0.  1.
         13    1    5    5    0    0 -0.42216092903E+02  0.68654221694E+01  0.22765573706E+02  0.48452078054E+02  0.00000000000E+00 0.  1.
        -13    1    5    5    0    0 -0.31570400101E+03 -0.17457743719E+02 -0.71098314052E+02  0.32408140849E+03  0.00000000000E+00 0. -1.
          4    1    6    6  503    0  0.14908953534E+03  0.42922322256E+03  0.12368737553E+03  0.47091276389E+03  0.00000000000E+00 0. -1.
         -4    1    6    6    0  503  0.46156175541E+02  0.32343451166E+03  0.13240340941E+03  0.35252083441E+03  0.00000000000E+00 0.  1.
<mgrwt>
<rscale>  0 0.24386493E+04</rscale>
<asrwt>0</asrwt>
<pdfrwt beam="1">  1        2 0.40074599E+00 0.24386493E+04</pdfrwt>
<pdfrwt beam="2">  1       -1 0.87809766E-01 0.24386493E+04</pdfrwt>
<totfact> 0.39307591E+00</totfact>
</mgrwt>
</event>
<event>
12    7  0.1707730E-007  0.1892061E+04  0.7818608E-02  0.8658818E-01
          2   -1    0    0  501    0  0.00000000000E+00  0.00000000000E+00  0.17115864249E+04  0.17115864249E+04  0.00000000000E+00 0. -1.
         -1   -1    0    0    0  501 -0.00000000000E+00 -0.00000000000E+00 -0.52289143775E+03  0.52289143775E+03  0.00000000000E+00 0.  1.
         24    2    1    2    0    0  0.28493302934E+03  0.42679258085E+03  0.10717744811E+04  0.11908094184E+04  0.77380840456E+02 0.  0.
        254    2    1    2    0    0 -0.28493302934E+03 -0.42679258085E+03  0.11692050604E+03  0.10436684442E+04  0.90124063290E+03 0.  0.
         23    2    4    4    0    0 -0.57312328491E+03 -0.26091011092E+03 -0.88139805111E+02  0.64285004194E+03  0.94568311221E+02 0.  0.
         23    2    4    4    0    0  0.28819025558E+03 -0.16588246993E+03  0.20506031116E+03  0.40081840225E+03  0.89638402114E+02 0.  0.
          4    1    3    3  502    0  0.28427844122E+03  0.43005550977E+03  0.10667026510E+04  0.11847432293E+04  0.00000000000E+00 0. -1.
         -3    1    3    3    0  502  0.65458811546E+00 -0.32629289201E+01  0.50718300289E+01  0.60661891316E+01  0.00000000000E+00 0.  1.
         13    1    5    5    0    0 -0.29915640304E+03 -0.14883069578E+03 -0.46932326658E+00  0.33413373034E+03  0.00000000000E+00 0. -1.
        -13    1    5    5    0    0 -0.27396688188E+03 -0.11207941514E+03 -0.87670481844E+02  0.30871631161E+03  0.00000000000E+00 0.  1.
          3    1    6    6  503    0  0.18654889254E+03 -0.56287415626E+02  0.11222621610E+03  0.22486326078E+03  0.00000000000E+00 0. -1.
         -3    1    6    6    0  503  0.10164136303E+03 -0.10959505430E+03  0.92834095054E+02  0.17595514148E+03  0.00000000000E+00 0.  1.
<mgrwt>
<rscale>  0 0.18920612E+04</rscale>
<asrwt>0</asrwt>
<pdfrwt beam="1">  1        2 0.26332099E+00 0.18920612E+04</pdfrwt>
<pdfrwt beam="2">  1       -1 0.80444837E-01 0.18920612E+04</pdfrwt>
<totfact> 0.15898719E+01</totfact>
</mgrwt>
</event>
<event>
12    7  0.1707730E-007  0.1534299E+04  0.7818608E-02  0.8861960E-01
          2   -1    0    0  501    0  0.00000000000E+00  0.00000000000E+00  0.13654720237E+04  0.13654720237E+04  0.00000000000E+00 0. -1.
         -1   -1    0    0    0  501 -0.00000000000E+00 -0.00000000000E+00 -0.43099977963E+03  0.43099977963E+03  0.00000000000E+00 0.  1.
         24    2    1    2    0    0 -0.77311696450E+02 -0.37256185214E+02  0.88464349917E+03  0.89144540319E+03  0.68670696112E+02 0.  0.
        254    2    1    2    0    0  0.77311696450E+02  0.37256185214E+02  0.49828744937E+02  0.90502640018E+03  0.89956920771E+03 0.  0.
         23    2    4    4    0    0 -0.14985715830E+03  0.18507808585E+03 -0.33703573235E+03  0.42213573137E+03  0.88850577149E+02 0.  0.
         23    2    4    4    0    0  0.22716885475E+03 -0.14782190064E+03  0.38686447729E+03  0.48289066881E+03  0.10031087361E+03 0.  0.
          4    1    3    3  502    0 -0.64052148031E+02  0.54095950723E+01  0.46286746771E+03  0.46730956983E+03  0.00000000000E+00 0. -1.
         -3    1    3    3    0  502 -0.13259548419E+02 -0.42665780287E+02  0.42177603146E+03  0.42413583337E+03  0.00000000000E+00 0.  1.
         13    1    5    5    0    0 -0.19014413110E+02  0.51909887073E+02 -0.14088398234E+03  0.15134226363E+03  0.00000000000E+00 0. -1.
        -13    1    5    5    0    0 -0.13084274519E+03  0.13316819878E+03 -0.19615175001E+03  0.27079346773E+03  0.00000000000E+00 0.  1.
          3    1    6    6  503    0  0.17226890420E+03 -0.98887443886E+02  0.19911352468E+03  0.28124988466E+03  0.00000000000E+00 0. -1.
         -3    1    6    6    0  503  0.54899950549E+02 -0.48934456753E+02  0.18775095261E+03  0.20164078415E+03  0.00000000000E+00 0.  1.
<mgrwt>
<rscale>  0 0.15342987E+04</rscale>
<asrwt>0</asrwt>
<pdfrwt beam="1">  1        2 0.21007262E+00 0.15342987E+04</pdfrwt>
<pdfrwt beam="2">  1       -1 0.66307659E-01 0.15342987E+04</pdfrwt>
<totfact> 0.38348124E+01</totfact>
</mgrwt>
</event>
<event>
12    7  0.1707730E-007  0.2541923E+04  0.7818608E-02  0.8388200E-01
          2   -1    0    0  501    0  0.00000000000E+00  0.00000000000E+00  0.32152525879E+04  0.32152525879E+04  0.00000000000E+00 0. -1.
         -1   -1    0    0    0  501 -0.00000000000E+00 -0.00000000000E+00 -0.50240025564E+03  0.50240025564E+03  0.00000000000E+00 0.  1.
         24    2    1    2    0    0 -0.40641586004E+03  0.10370165435E+04  0.11097749445E+04  0.15741270772E+04  0.75488177827E+02 0.  0.
        254    2    1    2    0    0  0.40641586004E+03 -0.10370165435E+04  0.16030773878E+04  0.21435257664E+04  0.88558931625E+03 0.  0.
         23    2    4    4    0    0  0.40778758106E+03 -0.11435960426E+04  0.11739180403E+04  0.16914930640E+04  0.94671010672E+02 0.  0.
         23    2    4    4    0    0 -0.13717210234E+01  0.10657949906E+03  0.42915934742E+03  0.45203270236E+03  0.93780313955E+02 0.  0.
          2    1    3    3  502    0 -0.34616363275E+03  0.93511734834E+03  0.97234456349E+03  0.13927410621E+04  0.00000000000E+00 0. -1.
         -1    1    3    3    0  502 -0.60252227287E+02  0.10189919515E+03  0.13743038101E+03  0.18138601515E+03  0.00000000000E+00 0.  1.
         13    1    5    5    0    0  0.18428090523E+03 -0.38702460770E+03  0.39671742011E+03  0.58406524499E+03  0.00000000000E+00 0. -1.
        -13    1    5    5    0    0  0.22350667583E+03 -0.75657143485E+03  0.77720062024E+03  0.11074278190E+04  0.00000000000E+00 0.  1.
          4    1    6    6  503    0  0.29355085720E+02 -0.12901780371E+01  0.75610821759E+02  0.81119553648E+02  0.00000000000E+00 0. -1.
         -4    1    6    6    0  503 -0.30726806743E+02  0.10786967710E+03  0.35354852566E+03  0.37091314871E+03  0.00000000000E+00 0.  1.
<mgrwt>
<rscale>  0 0.25419235E+04</rscale>
<asrwt>0</asrwt>
<pdfrwt beam="1">  1        2 0.49465423E+00 0.25419235E+04</pdfrwt>
<pdfrwt beam="2">  1       -1 0.77292349E-01 0.25419235E+04</pdfrwt>
<totfact> 0.21503084E+00</totfact>
</mgrwt>
</event>
<event>
12    7  0.1707730E-007  0.1569924E+04  0.7818608E-02  0.8839241E-01
         -1   -1    0    0    0  501 -0.00000000000E+00  0.00000000000E+00  0.33277936843E+03  0.33277936843E+03  0.00000000000E+00 0.  1.
          2   -1    0    0  501    0  0.00000000000E+00 -0.00000000000E+00 -0.18515727744E+04  0.18515727744E+04  0.00000000000E+00 0. -1.
         24    2    1    2    0    0  0.16343236758E+03  0.40388044064E+03 -0.11086053407E+03  0.45682371617E+03  0.81045052521E+02 0.  0.
        254    2    1    2    0    0 -0.16343236758E+03 -0.40388044064E+03 -0.14079328719E+04  0.17275284266E+04  0.90124910211E+03 0.  0.
         23    2    4    4    0    0  0.16106203630E+03  0.43651425698E+02 -0.10397627537E+04  0.10570934127E+04  0.92160038565E+02 0.  0.
         23    2    4    4    0    0 -0.32449440388E+03 -0.44753186633E+03 -0.36817011816E+03  0.67043501392E+03  0.91391916757E+02 0.  0.
          4    1    3    3  502    0  0.36864467884E+02  0.78603349155E+02  0.10145019902E+02  0.87409364027E+02  0.00000000000E+00 0. -1.
         -3    1    3    3    0  502  0.12656789970E+03  0.32527709148E+03 -0.12100555397E+03  0.36941435214E+03  0.00000000000E+00 0.  1.
         13    1    5    5    0    0  0.14110554094E+02  0.25872096213E+02 -0.67855025466E+02  0.73978223690E+02  0.00000000000E+00 0. -1.
        -13    1    5    5    0    0  0.14695148221E+03  0.17779329485E+02 -0.97190772824E+03  0.98311518902E+03  0.00000000000E+00 0.  1.
          2    1    6    6  503    0 -0.80100569770E+02 -0.12231072470E+03 -0.14725371598E+03  0.20750824448E+03  0.00000000000E+00 0. -1.
         -2    1    6    6    0  503 -0.24439383411E+03 -0.32522114163E+03 -0.22091640217E+03  0.46292676944E+03  0.00000000000E+00 0.  1.
<mgrwt>
<rscale>  0 0.15699238E+04</rscale>
<asrwt>0</asrwt>
<pdfrwt beam="1">  1        2 0.28485735E+00 0.15699238E+04</pdfrwt>
<pdfrwt beam="2">  1       -1 0.51196827E-01 0.15699238E+04</pdfrwt>
<totfact> 0.33933007E+01</totfact>
</mgrwt>
</event>
<event>
12    7  0.1707730E-007  0.1903433E+04  0.7818608E-02  0.8653149E-01
         -1   -1    0    0    0  501 -0.00000000000E+00  0.00000000000E+00  0.39781204715E+03  0.39781204715E+03  0.00000000000E+00 0.  1.
          2   -1    0    0  501    0  0.00000000000E+00 -0.00000000000E+00 -0.22768651415E+04  0.22768651415E+04  0.00000000000E+00 0. -1.
         24    2    1    2    0    0 -0.10388858966E+03  0.45358047003E+03  0.68132097510E+02  0.47718221937E+03  0.80825775093E+02 0.  0.
        254    2    1    2    0    0  0.10388858966E+03 -0.45358047003E+03 -0.19471851919E+04  0.21974949693E+04  0.90604960503E+03 0.  0.
         23    2    4    4    0    0 -0.24702445961E+03 -0.52463817401E+03 -0.15400385151E+04  0.16481852764E+04  0.92356808800E+02 0.  0.
         23    2    4    4    0    0  0.35091304927E+03  0.71057703979E+02 -0.40714667679E+03  0.54930969289E+03  0.88224468509E+02 0.  0.
          2    1    3    3  502    0  0.80975777800E+01  0.45640708197E+02 -0.88837916890E+01  0.47197105477E+02  0.00000000000E+00 0. -1.
         -1    1    3    3    0  502 -0.11198616744E+03  0.40793976183E+03  0.77015889199E+02  0.42998511389E+03  0.00000000000E+00 0.  1.
         13    1    5    5    0    0 -0.16156741112E+03 -0.23917761300E+03 -0.79443055958E+03  0.84523953580E+03  0.00000000000E+00 0. -1.
        -13    1    5    5    0    0 -0.85457048486E+02 -0.28546056101E+03 -0.74560795553E+03  0.80294574062E+03  0.00000000000E+00 0.  1.
          4    1    6    6  503    0  0.21665786928E+03  0.14950203253E+02 -0.19382792999E+03  0.29109003305E+03  0.00000000000E+00 0. -1.
         -4    1    6    6    0  503  0.13425517998E+03  0.56107500727E+02 -0.21331874680E+03  0.25821965984E+03  0.00000000000E+00 0.  1.
<mgrwt>
<rscale>  0 0.19034331E+04</rscale>
<asrwt>0</asrwt>
<pdfrwt beam="1">  1        2 0.35028695E+00 0.19034331E+04</pdfrwt>
<pdfrwt beam="2">  1       -1 0.61201852E-01 0.19034331E+04</pdfrwt>
<totfact> 0.13491210E+01</totfact>
</mgrwt>
</event>
<event>
12    7  0.1707730E-007  0.1954588E+04  0.7818608E-02  0.8628152E-01
         -1   -1    0    0    0  501 -0.00000000000E+00  0.00000000000E+00  0.30177038616E+03  0.30177038616E+03  0.00000000000E+00 0.  1.
          2   -1    0    0  501    0  0.00000000000E+00 -0.00000000000E+00 -0.31650001579E+04  0.31650001579E+04  0.00000000000E+00 0. -1.
         24    2    1    2    0    0  0.93159869483E+02  0.32734771955E+03 -0.23532681363E+04  0.23790614420E+04  0.78912182819E+02 0.  0.
        254    2    1    2    0    0 -0.93159869483E+02 -0.32734771955E+03 -0.50996163545E+03  0.10877091021E+04  0.89845140680E+03 0.  0.
         23    2    4    4    0    0  0.14501378084E+03 -0.38717830176E+03  0.91377759800E+02  0.43313724158E+03  0.91224673580E+02 0.  0.
         23    2    4    4    0    0 -0.23817365032E+03  0.59830582207E+02 -0.60133939525E+03  0.65457186052E+03  0.80925064295E+02 0.  0.
          4    1    3    3  502    0  0.91911300120E+02  0.23479041574E+03 -0.18792975226E+04  0.18961364415E+04  0.00000000000E+00 0. -1.
         -3    1    3    3    0  502  0.12485693628E+01  0.92557303811E+02 -0.47397061374E+03  0.48292500050E+03  0.00000000000E+00 0.  1.
         13    1    5    5    0    0  0.14061601469E+03 -0.25554902659E+03  0.62044623856E+02  0.29820748469E+03  0.00000000000E+00 0. -1.
        -13    1    5    5    0    0  0.43977661507E+01 -0.13162927517E+03  0.29333135945E+02  0.13492975688E+03  0.00000000000E+00 0.  1.
          3    1    6    6  503    0 -0.13210988009E+03  0.16001645866E+02 -0.22802908613E+03  0.26401957732E+03  0.00000000000E+00 0. -1.
         -3    1    6    6    0  503 -0.10606377023E+03  0.43828936341E+02 -0.37331030912E+03  0.39055228320E+03  0.00000000000E+00 0.  1.
<mgrwt>
<rscale>  0 0.19545878E+04</rscale>
<asrwt>0</asrwt>
<pdfrwt beam="1">  1        2 0.48692312E+00 0.19545878E+04</pdfrwt>
<pdfrwt beam="2">  1       -1 0.46426211E-01 0.19545878E+04</pdfrwt>
<totfact> 0.67245208E+00</totfact>
</mgrwt>
</event>
<event>
12    7  0.1707730E-007  0.1794827E+04  0.7818608E-02  0.8709055E-01
         -1   -1    0    0    0  501 -0.00000000000E+00  0.00000000000E+00  0.80501130937E+03  0.80501130937E+03  0.00000000000E+00 0.  1.
          2   -1    0    0  501    0  0.00000000000E+00 -0.00000000000E+00 -0.10004224992E+04  0.10004224992E+04  0.00000000000E+00 0. -1.
         24    2    1    2    0    0  0.30689547726E+03  0.55989338246E+02  0.52203238664E+03  0.61353962717E+03  0.81199885818E+02 0.  0.
        254    2    1    2    0    0 -0.30689547726E+03 -0.55989338246E+02 -0.71744357652E+03  0.11918941814E+04  0.89920343323E+03 0.  0.
         23    2    4    4    0    0  0.29441105428E+03  0.23608940517E+02 -0.38519400424E+03  0.49434410190E+03  0.93629157999E+02 0.  0.
         23    2    4    4    0    0 -0.60130653154E+03 -0.79598278763E+02 -0.33224957228E+03  0.69755007954E+03  0.90999474399E+02 0.  0.
          2    1    3    3  502    0  0.38513756093E+02  0.27353102150E+01  0.24482068257E+02  0.45718300455E+02  0.00000000000E+00 0. -1.
         -1    1    3    3    0  502  0.26838172116E+03  0.53254028031E+02  0.49755031838E+03  0.56782132672E+03  0.00000000000E+00 0.  1.
         13    1    5    5    0    0  0.24574480842E+03  0.48037331544E+02 -0.27819960080E+03  0.37429014677E+03  0.00000000000E+00 0. -1.
        -13    1    5    5    0    0  0.48666245865E+02 -0.24428391027E+02 -0.10699440344E+03  0.12005395513E+03  0.00000000000E+00 0.  1.
          4    1    6    6  503    0 -0.19829890055E+03 -0.68800465551E+02 -0.10357641035E+03  0.23405988721E+03  0.00000000000E+00 0. -1.
         -4    1    6    6    0  503 -0.40300763099E+03 -0.10797813212E+02 -0.22867316192E+03  0.46349019233E+03  0.00000000000E+00 0.  1.
<mgrwt>
<rscale>  0 0.17948275E+04</rscale>
<asrwt>0</asrwt>
<pdfrwt beam="1">  1        2 0.15391115E+00 0.17948275E+04</pdfrwt>
<pdfrwt beam="2">  1       -1 0.12384789E+00 0.17948275E+04</pdfrwt>
<totfact> 0.15534923E+01</totfact>
</mgrwt>
</event>
<event>
12    7  0.1707730E-007  0.2020816E+04  0.7818608E-02  0.8596950E-01
         -1   -1    0    0    0  501 -0.00000000000E+00  0.00000000000E+00  0.95811644497E+03  0.95811644497E+03  0.00000000000E+00 0.  1.
          2   -1    0    0  501    0  0.00000000000E+00 -0.00000000000E+00 -0.10655531424E+04  0.10655531424E+04  0.00000000000E+00 0. -1.
         24    2    1    2    0    0 -0.78079094114E+03 -0.17466639559E+03  0.88742883223E+02  0.80900540757E+03  0.80446296640E+02 0.  0.
        254    2    1    2    0    0  0.78079094114E+03  0.17466639559E+03 -0.19617958062E+03  0.12146641798E+04  0.89262522833E+03 0.  0.
         23    2    4    4    0    0  0.81466871704E+03  0.42476909662E+03 -0.11094038649E+03  0.93048179885E+03  0.96823058565E+02 0.  0.
         23    2    4    4    0    0 -0.33877775903E+02 -0.25010270104E+03 -0.85239194130E+02  0.28418238091E+03  0.98968887227E+02 0.  0.
          4    1    3    3  502    0 -0.14627549582E+03 -0.14584186449E+02  0.42281383398E+02  0.15296056536E+03  0.00000000000E+00 0. -1.
         -3    1    3    3    0  502 -0.63451544532E+03 -0.16008220914E+03  0.46461499826E+02  0.65604484222E+03  0.00000000000E+00 0.  1.
         13    1    5    5    0    0  0.49989142112E+03  0.21360359127E+03 -0.42176500954E+02  0.54524928643E+03  0.00000000000E+00 0. -1.
        -13    1    5    5    0    0  0.31477729592E+03  0.21116550535E+03 -0.68763885531E+02  0.38523251243E+03  0.00000000000E+00 0.  1.
          1    1    6    6  503    0 -0.63102770560E+02 -0.11714066066E+03 -0.25321864377E+02  0.13544405061E+03  0.00000000000E+00 0. -1.
         -1    1    6    6    0  503  0.29224994658E+02 -0.13296204038E+03 -0.59917329753E+02  0.14873833030E+03  0.00000000000E+00 0.  1.
<mgrwt>
<rscale>  0 0.20208157E+04</rscale>
<asrwt>0</asrwt>
<pdfrwt beam="1">  1        2 0.16393125E+00 0.20208157E+04</pdfrwt>
<pdfrwt beam="2">  1       -1 0.14740253E+00 0.20208157E+04</pdfrwt>
<totfact> 0.88541678E+00</totfact>
</mgrwt>
</event>
<event>
12    7  0.1707730E-007  0.1097035E+04  0.7818608E-02  0.9208086E-01
          2   -1    0    0  501    0  0.00000000000E+00  0.00000000000E+00  0.99513470730E+03  0.99513470730E+03  0.00000000000E+00 0. -1.
         -1   -1    0    0    0  501 -0.00000000000E+00 -0.00000000000E+00 -0.30234260572E+03  0.30234260572E+03  0.00000000000E+00 0.  1.
         24    2    1    2    0    0 -0.62620443676E+02 -0.69390939008E+02  0.26368153615E+03  0.29154058838E+03  0.82045961422E+02 0.  0.
        254    2    1    2    0    0  0.62620443676E+02  0.69390939008E+02  0.42911056543E+03  0.10059367246E+04  0.90500629513E+03 0.  0.
         23    2    4    4    0    0  0.12105328576E+03 -0.12632973710E+03  0.65636017715E+03  0.68627514923E+03  0.97733299498E+02 0.  0.
         23    2    4    4    0    0 -0.58432842084E+02  0.19572067611E+03 -0.22724961172E+03  0.31966157541E+03  0.93915689164E+02 0.  0.
          4    1    3    3  502    0 -0.74043286318E+02 -0.66522345477E+02  0.26117460918E+03  0.27949920783E+03  0.00000000000E+00 0. -1.
         -3    1    3    3    0  502  0.11422842642E+02 -0.28685935307E+01  0.25069269732E+01  0.12041380557E+02  0.00000000000E+00 0.  1.
         13    1    5    5    0    0  0.57843270793E+01  0.16019594654E+02  0.47579739196E+02  0.50536298189E+02  0.00000000000E+00 0. -1.
        -13    1    5    5    0    0  0.11526895868E+03 -0.14234933176E+03  0.60878043796E+03  0.63573885104E+03  0.00000000000E+00 0.  1.
          2    1    6    6  503    0 -0.23397343526E+02  0.15906617668E+02 -0.79262233379E+02  0.84160310181E+02  0.00000000000E+00 0. -1.
         -2    1    6    6    0  503 -0.35035498558E+02  0.17981405844E+03 -0.14798737835E+03  0.23550126522E+03  0.00000000000E+00 0.  1.
<mgrwt>
<rscale>  0 0.10970353E+04</rscale>
<asrwt>0</asrwt>
<pdfrwt beam="1">  1        2 0.15309765E+00 0.10970353E+04</pdfrwt>
<pdfrwt beam="2">  1       -1 0.46514247E-01 0.10970353E+04</pdfrwt>
<totfact> 0.13218641E+02</totfact>
</mgrwt>
</event>
<event>
12    7  0.1707730E-007  0.1711501E+04  0.7818608E-02  0.8754832E-01
         -1   -1    0    0    0  501 -0.00000000000E+00  0.00000000000E+00  0.71320896613E+03  0.71320896613E+03  0.00000000000E+00 0.  1.
          2   -1    0    0  501    0  0.00000000000E+00 -0.00000000000E+00 -0.10267804595E+04  0.10267804595E+04  0.00000000000E+00 0. -1.
         24    2    1    2    0    0  0.40614917814E+03  0.22970190106E+03  0.28642541742E+03  0.55317883991E+03  0.79039173413E+02 0.  0.
        254    2    1    2    0    0 -0.40614917814E+03 -0.22970190106E+03 -0.59999691078E+03  0.11868105857E+04  0.91148393029E+03 0.  0.
         23    2    4    4    0    0 -0.63075819372E+03 -0.51325320423E+02 -0.61240640305E+03  0.88552840091E+03  0.92891112943E+02 0.  0.
         23    2    4    4    0    0  0.22460901558E+03 -0.17837658064E+03  0.12409492265E+02  0.30128218481E+03  0.91375844647E+02 0.  0.
          2    1    3    3  502    0  0.34932887643E+02  0.12657292097E+02  0.12057695850E+01  0.37174824312E+02  0.00000000000E+00 0. -1.
         -1    1    3    3    0  502  0.37121629049E+03  0.21704460896E+03  0.28521964783E+03  0.51600401560E+03  0.00000000000E+00 0.  1.
         13    1    5    5    0    0 -0.57712670655E+03 -0.68768309900E+02 -0.57674003314E+03  0.81879996439E+03  0.00000000000E+00 0. -1.
        -13    1    5    5    0    0 -0.53631487170E+02  0.17442989477E+02 -0.35666369907E+02  0.66728436519E+02  0.00000000000E+00 0.  1.
          3    1    6    6  503    0  0.18652296929E+03 -0.98439239024E+02  0.22771565738E+02  0.21213120011E+03  0.00000000000E+00 0. -1.
         -3    1    6    6    0  503  0.38086046285E+02 -0.79937341615E+02 -0.10362073473E+02  0.89150984699E+02  0.00000000000E+00 0.  1.
<mgrwt>
<rscale>  0 0.17115011E+04</rscale>
<asrwt>0</asrwt>
<pdfrwt beam="1">  1        2 0.15796622E+00 0.17115011E+04</pdfrwt>
<pdfrwt beam="2">  1       -1 0.10972446E+00 0.17115011E+04</pdfrwt>
<totfact> 0.20165325E+01</totfact>
</mgrwt>
</event>
<event>
12    7  0.1707730E-007  0.2670611E+04  0.7818608E-02  0.8344604E-01
         -1   -1    0    0    0  501 -0.00000000000E+00  0.00000000000E+00  0.12422257042E+04  0.12422257042E+04  0.00000000000E+00 0.  1.
          2   -1    0    0  501    0  0.00000000000E+00 -0.00000000000E+00 -0.14353601638E+04  0.14353601638E+04  0.00000000000E+00 0. -1.
         24    2    1    2    0    0  0.19119734048E+01 -0.11154338881E+03  0.10995893011E+04  0.11080187763E+04  0.78507288087E+02 0.  0.
        254    2    1    2    0    0 -0.19119734048E+01  0.11154338881E+03 -0.12927237607E+04  0.15695670917E+04  0.88315375247E+03 0.  0.
         23    2    4    4    0    0  0.20904500461E+03  0.86611368274E+02  0.11545429929E+02  0.24503256305E+03  0.93307646721E+02 0.  0.
         23    2    4    4    0    0 -0.21095697801E+03  0.24932020532E+02 -0.13042691906E+04  0.13245345286E+04  0.90272607303E+02 0.  0.
          2    1    3    3  502    0  0.20604123127E+02  0.25844042527E+01  0.16872198188E+03  0.16999504759E+03  0.00000000000E+00 0. -1.
         -1    1    3    3    0  502 -0.18692149722E+02 -0.11412779306E+03  0.93086731926E+03  0.93802372874E+03  0.00000000000E+00 0.  1.
         13    1    5    5    0    0  0.12927893902E+03  0.12985765802E+02 -0.21205016544E+02  0.13164849758E+03  0.00000000000E+00 0. -1.
        -13    1    5    5    0    0  0.79766065583E+02  0.73625602472E+02  0.32750446472E+02  0.11338406547E+03  0.00000000000E+00 0.  1.
          4    1    6    6  503    0 -0.13821925026E+03  0.59235956291E+02 -0.84334142035E+03  0.85664357287E+03  0.00000000000E+00 0. -1.
         -4    1    6    6    0  503 -0.72737727748E+02 -0.34303935760E+02 -0.46092777028E+03  0.46789095574E+03  0.00000000000E+00 0.  1.
<mgrwt>
<rscale>  0 0.26706114E+04</rscale>
<asrwt>0</asrwt>
<pdfrwt beam="1">  1        2 0.22082464E+00 0.26706114E+04</pdfrwt>
<pdfrwt beam="2">  1       -1 0.19111165E+00 0.26706114E+04</pdfrwt>
<totfact> 0.24013185E+00</totfact>
</mgrwt>
</event>
<event>
12    7  0.1707730E-007  0.1827465E+04  0.7818608E-02  0.8691829E-01
          2   -1    0    0  501    0  0.00000000000E+00  0.00000000000E+00  0.19996836094E+04  0.19996836094E+04  0.00000000000E+00 0. -1.
         -1   -1    0    0    0  501 -0.00000000000E+00 -0.00000000000E+00 -0.41751978234E+03  0.41751978234E+03  0.00000000000E+00 0.  1.
         24    2    1    2    0    0 -0.28629684751E+03 -0.60195264008E+03  0.83933194021E+03  0.10748219547E+04  0.80319752762E+02 0.  0.
        254    2    1    2    0    0  0.28629684751E+03  0.60195264008E+03  0.74283188686E+03  0.13423814370E+04  0.89770587865E+03 0.  0.
         23    2    4    4    0    0 -0.71020456474E+02  0.42544143824E+03  0.81524341394E+03  0.92654927180E+03  0.88472631390E+02 0.  0.
         23    2    4    4    0    0  0.35731730398E+03  0.17651120185E+03 -0.72411527078E+02  0.41583216523E+03  0.94027125260E+02 0.  0.
          2    1    3    3  502    0 -0.34146820907E+02 -0.11272783431E+03  0.19077207894E+03  0.22420427318E+03  0.00000000000E+00 0. -1.
         -1    1    3    3    0  502 -0.25215002660E+03 -0.48922480577E+03  0.64855986126E+03  0.85061768154E+03  0.00000000000E+00 0.  1.
         13    1    5    5    0    0 -0.35941646484E+02  0.35445063858E+03  0.71462992839E+03  0.79851298781E+03  0.00000000000E+00 0. -1.
        -13    1    5    5    0    0 -0.35078809990E+02  0.70990799659E+02  0.10061348554E+03  0.12803628400E+03  0.00000000000E+00 0.  1.
          3    1    6    6  503    0  0.94537027046E+02  0.95489616205E+02 -0.28520150522E+02  0.13736417026E+03  0.00000000000E+00 0. -1.
         -3    1    6    6    0  503  0.26278027694E+03  0.81021585641E+02 -0.43891376556E+02  0.27846799497E+03  0.00000000000E+00 0.  1.
<mgrwt>
<rscale>  0 0.18274654E+04</rscale>
<asrwt>0</asrwt>
<pdfrwt beam="1">  1        2 0.30764363E+00 0.18274654E+04</pdfrwt>
<pdfrwt beam="2">  1       -1 0.64233814E-01 0.18274654E+04</pdfrwt>
<totfact> 0.17622596E+01</totfact>
</mgrwt>
</event>
<event>
12    7  0.1707730E-007  0.2457376E+04  0.7818608E-02  0.8418330E-01
         -1   -1    0    0    0  501 -0.00000000000E+00  0.00000000000E+00  0.18118674728E+04  0.18118674728E+04  0.00000000000E+00 0.  1.
          2   -1    0    0  501    0  0.00000000000E+00 -0.00000000000E+00 -0.83321434374E+03  0.83321434374E+03  0.00000000000E+00 0. -1.
         24    2    1    2    0    0 -0.22091670279E+03  0.12631424651E+03 -0.67350517541E+03  0.72425440548E+03  0.78585902770E+02 0.  0.
        254    2    1    2    0    0  0.22091670279E+03 -0.12631424651E+03  0.16521583045E+04  0.19208274111E+04  0.94614554990E+03 0.  0.
         23    2    4    4    0    0 -0.35326924810E+03 -0.41497619663E+02  0.43548687938E+03  0.56969185274E+03  0.91535626244E+02 0.  0.
         23    2    4    4    0    0  0.57418595089E+03 -0.84816626845E+02  0.12166714251E+04  0.13511355583E+04  0.91621907511E+02 0.  0.
          2    1    3    3  502    0 -0.52074201098E+02  0.70907291388E+02 -0.24758550508E+03  0.26275111554E+03  0.00000000000E+00 0. -1.
         -1    1    3    3    0  502 -0.16884250169E+03  0.55406955119E+02 -0.42591967033E+03  0.46150328994E+03  0.00000000000E+00 0.  1.
         13    1    5    5    0    0 -0.19046371793E+03  0.15667611093E+02  0.26853505498E+03  0.32959517235E+03  0.00000000000E+00 0. -1.
        -13    1    5    5    0    0 -0.16280553016E+03 -0.57165230756E+02  0.16695182440E+03  0.24009668038E+03  0.00000000000E+00 0.  1.
          4    1    6    6  503    0  0.95611938366E+02 -0.45945746266E+02  0.18635150182E+03  0.21442839501E+03  0.00000000000E+00 0. -1.
         -4    1    6    6    0  503  0.47857401252E+03 -0.38870880578E+02  0.10303199233E+04  0.11367071633E+04  0.00000000000E+00 0.  1.
<mgrwt>
<rscale>  0 0.24573758E+04</rscale>
<asrwt>0</asrwt>
<pdfrwt beam="1">  1        2 0.12818682E+00 0.24573758E+04</pdfrwt>
<pdfrwt beam="2">  1       -1 0.27874884E+00 0.24573758E+04</pdfrwt>
<totfact> 0.15096068E+00</totfact>
</mgrwt>
</event>
<event>
12    7  0.1707730E-007  0.1320269E+04  0.7818608E-02  0.9013644E-01
         -1   -1    0    0    0  501 -0.00000000000E+00  0.00000000000E+00  0.31319648816E+03  0.31319648816E+03  0.00000000000E+00 0.  1.
          2   -1    0    0  501    0  0.00000000000E+00 -0.00000000000E+00 -0.13913880994E+04  0.13913880994E+04  0.00000000000E+00 0. -1.
         24    2    1    2    0    0 -0.19901736400E+03  0.19864359107E+03 -0.32814859071E+02  0.29395973428E+03  0.79172741235E+02 0.  0.
        254    2    1    2    0    0  0.19901736400E+03 -0.19864359107E+03 -0.10453767521E+04  0.14106248533E+04  0.90442397982E+03 0.  0.
         23    2    4    4    0    0  0.67613570321E+02 -0.45986838897E+03 -0.99154369601E+03  0.10989243918E+04  0.91789911099E+02 0.  0.
         23    2    4    4    0    0  0.13140379368E+03  0.26122479790E+03 -0.53833056130E+02  0.31170046144E+03  0.93561892321E+02 0.  0.
          2    1    3    3  502    0 -0.75265557695E+02  0.11038026000E+03  0.15422610250E+02  0.13448629253E+03  0.00000000000E+00 0. -1.
         -1    1    3    3    0  502 -0.12375180631E+03  0.88263331072E+02 -0.48237469321E+02  0.15947344175E+03  0.00000000000E+00 0.  1.
         13    1    5    5    0    0  0.30636549509E+02 -0.34913051276E+03 -0.81625922748E+03  0.88831854622E+03  0.00000000000E+00 0. -1.
        -13    1    5    5    0    0  0.36977020811E+02 -0.11073787621E+03 -0.17528446853E+03  0.21060584560E+03  0.00000000000E+00 0.  1.
          1    1    6    6  503    0  0.89775496831E+02  0.24732781584E+03 -0.45145873248E+02  0.26696224114E+03  0.00000000000E+00 0. -1.
         -1    1    6    6    0  503  0.41628296852E+02  0.13896982056E+02 -0.86871828815E+01  0.44738220299E+02  0.00000000000E+00 0.  1.
<mgrwt>
<rscale>  0 0.13202695E+04</rscale>
<asrwt>0</asrwt>
<pdfrwt beam="1">  1        2 0.21405971E+00 0.13202695E+04</pdfrwt>
<pdfrwt beam="2">  1       -1 0.48184075E-01 0.13202695E+04</pdfrwt>
<totfact> 0.70288988E+01</totfact>
</mgrwt>
</event>
<event>
12    7  0.1707730E-007  0.1275509E+04  0.7818608E-02  0.9049215E-01
         -1   -1    0    0    0  501 -0.00000000000E+00  0.00000000000E+00  0.32135787709E+03  0.32135787709E+03  0.00000000000E+00 0.  1.
          2   -1    0    0  501    0  0.00000000000E+00 -0.00000000000E+00 -0.12656632483E+04  0.12656632483E+04  0.00000000000E+00 0. -1.
         24    2    1    2    0    0  0.16459989989E+03 -0.26682489058E+03 -0.29858114560E+03  0.44004220667E+03  0.78726068507E+02 0.  0.
        254    2    1    2    0    0 -0.16459989989E+03  0.26682489058E+03 -0.64572422559E+03  0.11469789187E+04  0.89460170754E+03 0.  0.
         23    2    4    4    0    0  0.65807209530E+02  0.55505989358E+03 -0.34063150566E+03  0.66078309119E+03  0.90456601025E+02 0.  0.
         23    2    4    4    0    0 -0.23040710942E+03 -0.28823500300E+03 -0.30509271993E+03  0.48619582750E+03  0.84486459867E+02 0.  0.
          4    1    3    3  502    0  0.17112720742E+03 -0.23473486924E+03 -0.26910657949E+03  0.39598400357E+03  0.00000000000E+00 0. -1.
         -3    1    3    3    0  502 -0.65273075229E+01 -0.32090021342E+02 -0.29474566110E+02  0.44058203102E+02  0.00000000000E+00 0.  1.
         13    1    5    5    0    0  0.16938175461E+02  0.10259109189E+03 -0.10706268697E+03  0.14924561255E+03  0.00000000000E+00 0.  1.
        -13    1    5    5    0    0  0.48869034069E+02  0.45246880169E+03 -0.23356881868E+03  0.51153747864E+03  0.00000000000E+00 0. -1.
          1    1    6    6  503    0 -0.12320337575E+03 -0.17043697303E+03 -0.22476361596E+03  0.30780922116E+03  0.00000000000E+00 0. -1.
         -1    1    6    6    0  503 -0.10720373368E+03 -0.11779802996E+03 -0.80329103971E+02  0.17838660634E+03  0.00000000000E+00 0.  1.
<mgrwt>
<rscale>  0 0.12755091E+04</rscale>
<asrwt>0</asrwt>
<pdfrwt beam="1">  1        2 0.19471742E+00 0.12755091E+04</pdfrwt>
<pdfrwt beam="2">  1       -1 0.49439673E-01 0.12755091E+04</pdfrwt>
<totfact> 0.79452195E+01</totfact>
</mgrwt>
</event>
<event>
12    7  0.1707730E-007  0.1481711E+04  0.7818608E-02  0.8896707E-01
          2   -1    0    0  501    0  0.00000000000E+00  0.00000000000E+00  0.10465367589E+04  0.10465367589E+04  0.00000000000E+00 0. -1.
         -1   -1    0    0    0  501 -0.00000000000E+00 -0.00000000000E+00 -0.52446000090E+03  0.52446000090E+03  0.00000000000E+00 0.  1.
         24    2    1    2    0    0  0.50896504369E+02 -0.41771673534E+03  0.37899426557E+03  0.57199951612E+03  0.80430516421E+02 0.  0.
        254    2    1    2    0    0 -0.50896504369E+02  0.41771673534E+03  0.14308249247E+03  0.99899724372E+03  0.89467601296E+03 0.  0.
         23    2    4    4    0    0 -0.30407668932E+03  0.44640307059E+03 -0.18129397316E+03  0.57642550556E+03  0.87524421391E+02 0.  0.
         23    2    4    4    0    0  0.25318018495E+03 -0.28686335252E+02  0.32437646564E+03  0.42257173815E+03  0.91780556462E+02 0.  0.
          2    1    3    3  502    0  0.33316766705E+02 -0.36645582047E+03  0.35943439117E+03  0.51438599986E+03  0.00000000000E+00 0. -1.
         -1    1    3    3    0  502  0.17579737664E+02 -0.51260914870E+02  0.19559874407E+02  0.57613516265E+02  0.00000000000E+00 0.  1.
         13    1    5    5    0    0 -0.70933123531E+02  0.12529128263E+03 -0.10350518854E+02  0.14434869849E+03  0.00000000000E+00 0. -1.
        -13    1    5    5    0    0 -0.23314356579E+03  0.32111178796E+03 -0.17094345431E+03  0.43207680707E+03  0.00000000000E+00 0.  1.
          2    1    6    6  503    0  0.22466916589E+03 -0.55769527509E+02  0.27880683424E+03  0.36238063569E+03  0.00000000000E+00 0. -1.
         -2    1    6    6    0  503  0.28511019063E+02  0.27083192257E+02  0.45569631395E+02  0.60191102468E+02  0.00000000000E+00 0.  1.
<mgrwt>
<rscale>  0 0.14817107E+04</rscale>
<asrwt>0</asrwt>
<pdfrwt beam="1">  1        2 0.16100565E+00 0.14817107E+04</pdfrwt>
<pdfrwt beam="2">  1       -1 0.80686154E-01 0.14817107E+04</pdfrwt>
<totfact> 0.39779982E+01</totfact>
</mgrwt>
</event>
<event>
12    7  0.1707730E-007  0.1358676E+04  0.7818608E-02  0.8984286E-01
          2   -1    0    0  501    0  0.00000000000E+00  0.00000000000E+00  0.59878395223E+03  0.59878395223E+03  0.00000000000E+00 0. -1.
         -1   -1    0    0    0  501 -0.00000000000E+00 -0.00000000000E+00 -0.77072892713E+03  0.77072892713E+03  0.00000000000E+00 0.  1.
         24    2    1    2    0    0  0.39935092914E+02 -0.24168753286E+03  0.23578205310E+03  0.34989810327E+03  0.82630689975E+02 0.  0.
        254    2    1    2    0    0 -0.39935092914E+02  0.24168753286E+03 -0.40772702800E+03  0.10196147761E+04  0.90186766605E+03 0.  0.
         23    2    4    4    0    0  0.20989995725E+03  0.48607117293E+03 -0.37916945407E+03  0.65771784802E+03  0.92196070927E+02 0.  0.
         23    2    4    4    0    0 -0.24983505017E+03 -0.24438364006E+03 -0.28557573925E+02  0.36189692807E+03  0.89515002614E+02 0.  0.
          2    1    3    3  502    0  0.27034967448E+02 -0.23920328549E+03  0.23549243775E+03  0.33675776085E+03  0.00000000000E+00 0. -1.
         -1    1    3    3    0  502  0.12900125466E+02 -0.24842473697E+01  0.28961534918E+00  0.13140342426E+02  0.00000000000E+00 0.  1.
         13    1    5    5    0    0  0.61321891452E+01  0.26801115815E+02  0.12223884521E+01  0.27520860927E+02  0.00000000000E+00 0.  1.
        -13    1    5    5    0    0  0.20376776811E+03  0.45927005711E+03 -0.38039184252E+03  0.63019698709E+03  0.00000000000E+00 0. -1.
          1    1    6    6  503    0 -0.22386579793E+03 -0.22346706772E+03 -0.52776055262E+02  0.32068479516E+03  0.00000000000E+00 0. -1.
         -1    1    6    6    0  503 -0.25969252239E+02 -0.20916572341E+02  0.24218481337E+02  0.41212132905E+02  0.00000000000E+00 0.  1.
<mgrwt>
<rscale>  0 0.13586760E+04</rscale>
<asrwt>0</asrwt>
<pdfrwt beam="1">  1        2 0.92120608E-01 0.13586760E+04</pdfrwt>
<pdfrwt beam="2">  1       -1 0.11857368E+00 0.13586760E+04</pdfrwt>
<totfact> 0.35371013E+01</totfact>
</mgrwt>
</event>
<event>
12    7  0.1707730E-007  0.1977343E+04  0.7818608E-02  0.8617287E-01
         -1   -1    0    0    0  501 -0.00000000000E+00  0.00000000000E+00  0.13570907047E+04  0.13570907047E+04  0.00000000000E+00 0.  1.
          2   -1    0    0  501    0  0.00000000000E+00 -0.00000000000E+00 -0.72026968771E+03  0.72026968771E+03  0.00000000000E+00 0. -1.
         24    2    1    2    0    0  0.17883582005E+03  0.71398691350E+03  0.53057840671E+03  0.91004543559E+03  0.70069151460E+02 0.  0.
        254    2    1    2    0    0 -0.17883582005E+03 -0.71398691350E+03  0.10624261029E+03  0.11673149568E+04  0.89976505433E+03 0.  0.
         23    2    4    4    0    0 -0.35135688467E+03 -0.80883192855E+03 -0.66623137380E+02  0.88917791906E+03  0.92401191958E+02 0.  0.
         23    2    4    4    0    0  0.17252106462E+03  0.94845015044E+02  0.17286574767E+03  0.27813703776E+03  0.93373178387E+02 0.  0.
          2    1    3    3  502    0  0.15168518135E+02  0.17845859831E+03  0.11778252818E+03  0.21436016234E+03  0.00000000000E+00 0. -1.
         -1    1    3    3    0  502  0.16366730191E+03  0.53552831519E+03  0.41279587853E+03  0.69568527325E+03  0.00000000000E+00 0.  1.
         13    1    5    5    0    0 -0.15762052328E+03 -0.39861554996E+03  0.11675671646E+02  0.42880637512E+03  0.00000000000E+00 0. -1.
        -13    1    5    5    0    0 -0.19373636139E+03 -0.41021637859E+03 -0.78298809026E+02  0.46037154395E+03  0.00000000000E+00 0.  1.
          2    1    6    6  503    0  0.11855225513E+03  0.69036928744E+02  0.58642881983E+02  0.14919692468E+03  0.00000000000E+00 0. -1.
         -2    1    6    6    0  503  0.53968809487E+02  0.25808086300E+02  0.11422286568E+03  0.12894011308E+03  0.00000000000E+00 0.  1.
<mgrwt>
<rscale>  0 0.19773430E+04</rscale>
<asrwt>0</asrwt>
<pdfrwt beam="1">  1        2 0.11081072E+00 0.19773430E+04</pdfrwt>
<pdfrwt beam="2">  1       -1 0.20878318E+00 0.19773430E+04</pdfrwt>
<totfact> 0.54996994E+00</totfact>
</mgrwt>
</event>
<event>
12    7  0.1707730E-007  0.1787500E+04  0.7818608E-02  0.8712975E-01
          2   -1    0    0  501    0  0.00000000000E+00  0.00000000000E+00  0.22098436604E+04  0.22098436604E+04  0.00000000000E+00 0. -1.
         -1   -1    0    0    0  501 -0.00000000000E+00 -0.00000000000E+00 -0.36146861369E+03  0.36146861369E+03  0.00000000000E+00 0.  1.
         24    2    1    2    0    0 -0.12253294023E+03 -0.13822997503E+03  0.16105615839E+04  0.16230996075E+04  0.80136589185E+02 0.  0.
        254    2    1    2    0    0  0.12253294023E+03  0.13822997503E+03  0.23781346275E+03  0.94821266653E+03  0.89912744951E+03 0.  0.
         23    2    4    4    0    0  0.32297724003E+03  0.41182023146E+03  0.26891736260E+03  0.59506542117E+03  0.88747433476E+02 0.  0.
         23    2    4    4    0    0 -0.20044429979E+03 -0.27359025643E+03 -0.31103899843E+02  0.35314724536E+03  0.93359405466E+02 0.  0.
          4    1    3    3  502    0 -0.81964859850E+02 -0.10589023633E+03  0.13937178530E+04  0.14001358628E+04  0.00000000000E+00 0. -1.
         -3    1    3    3    0  502 -0.40568080382E+02 -0.32339738700E+02  0.21684373093E+03  0.22296374478E+03  0.00000000000E+00 0.  1.
         13    1    5    5    0    0 -0.48939191703E+01  0.15155733757E+02  0.11522596868E+02  0.19657490917E+02  0.00000000000E+00 0.  1.
        -13    1    5    5    0    0  0.32787115920E+03  0.39666449770E+03  0.25739476573E+03  0.57540793025E+03  0.00000000000E+00 0. -1.
          4    1    6    6  503    0 -0.45343523741E+02 -0.71731756675E+02  0.32308109567E+02  0.90803601276E+02  0.00000000000E+00 0. -1.
         -4    1    6    6    0  503 -0.15510077605E+03 -0.20185849975E+03 -0.63412009410E+02  0.26234364408E+03  0.00000000000E+00 0.  1.
<mgrwt>
<rscale>  0 0.17875001E+04</rscale>
<asrwt>0</asrwt>
<pdfrwt beam="1">  1        2 0.33997594E+00 0.17875001E+04</pdfrwt>
<pdfrwt beam="2">  1       -1 0.55610557E-01 0.17875001E+04</pdfrwt>
<totfact> 0.17947007E+01</totfact>
</mgrwt>
</event>
<event>
12    7  0.1707730E-007  0.4399053E+04  0.7818608E-02  0.7928552E-01
          2   -1    0    0  501    0  0.00000000000E+00  0.00000000000E+00  0.23648613530E+04  0.23648613530E+04  0.00000000000E+00 0. -1.
         -1   -1    0    0    0  501 -0.00000000000E+00 -0.00000000000E+00 -0.20457511699E+04  0.20457511699E+04  0.00000000000E+00 0.  1.
         24    2    1    2    0    0  0.17560416501E+03  0.20864835570E+04  0.36713213642E+03  0.21272698459E+04  0.78997057362E+02 0.  0.
        254    2    1    2    0    0 -0.17560416501E+03 -0.20864835570E+04 -0.48021953279E+02  0.22833426771E+04  0.90944885310E+03 0.  0.
         23    2    4    4    0    0 -0.69273890311E+02 -0.21086980325E+04 -0.13781206701E+03  0.21162150742E+04  0.89262591871E+02 0.  0.
         23    2    4    4    0    0 -0.10633027469E+03  0.22214475472E+02  0.89790113732E+02  0.16712760287E+03  0.89831847806E+02 0.  0.
          2    1    3    3  502    0  0.18200225906E+02  0.32123685292E+03  0.84096510998E+02  0.33256065170E+03  0.00000000000E+00 0. -1.
         -1    1    3    3    0  502  0.15740393910E+03  0.17652467041E+04  0.28303562542E+03  0.17947091942E+04  0.00000000000E+00 0.  1.
         13    1    5    5    0    0 -0.42765807141E+02 -0.37792577778E+03 -0.40870705102E+02  0.38252741380E+03  0.00000000000E+00 0.  1.
        -13    1    5    5    0    0 -0.26508083170E+02 -0.17307722547E+04 -0.96941361910E+02  0.17336876604E+04  0.00000000000E+00 0. -1.
          1    1    6    6  503    0 -0.12097682609E+03  0.98101481873E+01  0.81635502674E+02  0.14627367075E+03  0.00000000000E+00 0. -1.
         -1    1    6    6    0  503  0.14646551398E+02  0.12404327284E+02  0.81546110582E+01  0.20853932117E+02  0.00000000000E+00 0.  1.
<mgrwt>
<rscale>  0 0.43990535E+04</rscale>
<asrwt>0</asrwt>
<pdfrwt beam="1">  1        2 0.36382482E+00 0.43990535E+04</pdfrwt>
<pdfrwt beam="2">  1       -1 0.31473095E+00 0.43990535E+04</pdfrwt>
<totfact> 0.95828831E-02</totfact>
</mgrwt>
</event>
<event>
12    7  0.1707730E-007  0.2745634E+04  0.7818608E-02  0.8320349E-01
         -1   -1    0    0    0  501 -0.00000000000E+00  0.00000000000E+00  0.97780089758E+03  0.97780089758E+03  0.00000000000E+00 0.  1.
          2   -1    0    0  501    0  0.00000000000E+00 -0.00000000000E+00 -0.19274128474E+04  0.19274128474E+04  0.00000000000E+00 0. -1.
         24    2    1    2    0    0  0.18947189865E+03  0.12097798056E+04 -0.43702291820E+03  0.13026659620E+04  0.80515831973E+02 0.  0.
        254    2    1    2    0    0 -0.18947189865E+03 -0.12097798056E+04 -0.51258903161E+03  0.16025477830E+04  0.89774445308E+03 0.  0.
         23    2    4    4    0    0  0.75049035462E+02 -0.12314251779E+04 -0.44557471277E+03  0.13144048601E+04  0.84160472951E+02 0.  0.
         23    2    4    4    0    0 -0.26452093411E+03  0.21645372325E+02 -0.67014318842E+02  0.28814292284E+03  0.89975431790E+02 0.  0.
          2    1    3    3  502    0 -0.11531922216E+01  0.17354250663E+03 -0.61891371378E+02  0.18425220028E+03  0.00000000000E+00 0. -1.
         -1    1    3    3    0  502  0.19062509087E+03  0.10362372989E+04 -0.37513154682E+03  0.11184137617E+04  0.00000000000E+00 0.  1.
         13    1    5    5    0    0  0.10614365207E+02 -0.82560595048E+03 -0.29706564285E+03  0.87748837393E+03  0.00000000000E+00 0. -1.
        -13    1    5    5    0    0  0.64434670255E+02 -0.40581922741E+03 -0.14850906991E+03  0.43691648620E+03  0.00000000000E+00 0.  1.
          2    1    6    6  503    0 -0.26346717377E+03  0.33002545247E+02 -0.54225114291E+02  0.27100642551E+03  0.00000000000E+00 0. -1.
         -2    1    6    6    0  503 -0.10537603394E+01 -0.11357172921E+02 -0.12789204551E+02  0.17136497328E+02  0.00000000000E+00 0.  1.
<mgrwt>
<rscale>  0 0.27456336E+04</rscale>
<asrwt>0</asrwt>
<pdfrwt beam="1">  1        2 0.29652505E+00 0.27456336E+04</pdfrwt>
<pdfrwt beam="2">  1       -1 0.15043091E+00 0.27456336E+04</pdfrwt>
<totfact> 0.25243671E+00</totfact>
</mgrwt>
</event>
<event>
12    7  0.1707730E-007  0.2717802E+04  0.7818608E-02  0.8329252E-01
         -1   -1    0    0    0  501 -0.00000000000E+00  0.00000000000E+00  0.15742572284E+04  0.15742572284E+04  0.00000000000E+00 0.  1.
          2   -1    0    0  501    0  0.00000000000E+00 -0.00000000000E+00 -0.11730049332E+04  0.11730049332E+04  0.00000000000E+00 0. -1.
         24    2    1    2    0    0  0.69156290786E+03 -0.98397073660E+03  0.39890531122E+02  0.12057736789E+04  0.76428033448E+02 0.  0.
        254    2    1    2    0    0 -0.69156290786E+03  0.98397073660E+03  0.36136176413E+03  0.15414884827E+04  0.89395008343E+03 0.  0.
         23    2    4    4    0    0  0.23286444525E+02 -0.27776407527E+01  0.30425924286E+03  0.31820935208E+03  0.90186091485E+02 0.  0.
         23    2    4    4    0    0 -0.71484935239E+03  0.98674837735E+03  0.57102521270E+02  0.12232791306E+04  0.92028129559E+02 0.  0.
          2    1    3    3  502    0  0.48996197865E+03 -0.68351514521E+03  0.62057050346E+02  0.84327146979E+03  0.00000000000E+00 0. -1.
         -1    1    3    3    0  502  0.20160092921E+03 -0.30045559139E+03 -0.22166519225E+02  0.36250220914E+03  0.00000000000E+00 0.  1.
         13    1    5    5    0    0  0.53772758602E+02  0.11019289085E+01  0.12133032781E+03  0.13271688763E+03  0.00000000000E+00 0.  1.
        -13    1    5    5    0    0 -0.30486314076E+02 -0.38795696612E+01  0.18292891505E+03  0.18549246445E+03  0.00000000000E+00 0. -1.
          2    1    6    6  503    0 -0.66182383422E+03  0.88091199467E+03  0.32105341382E+02  0.11022919227E+04  0.00000000000E+00 0. -1.
         -2    1    6    6    0  503 -0.53025518172E+02  0.10583638269E+03  0.24997179888E+02  0.12098720792E+03  0.00000000000E+00 0.  1.
<mgrwt>
<rscale>  0 0.27178017E+04</rscale>
<asrwt>0</asrwt>
<pdfrwt beam="1">  1        2 0.18046230E+00 0.27178017E+04</pdfrwt>
<pdfrwt beam="2">  1       -1 0.24219342E+00 0.27178017E+04</pdfrwt>
<totfact> 0.15392910E+00</totfact>
</mgrwt>
</event>
<event>
12    7  0.1707730E-007  0.1685362E+04  0.7818608E-02  0.8769757E-01
          2   -1    0    0  501    0  0.00000000000E+00  0.00000000000E+00  0.24344336934E+04  0.24344336934E+04  0.00000000000E+00 0. -1.
         -1   -1    0    0    0  501 -0.00000000000E+00 -0.00000000000E+00 -0.29169469854E+03  0.29169469854E+03  0.00000000000E+00 0.  1.
         24    2    1    2    0    0  0.11669247689E+03 -0.59515831650E+03  0.79150948649E+03  0.99981421919E+03  0.72874205596E+02 0.  0.
        254    2    1    2    0    0 -0.11669247689E+03  0.59515831650E+03  0.13512295084E+04  0.17263141728E+04  0.88685336040E+03 0.  0.
         23    2    4    4    0    0  0.34999214470E+03  0.14651167957E+03  0.31819457538E+03  0.50379935317E+03  0.92767595885E+02 0.  0.
         23    2    4    4    0    0 -0.46668462159E+03  0.44864663693E+03  0.10330349330E+04  0.12225148196E+04  0.91120636724E+02 0.  0.
          2    1    3    3  502    0  0.77542922500E+02 -0.25927401235E+03  0.39304857242E+03  0.47720341427E+03  0.00000000000E+00 0. -1.
         -3    1    3    3    0  502  0.39149554389E+02 -0.33588430415E+03  0.39846091407E+03  0.52261080492E+03  0.00000000000E+00 0.  1.
         13    1    5    5    0    0  0.14124943335E+03  0.73580003994E+02  0.78052669885E+02  0.17736301386E+03  0.00000000000E+00 0.  1.
        -13    1    5    5    0    0  0.20874271135E+03  0.72931675574E+02  0.24014190550E+03  0.32643633931E+03  0.00000000000E+00 0. -1.
          2    1    6    6  503    0 -0.23840318392E+03  0.25524993757E+03  0.47842258020E+03  0.59234852408E+03  0.00000000000E+00 0. -1.
         -2    1    6    6    0  503 -0.22828143767E+03  0.19339669937E+03  0.55461235281E+03  0.63016629551E+03  0.00000000000E+00 0.  1.
<mgrwt>
<rscale>  0 0.16853622E+04</rscale>
<asrwt>0</asrwt>
<pdfrwt beam="1">  1        2 0.37452825E+00 0.16853622E+04</pdfrwt>
<pdfrwt beam="2">  1       -1 0.44876109E-01 0.16853622E+04</pdfrwt>
<totfact> 0.20313113E+01</totfact>
</mgrwt>
</event>
<event>
12    7  0.1707730E-007  0.2083929E+04  0.7818608E-02  0.8568356E-01
         -1   -1    0    0    0  501 -0.00000000000E+00  0.00000000000E+00  0.85679674726E+03  0.85679674726E+03  0.00000000000E+00 0.  1.
          2   -1    0    0  501    0  0.00000000000E+00 -0.00000000000E+00 -0.12671503868E+04  0.12671503868E+04  0.00000000000E+00 0. -1.
         24    2    1    2    0    0  0.21006389049E+03 -0.11377763809E+01 -0.10309628883E+04  0.10551219177E+04  0.79181131579E+02 0.  0.
        254    2    1    2    0    0 -0.21006389049E+03  0.11377763809E+01  0.62060924875E+03  0.10688252163E+04  0.84445448121E+03 0.  0.
         23    2    4    4    0    0 -0.26068273164E+03  0.33850474466E+03  0.56419367508E+03  0.71330962064E+03  0.89191721369E+02 0.  0.
         23    2    4    4    0    0  0.50618841152E+02 -0.33736696828E+03  0.56415573669E+02  0.35551559570E+03  0.82643109047E+02 0.  0.
          4    1    3    3  502    0  0.21468681307E+03 -0.85237363875E+01 -0.96792622054E+03  0.99148587998E+03  0.00000000000E+00 0. -1.
         -3    1    3    3    0  502 -0.46229225776E+01  0.73859600066E+01 -0.63036667763E+02  0.63636037755E+02  0.00000000000E+00 0.  1.
         13    1    5    5    0    0 -0.24903024397E+03  0.30820928691E+03  0.47605901429E+03  0.61938777195E+03  0.00000000000E+00 0. -1.
        -13    1    5    5    0    0 -0.11652487676E+02  0.30295457747E+02  0.88134660791E+02  0.93921848692E+02  0.00000000000E+00 0.  1.
          3    1    6    6  503    0 -0.60494191066E+01 -0.22049345268E+03  0.25900055387E+02  0.22209180763E+03  0.00000000000E+00 0. -1.
         -3    1    6    6    0  503  0.56668260259E+02 -0.11687351560E+03  0.30515518282E+02  0.13342378808E+03  0.00000000000E+00 0.  1.
<mgrwt>
<rscale>  0 0.20839293E+04</rscale>
<asrwt>0</asrwt>
<pdfrwt beam="1">  1        2 0.19494621E+00 0.20839293E+04</pdfrwt>
<pdfrwt beam="2">  1       -1 0.13181488E+00 0.20839293E+04</pdfrwt>
<totfact> 0.89004628E+00</totfact>
</mgrwt>
</event>
<event>
12    7  0.1707730E-007  0.3424606E+04  0.7818608E-02  0.8131893E-01
         -1   -1    0    0    0  501 -0.00000000000E+00  0.00000000000E+00  0.74174701811E+03  0.74174701811E+03  0.00000000000E+00 0.  1.
          2   -1    0    0  501    0  0.00000000000E+00 -0.00000000000E+00 -0.39528061044E+04  0.39528061044E+04  0.00000000000E+00 0. -1.
         24    2    1    2    0    0 -0.41906925333E+03 -0.14709034143E+03 -0.35954012519E+04  0.36235916054E+04  0.79065498506E+02 0.  0.
        254    2    1    2    0    0  0.41906925333E+03  0.14709034143E+03  0.38434216557E+03  0.10709615171E+04  0.89553618761E+03 0.  0.
         23    2    4    4    0    0 -0.28453490391E+02  0.25775005783E+03  0.51357757027E+03  0.58295119228E+03  0.93944017721E+02 0.  0.
         23    2    4    4    0    0  0.44752274372E+03 -0.11065971640E+03 -0.12923540470E+03  0.48801032486E+03  0.94499250579E+02 0.  0.
          2    1    3    3  502    0 -0.28514147953E+03 -0.64907049596E+02 -0.21919775547E+04  0.22113986951E+04  0.00000000000E+00 0. -1.
         -1    1    3    3    0  502 -0.13392777380E+03 -0.82183291834E+02 -0.14034236972E+04  0.14121929103E+04  0.00000000000E+00 0.  1.
         13    1    5    5    0    0 -0.55760117638E+02  0.19409039426E+03  0.42471804510E+03  0.47028256368E+03  0.00000000000E+00 0.  1.
        -13    1    5    5    0    0  0.27306627247E+02  0.63659663571E+02  0.88859525165E+02  0.11266862860E+03  0.00000000000E+00 0. -1.
          1    1    6    6  503    0  0.19275456291E+03 -0.80648604856E+02 -0.93836371160E+02  0.22904974032E+03  0.00000000000E+00 0. -1.
         -1    1    6    6    0  503  0.25476818081E+03 -0.30011111547E+02 -0.35399033540E+02  0.25896058454E+03  0.00000000000E+00 0.  1.
<mgrwt>
<rscale>  0 0.34246063E+04</rscale>
<asrwt>0</asrwt>
<pdfrwt beam="1">  1        2 0.60812400E+00 0.34246063E+04</pdfrwt>
<pdfrwt beam="2">  1       -1 0.11411493E+00 0.34246063E+04</pdfrwt>
<totfact> 0.24442670E-01</totfact>
</mgrwt>
</event>
<event>
12    7  0.1707730E-007  0.1722721E+04  0.7818608E-02  0.8748511E-01
         -1   -1    0    0    0  501 -0.00000000000E+00  0.00000000000E+00  0.80212484586E+03  0.80212484586E+03  0.00000000000E+00 0.  1.
          2   -1    0    0  501    0  0.00000000000E+00 -0.00000000000E+00 -0.92497044713E+03  0.92497044713E+03  0.00000000000E+00 0. -1.
         24    2    1    2    0    0 -0.33968607505E+03 -0.51806822147E+03 -0.14905040660E+02  0.62492456623E+03  0.80791345837E+02 0.  0.
        254    2    1    2    0    0  0.33968607505E+03  0.51806822147E+03 -0.10794056061E+03  0.11021707268E+04  0.90517834410E+03 0.  0.
         23    2    4    4    0    0 -0.13672888508E+03  0.58429555699E+03 -0.66956124733E+02  0.61070213603E+03  0.91530816531E+02 0.  0.
         23    2    4    4    0    0  0.47641496014E+03 -0.66227335524E+02 -0.40984435878E+02  0.49146859073E+03  0.92219181752E+02 0.  0.
          4    1    3    3  502    0 -0.32633035605E+03 -0.45373972881E+03 -0.17461776674E+02  0.55917453127E+03  0.00000000000E+00 0. -1.
         -3    1    3    3    0  502 -0.13355719000E+02 -0.64328492658E+02  0.25567360146E+01  0.65750034956E+02  0.00000000000E+00 0.  1.
         13    1    5    5    0    0 -0.63893102134E+02  0.17871426569E+03 -0.58289181481E+02  0.19854154714E+03  0.00000000000E+00 0. -1.
        -13    1    5    5    0    0 -0.72835782950E+02  0.40558129130E+03 -0.86669432523E+01  0.41216058889E+03  0.00000000000E+00 0.  1.
          3    1    6    6  503    0  0.82281726594E+02  0.18935590239E+02 -0.24447005535E+02  0.87900484575E+02  0.00000000000E+00 0. -1.
         -3    1    6    6    0  503  0.39413323354E+03 -0.85162925763E+02 -0.16537430342E+02  0.40356810616E+03  0.00000000000E+00 0.  1.
<mgrwt>
<rscale>  0 0.17227208E+04</rscale>
<asrwt>0</asrwt>
<pdfrwt beam="1">  1        2 0.14230315E+00 0.17227208E+04</pdfrwt>
<pdfrwt beam="2">  1       -1 0.12340382E+00 0.17227208E+04</pdfrwt>
<totfact> 0.17669868E+01</totfact>
</mgrwt>
</event>
<event>
12    7  0.1707730E-007  0.1883754E+04  0.7818608E-02  0.8662986E-01
         -1   -1    0    0    0  501 -0.00000000000E+00  0.00000000000E+00  0.74353404070E+03  0.74353404070E+03  0.00000000000E+00 0.  1.
          2   -1    0    0  501    0  0.00000000000E+00 -0.00000000000E+00 -0.11931291492E+04  0.11931291492E+04  0.00000000000E+00 0. -1.
         24    2    1    2    0    0 -0.69450353716E+03  0.65234675198E+02  0.43662549036E+01  0.70192292916E+03  0.78012872799E+02 0.  0.
        254    2    1    2    0    0  0.69450353716E+03 -0.65234675198E+02 -0.45396136336E+03  0.12347402607E+04  0.91209202716E+03 0.  0.
         23    2    4    4    0    0  0.15735578312E+03 -0.89982334738E+02  0.26388423836E+03  0.33326823799E+03  0.92602182226E+02 0.  0.
         23    2    4    4    0    0  0.53714775404E+03  0.24747659540E+02 -0.71784560172E+03  0.90147202271E+03  0.90605427560E+02 0.  0.
          4    1    3    3  502    0 -0.36834830304E+03  0.42079659007E+02 -0.35893701047E+02  0.37247755346E+03  0.00000000000E+00 0. -1.
         -3    1    3    3    0  502 -0.32615523412E+03  0.23155016191E+02  0.40259955950E+02  0.32944537570E+03  0.00000000000E+00 0.  1.
         13    1    5    5    0    0  0.62961572500E+02  0.12226541102E+02  0.75224487769E+02  0.98855305771E+02  0.00000000000E+00 0. -1.
        -13    1    5    5    0    0  0.94394210618E+02 -0.10220887584E+03  0.18865975059E+03  0.23441293222E+03  0.00000000000E+00 0.  1.
          3    1    6    6  503    0  0.12047403624E+03  0.18559149018E+02 -0.22642427015E+03  0.25715051144E+03  0.00000000000E+00 0. -1.
         -3    1    6    6    0  503  0.41667371781E+03  0.61885105223E+01 -0.49142133156E+03  0.64432151127E+03  0.00000000000E+00 0.  1.
<mgrwt>
<rscale>  0 0.18837538E+04</rscale>
<asrwt>0</asrwt>
<pdfrwt beam="1">  1        2 0.18355833E+00 0.18837538E+04</pdfrwt>
<pdfrwt beam="2">  1       -1 0.11438985E+00 0.18837538E+04</pdfrwt>
<totfact> 0.14216215E+01</totfact>
</mgrwt>
</event>
<event>
12    7  0.1904284E-007  0.2493439E+04  0.7818608E-02  0.8405327E-01
          2   -1    0    0  501    0  0.00000000000E+00  0.00000000000E+00  0.24146460306E+04  0.24146460306E+04  0.00000000000E+00 0. -1.
         -1   -1    0    0    0  501 -0.00000000000E+00 -0.00000000000E+00 -0.64370094276E+03  0.64370094276E+03  0.00000000000E+00 0.  1.
         24    2    1    2    0    0  0.36186522830E+03  0.95878502067E+03  0.11967447613E+04  0.15775273338E+04  0.78608560853E+02 0.  0.
        254    2    1    2    0    0 -0.36186522830E+03 -0.95878502067E+03  0.57420032658E+03  0.14808196396E+04  0.90161279422E+03 0.  0.
         23    2    4    4    0    0  0.21010935385E+02 -0.96146437617E+03  0.44924637866E+03  0.10655646081E+04  0.93543676133E+02 0.  0.
         23    2    4    4    0    0 -0.38287616369E+03  0.26793555026E+01  0.12495394791E+03  0.41525503146E+03  0.10110349345E+03 0.  0.
          2    1    3    3  502    0  0.28191392882E+03  0.75664682808E+03  0.89180141019E+03  0.12030376723E+04  0.00000000000E+00 0. -1.
         -1    1    3    3    0  502  0.79951299486E+02  0.20213819259E+03  0.30494335110E+03  0.37448966150E+03  0.00000000000E+00 0.  1.
         13    1    5    5    0    0  0.54917456692E+02 -0.75560017703E+03  0.35305284724E+03  0.83581927922E+03  0.00000000000E+00 0.  1.
        -13    1    5    5    0    0 -0.33906521307E+02 -0.20586419914E+03  0.96193531420E+02  0.22974532892E+03  0.00000000000E+00 0. -1.
          4    1    6    6  503    0 -0.70963910320E+02  0.38667278116E+02  0.12679333987E+02  0.81803425816E+02  0.00000000000E+00 0. -1.
         -4    1    6    6    0  503 -0.31191225337E+03 -0.35987922614E+02  0.11227461393E+03  0.33345160565E+03  0.00000000000E+00 0.  1.
<mgrwt>
<rscale>  0 0.24934393E+04</rscale>
<asrwt>0</asrwt>
<pdfrwt beam="1">  1        2 0.37148400E+00 0.24934393E+04</pdfrwt>
<pdfrwt beam="2">  1       -1 0.99030915E-01 0.24934393E+04</pdfrwt>
<totfact> 0.38564706E+00</totfact>
</mgrwt>
</event>
<event>
12    7  0.1707730E-007  0.2389277E+04  0.7818608E-02  0.8443529E-01
          2   -1    0    0  501    0  0.00000000000E+00  0.00000000000E+00  0.20751881305E+04  0.20751881305E+04  0.00000000000E+00 0. -1.
         -1   -1    0    0    0  501 -0.00000000000E+00 -0.00000000000E+00 -0.68772626238E+03  0.68772626238E+03  0.00000000000E+00 0.  1.
         24    2    1    2    0    0 -0.39027983888E+03  0.19267456824E+03  0.16786745703E+04  0.17360632269E+04  0.80779780361E+02 0.  0.
        254    2    1    2    0    0  0.39027983888E+03 -0.19267456824E+03 -0.29121270223E+03  0.10268511659E+04  0.88327608207E+03 0.  0.
         23    2    4    4    0    0  0.27937383247E+03 -0.22819355325E+03 -0.58698835002E+03  0.69479237888E+03  0.89772438305E+02 0.  0.
         23    2    4    4    0    0  0.11090600641E+03  0.35518985008E+02  0.29577564779E+03  0.33205878705E+03  0.96010747738E+02 0.  0.
          4    1    3    3  502    0 -0.37058169164E+03  0.15927942801E+03  0.15542495331E+04  0.16057373190E+04  0.00000000000E+00 0. -1.
         -3    1    3    3    0  502 -0.19698147239E+02  0.33395140234E+02  0.12442503723E+03  0.13032590796E+03  0.00000000000E+00 0.  1.
         13    1    5    5    0    0  0.17747269014E+03 -0.17478881499E+03 -0.33204264197E+03  0.41509035363E+03  0.00000000000E+00 0.  1.
        -13    1    5    5    0    0  0.10190114233E+03 -0.53404738262E+02 -0.25494570805E+03  0.27970202525E+03  0.00000000000E+00 0. -1.
          2    1    6    6  503    0  0.72308369610E+02  0.80351532396E+01  0.26674756232E+03  0.27649109571E+03  0.00000000000E+00 0. -1.
         -2    1    6    6    0  503  0.38597636803E+02  0.27483831769E+02  0.29028085469E+02  0.55567691345E+02  0.00000000000E+00 0.  1.
<mgrwt>
<rscale>  0 0.23892772E+04</rscale>
<asrwt>0</asrwt>
<pdfrwt beam="1">  1        2 0.31925971E+00 0.23892772E+04</pdfrwt>
<pdfrwt beam="2">  1       -1 0.10580404E+00 0.23892772E+04</pdfrwt>
<totfact> 0.51955304E+00</totfact>
</mgrwt>
</event>
<event>
12    7  0.1707730E-007  0.1663721E+04  0.7818608E-02  0.8782330E-01
          2   -1    0    0  501    0  0.00000000000E+00  0.00000000000E+00  0.25857857539E+04  0.25857857539E+04  0.00000000000E+00 0. -1.
         -1   -1    0    0    0  501 -0.00000000000E+00 -0.00000000000E+00 -0.26761391700E+03  0.26761391700E+03  0.00000000000E+00 0.  1.
         24    2    1    2    0    0 -0.74517900538E+02  0.37562955914E+03  0.15783704103E+04  0.16262528441E+04  0.82429834001E+02 0.  0.
        254    2    1    2    0    0  0.74517900538E+02 -0.37562955914E+03  0.73980142657E+03  0.12271468268E+04  0.90107308280E+03 0.  0.
         23    2    4    4    0    0  0.19354767018E+03  0.55321652311E+02 -0.12196338998E+03  0.25202181001E+03  0.90104041953E+02 0.  0.
         23    2    4    4    0    0 -0.11902976964E+03 -0.43095121145E+03  0.86176481655E+03  0.97512501679E+03  0.91340936060E+02 0.  0.
          4    1    3    3  502    0 -0.89204694158E+02  0.34898632923E+03  0.14190119210E+04  0.14640163139E+04  0.00000000000E+00 0. -1.
         -3    1    3    3    0  502  0.14686793620E+02  0.26643229909E+02  0.15935848928E+03  0.16223653014E+03  0.00000000000E+00 0.  1.
         13    1    5    5    0    0  0.19743091724E+03  0.65011833773E+02 -0.12300950659E+03  0.24153021411E+03  0.00000000000E+00 0.  1.
        -13    1    5    5    0    0 -0.38832470640E+01 -0.96901814619E+01  0.10461166125E+01  0.10491595898E+02  0.00000000000E+00 0. -1.
          3    1    6    6  503    0 -0.10422018434E+03 -0.29509738970E+03  0.67170764004E+03  0.74103675342E+03  0.00000000000E+00 0. -1.
         -3    1    6    6    0  503 -0.14809585307E+02 -0.13585382175E+03  0.19005717651E+03  0.23408826337E+03  0.00000000000E+00 0.  1.
<mgrwt>
<rscale>  0 0.16637214E+04</rscale>
<asrwt>0</asrwt>
<pdfrwt beam="1">  1        2 0.39781317E+00 0.16637214E+04</pdfrwt>
<pdfrwt beam="2">  1       -1 0.41171374E-01 0.16637214E+04</pdfrwt>
<totfact> 0.19515821E+01</totfact>
</mgrwt>
</event>
<event>
12    7  0.1707730E-007  0.1578809E+04  0.7818608E-02  0.8833673E-01
         -1   -1    0    0    0  501 -0.00000000000E+00  0.00000000000E+00  0.35767476665E+03  0.35767476665E+03  0.00000000000E+00 0.  1.
          2   -1    0    0  501    0  0.00000000000E+00 -0.00000000000E+00 -0.17422521938E+04  0.17422521938E+04  0.00000000000E+00 0. -1.
         24    2    1    2    0    0  0.14265225584E+03  0.87617932189E+02 -0.11512202333E+04  0.11659229857E+04  0.77729112161E+02 0.  0.
        254    2    1    2    0    0 -0.14265225584E+03 -0.87617932189E+02 -0.23335719379E+03  0.93400397470E+03  0.88875265217E+03 0.  0.
         23    2    4    4    0    0 -0.14290544222E+03 -0.47213326968E+03 -0.70212040850E+02  0.50630750020E+03  0.89920878135E+02 0.  0.
         23    2    4    4    0    0  0.25318638017E+00  0.38451533749E+03 -0.16314515294E+03  0.42769647450E+03  0.91955557204E+02 0.  0.
          4    1    3    3  502    0  0.73085147973E+02  0.33534462077E+02 -0.79121362207E+03  0.79528925226E+03  0.00000000000E+00 0. -1.
         -3    1    3    3    0  502  0.69567107863E+02  0.54083470112E+02 -0.36000661125E+03  0.37063373346E+03  0.00000000000E+00 0.  1.
         13    1    5    5    0    0 -0.56599964702E+02 -0.69678204837E+02 -0.15049870383E+02  0.91022562215E+02  0.00000000000E+00 0.  1.
        -13    1    5    5    0    0 -0.86305477515E+02 -0.40245506485E+03 -0.55162170467E+02  0.41528493799E+03  0.00000000000E+00 0. -1.
          3    1    6    6  503    0  0.32661050822E+02  0.29685906245E+03 -0.14695912284E+03  0.33284986253E+03  0.00000000000E+00 0. -1.
         -3    1    6    6    0  503 -0.32407864442E+02  0.87656275040E+02 -0.16186030105E+02  0.94846611969E+02  0.00000000000E+00 0.  1.
<mgrwt>
<rscale>  0 0.15788092E+04</rscale>
<asrwt>0</asrwt>
<pdfrwt beam="1">  1        2 0.26803880E+00 0.15788092E+04</pdfrwt>
<pdfrwt beam="2">  1       -1 0.55026887E-01 0.15788092E+04</pdfrwt>
<totfact> 0.33929275E+01</totfact>
</mgrwt>
</event>
<event>
12    7  0.1707730E-007  0.1955479E+04  0.7818608E-02  0.8627723E-01
         -1   -1    0    0    0  501 -0.00000000000E+00  0.00000000000E+00  0.44392621267E+03  0.44392621267E+03  0.00000000000E+00 0.  1.
          2   -1    0    0  501    0  0.00000000000E+00 -0.00000000000E+00 -0.21534541368E+04  0.21534541368E+04  0.00000000000E+00 0. -1.
         24    2    1    2    0    0  0.30979888092E+02  0.46976544995E+03 -0.14834181116E+04  0.15583902116E+04  0.80071383236E+02 0.  0.
        254    2    1    2    0    0 -0.30979888092E+02 -0.46976544995E+03 -0.22610981255E+03  0.10389901379E+04  0.89818457337E+03 0.  0.
         23    2    4    4    0    0  0.31411608071E+03 -0.35243653376E+03 -0.39995702110E+03  0.62517581045E+03  0.89435746488E+02 0.  0.
         23    2    4    4    0    0 -0.34509596880E+03 -0.11732891618E+03  0.17384720855E+03  0.41381432742E+03  0.90344581475E+02 0.  0.
          2    1    3    3  502    0  0.66152968570E+01  0.43381801719E+03 -0.13332442088E+04  0.14020634631E+04  0.00000000000E+00 0. -1.
         -1    1    3    3    0  502  0.24364591235E+02  0.35947432757E+02 -0.15017390277E+03  0.15632674851E+03  0.00000000000E+00 0.  1.
         13    1    5    5    0    0  0.34042518860E+02 -0.54193554868E+01 -0.31852292689E+02  0.46934327030E+02  0.00000000000E+00 0. -1.
        -13    1    5    5    0    0  0.28007356185E+03 -0.34701717828E+03 -0.36810472841E+03  0.57824148342E+03  0.00000000000E+00 0.  1.
          2    1    6    6  503    0 -0.20583561049E+03 -0.49314737511E+02  0.55508235595E+02  0.21881820331E+03  0.00000000000E+00 0.  1.
         -2    1    6    6    0  503 -0.13926035831E+03 -0.68014178671E+02  0.11833897295E+03  0.19499612411E+03  0.00000000000E+00 0. -1.
<mgrwt>
<rscale>  0 0.19554792E+04</rscale>
<asrwt>0</asrwt>
<pdfrwt beam="1">  1        2 0.33130064E+00 0.19554792E+04</pdfrwt>
<pdfrwt beam="2">  1       -1 0.68296341E-01 0.19554792E+04</pdfrwt>
<totfact> 0.12635521E+01</totfact>
</mgrwt>
</event>
<event>
12    7  0.1707730E-007  0.1147657E+04  0.7818608E-02  0.9159948E-01
         -1   -1    0    0    0  501 -0.00000000000E+00  0.00000000000E+00  0.13226003965E+04  0.13226003965E+04  0.00000000000E+00 0.  1.
          2   -1    0    0  501    0  0.00000000000E+00 -0.00000000000E+00 -0.24896334987E+03  0.24896334987E+03  0.00000000000E+00 0. -1.
         24    2    1    2    0    0  0.13854709660E+02  0.45353129196E+02  0.54380773448E+03  0.55199395153E+03  0.81985432480E+02 0.  0.
        254    2    1    2    0    0 -0.13854709660E+02 -0.45353129196E+02  0.52982931219E+03  0.10195697949E+04  0.86980147578E+03 0.  0.
         23    2    4    4    0    0  0.30882861248E+03 -0.25094296581E+03  0.46979723177E+03  0.62178884765E+03  0.86973835710E+02 0.  0.
         23    2    4    4    0    0 -0.32268332214E+03  0.20558983662E+03  0.60032080420E+02  0.39778094724E+03  0.90742074022E+02 0.  0.
          2    1    3    3  502    0 -0.33945879228E+02  0.10488649866E+02  0.20939045627E+03  0.21238337428E+03  0.00000000000E+00 0. -1.
         -1    1    3    3    0  502  0.47800588888E+02  0.34864479331E+02  0.33441727821E+03  0.33961057725E+03  0.00000000000E+00 0.  1.
         13    1    5    5    0    0  0.21815321027E+03 -0.22189690081E+03  0.34130170838E+03  0.46186135786E+03  0.00000000000E+00 0. -1.
        -13    1    5    5    0    0  0.90675402206E+02 -0.29046065008E+02  0.12849552339E+03  0.15992748979E+03  0.00000000000E+00 0.  1.
          2    1    6    6  503    0 -0.71632757051E+02  0.40384380042E+02 -0.24107716826E+02  0.85693243868E+02  0.00000000000E+00 0.  1.
         -2    1    6    6    0  503 -0.25105056509E+03  0.16520545658E+03  0.84139797245E+02  0.31208770337E+03  0.00000000000E+00 0. -1.
<mgrwt>
<rscale>  0 0.11476568E+04</rscale>
<asrwt>0</asrwt>
<pdfrwt beam="1">  1        2 0.38302055E-01 0.11476568E+04</pdfrwt>
<pdfrwt beam="2">  1       -1 0.20347698E+00 0.11476568E+04</pdfrwt>
<totfact> 0.21879655E+01</totfact>
</mgrwt>
</event>
<event>
12    7  0.1707730E-007  0.1214913E+04  0.7818608E-02  0.9099903E-01
          2   -1    0    0  501    0  0.00000000000E+00  0.00000000000E+00  0.43127260516E+03  0.43127260516E+03  0.00000000000E+00 0. -1.
         -1   -1    0    0    0  501 -0.00000000000E+00 -0.00000000000E+00 -0.85561472234E+03  0.85561472234E+03  0.00000000000E+00 0.  1.
         24    2    1    2    0    0 -0.11831391499E+02  0.39323958047E+02 -0.37315037271E+03  0.38383815925E+03  0.80026097891E+02 0.  0.
        254    2    1    2    0    0  0.11831391499E+02 -0.39323958047E+02 -0.51191744478E+02  0.90304916825E+03  0.90066134039E+03 0.  0.
         23    2    4    4    0    0 -0.12437386578E+03  0.64513657643E+02  0.38903068369E+03  0.42224020651E+03  0.85504670211E+02 0.  0.
         23    2    4    4    0    0  0.13620525728E+03 -0.10383761569E+03 -0.44022242817E+03  0.48080896174E+03  0.89707016941E+02 0.  0.
          2    1    3    3  502    0 -0.20208906234E+02  0.42316776598E+02 -0.99015910385E+02  0.10955939021E+03  0.00000000000E+00 0. -1.
         -3    1    3    3    0  502  0.83775147347E+01 -0.29928185506E+01 -0.27413446232E+03  0.27427876904E+03  0.00000000000E+00 0.  1.
         13    1    5    5    0    0 -0.85680138460E+01  0.31347420813E+02  0.32713033557E+02  0.46110890442E+02  0.00000000000E+00 0. -1.
        -13    1    5    5    0    0 -0.11580585193E+03  0.33166236831E+02  0.35631765013E+03  0.37612931607E+03  0.00000000000E+00 0.  1.
          1    1    6    6  503    0  0.76170933212E+02 -0.10559125450E+03 -0.33854588805E+03  0.36271868219E+03  0.00000000000E+00 0. -1.
         -1    1    6    6    0  503  0.60034324067E+02  0.17536388061E+01 -0.10167654012E+03  0.11809027956E+03  0.00000000000E+00 0.  1.
<mgrwt>
<rscale>  0 0.12149127E+04</rscale>
<asrwt>0</asrwt>
<pdfrwt beam="1">  1        2 0.66349633E-01 0.12149127E+04</pdfrwt>
<pdfrwt beam="2">  1       -1 0.13163303E+00 0.12149127E+04</pdfrwt>
<totfact> 0.40473039E+01</totfact>
</mgrwt>
</event>
<event>
12    7  0.1707730E-007  0.2511486E+04  0.7818608E-02  0.8398905E-01
          2   -1    0    0  501    0  0.00000000000E+00  0.00000000000E+00  0.15254287474E+04  0.15254287474E+04  0.00000000000E+00 0. -1.
         -1   -1    0    0    0  501 -0.00000000000E+00 -0.00000000000E+00 -0.10337355139E+04  0.10337355139E+04  0.00000000000E+00 0.  1.
         24    2    1    2    0    0  0.14887616942E+03 -0.20761836707E+02  0.13147041124E+04  0.13264953367E+04  0.92454353117E+02 0.  0.
        254    2    1    2    0    0 -0.14887616942E+03  0.20761836707E+02 -0.82301087897E+03  0.12326689246E+04  0.90527929568E+03 0.  0.
         23    2    4    4    0    0 -0.39412524028E+03 -0.29868738558E+03 -0.42149910804E+03  0.65686705541E+03  0.96249525139E+02 0.  0.
         23    2    4    4    0    0  0.24524907086E+03  0.31944922228E+03 -0.40151177094E+03  0.57580186922E+03  0.90228476817E+02 0.  0.
          4    1    3    3  502    0  0.13146816997E+03  0.17446297978E+02  0.90884441148E+03  0.91846960609E+03  0.00000000000E+00 0. -1.
         -3    1    3    3    0  502  0.17407999442E+02 -0.38208134685E+02  0.40585970091E+03  0.40802573059E+03  0.00000000000E+00 0.  1.
         13    1    5    5    0    0 -0.87514612627E+02 -0.88448846408E+02 -0.15837261458E+03  0.20140479364E+03  0.00000000000E+00 0. -1.
        -13    1    5    5    0    0 -0.30661062765E+03 -0.21023853917E+03 -0.26312649346E+03  0.45546226177E+03  0.00000000000E+00 0.  1.
          3    1    6    6  503    0  0.99827559462E+02  0.74070271200E+02 -0.15591828895E+03  0.19940526456E+03  0.00000000000E+00 0. -1.
         -3    1    6    6    0  503  0.14542151140E+03  0.24537895108E+03 -0.24559348198E+03  0.37639660467E+03  0.00000000000E+00 0.  1.
<mgrwt>
<rscale>  0 0.25114855E+04</rscale>
<asrwt>0</asrwt>
<pdfrwt beam="1">  1        2 0.23468135E+00 0.25114855E+04</pdfrwt>
<pdfrwt beam="2">  1       -1 0.15903623E+00 0.25114855E+04</pdfrwt>
<totfact> 0.37043175E+00</totfact>
</mgrwt>
</event>
<event>
12    7  0.1707730E-007  0.2219572E+04  0.7818608E-02  0.8510326E-01
          2   -1    0    0  501    0  0.00000000000E+00  0.00000000000E+00  0.10219012210E+04  0.10219012210E+04  0.00000000000E+00 0. -1.
         -1   -1    0    0    0  501 -0.00000000000E+00 -0.00000000000E+00 -0.12052288604E+04  0.12052288604E+04  0.00000000000E+00 0.  1.
         24    2    1    2    0    0 -0.59608799311E+03 -0.57863311474E+03 -0.50484763879E+03  0.97540662580E+03  0.80061040847E+02 0.  0.
        254    2    1    2    0    0  0.59608799311E+03  0.57863311474E+03  0.32151999939E+03  0.12517234557E+04  0.87937439269E+03 0.  0.
         23    2    4    4    0    0  0.12751765797E+03 -0.21211533508E+03  0.17469260841E+03  0.31607561311E+03  0.90181025171E+02 0.  0.
         23    2    4    4    0    0  0.46857033514E+03  0.79074844983E+03  0.14682739098E+03  0.93564784258E+03  0.95064886785E+02 0.  0.
          2    1    3    3  502    0 -0.24408318105E+03 -0.22505651887E+03 -0.15741783311E+03  0.36743354520E+03  0.00000000000E+00 0. -1.
         -1    1    3    3    0  502 -0.35200481206E+03 -0.35357659587E+03 -0.34742980568E+03  0.60797308060E+03  0.00000000000E+00 0.  1.
         13    1    5    5    0    0  0.12413035837E+03 -0.18563735322E+03  0.11610659315E+03  0.25169488226E+03  0.00000000000E+00 0. -1.
        -13    1    5    5    0    0  0.33872996003E+01 -0.26477981860E+02  0.58586015259E+02  0.64380730859E+02  0.00000000000E+00 0.  1.
          3    1    6    6  503    0  0.10316522398E+03  0.24310515546E+03  0.67102836369E+02  0.27248113825E+03  0.00000000000E+00 0. -1.
         -3    1    6    6    0  503  0.36540511116E+03  0.54764329436E+03  0.79724554607E+02  0.66316670433E+03  0.00000000000E+00 0.  1.
<mgrwt>
<rscale>  0 0.22195719E+04</rscale>
<asrwt>0</asrwt>
<pdfrwt beam="1">  1        2 0.15721557E+00 0.22195719E+04</pdfrwt>
<pdfrwt beam="2">  1       -1 0.18541982E+00 0.22195719E+04</pdfrwt>
<totfact> 0.48313367E+00</totfact>
</mgrwt>
</event>
<event>
12    7  0.1707730E-007  0.1370728E+04  0.7818608E-02  0.8975284E-01
         -1   -1    0    0    0  501 -0.00000000000E+00  0.00000000000E+00  0.32469804582E+03  0.32469804582E+03  0.00000000000E+00 0.  1.
          2   -1    0    0  501    0  0.00000000000E+00 -0.00000000000E+00 -0.14466474589E+04  0.14466474589E+04  0.00000000000E+00 0. -1.
         24    2    1    2    0    0  0.60870703497E+02 -0.34045115625E+03 -0.56602712642E+03  0.66809669427E+03  0.79713566671E+02 0.  0.
        254    2    1    2    0    0 -0.60870703497E+02  0.34045115625E+03 -0.55592228667E+03  0.11032488105E+04  0.88797303823E+03 0.  0.
         23    2    4    4    0    0 -0.33378787085E+03 -0.30543416524E+02 -0.52922936974E+03  0.63300648041E+03  0.90918839799E+02 0.  0.
         23    2    4    4    0    0  0.27291716736E+03  0.37099457277E+03 -0.26692916938E+02  0.47024233005E+03  0.91074606190E+02 0.  0.
          2    1    3    3  502    0  0.12067558829E+02 -0.18779639483E+03 -0.36815474919E+03  0.41346224887E+03  0.00000000000E+00 0. -1.
         -3    1    3    3    0  502  0.48803144668E+02 -0.15265476141E+03 -0.19787237723E+03  0.25463444540E+03  0.00000000000E+00 0.  1.
         13    1    5    5    0    0 -0.21012274879E+03 -0.63006046873E+02 -0.32802970428E+03  0.39461984035E+03  0.00000000000E+00 0. -1.
        -13    1    5    5    0    0 -0.12366512206E+03  0.32462630349E+02 -0.20119966545E+03  0.23838664006E+03  0.00000000000E+00 0.  1.
          4    1    6    6  503    0  0.13556641939E+03  0.25025075759E+03  0.49107115313E+01  0.28465384387E+03  0.00000000000E+00 0. -1.
         -4    1    6    6    0  503  0.13735074796E+03  0.12074381518E+03 -0.31603628469E+02  0.18558848618E+03  0.00000000000E+00 0.  1.
<mgrwt>
<rscale>  0 0.13707277E+04</rscale>
<asrwt>0</asrwt>
<pdfrwt beam="1">  1        2 0.22256115E+00 0.13707277E+04</pdfrwt>
<pdfrwt beam="2">  1       -1 0.49953545E-01 0.13707277E+04</pdfrwt>
<totfact> 0.60815457E+01</totfact>
</mgrwt>
</event>
<event>
12    7  0.1707730E-007  0.1513023E+04  0.7818608E-02  0.8875839E-01
         -1   -1    0    0    0  501 -0.00000000000E+00  0.00000000000E+00  0.58198129048E+03  0.58198129048E+03  0.00000000000E+00 0.  1.
          2   -1    0    0  501    0  0.00000000000E+00 -0.00000000000E+00 -0.98338110931E+03  0.98338110931E+03  0.00000000000E+00 0. -1.
         24    2    1    2    0    0 -0.10791135998E+03 -0.31148138896E+03 -0.56581780650E+03  0.65952379123E+03  0.78462244215E+02 0.  0.
        254    2    1    2    0    0  0.10791135998E+03  0.31148138896E+03  0.16441798768E+03  0.90583860856E+03  0.82755349846E+03 0.  0.
         23    2    4    4    0    0 -0.29913996298E+02 -0.67465457551E+02 -0.27696295518E+03  0.30123806504E+03  0.92679329665E+02 0.  0.
         23    2    4    4    0    0  0.13782535627E+03  0.37894684651E+03  0.44138094286E+03  0.60460054353E+03  0.90156193367E+02 0.  0.
          4    1    3    3  502    0 -0.59824004915E+02 -0.26553659274E+03 -0.46244357560E+03  0.53660288320E+03  0.00000000000E+00 0. -1.
         -3    1    3    3    0  502 -0.48087355061E+02 -0.45944796223E+02 -0.10337423090E+03  0.12292090803E+03  0.00000000000E+00 0.  1.
         13    1    5    5    0    0  0.19068134043E+01 -0.69128387034E+02 -0.10095759261E+03  0.12237158713E+03  0.00000000000E+00 0.  1.
        -13    1    5    5    0    0 -0.31820809702E+02  0.16629294823E+01 -0.17600536257E+03  0.17886647791E+03  0.00000000000E+00 0. -1.
          2    1    6    6  503    0 -0.84667937063E+01  0.31450825493E+01  0.46538139815E+01  0.10160517924E+02  0.00000000000E+00 0.  1.
         -2    1    6    6    0  503  0.14629214998E+03  0.37580176396E+03  0.43672712888E+03  0.59444002560E+03  0.00000000000E+00 0. -1.
<mgrwt>
<rscale>  0 0.15130227E+04</rscale>
<asrwt>0</asrwt>
<pdfrwt beam="1">  1        2 0.15128940E+00 0.15130227E+04</pdfrwt>
<pdfrwt beam="2">  1       -1 0.89535584E-01 0.15130227E+04</pdfrwt>
<totfact> 0.34751864E+01</totfact>
</mgrwt>
</event>
<event>
12    7  0.1707730E-007  0.1798668E+04  0.7818608E-02  0.8707008E-01
          2   -1    0    0  501    0  0.00000000000E+00  0.00000000000E+00  0.14860548139E+04  0.14860548139E+04  0.00000000000E+00 0. -1.
         -1   -1    0    0    0  501 -0.00000000000E+00 -0.00000000000E+00 -0.54426087667E+03  0.54426087667E+03  0.00000000000E+00 0.  1.
         24    2    1    2    0    0  0.32255919711E+03  0.64472674013E+02  0.10042444549E+04  0.10596740342E+04  0.78746251858E+02 0.  0.
        254    2    1    2    0    0 -0.32255919711E+03 -0.64472674013E+02 -0.62450517711E+02  0.97064165635E+03  0.91106750384E+03 0.  0.
         23    2    4    4    0    0 -0.32272188664E+03  0.27010419176E+03 -0.32214694269E+03  0.53738663781E+03  0.88882255210E+02 0.  0.
         23    2    4    4    0    0  0.16268952614E+00 -0.33457686577E+03  0.25969642498E+03  0.43325501855E+03  0.91246766370E+02 0.  0.
          4    1    3    3  502    0  0.20813317581E+03  0.36837774327E+02  0.51977133134E+03  0.56110487199E+03  0.00000000000E+00 0. -1.
         -3    1    3    3    0  502  0.11442602130E+03  0.27634899686E+02  0.48447312358E+03  0.49856916220E+03  0.00000000000E+00 0.  1.
         13    1    5    5    0    0 -0.43629126524E+02  0.82977574378E+02 -0.79439222858E+02  0.12287948836E+03  0.00000000000E+00 0. -1.
        -13    1    5    5    0    0 -0.27909276011E+03  0.18712661738E+03 -0.24270771983E+03  0.41450714945E+03  0.00000000000E+00 0.  1.
          3    1    6    6  503    0 -0.34017612120E+02 -0.74028443951E+02  0.84791262687E+02  0.11758812302E+03  0.00000000000E+00 0. -1.
         -3    1    6    6    0  503  0.34180301646E+02 -0.26054842182E+03  0.17490516229E+03  0.31566689552E+03  0.00000000000E+00 0.  1.
<mgrwt>
<rscale>  0 0.17986678E+04</rscale>
<asrwt>0</asrwt>
<pdfrwt beam="1">  1        2 0.22862382E+00 0.17986678E+04</pdfrwt>
<pdfrwt beam="2">  1       -1 0.83732443E-01 0.17986678E+04</pdfrwt>
<totfact> 0.19670628E+01</totfact>
</mgrwt>
</event>
<event>
12    7  0.1707730E-007  0.1256022E+04  0.7818608E-02  0.9065186E-01
          2   -1    0    0  501    0  0.00000000000E+00  0.00000000000E+00  0.88296071048E+03  0.88296071048E+03  0.00000000000E+00 0. -1.
         -1   -1    0    0    0  501 -0.00000000000E+00 -0.00000000000E+00 -0.44667662182E+03  0.44667662182E+03  0.00000000000E+00 0.  1.
         24    2    1    2    0    0 -0.15698292391E+03  0.27146153102E+03  0.22589639736E+03  0.39487665674E+03  0.81014754677E+02 0.  0.
        254    2    1    2    0    0  0.15698292391E+03 -0.27146153102E+03  0.21038769131E+03  0.93476067556E+03  0.85509036873E+03 0.  0.
         23    2    4    4    0    0  0.84807018964E+02 -0.13162318601E+03 -0.32360898921E+03  0.37061581337E+03  0.90091118640E+02 0.  0.
         23    2    4    4    0    0  0.72175904949E+02 -0.13983834501E+03  0.53399668052E+03  0.56414486219E+03  0.91339185125E+02 0.  0.
          2    1    3    3  502    0 -0.45623062683E+02  0.90799201441E+02  0.12141044457E+03  0.15832389233E+03  0.00000000000E+00 0. -1.
         -1    1    3    3    0  502 -0.11135986123E+03  0.18066232958E+03  0.10448595279E+03  0.23655276441E+03  0.00000000000E+00 0.  1.
         13    1    5    5    0    0 -0.16455500635E+02 -0.27025836255E+02 -0.33825583702E+02  0.46317917043E+02  0.00000000000E+00 0. -1.
        -13    1    5    5    0    0  0.10126251960E+03 -0.10459734976E+03 -0.28978340551E+03  0.32429789633E+03  0.00000000000E+00 0.  1.
          3    1    6    6  503    0  0.43650880494E+01 -0.26056553561E+02  0.24286307123E+03  0.24429586437E+03  0.00000000000E+00 0. -1.
         -3    1    6    6    0  503  0.67810816899E+02 -0.11378179144E+03  0.29113360929E+03  0.31984899783E+03  0.00000000000E+00 0.  1.
<mgrwt>
<rscale>  0 0.12560221E+04</rscale>
<asrwt>0</asrwt>
<pdfrwt beam="1">  1        2 0.13584011E+00 0.12560221E+04</pdfrwt>
<pdfrwt beam="2">  1       -1 0.68719480E-01 0.12560221E+04</pdfrwt>
<totfact> 0.72424985E+01</totfact>
</mgrwt>
</event>
<event>
12    7  0.1707730E-007  0.2069325E+04  0.7818608E-02  0.8574878E-01
         -1   -1    0    0    0  501 -0.00000000000E+00  0.00000000000E+00  0.12366153466E+04  0.12366153466E+04  0.00000000000E+00 0.  1.
          2   -1    0    0  501    0  0.00000000000E+00 -0.00000000000E+00 -0.86569051246E+03  0.86569051246E+03  0.00000000000E+00 0. -1.
         24    2    1    2    0    0  0.54355891478E+02 -0.79795418446E+03 -0.93263918918E+02  0.80920551535E+03  0.80187056751E+02 0.  0.
        254    2    1    2    0    0 -0.54355891478E+02  0.79795418446E+03  0.46418875306E+03  0.12931003437E+04  0.90385389141E+03 0.  0.
         23    2    4    4    0    0 -0.16076858814E+03  0.61606078464E+03 -0.13132152265E+03  0.65497251975E+03  0.79788658468E+02 0.  0.
         23    2    4    4    0    0  0.10641269666E+03  0.18189339982E+03  0.59551027572E+03  0.63812782396E+03  0.90364596627E+02 0.  0.
          4    1    3    3  502    0 -0.13469520147E+02 -0.98877859275E+02 -0.28964284770E+02  0.10390952228E+03  0.00000000000E+00 0. -1.
         -3    1    3    3    0  502  0.67825411625E+02 -0.69907632518E+03 -0.64299634148E+02  0.70529599307E+03  0.00000000000E+00 0.  1.
         13    1    5    5    0    0 -0.14622023249E+03  0.60401401909E+03 -0.13441922173E+03  0.63583159627E+03  0.00000000000E+00 0.  1.
        -13    1    5    5    0    0 -0.14548355648E+02  0.12046765549E+02  0.30976990756E+01  0.19140923484E+02  0.00000000000E+00 0. -1.
          2    1    6    6  503    0  0.27153809199E+02  0.10676450441E+02  0.29465660304E+02  0.41467349628E+02  0.00000000000E+00 0. -1.
         -2    1    6    6    0  503  0.79258887462E+02  0.17121694938E+03  0.56604461541E+03  0.59666047433E+03  0.00000000000E+00 0.  1.
<mgrwt>
<rscale>  0 0.20693247E+04</rscale>
<asrwt>0</asrwt>
<pdfrwt beam="1">  1        2 0.13318316E+00 0.20693247E+04</pdfrwt>
<pdfrwt beam="2">  1       -1 0.19024851E+00 0.20693247E+04</pdfrwt>
<totfact> 0.57414347E+00</totfact>
</mgrwt>
</event>
<event>
12    7  0.1707730E-007  0.1327877E+04  0.7818608E-02  0.9007746E-01
          2   -1    0    0  501    0  0.00000000000E+00  0.00000000000E+00  0.18051205089E+04  0.18051205089E+04  0.00000000000E+00 0. -1.
         -1   -1    0    0    0  501 -0.00000000000E+00 -0.00000000000E+00 -0.24420232076E+03  0.24420232076E+03  0.00000000000E+00 0.  1.
         24    2    1    2    0    0 -0.33056109818E+02  0.33732789249E+03  0.33950611811E+03  0.48617548226E+03  0.78863057715E+02 0.  0.
        254    2    1    2    0    0  0.33056109818E+02 -0.33732789249E+03  0.12214120700E+04  0.15631473474E+04  0.91471272616E+03 0.  0.
         23    2    4    4    0    0  0.24258611586E+03 -0.50729078706E+03  0.40638314980E+03  0.69980735385E+03  0.91602957478E+02 0.  0.
         23    2    4    4    0    0 -0.20953000604E+03  0.16996289457E+03  0.81502892022E+03  0.86333999354E+03  0.91069175258E+02 0.  0.
          2    1    3    3  502    0 -0.29528756990E+02  0.25654498022E+03  0.20707301057E+03  0.33100831723E+03  0.00000000000E+00 0. -1.
         -1    1    3    3    0  502 -0.35273528272E+01  0.80782912265E+02  0.13243310755E+03  0.15516716504E+03  0.00000000000E+00 0.  1.
         13    1    5    5    0    0  0.23383847633E+03 -0.50045000903E+03  0.41023040118E+03  0.68805495900E+03  0.00000000000E+00 0.  1.
        -13    1    5    5    0    0  0.87476395363E+01 -0.68407780294E+01 -0.38472513856E+01  0.11752394851E+02  0.00000000000E+00 0. -1.
          1    1    6    6  503    0 -0.48979900277E+02  0.14917996970E+02  0.26227036598E+03  0.26722148517E+03  0.00000000000E+00 0. -1.
         -1    1    6    6    0  503 -0.16055010577E+03  0.15504489760E+03  0.55275855424E+03  0.59611850837E+03  0.00000000000E+00 0.  1.
<mgrwt>
<rscale>  0 0.13278774E+04</rscale>
<asrwt>0</asrwt>
<pdfrwt beam="1">  1        2 0.27771084E+00 0.13278774E+04</pdfrwt>
<pdfrwt beam="2">  1       -1 0.37569589E-01 0.13278774E+04</pdfrwt>
<totfact> 0.65246803E+01</totfact>
</mgrwt>
</event>
<event>
12    7  0.1707730E-007  0.1768303E+04  0.7818608E-02  0.8723340E-01
          2   -1    0    0  501    0  0.00000000000E+00  0.00000000000E+00  0.16955759986E+04  0.16955759986E+04  0.00000000000E+00 0. -1.
         -1   -1    0    0    0  501 -0.00000000000E+00 -0.00000000000E+00 -0.46103717039E+03  0.46103717039E+03  0.00000000000E+00 0.  1.
         24    2    1    2    0    0 -0.24153145348E+03 -0.59896084879E+03  0.56543846244E+03  0.86212098568E+03  0.80252088715E+02 0.  0.
        254    2    1    2    0    0  0.24153145348E+03  0.59896084879E+03  0.66910036578E+03  0.12944921833E+04  0.90051272716E+03 0.  0.
         23    2    4    4    0    0  0.53166774653E+03  0.14010273945E+03  0.33029548821E+03  0.64766420526E+03  0.89857904115E+02 0.  0.
         23    2    4    4    0    0 -0.29013629305E+03  0.45885810934E+03  0.33880487756E+03  0.64682797806E+03  0.94169289502E+02 0.  0.
          2    1    3    3  502    0  0.59061211119E+01 -0.23467940033E+02  0.17523412734E+02  0.29878026538E+02  0.00000000000E+00 0. -1.
         -1    1    3    3    0  502 -0.24743757459E+03 -0.57549290875E+03  0.54791504970E+03  0.83224295914E+03  0.00000000000E+00 0.  1.
         13    1    5    5    0    0  0.22847993316E+03  0.53551073203E+02  0.90416263081E+02  0.25148737130E+03  0.00000000000E+00 0. -1.
        -13    1    5    5    0    0  0.30318781338E+03  0.86551666246E+02  0.23987922513E+03  0.39617683395E+03  0.00000000000E+00 0.  1.
          1    1    6    6  503    0 -0.23775332813E+03  0.40638632201E+03  0.25691484416E+03  0.53635969731E+03  0.00000000000E+00 0. -1.
         -1    1    6    6    0  503 -0.52382964924E+02  0.52471787330E+02  0.81890033405E+02  0.11046828075E+03  0.00000000000E+00 0.  1.
<mgrwt>
<rscale>  0 0.17683026E+04</rscale>
<asrwt>0</asrwt>
<pdfrwt beam="1">  1        2 0.26085784E+00 0.17683026E+04</pdfrwt>
<pdfrwt beam="2">  1       -1 0.70928796E-01 0.17683026E+04</pdfrwt>
<totfact> 0.21349952E+01</totfact>
</mgrwt>
</event>
<event>
12    7  0.1707730E-007  0.1299632E+04  0.7818608E-02  0.9029857E-01
          2   -1    0    0  501    0  0.00000000000E+00  0.00000000000E+00  0.12353578037E+04  0.12353578037E+04  0.00000000000E+00 0. -1.
         -1   -1    0    0    0  501 -0.00000000000E+00 -0.00000000000E+00 -0.34181257711E+03  0.34181257711E+03  0.00000000000E+00 0.  1.
         24    2    1    2    0    0  0.15968908148E+03  0.27966394417E+03  0.21002727472E+03  0.39240119935E+03  0.78452028083E+02 0.  0.
        254    2    1    2    0    0 -0.15968908148E+03 -0.27966394417E+03  0.68351795185E+03  0.11847691815E+04  0.91256161348E+03 0.  0.
         23    2    4    4    0    0 -0.43596636284E+03 -0.44705462597E+03  0.45185318917E+03  0.77694306487E+03  0.97697048919E+02 0.  0.
         23    2    4    4    0    0  0.27627728136E+03  0.16739068179E+03  0.23166476269E+03  0.40782611658E+03  0.91130689383E+02 0.  0.
          2    1    3    3  502    0  0.14612274128E+03  0.18484516662E+03  0.15246059945E+03  0.28064893644E+03  0.00000000000E+00 0. -1.
         -1    1    3    3    0  502  0.13566340203E+02  0.94818777558E+02  0.57566675266E+02  0.11175226291E+03  0.00000000000E+00 0.  1.
         13    1    5    5    0    0 -0.23286020483E+03 -0.22186015947E+03  0.17418095022E+03  0.36576605744E+03  0.00000000000E+00 0.  1.
        -13    1    5    5    0    0 -0.20310615801E+03 -0.22519446649E+03  0.27767223894E+03  0.41117700743E+03  0.00000000000E+00 0. -1.
          1    1    6    6  503    0  0.12815645653E+03  0.12525254933E+03  0.99982394808E+02  0.20520418547E+03  0.00000000000E+00 0. -1.
         -1    1    6    6    0  503  0.14812082483E+03  0.42138132465E+02  0.13168236788E+03  0.20262193111E+03  0.00000000000E+00 0.  1.
<mgrwt>
<rscale>  0 0.12996320E+04</rscale>
<asrwt>0</asrwt>
<pdfrwt beam="1">  1        2 0.19005504E+00 0.12996320E+04</pdfrwt>
<pdfrwt beam="2">  1       -1 0.52586551E-01 0.12996320E+04</pdfrwt>
<totfact> 0.73463451E+01</totfact>
</mgrwt>
</event>
<event>
12    7  0.1707730E-007  0.1851505E+04  0.7818608E-02  0.8679379E-01
         -1   -1    0    0    0  501 -0.00000000000E+00  0.00000000000E+00  0.14827945168E+04  0.14827945168E+04  0.00000000000E+00 0.  1.
          2   -1    0    0  501    0  0.00000000000E+00 -0.00000000000E+00 -0.57797447128E+03  0.57797447128E+03  0.00000000000E+00 0. -1.
         24    2    1    2    0    0  0.31227935585E+03 -0.69053146754E+02  0.10457868833E+04  0.10950519357E+04  0.56407477697E+02 0.  0.
        254    2    1    2    0    0 -0.31227935585E+03  0.69053146754E+02 -0.14096683777E+03  0.96571705234E+03  0.90025054438E+03 0.  0.
         23    2    4    4    0    0 -0.59680680359E+03  0.79037598272E+02  0.50581636007E+02  0.61097756320E+03  0.91157984177E+02 0.  0.
         23    2    4    4    0    0  0.28452744774E+03 -0.99844515187E+01 -0.19154847378E+03  0.35473948914E+03  0.89965157489E+02 0.  0.
          2    1    3    3  502    0  0.23999920007E+03 -0.42557618011E+02  0.71424858782E+03  0.75469319070E+03  0.00000000000E+00 0. -1.
         -1    1    3    3    0  502  0.72280155783E+02 -0.26495528743E+02  0.33153829546E+03  0.34035874503E+03  0.00000000000E+00 0.  1.
         13    1    5    5    0    0 -0.16759295155E+03  0.46090774143E+02  0.48655089892E+02  0.18049674413E+03  0.00000000000E+00 0.  1.
        -13    1    5    5    0    0 -0.42921385204E+03  0.32946824130E+02  0.19265461154E+01  0.43048081907E+03  0.00000000000E+00 0. -1.
          4    1    6    6  503    0  0.25587660115E+03 -0.33564114842E+02 -0.18380526778E+03  0.31683396486E+03  0.00000000000E+00 0. -1.
         -4    1    6    6    0  503  0.28650846584E+02  0.23579663323E+02 -0.77432060043E+01  0.37905524289E+02  0.00000000000E+00 0.  1.
<mgrwt>
<rscale>  0 0.18515047E+04</rscale>
<asrwt>0</asrwt>
<pdfrwt beam="1">  1        2 0.88919150E-01 0.18515047E+04</pdfrwt>
<pdfrwt beam="2">  1       -1 0.22812223E+00 0.18515047E+04</pdfrwt>
<totfact> 0.54124145E+00</totfact>
</mgrwt>
</event>
<event>
12    7  0.1707730E-007  0.1537317E+04  0.7818608E-02  0.8860010E-01
         -1   -1    0    0    0  501 -0.00000000000E+00  0.00000000000E+00  0.72672938322E+03  0.72672938322E+03  0.00000000000E+00 0.  1.
          2   -1    0    0  501    0  0.00000000000E+00 -0.00000000000E+00 -0.81300657230E+03  0.81300657230E+03  0.00000000000E+00 0. -1.
         24    2    1    2    0    0  0.26371458436E+03  0.47531815873E+03 -0.49334770829E+02  0.55263056117E+03  0.86567219542E+02 0.  0.
        254    2    1    2    0    0 -0.26371458436E+03 -0.47531815873E+03 -0.36942418252E+02  0.98710539435E+03  0.82312792643E+03 0.  0.
         23    2    4    4    0    0 -0.65360612673E+02  0.51338209488E+02  0.30015840908E+03  0.32471163884E+03  0.91842018811E+02 0.  0.
         23    2    4    4    0    0 -0.19835397169E+03 -0.52665636822E+03 -0.33710082733E+03  0.66239375551E+03  0.91745797053E+02 0.  0.
          2    1    3    3  502    0  0.24847448313E+03  0.39865205232E+03 -0.23612549942E+02  0.47034091902E+03  0.00000000000E+00 0. -1.
         -1    1    3    3    0  502  0.15240101224E+02  0.76666106412E+02 -0.25722220887E+02  0.82289642149E+02  0.00000000000E+00 0.  1.
         13    1    5    5    0    0 -0.27048871701E+02  0.52777826585E+01  0.11433852501E+02  0.29836712840E+02  0.00000000000E+00 0. -1.
        -13    1    5    5    0    0 -0.38311740971E+02  0.46060426829E+02  0.28872455658E+03  0.29487492600E+03  0.00000000000E+00 0.  1.
          2    1    6    6  503    0 -0.31539991590E+02 -0.17957326395E+03 -0.78325329026E+02  0.19843433514E+03  0.00000000000E+00 0. -1.
         -2    1    6    6    0  503 -0.16681398010E+03 -0.34708310427E+03 -0.25877549830E+03  0.46395942037E+03  0.00000000000E+00 0.  1.
<mgrwt>
<rscale>  0 0.15373168E+04</rscale>
<asrwt>0</asrwt>
<pdfrwt beam="1">  1        2 0.12507793E+00 0.15373168E+04</pdfrwt>
<pdfrwt beam="2">  1       -1 0.11180452E+00 0.15373168E+04</pdfrwt>
<totfact> 0.27235339E+01</totfact>
</mgrwt>
</event>
<event>
12    7  0.1707730E-007  0.1072167E+04  0.7818608E-02  0.9232753E-01
         -1   -1    0    0    0  501 -0.00000000000E+00  0.00000000000E+00  0.89308650924E+02  0.89308650924E+02  0.00000000000E+00 0.  1.
          2   -1    0    0  501    0  0.00000000000E+00 -0.00000000000E+00 -0.32178888642E+04  0.32178888642E+04  0.00000000000E+00 0. -1.
         24    2    1    2    0    0  0.39537690998E+02  0.12946892943E+03 -0.40667823565E+03  0.43656162265E+03  0.82906153677E+02 0.  0.
        254    2    1    2    0    0 -0.39537690998E+02 -0.12946892943E+03 -0.27219019776E+04  0.28706358924E+04  0.90192827801E+03 0.  0.
         23    2    4    4    0    0 -0.12050619849E+03  0.30583703146E+03 -0.19140028484E+04  0.19447213084E+04  0.10235247889E+03 0.  0.
         23    2    4    4    0    0  0.80968507490E+02 -0.43530596089E+03 -0.80789912920E+03  0.92591458406E+03  0.92572324328E+02 0.  0.
          2    1    3    3  502    0  0.88718267696E+01  0.11992451074E+03 -0.36262571244E+03  0.38204450645E+03  0.00000000000E+00 0. -1.
         -1    1    3    3    0  502  0.30665864228E+02  0.95444186935E+01 -0.44052523211E+02  0.54517116196E+02  0.00000000000E+00 0.  1.
         13    1    5    5    0    0 -0.17712929519E+02  0.42799881289E+02 -0.12006107755E+03  0.12868659625E+03  0.00000000000E+00 0. -1.
        -13    1    5    5    0    0 -0.10279326897E+03  0.26303715017E+03 -0.17939417708E+04  0.18160347121E+04  0.00000000000E+00 0.  1.
          1    1    6    6  503    0  0.35264978161E+02 -0.56535998205E+02 -0.17052691653E+03  0.18308295125E+03  0.00000000000E+00 0. -1.
         -1    1    6    6    0  503  0.45703529328E+02 -0.37876996268E+03 -0.63737221267E+03  0.74283163281E+03  0.00000000000E+00 0.  1.
<mgrwt>
<rscale>  0 0.10721666E+04</rscale>
<asrwt>0</asrwt>
<pdfrwt beam="1">  1        2 0.49505979E+00 0.10721666E+04</pdfrwt>
<pdfrwt beam="2">  1       -1 0.13739794E-01 0.10721666E+04</pdfrwt>
<totfact> 0.55664957E+01</totfact>
</mgrwt>
</event>
<event>
12    7  0.1707730E-007  0.1475143E+04  0.7818608E-02  0.8901153E-01
          2   -1    0    0  501    0  0.00000000000E+00  0.00000000000E+00  0.13893727220E+04  0.13893727220E+04  0.00000000000E+00 0. -1.
         -1   -1    0    0    0  501 -0.00000000000E+00 -0.00000000000E+00 -0.39155203253E+03  0.39155203253E+03  0.00000000000E+00 0.  1.
         24    2    1    2    0    0  0.45430016677E+03  0.29739527230E+01  0.24662649448E+03  0.52367513044E+03  0.83746812114E+02 0.  0.
        254    2    1    2    0    0 -0.45430016677E+03 -0.29739527230E+01  0.75119419500E+03  0.12572496241E+04  0.89999245150E+03 0.  0.
         23    2    4    4    0    0 -0.12500456323E+03  0.27218775604E+03 -0.74403903615E+02  0.32225350843E+03  0.92731156888E+02 0.  0.
         23    2    4    4    0    0 -0.32929560354E+03 -0.27516170876E+03  0.82559809862E+03  0.93499611566E+03  0.91956268899E+02 0.  0.
          4    1    3    3  502    0  0.34913520218E+03  0.10182960173E+02  0.22668014983E+03  0.41639281022E+03  0.00000000000E+00 0. -1.
         -3    1    3    3    0  502  0.10516496459E+03 -0.72090074498E+01  0.19946344645E+02  0.10728232021E+03  0.00000000000E+00 0.  1.
         13    1    5    5    0    0 -0.10492880010E+03  0.15689677329E+03 -0.10797463583E+02  0.18905881566E+03  0.00000000000E+00 0. -1.
        -13    1    5    5    0    0 -0.20075763126E+02  0.11529098275E+03 -0.63606440032E+02  0.13319469277E+03  0.00000000000E+00 0.  1.
          3    1    6    6  503    0 -0.82988484352E+02 -0.10868392201E+03  0.32783867941E+03  0.35521470008E+03  0.00000000000E+00 0. -1.
         -3    1    6    6    0  503 -0.24630711919E+03 -0.16647778675E+03  0.49775941921E+03  0.57978141558E+03  0.00000000000E+00 0.  1.
<mgrwt>
<rscale>  0 0.14751430E+04</rscale>
<asrwt>0</asrwt>
<pdfrwt beam="1">  1        2 0.21374965E+00 0.14751430E+04</pdfrwt>
<pdfrwt beam="2">  1       -1 0.60238775E-01 0.14751430E+04</pdfrwt>
<totfact> 0.45240253E+01</totfact>
</mgrwt>
</event>
<event>
12    7  0.1707730E-007  0.1797017E+04  0.7818608E-02  0.8707887E-01
         -1   -1    0    0    0  501 -0.00000000000E+00  0.00000000000E+00  0.23689165887E+04  0.23689165887E+04  0.00000000000E+00 0.  1.
          2   -1    0    0  501    0  0.00000000000E+00 -0.00000000000E+00 -0.34079620039E+03  0.34079620039E+03  0.00000000000E+00 0. -1.
         24    2    1    2    0    0 -0.30214206867E+03  0.58714308082E+03  0.91172181814E+03  0.11274721820E+04  0.62689874992E+02 0.  0.
        254    2    1    2    0    0  0.30214206867E+03 -0.58714308082E+03  0.11163985702E+04  0.15822406071E+04  0.90615271579E+03 0.  0.
         23    2    4    4    0    0  0.48540403670E+03 -0.20385225579E+02  0.34205106721E+03  0.60098638699E+03  0.90294343660E+02 0.  0.
         23    2    4    4    0    0 -0.18326196803E+03 -0.56675785524E+03  0.77434750296E+03  0.98125422014E+03  0.91904155469E+02 0.  0.
          4    1    3    3  502    0 -0.16178889772E+02  0.45973005339E+02  0.95834896041E+02  0.10751558489E+03  0.00000000000E+00 0. -1.
         -3    1    3    3    0  502 -0.28596317890E+03  0.54117007548E+03  0.81588692210E+03  0.10199565971E+04  0.00000000000E+00 0.  1.
         13    1    5    5    0    0  0.46460737449E+03 -0.37504133004E+02  0.31351752467E+03  0.56174710564E+03  0.00000000000E+00 0.  1.
        -13    1    5    5    0    0  0.20796662216E+02  0.17118907425E+02  0.28533542549E+02  0.39239281354E+02  0.00000000000E+00 0. -1.
          1    1    6    6  503    0 -0.53635972207E+02 -0.24397227888E+03  0.26212788283E+03  0.36209158694E+03  0.00000000000E+00 0. -1.
         -1    1    6    6    0  503 -0.12962599583E+03 -0.32278557636E+03  0.51221962013E+03  0.61916263320E+03  0.00000000000E+00 0.  1.
<mgrwt>
<rscale>  0 0.17970173E+04</rscale>
<asrwt>0</asrwt>
<pdfrwt beam="1">  1        2 0.52430186E-01 0.17970173E+04</pdfrwt>
<pdfrwt beam="2">  1       -1 0.36444870E+00 0.17970173E+04</pdfrwt>
<totfact> 0.12838161E+00</totfact>
</mgrwt>
</event>
<event>
12    7  0.1707730E-007  0.1408826E+04  0.7818608E-02  0.8947455E-01
         -1   -1    0    0    0  501 -0.00000000000E+00  0.00000000000E+00  0.17304503527E+03  0.17304503527E+03  0.00000000000E+00 0.  1.
          2   -1    0    0  501    0  0.00000000000E+00 -0.00000000000E+00 -0.28674466843E+04  0.28674466843E+04  0.00000000000E+00 0. -1.
         24    2    1    2    0    0  0.14478000333E+03 -0.26688892550E+02 -0.16270305207E+04  0.16358132478E+04  0.83565064878E+02 0.  0.
        254    2    1    2    0    0 -0.14478000333E+03  0.26688892550E+02 -0.10673711283E+04  0.14046784717E+04  0.90120304985E+03 0.  0.
         23    2    4    4    0    0 -0.13086293802E+03  0.33780135774E+03 -0.10364298905E+03  0.38751441479E+03  0.90502412418E+02 0.  0.
         23    2    4    4    0    0 -0.13917065316E+02 -0.31111246519E+03 -0.96372813928E+03  0.10171640570E+04  0.94160191370E+02 0.  0.
          2    1    3    3  502    0  0.10013548224E+03 -0.51511186688E+02 -0.12936823837E+04  0.12985740745E+04  0.00000000000E+00 0. -1.
         -1    1    3    3    0  502  0.44644521095E+02  0.24822294137E+02 -0.33334813707E+03  0.33723917334E+03  0.00000000000E+00 0.  1.
         13    1    5    5    0    0 -0.77842563863E+02  0.94140189636E+02 -0.52509514849E+02  0.13296273614E+03  0.00000000000E+00 0. -1.
        -13    1    5    5    0    0 -0.53020374154E+02  0.24366116810E+03 -0.51133474196E+02  0.25455167864E+03  0.00000000000E+00 0.  1.
          2    1    6    6  503    0 -0.75867484545E+01 -0.28224801149E+03 -0.74971675241E+03  0.80112215522E+03  0.00000000000E+00 0. -1.
         -2    1    6    6    0  503 -0.63303168615E+01 -0.28864453697E+02 -0.21401138687E+03  0.21604190175E+03  0.00000000000E+00 0.  1.
<mgrwt>
<rscale>  0 0.14088256E+04</rscale>
<asrwt>0</asrwt>
<pdfrwt beam="1">  1        2 0.44114561E+00 0.14088256E+04</pdfrwt>
<pdfrwt beam="2">  1       -1 0.26622315E-01 0.14088256E+04</pdfrwt>
<totfact> 0.29502970E+01</totfact>
</mgrwt>
</event>
<event>
12    7  0.1707730E-007  0.1548466E+04  0.7818608E-02  0.8852848E-01
         -1   -1    0    0    0  501 -0.00000000000E+00  0.00000000000E+00  0.30639522847E+03  0.30639522847E+03  0.00000000000E+00 0.  1.
          2   -1    0    0  501    0  0.00000000000E+00 -0.00000000000E+00 -0.19564169565E+04  0.19564169565E+04  0.00000000000E+00 0. -1.
         24    2    1    2    0    0 -0.57882424593E+02 -0.34717376305E+03 -0.24438082816E+02  0.36566307931E+03  0.96084706653E+02 0.  0.
        254    2    1    2    0    0  0.57882424593E+02  0.34717376305E+03 -0.16255836452E+04  0.18971491057E+04  0.91256372089E+03 0.  0.
         23    2    4    4    0    0 -0.39539086165E+03  0.25033776858E+03 -0.58603587795E+03  0.75549060245E+03  0.91241812187E+02 0.  0.
         23    2    4    4    0    0  0.45327328624E+03  0.96835994467E+02 -0.10395477673E+04  0.11416585032E+04  0.88829587821E+02 0.  0.
          2    1    3    3  502    0 -0.30046453486E+02 -0.10130354046E+03 -0.50013372859E+02  0.11690395263E+03  0.00000000000E+00 0. -1.
         -1    1    3    3    0  502 -0.27835971107E+02 -0.24587022260E+03  0.25575290043E+02  0.24875912668E+03  0.00000000000E+00 0.  1.
         13    1    5    5    0    0 -0.27151696543E+03  0.20124713657E+03 -0.46938055668E+03  0.57839431142E+03  0.00000000000E+00 0. -1.
        -13    1    5    5    0    0 -0.12387389622E+03  0.49090632009E+02 -0.11665532127E+03  0.17709629103E+03  0.00000000000E+00 0.  1.
          1    1    6    6  503    0  0.20175595977E+03 -0.23261910156E+00 -0.41708700790E+03  0.46332180347E+03  0.00000000000E+00 0. -1.
         -1    1    6    6    0  503  0.25151732647E+03  0.97068613568E+02 -0.62246075940E+03  0.67833669977E+03  0.00000000000E+00 0.  1.
<mgrwt>
<rscale>  0 0.15484661E+04</rscale>
<asrwt>0</asrwt>
<pdfrwt beam="1">  1        2 0.30098722E+00 0.15484661E+04</pdfrwt>
<pdfrwt beam="2">  1       -1 0.47137727E-01 0.15484661E+04</pdfrwt>
<totfact> 0.34780798E+01</totfact>
</mgrwt>
</event>
<event>
12    7  0.1707730E-007  0.2034671E+04  0.7818608E-02  0.8590580E-01
         -1   -1    0    0    0  501 -0.00000000000E+00  0.00000000000E+00  0.12783602638E+04  0.12783602638E+04  0.00000000000E+00 0.  1.
          2   -1    0    0  501    0  0.00000000000E+00 -0.00000000000E+00 -0.80960857483E+03  0.80960857483E+03  0.00000000000E+00 0. -1.
         24    2    1    2    0    0  0.18774090146E+03 -0.61578716002E+03 -0.39695412008E+03  0.76041407101E+03  0.78844869288E+02 0.  0.
        254    2    1    2    0    0 -0.18774090146E+03  0.61578716002E+03  0.86570580901E+03  0.13275547676E+04  0.77363727977E+03 0.  0.
         23    2    4    4    0    0  0.88792598774E+02  0.66327775566E+03  0.75222964811E+03  0.10109215793E+04  0.91057615255E+02 0.  0.
         23    2    4    4    0    0 -0.27653350023E+03 -0.47490595641E+02  0.11347616091E+03  0.31663318826E+03  0.93024746117E+02 0.  0.
          2    1    3    3  502    0  0.15177335569E+03 -0.43649726811E+03 -0.31950955746E+03  0.56182859830E+03  0.00000000000E+00 0. -1.
         -1    1    3    3    0  502  0.35967545763E+02 -0.17928989191E+03 -0.77444562624E+02  0.19858547270E+03  0.00000000000E+00 0.  1.
         13    1    5    5    0    0 -0.16642631127E+02  0.51698215923E+02  0.50910840985E+02  0.74441899695E+02  0.00000000000E+00 0.  1.
        -13    1    5    5    0    0  0.10543522990E+03  0.61157953973E+03  0.70131880712E+03  0.93647967962E+03  0.00000000000E+00 0. -1.
          4    1    6    6  503    0 -0.10824144142E+03 -0.19174252617E+02 -0.30816420613E+01  0.10996980550E+03  0.00000000000E+00 0. -1.
         -4    1    6    6    0  503 -0.16829205881E+03 -0.28316343024E+02  0.11655780297E+03  0.20666338276E+03  0.00000000000E+00 0.  1.
<mgrwt>
<rscale>  0 0.20346709E+04</rscale>
<asrwt>0</asrwt>
<pdfrwt beam="1">  1        2 0.12455517E+00 0.20346709E+04</pdfrwt>
<pdfrwt beam="2">  1       -1 0.19667081E+00 0.20346709E+04</pdfrwt>
<totfact> 0.56879899E+00</totfact>
</mgrwt>
</event>
<event>
12    7  0.1707730E-007  0.1120612E+04  0.7818608E-02  0.9185331E-01
          2   -1    0    0  501    0  0.00000000000E+00  0.00000000000E+00  0.21922157285E+03  0.21922157285E+03  0.00000000000E+00 0. -1.
         -1   -1    0    0    0  501 -0.00000000000E+00 -0.00000000000E+00 -0.14320805208E+04  0.14320805208E+04  0.00000000000E+00 0.  1.
         24    2    1    2    0    0 -0.11242321837E+03 -0.40676424134E+02 -0.42529261614E+03  0.44973164115E+03  0.84209193083E+02 0.  0.
        254    2    1    2    0    0  0.11242321837E+03  0.40676424134E+02 -0.78756633182E+03  0.12015704525E+04  0.89956504703E+03 0.  0.
         23    2    4    4    0    0  0.49376582915E+03  0.23220475332E+02 -0.34706755898E+03  0.61163990921E+03  0.96455189226E+02 0.  0.
         23    2    4    4    0    0 -0.38134261078E+03  0.17455948803E+02 -0.44049877284E+03  0.58993054331E+03  0.90840410127E+02 0.  0.
          4    1    3    3  502    0 -0.65260580128E+02  0.46688743258E+01 -0.11225867232E+03  0.12993364159E+03  0.00000000000E+00 0. -1.
         -3    1    3    3    0  502 -0.47162638238E+02 -0.45345298460E+02 -0.31303394382E+03  0.31979799956E+03  0.00000000000E+00 0.  1.
         13    1    5    5    0    0  0.45229268011E+03  0.19730584413E+02 -0.27879321900E+03  0.53168000094E+03  0.00000000000E+00 0. -1.
        -13    1    5    5    0    0  0.41473149042E+02  0.34898909186E+01 -0.68274339984E+02  0.79959908269E+02  0.00000000000E+00 0.  1.
          4    1    6    6  503    0 -0.46851587998E+02 -0.11728736120E+02 -0.21149773976E+02  0.52725207332E+02  0.00000000000E+00 0.  1.
         -4    1    6    6    0  503 -0.33449102278E+03  0.29184684923E+02 -0.41934899887E+03  0.53720533598E+03  0.00000000000E+00 0. -1.
<mgrwt>
<rscale>  0 0.11206122E+04</rscale>
<asrwt>0</asrwt>
<pdfrwt beam="1">  1        2 0.33726396E-01 0.11206122E+04</pdfrwt>
<pdfrwt beam="2">  1       -1 0.22032008E+00 0.11206122E+04</pdfrwt>
<totfact> 0.19466668E+01</totfact>
</mgrwt>
</event>
<event>
12    7  0.1707730E-007  0.1860505E+04  0.7818608E-02  0.8674769E-01
         -1   -1    0    0    0  501 -0.00000000000E+00  0.00000000000E+00  0.14068279038E+04  0.14068279038E+04  0.00000000000E+00 0.  1.
          2   -1    0    0  501    0  0.00000000000E+00 -0.00000000000E+00 -0.61512102772E+03  0.61512102772E+03  0.00000000000E+00 0. -1.
         24    2    1    2    0    0 -0.45058026816E+03 -0.49045345537E+03  0.62050464884E+03  0.91315649561E+03  0.72536861636E+02 0.  0.
        254    2    1    2    0    0  0.45058026816E+03  0.49045345537E+03  0.17120222722E+03  0.11087924359E+04  0.86979497202E+03 0.  0.
         23    2    4    4    0    0 -0.18354502927E+02  0.51853844678E+03 -0.13108820205E+03  0.54284881563E+03  0.91003908466E+02 0.  0.
         23    2    4    4    0    0  0.46893477109E+03 -0.28084991402E+02  0.30229042927E+03  0.56594362026E+03  0.90686776374E+02 0.  0.
          2    1    3    3  502    0 -0.12739969709E+03 -0.16737202300E+03  0.15892157105E+03  0.26362879708E+03  0.00000000000E+00 0. -1.
         -1    1    3    3    0  502 -0.32318057107E+03 -0.32308143238E+03  0.46158307779E+03  0.64952769854E+03  0.00000000000E+00 0.  1.
         13    1    5    5    0    0  0.32803784722E+02  0.16808013219E+03 -0.24568374778E+02  0.17300469407E+03  0.00000000000E+00 0. -1.
        -13    1    5    5    0    0 -0.51158287648E+02  0.35045831458E+03 -0.10651982727E+03  0.36984412157E+03  0.00000000000E+00 0.  1.
          2    1    6    6  503    0  0.23201470148E+02 -0.21069793530E+02  0.31069889468E+02  0.44131422456E+02  0.00000000000E+00 0. -1.
         -2    1    6    6    0  503  0.44573330094E+03 -0.70151978718E+01  0.27122053980E+03  0.52181219781E+03  0.00000000000E+00 0.  1.
<mgrwt>
<rscale>  0 0.18605047E+04</rscale>
<asrwt>0</asrwt>
<pdfrwt beam="1">  1        2 0.94634004E-01 0.18605047E+04</pdfrwt>
<pdfrwt beam="2">  1       -1 0.21643506E+00 0.18605047E+04</pdfrwt>
<totfact> 0.60034047E+00</totfact>
</mgrwt>
</event>
<event>
12    7  0.1707730E-007  0.1770926E+04  0.7818608E-02  0.8721915E-01
          2   -1    0    0  501    0  0.00000000000E+00  0.00000000000E+00  0.69254928860E+03  0.69254928860E+03  0.00000000000E+00 0. -1.
         -1   -1    0    0    0  501 -0.00000000000E+00 -0.00000000000E+00 -0.11321141463E+04  0.11321141463E+04  0.00000000000E+00 0.  1.
         24    2    1    2    0    0 -0.55564079927E+03  0.20153407970E+03 -0.48177929198E+03  0.76661885497E+03  0.78996832334E+02 0.  0.
        254    2    1    2    0    0  0.55564079927E+03 -0.20153407970E+03  0.42214434315E+02  0.10580445799E+04  0.87654069587E+03 0.  0.
         23    2    4    4    0    0  0.83693619652E+02 -0.34847851657E+03  0.31571482475E+03  0.48639604376E+03  0.91996534356E+02 0.  0.
         23    2    4    4    0    0  0.47194717961E+03  0.14694443688E+03 -0.27350039044E+03  0.57164853614E+03  0.87480154508E+02 0.  0.
          2    1    3    3  502    0 -0.12712643459E+03  0.14962566993E+02 -0.86290788186E+02  0.15437327783E+03  0.00000000000E+00 0. -1.
         -1    1    3    3    0  502 -0.42851436467E+03  0.18657151271E+03 -0.39548850380E+03  0.61224557713E+03  0.00000000000E+00 0.  1.
         13    1    5    5    0    0  0.21976306504E+02 -0.48889830753E+02  0.95420332344E+02  0.10944502466E+03  0.00000000000E+00 0. -1.
        -13    1    5    5    0    0  0.61717313149E+02 -0.29958868582E+03  0.22029449241E+03  0.37695101910E+03  0.00000000000E+00 0.  1.
          3    1    6    6  503    0  0.32347319976E+03  0.67450985815E+02 -0.21077276237E+03  0.39193073853E+03  0.00000000000E+00 0. -1.
         -3    1    6    6    0  503  0.14847397986E+03  0.79493451061E+02 -0.62727628067E+02  0.17971779761E+03  0.00000000000E+00 0.  1.
<mgrwt>
<rscale>  0 0.17709261E+04</rscale>
<asrwt>0</asrwt>
<pdfrwt beam="1">  1        2 0.10654604E+00 0.17709261E+04</pdfrwt>
<pdfrwt beam="2">  1       -1 0.17417141E+00 0.17709261E+04</pdfrwt>
<totfact> 0.10292036E+01</totfact>
</mgrwt>
</event>
<event>
12    7  0.1707730E-007  0.2256625E+04  0.7818608E-02  0.8495222E-01
          2   -1    0    0  501    0  0.00000000000E+00  0.00000000000E+00  0.15417740016E+04  0.15417740016E+04  0.00000000000E+00 0. -1.
         -1   -1    0    0    0  501 -0.00000000000E+00 -0.00000000000E+00 -0.82573008693E+03  0.82573008693E+03  0.00000000000E+00 0.  1.
         24    2    1    2    0    0  0.62900760359E+03  0.79372932445E+01  0.10403340905E+04  0.12183338513E+04  0.79553676180E+02 0.  0.
        254    2    1    2    0    0 -0.62900760359E+03 -0.79372932445E+01 -0.32429017581E+03  0.11491702372E+04  0.90538088671E+03 0.  0.
         23    2    4    4    0    0  0.33878910759E+02 -0.28529096228E+03  0.90733333156E+02  0.31441335778E+03  0.89913892430E+02 0.  0.
         23    2    4    4    0    0 -0.66288651435E+03  0.27735366904E+03 -0.41502350897E+03  0.83475687945E+03  0.90724562085E+02 0.  0.
          2    1    3    3  502    0  0.43047990388E+03  0.16801612836E+02  0.77687685352E+03  0.88833151885E+03  0.00000000000E+00 0. -1.
         -1    1    3    3    0  502  0.19852769971E+03 -0.88643195911E+01  0.26345723694E+03  0.33000233243E+03  0.00000000000E+00 0.  1.
         13    1    5    5    0    0  0.10871752738E+02 -0.13260722913E+03  0.88855924703E+02  0.15999452359E+03  0.00000000000E+00 0. -1.
        -13    1    5    5    0    0  0.23007158021E+02 -0.15268373315E+03  0.18774084531E+01  0.15441883419E+03  0.00000000000E+00 0.  1.
          2    1    6    6  503    0 -0.49392812383E+03  0.23055327926E+03 -0.27584720965E+03  0.61091037735E+03  0.00000000000E+00 0. -1.
         -2    1    6    6    0  503 -0.16895839052E+03  0.46800389775E+02 -0.13917629932E+03  0.22384650210E+03  0.00000000000E+00 0.  1.
<mgrwt>
<rscale>  0 0.22566251E+04</rscale>
<asrwt>0</asrwt>
<pdfrwt beam="1">  1        2 0.23719600E+00 0.22566251E+04</pdfrwt>
<pdfrwt beam="2">  1       -1 0.12703540E+00 0.22566251E+04</pdfrwt>
<totfact> 0.66975858E+00</totfact>
</mgrwt>
</event>
<event>
12    7  0.1707730E-007  0.3342234E+04  0.7818608E-02  0.8152231E-01
         -1   -1    0    0    0  501 -0.00000000000E+00  0.00000000000E+00  0.12531637713E+04  0.12531637713E+04  0.00000000000E+00 0.  1.
          2   -1    0    0  501    0  0.00000000000E+00 -0.00000000000E+00 -0.22284652413E+04  0.22284652413E+04  0.00000000000E+00 0. -1.
         24    2    1    2    0    0 -0.10521497740E+04  0.77736770376E+03  0.45166647591E+03  0.13857086636E+04  0.69758162965E+02 0.  0.
        254    2    1    2    0    0  0.10521497740E+04 -0.77736770376E+03 -0.14269679459E+04  0.20959203489E+04  0.80332116667E+03 0.  0.
         23    2    4    4    0    0  0.18311234369E+03  0.85444815899E+02 -0.53326795179E+03  0.57720651795E+03  0.89228409061E+02 0.  0.
         23    2    4    4    0    0  0.86903743029E+03 -0.86281251966E+03 -0.89369999406E+03  0.15187138310E+04  0.90113937241E+02 0.  0.
          4    1    3    3  502    0 -0.57391520883E+03  0.38828971758E+03  0.21821544883E+03  0.72647474410E+03  0.00000000000E+00 0. -1.
         -3    1    3    3    0  502 -0.47823456515E+03  0.38907798618E+03  0.23345102708E+03  0.65923391954E+03  0.00000000000E+00 0.  1.
         13    1    5    5    0    0  0.89118676644E+02 -0.50963252189E+01 -0.24558619860E+03  0.26130574429E+03  0.00000000000E+00 0. -1.
        -13    1    5    5    0    0  0.93993667048E+02  0.90541141118E+02 -0.28768175319E+03  0.31590077366E+03  0.00000000000E+00 0.  1.
          1    1    6    6  503    0  0.56970314705E+03 -0.61494091748E+03 -0.58181706143E+03  0.10204043810E+04  0.00000000000E+00 0. -1.
         -1    1    6    6    0  503  0.29933428324E+03 -0.24787160218E+03 -0.31188293263E+03  0.49830945000E+03  0.00000000000E+00 0.  1.
<mgrwt>
<rscale>  0 0.33422339E+04</rscale>
<asrwt>0</asrwt>
<pdfrwt beam="1">  1        2 0.34284080E+00 0.33422339E+04</pdfrwt>
<pdfrwt beam="2">  1       -1 0.19279443E+00 0.33422339E+04</pdfrwt>
<totfact> 0.79543158E-01</totfact>
</mgrwt>
</event>
<event>
12    7  0.1707730E-007  0.2254685E+04  0.7818608E-02  0.8496005E-01
          2   -1    0    0  501    0  0.00000000000E+00  0.00000000000E+00  0.12136321164E+04  0.12136321164E+04  0.00000000000E+00 0. -1.
         -1   -1    0    0    0  501 -0.00000000000E+00 -0.00000000000E+00 -0.10471885566E+04  0.10471885566E+04  0.00000000000E+00 0.  1.
         24    2    1    2    0    0  0.14239468780E+03 -0.41316807299E+03 -0.76337932913E+03  0.88331041644E+03  0.80654745641E+02 0.  0.
        254    2    1    2    0    0 -0.14239468780E+03  0.41316807299E+03  0.92982288896E+03  0.13775102566E+04  0.91759457198E+03 0.  0.
         23    2    4    4    0    0  0.17912346119E+03 -0.89041106087E+02 -0.50441300251E+02  0.22655499136E+03  0.93644574935E+02 0.  0.
         23    2    4    4    0    0 -0.32151814900E+03  0.50220917908E+03  0.98026418921E+03  0.11509552652E+04  0.90510564205E+02 0.  0.
          2    1    3    3  502    0  0.87816239932E+01 -0.13843990169E+03 -0.25025710022E+03  0.28613168211E+03  0.00000000000E+00 0. -1.
         -1    1    3    3    0  502  0.13361306381E+03 -0.27472817130E+03 -0.51312222892E+03  0.59717873433E+03  0.00000000000E+00 0.  1.
         13    1    5    5    0    0  0.78791711480E+02 -0.59999985702E+02 -0.68685840745E+02  0.12052334546E+03  0.00000000000E+00 0.  1.
        -13    1    5    5    0    0  0.10033174971E+03 -0.29041120385E+02  0.18244540494E+02  0.10603164590E+03  0.00000000000E+00 0. -1.
          2    1    6    6  503    0 -0.11534172328E+03  0.22271683526E+03  0.48550239679E+03  0.54646050098E+03  0.00000000000E+00 0.  1.
         -2    1    6    6    0  503 -0.20617642572E+03  0.27949234381E+03  0.49476179242E+03  0.60449476426E+03  0.00000000000E+00 0. -1.
<mgrwt>
<rscale>  0 0.22546855E+04</rscale>
<asrwt>0</asrwt>
<pdfrwt beam="1">  1        2 0.18671263E+00 0.22546855E+04</pdfrwt>
<pdfrwt beam="2">  1       -1 0.16110593E+00 0.22546855E+04</pdfrwt>
<totfact> 0.55275883E+00</totfact>
</mgrwt>
</event>
<event>
12    7  0.1707730E-007  0.1507805E+04  0.7818608E-02  0.8879279E-01
          2   -1    0    0  501    0  0.00000000000E+00  0.00000000000E+00  0.76839348153E+03  0.76839348153E+03  0.00000000000E+00 0. -1.
         -1   -1    0    0    0  501 -0.00000000000E+00 -0.00000000000E+00 -0.73968452484E+03  0.73968452484E+03  0.00000000000E+00 0.  1.
         24    2    1    2    0    0 -0.19227622045E+03  0.11275346857E+03 -0.41872958779E+03  0.48108216677E+03  0.80137967707E+02 0.  0.
        254    2    1    2    0    0  0.19227622045E+03 -0.11275346857E+03  0.44743854448E+03  0.10269958396E+04  0.89712636449E+03 0.  0.
         23    2    4    4    0    0  0.27935299856E+03 -0.18253296486E+03  0.67428523343E+03  0.75813172822E+03  0.93524115909E+02 0.  0.
         23    2    4    4    0    0 -0.87076778110E+02  0.69779496286E+02 -0.22684668895E+03  0.26886411139E+03  0.91525661516E+02 0.  0.
          2    1    3    3  502    0 -0.12249012949E+03  0.46823851106E+02 -0.17167089886E+03  0.21602592985E+03  0.00000000000E+00 0. -1.
         -1    1    3    3    0  502 -0.69786090956E+02  0.65929617464E+02 -0.24705868893E+03  0.26505623691E+03  0.00000000000E+00 0.  1.
         13    1    5    5    0    0  0.17857710790E+03 -0.16708076710E+03  0.46979427758E+03  0.52963424120E+03  0.00000000000E+00 0. -1.
        -13    1    5    5    0    0  0.10077589065E+03 -0.15452197751E+02  0.20449095585E+03  0.22849748702E+03  0.00000000000E+00 0.  1.
          2    1    6    6  503    0 -0.86823534547E+02  0.17043797472E+02 -0.11404448285E+03  0.14434320646E+03  0.00000000000E+00 0.  1.
         -2    1    6    6    0  503 -0.25324356245E+00  0.52735698815E+02 -0.11280220610E+03  0.12452090492E+03  0.00000000000E+00 0. -1.
<mgrwt>
<rscale>  0 0.15078047E+04</rscale>
<asrwt>0</asrwt>
<pdfrwt beam="1">  1        2 0.11821438E+00 0.15078047E+04</pdfrwt>
<pdfrwt beam="2">  1       -1 0.11379762E+00 0.15078047E+04</pdfrwt>
<totfact> 0.28208485E+01</totfact>
</mgrwt>
</event>
<event>
12    7  0.1707730E-007  0.1547832E+04  0.7818608E-02  0.8853254E-01
         -1   -1    0    0    0  501 -0.00000000000E+00  0.00000000000E+00  0.10766866253E+04  0.10766866253E+04  0.00000000000E+00 0.  1.
          2   -1    0    0  501    0  0.00000000000E+00 -0.00000000000E+00 -0.55628594376E+03  0.55628594376E+03  0.00000000000E+00 0. -1.
         24    2    1    2    0    0 -0.19145712491E+03 -0.63065093160E+02 -0.32132163625E+03  0.38765722127E+03  0.79984314871E+02 0.  0.
        254    2    1    2    0    0  0.19145712491E+03  0.63065093160E+02  0.84172231777E+03  0.12453153478E+04  0.89536630408E+03 0.  0.
         23    2    4    4    0    0  0.16459003585E+03  0.41913584964E+03  0.19152784253E+03  0.49797486846E+03  0.92365116794E+02 0.  0.
         23    2    4    4    0    0  0.26867089057E+02 -0.35607075648E+03  0.65019447525E+03  0.74734047931E+03  0.90866452971E+02 0.  0.
          4    1    3    3  502    0 -0.96461255213E+02 -0.68448099956E+02 -0.21170558035E+03  0.24250601827E+03  0.00000000000E+00 0. -1.
         -3    1    3    3    0  502 -0.94995869696E+02  0.53830067957E+01 -0.10961605590E+03  0.14515120300E+03  0.00000000000E+00 0.  1.
         13    1    5    5    0    0  0.49536790499E+00 -0.48918172657E+01  0.30462271779E+01  0.57840094694E+01  0.00000000000E+00 0. -1.
        -13    1    5    5    0    0  0.16409466795E+03  0.42402766690E+03  0.18848161535E+03  0.49219085899E+03  0.00000000000E+00 0.  1.
          1    1    6    6  503    0  0.60549226873E+02 -0.24663744163E+03  0.44691182845E+03  0.51402958952E+03  0.00000000000E+00 0.  1.
         -1    1    6    6    0  503 -0.33682137816E+02 -0.10943331485E+03  0.20328264680E+03  0.23331088979E+03  0.00000000000E+00 0. -1.
<mgrwt>
<rscale>  0 0.15478316E+04</rscale>
<asrwt>0</asrwt>
<pdfrwt beam="1">  1        2 0.85582453E-01 0.15478316E+04</pdfrwt>
<pdfrwt beam="2">  1       -1 0.16564410E+00 0.15478316E+04</pdfrwt>
<totfact> 0.15837461E+01</totfact>
</mgrwt>
</event>
<event>
12    7  0.1707730E-007  0.2647274E+04  0.7818608E-02  0.8352318E-01
          2   -1    0    0  501    0  0.00000000000E+00  0.00000000000E+00  0.23001534846E+04  0.23001534846E+04  0.00000000000E+00 0. -1.
         -1   -1    0    0    0  501 -0.00000000000E+00 -0.00000000000E+00 -0.76169468663E+03  0.76169468663E+03  0.00000000000E+00 0.  1.
         24    2    1    2    0    0  0.29101016834E+03  0.61334001256E+03 -0.41945549797E+03  0.80323274376E+03  0.91471508102E+02 0.  0.
        254    2    1    2    0    0 -0.29101016834E+03 -0.61334001256E+03  0.19579142960E+04  0.22586154275E+04  0.89835536949E+03 0.  0.
         23    2    4    4    0    0 -0.64670361557E+02  0.12009342379E+03  0.10665972095E+04  0.10790895241E+04  0.90553341816E+02 0.  0.
         23    2    4    4    0    0 -0.22633980678E+03 -0.73343343635E+03  0.89131708647E+03  0.11795259033E+04  0.87640711722E+02 0.  0.
          2    1    3    3  502    0  0.20454231354E+03  0.32897173225E+03 -0.25110738099E+03  0.46164366717E+03  0.00000000000E+00 0. -1.
         -1    1    3    3    0  502  0.86467854799E+02  0.28436828031E+03 -0.16834811697E+03  0.34158907659E+03  0.00000000000E+00 0.  1.
         13    1    5    5    0    0 -0.34835757318E+02  0.25971028576E+02  0.12514472694E+03  0.13247349544E+03  0.00000000000E+00 0. -1.
        -13    1    5    5    0    0 -0.29834604239E+02  0.94122395219E+02  0.94145248255E+03  0.94661602870E+03  0.00000000000E+00 0.  1.
          3    1    6    6  503    0 -0.18588744253E+02 -0.18285841300E+03  0.22591074587E+03  0.29123599660E+03  0.00000000000E+00 0. -1.
         -3    1    6    6    0  503 -0.20775106253E+03 -0.55057502335E+03  0.66540634060E+03  0.88828990675E+03  0.00000000000E+00 0.  1.
<mgrwt>
<rscale>  0 0.26472738E+04</rscale>
<asrwt>0</asrwt>
<pdfrwt beam="1">  1        2 0.35386976E+00 0.26472738E+04</pdfrwt>
<pdfrwt beam="2">  1       -1 0.11718380E+00 0.26472738E+04</pdfrwt>
<totfact> 0.29789934E+00</totfact>
</mgrwt>
</event>
<event>
12    7  0.1707730E-007  0.1215936E+04  0.7818608E-02  0.9099021E-01
          2   -1    0    0  501    0  0.00000000000E+00  0.00000000000E+00  0.24812505825E+04  0.24812505825E+04  0.00000000000E+00 0. -1.
         -1   -1    0    0    0  501 -0.00000000000E+00 -0.00000000000E+00 -0.14896726720E+03  0.14896726720E+03  0.00000000000E+00 0.  1.
         24    2    1    2    0    0  0.64517431075E+02 -0.63555856528E+02 -0.90786635293E+01  0.12033844670E+03  0.78721495236E+02 0.  0.
        254    2    1    2    0    0 -0.64517431075E+02  0.63555856528E+02  0.23413619788E+04  0.25098794030E+04  0.89962039544E+03 0.  0.
         23    2    4    4    0    0 -0.38035216643E+02  0.87172483475E+02  0.23962412344E+04  0.23998740358E+04  0.91529310150E+02 0.  0.
         23    2    4    4    0    0 -0.26482214431E+02 -0.23616626947E+02 -0.54879255603E+02  0.11000536719E+03  0.88489521217E+02 0.  0.
          4    1    3    3  502    0 -0.71966756564E+01 -0.10438361370E+02  0.22372365737E+02  0.25715253786E+02  0.00000000000E+00 0. -1.
         -3    1    3    3    0  502  0.71714106731E+02 -0.53117495158E+02 -0.31451029266E+02  0.94623192918E+02  0.00000000000E+00 0.  1.
         13    1    5    5    0    0 -0.17107121923E+02  0.10369894098E+03  0.19657986713E+04  0.19686062431E+04  0.00000000000E+00 0. -1.
        -13    1    5    5    0    0 -0.20928094720E+02 -0.16526457508E+02  0.43044256306E+03  0.43126779272E+03  0.00000000000E+00 0.  1.
          4    1    6    6  503    0  0.21269736841E+02 -0.35764351472E+02 -0.87750284538E+01  0.42526364362E+02  0.00000000000E+00 0. -1.
         -4    1    6    6    0  503 -0.47751951273E+02  0.12147724524E+02 -0.46104227149E+02  0.67479002826E+02  0.00000000000E+00 0.  1.
<mgrwt>
<rscale>  0 0.12159360E+04</rscale>
<asrwt>0</asrwt>
<pdfrwt beam="1">  1        2 0.38173083E+00 0.12159360E+04</pdfrwt>
<pdfrwt beam="2">  1       -1 0.22918043E-01 0.12159360E+04</pdfrwt>
<totfact> 0.65512127E+01</totfact>
</mgrwt>
</event>
<event>
12    7  0.1707730E-007  0.2444638E+04  0.7818608E-02  0.8422978E-01
          2   -1    0    0  501    0  0.00000000000E+00  0.00000000000E+00  0.64318720467E+03  0.64318720467E+03  0.00000000000E+00 0. -1.
         -1   -1    0    0    0  501 -0.00000000000E+00 -0.00000000000E+00 -0.23229056720E+04  0.23229056720E+04  0.00000000000E+00 0.  1.
         24    2    1    2    0    0  0.10507845040E+04 -0.59171560882E+02 -0.67565207074E+03  0.12543189546E+04  0.95712965293E+02 0.  0.
        254    2    1    2    0    0 -0.10507845040E+04  0.59171560882E+02 -0.10040663966E+04  0.17117739221E+04  0.90242522365E+03 0.  0.
         23    2    4    4    0    0 -0.72787863747E+03  0.26077182415E+03 -0.10612200206E+04  0.13159425459E+04  0.87792921066E+02 0.  0.
         23    2    4    4    0    0 -0.32290586648E+03 -0.20160026327E+03  0.57153623959E+02  0.39583137618E+03  0.92222973701E+02 0.  0.
          4    1    3    3  502    0  0.17657022796E+03 -0.23223755664E+00 -0.15600249887E+03  0.23561383446E+03  0.00000000000E+00 0. -1.
         -3    1    3    3    0  502  0.87421427599E+03 -0.58939323325E+02 -0.51964957187E+03  0.10187051201E+04  0.00000000000E+00 0.  1.
         13    1    5    5    0    0 -0.39858826838E+03  0.99689595063E+02 -0.58875114415E+03  0.71794047998E+03  0.00000000000E+00 0. -1.
        -13    1    5    5    0    0 -0.32929036910E+03  0.16108222909E+03 -0.47246887642E+03  0.59800206596E+03  0.00000000000E+00 0.  1.
          1    1    6    6  503    0 -0.81935014234E+02 -0.19317251091E+02  0.39984923608E+02  0.93194940115E+02  0.00000000000E+00 0. -1.
         -1    1    6    6    0  503 -0.24097085224E+03 -0.18228301218E+03  0.17168700352E+02  0.30263643606E+03  0.00000000000E+00 0.  1.
<mgrwt>
<rscale>  0 0.24446376E+04</rscale>
<asrwt>0</asrwt>
<pdfrwt beam="1">  1        2 0.98951880E-01 0.24446376E+04</pdfrwt>
<pdfrwt beam="2">  1       -1 0.35737010E+00 0.24446376E+04</pdfrwt>
<totfact> 0.64663653E-01</totfact>
</mgrwt>
</event>
<event>
12    7  0.1707730E-007  0.1417344E+04  0.7818608E-02  0.8941359E-01
          2   -1    0    0  501    0  0.00000000000E+00  0.00000000000E+00  0.16105932926E+04  0.16105932926E+04  0.00000000000E+00 0. -1.
         -1   -1    0    0    0  501 -0.00000000000E+00 -0.00000000000E+00 -0.31182042842E+03  0.31182042842E+03  0.00000000000E+00 0.  1.
         24    2    1    2    0    0 -0.37286365201E+03 -0.12385998903E+03  0.58903768653E+03  0.71264860204E+03  0.80833371591E+02 0.  0.
        254    2    1    2    0    0  0.37286365201E+03  0.12385998903E+03  0.70973517760E+03  0.12097651189E+04  0.89746254563E+03 0.  0.
         23    2    4    4    0    0  0.56540203306E+03 -0.63695494647E+02  0.17114943631E+03  0.60093035830E+03  0.89936594052E+02 0.  0.
         23    2    4    4    0    0 -0.19253838106E+03  0.18755548367E+03  0.53858574130E+03  0.60883476064E+03  0.91417052042E+02 0.  0.
          2    1    3    3  502    0 -0.27169139672E+02 -0.27826319621E+02  0.33525480696E+02  0.51346120302E+02  0.00000000000E+00 0. -1.
         -1    1    3    3    0  502 -0.34569451234E+03 -0.96033669406E+02  0.55551220584E+03  0.66130248174E+03  0.00000000000E+00 0.  1.
         13    1    5    5    0    0  0.42442639960E+03 -0.86730875711E+02  0.12863482993E+03  0.45189261219E+03  0.00000000000E+00 0. -1.
        -13    1    5    5    0    0  0.14097563346E+03  0.23035381064E+02  0.42514606375E+02  0.14903774611E+03  0.00000000000E+00 0.  1.
          1    1    6    6  503    0 -0.16790647647E+03  0.18394074426E+03  0.42538887821E+03  0.49293253082E+03  0.00000000000E+00 0. -1.
         -1    1    6    6    0  503 -0.24631904582E+02  0.36147394155E+01  0.11319686309E+03  0.11590222982E+03  0.00000000000E+00 0.  1.
<mgrwt>
<rscale>  0 0.14173438E+04</rscale>
<asrwt>0</asrwt>
<pdfrwt beam="1">  1        2 0.24778358E+00 0.14173438E+04</pdfrwt>
<pdfrwt beam="2">  1       -1 0.47972375E-01 0.14173438E+04</pdfrwt>
<totfact> 0.52899536E+01</totfact>
</mgrwt>
</event>
<event>
12    7  0.1707730E-007  0.1663138E+04  0.7818608E-02  0.8782672E-01
          2   -1    0    0  501    0  0.00000000000E+00  0.00000000000E+00  0.14170002299E+04  0.14170002299E+04  0.00000000000E+00 0. -1.
         -1   -1    0    0    0  501 -0.00000000000E+00 -0.00000000000E+00 -0.48800761847E+03  0.48800761847E+03  0.00000000000E+00 0.  1.
         24    2    1    2    0    0  0.53379539377E+02  0.45228709253E+03  0.73798561883E+03  0.87062510643E+03  0.77151234956E+02 0.  0.
        254    2    1    2    0    0 -0.53379539377E+02 -0.45228709253E+03  0.19100699263E+03  0.10343827420E+04  0.90887347654E+03 0.  0.
         23    2    4    4    0    0  0.17736495319E+03  0.21296226159E+03 -0.18887915821E+02  0.29356921354E+03  0.94946712910E+02 0.  0.
         23    2    4    4    0    0 -0.23074449257E+03 -0.66524935411E+03  0.20989490845E+03  0.74081352843E+03  0.94599615788E+02 0.  0.
          2    1    3    3  502    0  0.23744614463E+02  0.17260900739E+03  0.21425424865E+03  0.27615676565E+03  0.00000000000E+00 0. -1.
         -1    1    3    3    0  502  0.29634924913E+02  0.27967808513E+03  0.52373137019E+03  0.59446834078E+03  0.00000000000E+00 0.  1.
         13    1    5    5    0    0  0.47757726123E+02  0.53352359603E+01 -0.65523188457E+01  0.48499464218E+02  0.00000000000E+00 0. -1.
        -13    1    5    5    0    0  0.12960722707E+03  0.20762702563E+03 -0.12335596975E+02  0.24506974932E+03  0.00000000000E+00 0.  1.
          2    1    6    6  503    0 -0.49169877715E+02 -0.71015021110E+02  0.47548383559E+02  0.98598472995E+02  0.00000000000E+00 0. -1.
         -2    1    6    6    0  503 -0.18157461485E+03 -0.59423433300E+03  0.16234652489E+03  0.64221505543E+03  0.00000000000E+00 0.  1.
<mgrwt>
<rscale>  0 0.16631379E+04</rscale>
<asrwt>0</asrwt>
<pdfrwt beam="1">  1        2 0.21800003E+00 0.16631379E+04</pdfrwt>
<pdfrwt beam="2">  1       -1 0.75078096E-01 0.16631379E+04</pdfrwt>
<totfact> 0.27455349E+01</totfact>
</mgrwt>
</event>
<event>
12    7  0.1707730E-007  0.2794733E+04  0.7818608E-02  0.8304905E-01
         -1   -1    0    0    0  501 -0.00000000000E+00  0.00000000000E+00  0.24497896057E+04  0.24497896057E+04  0.00000000000E+00 0.  1.
          2   -1    0    0  501    0  0.00000000000E+00 -0.00000000000E+00 -0.79706142200E+03  0.79706142200E+03  0.00000000000E+00 0. -1.
         24    2    1    2    0    0 -0.92800125873E+03  0.63324228668E+03  0.10327911988E+03  0.11308538696E+04  0.77341890318E+02 0.  0.
        254    2    1    2    0    0  0.92800125873E+03 -0.63324228668E+03  0.15494490639E+04  0.21159971581E+04  0.90247960741E+03 0.  0.
         23    2    4    4    0    0  0.25211195828E+03  0.80007742790E+02  0.43664834005E-01  0.27897740541E+03  0.88694489164E+02 0.  0.
         23    2    4    4    0    0  0.67588930045E+03 -0.71325002947E+03  0.15494053990E+04  0.18370197527E+04  0.91828809686E+02 0.  0.
          4    1    3    3  502    0 -0.74092305469E+02  0.27783088543E+02  0.15448016967E+01  0.79145158734E+02  0.00000000000E+00 0. -1.
         -3    1    3    3    0  502 -0.85390895326E+03  0.60545919813E+03  0.10173431818E+03  0.10517087109E+04  0.00000000000E+00 0.  1.
         13    1    5    5    0    0  0.31379169356E+02  0.13298872041E+02 -0.31288921798E+02  0.46265634053E+02  0.00000000000E+00 0. -1.
        -13    1    5    5    0    0  0.22073278892E+03  0.66708870749E+02  0.31332586632E+02  0.23271177136E+03  0.00000000000E+00 0.  1.
          1    1    6    6  503    0  0.20742956675E+03 -0.16942289374E+03  0.37996121472E+03  0.46486736471E+03  0.00000000000E+00 0. -1.
         -1    1    6    6    0  503  0.46845973370E+03 -0.54382713572E+03  0.11694441843E+04  0.13721523880E+04  0.00000000000E+00 0.  1.
<mgrwt>
<rscale>  0 0.27947328E+04</rscale>
<asrwt>0</asrwt>
<pdfrwt beam="1">  1        2 0.12262483E+00 0.27947328E+04</pdfrwt>
<pdfrwt beam="2">  1       -1 0.37689071E+00 0.27947328E+04</pdfrwt>
<totfact> 0.35273163E-01</totfact>
</mgrwt>
</event>
<event>
12    7  0.1707730E-007  0.1742661E+04  0.7818608E-02  0.8737400E-01
          2   -1    0    0  501    0  0.00000000000E+00  0.00000000000E+00  0.18103554936E+04  0.18103554936E+04  0.00000000000E+00 0. -1.
         -1   -1    0    0    0  501 -0.00000000000E+00 -0.00000000000E+00 -0.41937464935E+03  0.41937464935E+03  0.00000000000E+00 0.  1.
         24    2    1    2    0    0 -0.89907293785E+02 -0.59290582286E+03  0.22560310876E+03  0.64563090005E+03  0.79510126101E+02 0.  0.
        254    2    1    2    0    0  0.89907293785E+02  0.59290582286E+03  0.11653777354E+04  0.15840992428E+04  0.88974406919E+03 0.  0.
         23    2    4    4    0    0  0.44016384296E+03  0.21434984941E+03  0.32887154812E+03  0.59678384767E+03  0.91128475698E+02 0.  0.
         23    2    4    4    0    0 -0.35025654918E+03  0.37855597345E+03  0.83650618733E+03  0.98731539518E+03  0.95209310679E+02 0.  0.
          2    1    3    3  502    0 -0.18666555807E+02 -0.54078438114E+02  0.14931040964E+00  0.57209615172E+02  0.00000000000E+00 0. -1.
         -1    1    3    3    0  502 -0.71240737978E+02 -0.53882738475E+03  0.22545379835E+03  0.58842128488E+03  0.00000000000E+00 0.  1.
         13    1    5    5    0    0  0.33226506136E+03  0.18097871941E+03  0.29215188830E+03  0.47802311002E+03  0.00000000000E+00 0. -1.
        -13    1    5    5    0    0  0.10789878161E+03  0.33371130000E+02  0.36719659821E+02  0.11876073765E+03  0.00000000000E+00 0.  1.
          3    1    6    6  503    0 -0.33883784293E+03  0.37719467662E+03  0.83319863427E+03  0.97534961528E+03  0.00000000000E+00 0. -1.
         -3    1    6    6    0  503 -0.11418706249E+02  0.13612968292E+01  0.33075530624E+01  0.11965779904E+02  0.00000000000E+00 0.  1.
<mgrwt>
<rscale>  0 0.17426614E+04</rscale>
<asrwt>0</asrwt>
<pdfrwt beam="1">  1        2 0.27851622E+00 0.17426614E+04</pdfrwt>
<pdfrwt beam="2">  1       -1 0.64519178E-01 0.17426614E+04</pdfrwt>
<totfact> 0.22405608E+01</totfact>
</mgrwt>
</event>
<event>
12    7  0.1707730E-007  0.2034997E+04  0.7818608E-02  0.8590431E-01
          2   -1    0    0  501    0  0.00000000000E+00  0.00000000000E+00  0.79125049396E+03  0.79125049396E+03  0.00000000000E+00 0. -1.
         -1   -1    0    0    0  501 -0.00000000000E+00 -0.00000000000E+00 -0.13084387669E+04  0.13084387669E+04  0.00000000000E+00 0.  1.
         24    2    1    2    0    0  0.16856716585E+03 -0.20752991028E+03  0.58798799482E+03  0.64977403641E+03  0.70660195879E+02 0.  0.
        254    2    1    2    0    0 -0.16856716585E+03  0.20752991028E+03 -0.11051762677E+04  0.14499152244E+04  0.89964216340E+03 0.  0.
         23    2    4    4    0    0 -0.19969794697E+02  0.22839553748E+03  0.73866254781E+02  0.25803696762E+03  0.92539390646E+02 0.  0.
         23    2    4    4    0    0 -0.14859737115E+03 -0.20865627199E+02 -0.11790425225E+04  0.11918782568E+04  0.88971658561E+02 0.  0.
          2    1    3    3  502    0  0.10690447797E+03 -0.10524988914E+03  0.39834458163E+03  0.42565774079E+03  0.00000000000E+00 0. -1.
         -1    1    3    3    0  502  0.61662687876E+02 -0.10228002114E+03  0.18964341319E+03  0.22411629563E+03  0.00000000000E+00 0.  1.
         13    1    5    5    0    0 -0.28442001274E+02  0.39862296047E+02  0.46150677308E+02  0.67289190057E+02  0.00000000000E+00 0.  1.
        -13    1    5    5    0    0  0.84722065767E+01  0.18853324143E+03  0.27715577473E+02  0.19074777756E+03  0.00000000000E+00 0. -1.
          3    1    6    6  503    0 -0.15497541756E+03 -0.31966845152E+02 -0.11361281438E+04  0.11470947730E+04  0.00000000000E+00 0. -1.
         -3    1    6    6    0  503  0.63780464067E+01  0.11101217954E+02 -0.42914378726E+02  0.44783483757E+02  0.00000000000E+00 0.  1.
<mgrwt>
<rscale>  0 0.20349966E+04</rscale>
<asrwt>0</asrwt>
<pdfrwt beam="1">  1        2 0.12173084E+00 0.20349966E+04</pdfrwt>
<pdfrwt beam="2">  1       -1 0.20129827E+00 0.20349966E+04</pdfrwt>
<totfact> 0.54479502E+00</totfact>
</mgrwt>
</event>
<event>
12    7  0.1707730E-007  0.1755880E+04  0.7818608E-02  0.8730121E-01
         -1   -1    0    0    0  501 -0.00000000000E+00  0.00000000000E+00  0.26304613591E+03  0.26304613591E+03  0.00000000000E+00 0.  1.
          2   -1    0    0  501    0  0.00000000000E+00 -0.00000000000E+00 -0.29302015874E+04  0.29302015874E+04  0.00000000000E+00 0. -1.
         24    2    1    2    0    0 -0.53643702842E+03  0.15308370852E+03 -0.40051600956E+03  0.69130002766E+03  0.79267566247E+02 0.  0.
        254    2    1    2    0    0  0.53643702842E+03 -0.15308370852E+03 -0.22666394419E+04  0.25019476956E+04  0.90049353397E+03 0.  0.
         23    2    4    4    0    0  0.55601400152E+03  0.24555645940E+03 -0.10296263677E+04  0.11988435004E+04  0.87439904082E+02 0.  0.
         23    2    4    4    0    0 -0.19576973095E+02 -0.39864016793E+03 -0.12370130742E+04  0.13031041952E+04  0.92638849249E+02 0.  0.
          4    1    3    3  502    0 -0.28472879686E+03  0.66609798614E+02 -0.16411588127E+03  0.33532279302E+03  0.00000000000E+00 0. -1.
         -3    1    3    3    0  502 -0.25170823156E+03  0.86473909911E+02 -0.23640012829E+03  0.35597723465E+03  0.00000000000E+00 0.  1.
         13    1    5    5    0    0  0.38922957242E+03  0.15073959032E+03 -0.63262845667E+03  0.75791876103E+03  0.00000000000E+00 0.  1.
        -13    1    5    5    0    0  0.16678442910E+03  0.94816869079E+02 -0.39699791103E+03  0.44092473940E+03  0.00000000000E+00 0. -1.
          1    1    6    6  503    0 -0.42086664663E+02 -0.10903060395E+03 -0.29448593862E+03  0.31682949356E+03  0.00000000000E+00 0. -1.
         -1    1    6    6    0  503  0.22509691569E+02 -0.28960956397E+03 -0.94252713561E+03  0.98627470166E+03  0.00000000000E+00 0.  1.
<mgrwt>
<rscale>  0 0.17558795E+04</rscale>
<asrwt>0</asrwt>
<pdfrwt beam="1">  1        2 0.45080024E+00 0.17558795E+04</pdfrwt>
<pdfrwt beam="2">  1       -1 0.40468637E-01 0.17558795E+04</pdfrwt>
<totfact> 0.12423803E+01</totfact>
</mgrwt>
</event>
<event>
12    7  0.1707730E-007  0.2190940E+04  0.7818608E-02  0.8522209E-01
          2   -1    0    0  501    0  0.00000000000E+00  0.00000000000E+00  0.12286353882E+04  0.12286353882E+04  0.00000000000E+00 0. -1.
         -1   -1    0    0    0  501 -0.00000000000E+00 -0.00000000000E+00 -0.97673744083E+03  0.97673744083E+03  0.00000000000E+00 0.  1.
         24    2    1    2    0    0  0.64924210854E+03 -0.41780854172E+03  0.57892997691E+03  0.96808962746E+03  0.77190126364E+02 0.  0.
        254    2    1    2    0    0 -0.64924210854E+03  0.41780854172E+03 -0.32703202957E+03  0.12372832015E+04  0.90985739509E+03 0.  0.
         23    2    4    4    0    0 -0.22981414256E+03  0.63236330759E+03 -0.33523181988E+03  0.75750350427E+03  0.93452089428E+02 0.  0.
         23    2    4    4    0    0 -0.41942796598E+03 -0.21455476587E+03  0.81997903089E+01  0.47977969726E+03  0.90375633544E+02 0.  0.
          2    1    3    3  502    0  0.63177307731E+03 -0.39068912015E+03  0.54523777754E+03  0.92144421636E+03  0.00000000000E+00 0. -1.
         -1    1    3    3    0  502  0.17469031232E+02 -0.27119421575E+02  0.33692199367E+02  0.46645411102E+02  0.00000000000E+00 0.  1.
         13    1    5    5    0    0 -0.17622352575E+03  0.35281006487E+03 -0.20524144880E+03  0.44458264159E+03  0.00000000000E+00 0. -1.
        -13    1    5    5    0    0 -0.53590616805E+02  0.27955324272E+03 -0.12999037108E+03  0.31292086268E+03  0.00000000000E+00 0.  1.
          3    1    6    6  503    0 -0.36258403272E+03 -0.19584940146E+03 -0.22128032782E+02  0.41269094813E+03  0.00000000000E+00 0. -1.
         -3    1    6    6    0  503 -0.56843933257E+02 -0.18705364414E+02  0.30327823091E+02  0.67088749127E+02  0.00000000000E+00 0.  1.
<mgrwt>
<rscale>  0 0.21909397E+04</rscale>
<asrwt>0</asrwt>
<pdfrwt beam="1">  1        2 0.18902083E+00 0.21909397E+04</pdfrwt>
<pdfrwt beam="2">  1       -1 0.15026730E+00 0.21909397E+04</pdfrwt>
<totfact> 0.65937105E+00</totfact>
</mgrwt>
</event>
<event>
12    7  0.1707730E-007  0.1918367E+04  0.7818608E-02  0.8645768E-01
          2   -1    0    0  501    0  0.00000000000E+00  0.00000000000E+00  0.99975533158E+03  0.99975533158E+03  0.00000000000E+00 0. -1.
         -1   -1    0    0    0  501 -0.00000000000E+00 -0.00000000000E+00 -0.92025782845E+03  0.92025782845E+03  0.00000000000E+00 0.  1.
         24    2    1    2    0    0 -0.29529605547E+03 -0.12022113305E+03  0.70509940642E+03  0.77816790600E+03  0.82019728078E+02 0.  0.
        254    2    1    2    0    0  0.29529605547E+03  0.12022113305E+03 -0.62560190328E+03  0.11418452540E+04  0.90043320770E+03 0.  0.
         23    2    4    4    0    0  0.29429282498E+03 -0.30882837818E+03 -0.80691470778E+02  0.44343469181E+03  0.90221829054E+02 0.  0.
         23    2    4    4    0    0  0.10032304942E+01  0.42904951123E+03 -0.54491043250E+03  0.69841056222E+03  0.82252321585E+02 0.  0.
          4    1    3    3  502    0 -0.22644016604E+03 -0.58115791055E+02  0.45737783448E+03  0.51366046902E+03  0.00000000000E+00 0. -1.
         -3    1    3    3    0  502 -0.68855889439E+02 -0.62105341994E+02  0.24772157194E+03  0.26450743698E+03  0.00000000000E+00 0.  1.
         13    1    5    5    0    0  0.22418570292E+03 -0.23489009754E+03 -0.99950272545E+02  0.33973908268E+03  0.00000000000E+00 0.  1.
        -13    1    5    5    0    0  0.70107122060E+02 -0.73938280641E+02  0.19258801766E+02  0.10369560913E+03  0.00000000000E+00 0. -1.
          1    1    6    6  503    0  0.34402252873E+01  0.46510462939E+02 -0.10832257754E+03  0.11793574148E+03  0.00000000000E+00 0. -1.
         -1    1    6    6    0  503 -0.24369947931E+01  0.38253904829E+03 -0.43658785496E+03  0.58047482074E+03  0.00000000000E+00 0.  1.
<mgrwt>
<rscale>  0 0.19183667E+04</rscale>
<asrwt>0</asrwt>
<pdfrwt beam="1">  1        2 0.15380851E+00 0.19183667E+04</pdfrwt>
<pdfrwt beam="2">  1       -1 0.14157813E+00 0.19183667E+04</pdfrwt>
<totfact> 0.10941845E+01</totfact>
</mgrwt>
</event>
<event>
12    7  0.1707730E-007  0.1321879E+04  0.7818608E-02  0.9012392E-01
          2   -1    0    0  501    0  0.00000000000E+00  0.00000000000E+00  0.22909339205E+04  0.22909339205E+04  0.00000000000E+00 0. -1.
         -1   -1    0    0    0  501 -0.00000000000E+00 -0.00000000000E+00 -0.19068264277E+03  0.19068264277E+03  0.00000000000E+00 0.  1.
         24    2    1    2    0    0  0.33327561404E+03 -0.16438636939E+02  0.77365123658E+03  0.84559518230E+03  0.71778219306E+02 0.  0.
        254    2    1    2    0    0 -0.33327561404E+03  0.16438636939E+02  0.13266000412E+04  0.16360213810E+04  0.89741597164E+03 0.  0.
         23    2    4    4    0    0 -0.39534759822E+03  0.39337668346E+03  0.79027059789E+03  0.97156995535E+03  0.91518422874E+02 0.  0.
         23    2    4    4    0    0  0.62071984175E+02 -0.37693804653E+03  0.53632944330E+03  0.66445142567E+03  0.88944944715E+02 0.  0.
          2    1    3    3  502    0  0.29307506424E+03 -0.53575568593E+00  0.61667630853E+03  0.68277591479E+03  0.00000000000E+00 0. -1.
         -1    1    3    3    0  502  0.40200549805E+02 -0.15902881253E+02  0.15697492805E+03  0.16281926751E+03  0.00000000000E+00 0.  1.
         13    1    5    5    0    0 -0.66582532606E+02  0.11087100932E+03  0.22089489542E+03  0.25596907856E+03  0.00000000000E+00 0. -1.
        -13    1    5    5    0    0 -0.32876506561E+03  0.28250567415E+03  0.56937570248E+03  0.71560087679E+03  0.00000000000E+00 0.  1.
          2    1    6    6  503    0  0.63932100227E+02 -0.29202075629E+03  0.46852572705E+03  0.55576954977E+03  0.00000000000E+00 0.  1.
         -2    1    6    6    0  503 -0.18601160525E+01 -0.84917290236E+02  0.67803716254E+02  0.10868187591E+03  0.00000000000E+00 0. -1.
<mgrwt>
<rscale>  0 0.13218795E+04</rscale>
<asrwt>0</asrwt>
<pdfrwt beam="1">  1        2 0.35245135E+00 0.13218795E+04</pdfrwt>
<pdfrwt beam="2">  1       -1 0.29335793E-01 0.13218795E+04</pdfrwt>
<totfact> 0.54418136E+01</totfact>
</mgrwt>
</event>
<event>
12    7  0.1707730E-007  0.2387876E+04  0.7818608E-02  0.8444056E-01
         -1   -1    0    0    0  501 -0.00000000000E+00  0.00000000000E+00  0.59583161353E+03  0.59583161353E+03  0.00000000000E+00 0.  1.
          2   -1    0    0  501    0  0.00000000000E+00 -0.00000000000E+00 -0.23924351536E+04  0.23924351536E+04  0.00000000000E+00 0. -1.
         24    2    1    2    0    0  0.33073758006E+03 -0.27826890438E+03  0.38876742972E+03  0.58680106632E+03  0.79840134116E+02 0.  0.
        254    2    1    2    0    0 -0.33073758006E+03  0.27826890438E+03 -0.21853709698E+04  0.24014657008E+04  0.89686693920E+03 0.  0.
         23    2    4    4    0    0 -0.58433363897E+03  0.21319955284E+03 -0.19084800286E+04  0.20093222049E+04  0.90442538569E+02 0.  0.
         23    2    4    4    0    0  0.25359605891E+03  0.65069351539E+02 -0.27689094123E+03  0.39214349591E+03  0.92536189919E+02 0.  0.
          4    1    3    3  502    0  0.23219877470E+03 -0.14982198192E+03  0.26671094326E+03  0.38405419473E+03  0.00000000000E+00 0. -1.
         -3    1    3    3    0  502  0.98538805359E+02 -0.12844692246E+03  0.12205648646E+03  0.20274687158E+03  0.00000000000E+00 0.  1.
         13    1    5    5    0    0 -0.45824376515E+03  0.12644927081E+03 -0.14612519647E+04  0.15366307529E+04  0.00000000000E+00 0.  1.
        -13    1    5    5    0    0 -0.12608987382E+03  0.86750282031E+02 -0.44722806389E+03  0.47269145205E+03  0.00000000000E+00 0. -1.
          3    1    6    6  503    0  0.10808786692E+03 -0.18832106405E+02 -0.11020832196E+03  0.15551048015E+03  0.00000000000E+00 0. -1.
         -3    1    6    6    0  503  0.14550819199E+03  0.83901457944E+02 -0.16668261927E+03  0.23663301576E+03  0.00000000000E+00 0.  1.
<mgrwt>
<rscale>  0 0.23878765E+04</rscale>
<asrwt>0</asrwt>
<pdfrwt beam="1">  1        2 0.36806695E+00 0.23878765E+04</pdfrwt>
<pdfrwt beam="2">  1       -1 0.91666401E-01 0.23878765E+04</pdfrwt>
<totfact> 0.47682672E+00</totfact>
</mgrwt>
</event>
<event>
12    7  0.1707730E-007  0.1560904E+04  0.7818608E-02  0.8844933E-01
         -1   -1    0    0    0  501 -0.00000000000E+00  0.00000000000E+00  0.68607998093E+03  0.68607998093E+03  0.00000000000E+00 0.  1.
          2   -1    0    0  501    0  0.00000000000E+00 -0.00000000000E+00 -0.88780529251E+03  0.88780529251E+03  0.00000000000E+00 0. -1.
         24    2    1    2    0    0 -0.28077043635E+03 -0.29186749432E+03 -0.39106006505E+03  0.56867285616E+03  0.80263133997E+02 0.  0.
        254    2    1    2    0    0  0.28077043635E+03  0.29186749432E+03  0.18933475347E+03  0.10052124173E+04  0.90032532054E+03 0.  0.
         23    2    4    4    0    0 -0.12175567683E+03  0.38373316316E+03  0.36145707623E+03  0.54886783238E+03  0.92353094770E+02 0.  0.
         23    2    4    4    0    0  0.40252611319E+03 -0.91865668834E+02 -0.17212232276E+03  0.45634458491E+03  0.90320060202E+02 0.  0.
          4    1    3    3  502    0 -0.21367757090E+03 -0.21095801832E+03 -0.33379461650E+03  0.44897687669E+03  0.00000000000E+00 0. -1.
         -3    1    3    3    0  502 -0.67092865457E+02 -0.80909476003E+02 -0.57265448543E+02  0.11969597946E+03  0.00000000000E+00 0.  1.
         13    1    5    5    0    0 -0.95611709267E+01  0.15465387915E+03  0.10512149741E+03  0.18724253668E+03  0.00000000000E+00 0.  1.
        -13    1    5    5    0    0 -0.11219450591E+03  0.22907928401E+03  0.25633557882E+03  0.36162529570E+03  0.00000000000E+00 0. -1.
          1    1    6    6  503    0  0.25946298701E+03 -0.55300393453E+02 -0.15611707405E+03  0.30781766673E+03  0.00000000000E+00 0. -1.
         -1    1    6    6    0  503  0.14306312618E+03 -0.36565275381E+02 -0.16005248705E+02  0.14852691817E+03  0.00000000000E+00 0.  1.
<mgrwt>
<rscale>  0 0.15609041E+04</rscale>
<asrwt>0</asrwt>
<pdfrwt beam="1">  1        2 0.13658543E+00 0.15609041E+04</pdfrwt>
<pdfrwt beam="2">  1       -1 0.10555077E+00 0.15609041E+04</pdfrwt>
<totfact> 0.27599795E+01</totfact>
</mgrwt>
</event>
<event>
12    7  0.1707730E-007  0.1501994E+04  0.7818608E-02  0.8883128E-01
          2   -1    0    0  501    0  0.00000000000E+00  0.00000000000E+00  0.22433291224E+04  0.22433291224E+04  0.00000000000E+00 0. -1.
         -1   -1    0    0    0  501 -0.00000000000E+00 -0.00000000000E+00 -0.25141061006E+03  0.25141061006E+03  0.00000000000E+00 0.  1.
         24    2    1    2    0    0  0.28606910548E+03 -0.16875352858E+03  0.74007114851E+02  0.34945071254E+03  0.79532766364E+02 0.  0.
        254    2    1    2    0    0 -0.28606910548E+03  0.16875352858E+03  0.19179113975E+04  0.21452890199E+04  0.90197980237E+03 0.  0.
         23    2    4    4    0    0 -0.13812378035E+03 -0.18434109596E+03  0.16515857541E+04  0.16699324540E+04  0.88764179595E+02 0.  0.
         23    2    4    4    0    0 -0.14794532513E+03  0.35309462454E+03  0.26632564339E+03  0.47535656588E+03  0.92037401565E+02 0.  0.
          4    1    3    3  502    0  0.39955727853E+01  0.74422305269E+01 -0.10295275225E+01  0.85094843567E+01  0.00000000000E+00 0. -1.
         -3    1    3    3    0  502  0.28207353269E+03 -0.17619575911E+03  0.75036642373E+02  0.34094122818E+03  0.00000000000E+00 0.  1.
         13    1    5    5    0    0  0.29194662502E+01 -0.33089162728E+02  0.39983943729E+03  0.40121688846E+03  0.00000000000E+00 0.  1.
        -13    1    5    5    0    0 -0.14104324660E+03 -0.15125193323E+03  0.12517463168E+04  0.12687155656E+04  0.00000000000E+00 0. -1.
          3    1    6    6  503    0 -0.15962276452E+03  0.34245174626E+03  0.25327168835E+03  0.45486170820E+03  0.00000000000E+00 0. -1.
         -3    1    6    6    0  503  0.11677439394E+02  0.10642878288E+02  0.13053955031E+02  0.20494857672E+02  0.00000000000E+00 0.  1.
<mgrwt>
<rscale>  0 0.15019943E+04</rscale>
<asrwt>0</asrwt>
<pdfrwt beam="1">  1        2 0.34512755E+00 0.15019943E+04</pdfrwt>
<pdfrwt beam="2">  1       -1 0.38678557E-01 0.15019943E+04</pdfrwt>
<totfact> 0.34829506E+01</totfact>
</mgrwt>
</event>
<event>
12    7  0.1707730E-007  0.3819001E+04  0.7818608E-02  0.8042090E-01
         -3   -1    0    0    0  501 -0.00000000000E+00  0.00000000000E+00  0.19136185453E+04  0.19136185453E+04  0.00000000000E+00 0.  1.
          2   -1    0    0  501    0  0.00000000000E+00 -0.00000000000E+00 -0.19053910364E+04  0.19053910364E+04  0.00000000000E+00 0. -1.
         24    2    1    2    0    0 -0.44462421844E+00 -0.10616092340E+04 -0.14601473863E+04  0.18066414140E+04  0.70060299337E+02 0.  0.
        254    2    1    2    0    0  0.44462421844E+00  0.10616092340E+04  0.14683748952E+04  0.20123681677E+04  0.87549211649E+03 0.  0.
         23    2    4    4    0    0 -0.21360535075E+03  0.56380807726E+02  0.65931655536E+03  0.70121485328E+03  0.90542304756E+02 0.  0.
         23    2    4    4    0    0  0.21404997497E+03  0.10052284263E+04  0.80905833986E+03  0.13111533144E+04  0.90807685893E+02 0.  0.
          2    1    3    3  502    0  0.52366431614E+01 -0.10323764677E+04 -0.14342680729E+04  0.17671880201E+04  0.00000000000E+00 0. -1.
         -1    1    3    3    0  502 -0.56812673798E+01 -0.29232766295E+02 -0.25879313392E+02  0.39453393845E+02  0.00000000000E+00 0.  1.
         13    1    5    5    0    0 -0.61583466501E+02  0.41936002202E+02  0.12514965630E+03  0.14564885203E+03  0.00000000000E+00 0.  1.
        -13    1    5    5    0    0 -0.15202188425E+03  0.14444805524E+02  0.53416689906E+03  0.55556600125E+03  0.00000000000E+00 0. -1.
          2    1    6    6  503    0  0.34973587846E+02  0.34278033089E+03  0.24369584589E+03  0.42202982406E+03  0.00000000000E+00 0. -1.
         -2    1    6    6    0  503  0.17907638713E+03  0.66244809536E+03  0.56536249397E+03  0.88912349033E+03  0.00000000000E+00 0.  1.
<mgrwt>
<rscale>  0 0.38190007E+04</rscale>
<asrwt>0</asrwt>
<pdfrwt beam="1">  1        2 0.29313708E+00 0.38190007E+04</pdfrwt>
<pdfrwt beam="2">  1       -3 0.29440285E+00 0.38190007E+04</pdfrwt>
<totfact> 0.15504261E-01</totfact>
</mgrwt>
</event>
<event>
12    7  0.1707730E-007  0.2801421E+04  0.7818608E-02  0.8302827E-01
          2   -1    0    0  501    0  0.00000000000E+00  0.00000000000E+00  0.16190514432E+04  0.16190514432E+04  0.00000000000E+00 0. -1.
         -1   -1    0    0    0  501 -0.00000000000E+00 -0.00000000000E+00 -0.12118144782E+04  0.12118144782E+04  0.00000000000E+00 0.  1.
         24    2    1    2    0    0 -0.79584071755E+03  0.96408830951E+03  0.66684149599E+02  0.12548308603E+04  0.85586190566E+02 0.  0.
        254    2    1    2    0    0  0.79584071755E+03 -0.96408830951E+03  0.34055281540E+03  0.15760350610E+04  0.89726338226E+03 0.  0.
         23    2    4    4    0    0  0.39561784354E+02 -0.26355908811E+03  0.45350352083E+03  0.53401286347E+03  0.92063930140E+02 0.  0.
         23    2    4    4    0    0  0.75627893319E+03 -0.70052922140E+03 -0.11295070543E+03  0.10420221975E+04  0.10175157709E+03 0.  0.
          2    1    3    3  502    0 -0.53994370277E+03  0.67956701014E+03  0.82244146816E+02  0.87184552710E+03  0.00000000000E+00 0. -1.
         -1    1    3    3    0  502 -0.25589701478E+03  0.28452129936E+03 -0.15559997217E+02  0.38298533324E+03  0.00000000000E+00 0.  1.
         13    1    5    5    0    0  0.64848618911E+02 -0.12592081019E+03  0.21416668391E+03  0.25676596797E+03  0.00000000000E+00 0.  1.
        -13    1    5    5    0    0 -0.25286834557E+02 -0.13763827792E+03  0.23933683693E+03  0.27724689549E+03  0.00000000000E+00 0. -1.
          1    1    6    6  503    0  0.42934953845E+03 -0.33361228244E+03 -0.39944613086E+02  0.54519148313E+03  0.00000000000E+00 0. -1.
         -1    1    6    6    0  503  0.32692939474E+03 -0.36691693895E+03 -0.73006092345E+02  0.49683071439E+03  0.00000000000E+00 0.  1.
<mgrwt>
<rscale>  0 0.28014211E+04</rscale>
<asrwt>0</asrwt>
<pdfrwt beam="1">  1        2 0.24908484E+00 0.28014211E+04</pdfrwt>
<pdfrwt beam="2">  1       -1 0.18643300E+00 0.28014211E+04</pdfrwt>
<totfact> 0.20182755E+00</totfact>
</mgrwt>
</event>
<event>
12    7  0.1707730E-007  0.2912076E+04  0.7818608E-02  0.8269294E-01
          2   -1    0    0  501    0  0.00000000000E+00  0.00000000000E+00  0.14829394256E+04  0.14829394256E+04  0.00000000000E+00 0. -1.
         -1   -1    0    0    0  501 -0.00000000000E+00 -0.00000000000E+00 -0.14296242768E+04  0.14296242768E+04  0.00000000000E+00 0.  1.
         24    2    1    2    0    0 -0.86481405332E+03  0.85872781842E+03  0.51570275292E+03  0.13258135683E+04  0.80718496222E+02 0.  0.
        254    2    1    2    0    0  0.86481405332E+03 -0.85872781842E+03 -0.46238760419E+03  0.15867501341E+04  0.90479659512E+03 0.  0.
         23    2    4    4    0    0  0.12515985413E+03 -0.60662607508E+03  0.79769049100E+02  0.63125411508E+03  0.91969954654E+02 0.  0.
         23    2    4    4    0    0  0.73965419919E+03 -0.25210174335E+03 -0.54215665329E+03  0.95549601900E+03  0.91625227133E+02 0.  0.
          4    1    3    3  502    0 -0.10857907109E+03  0.12207577532E+03  0.97637156349E+02  0.19032846318E+03  0.00000000000E+00 0. -1.
         -3    1    3    3    0  502 -0.75623498223E+03  0.73665204310E+03  0.41806559657E+03  0.11354851051E+04  0.00000000000E+00 0.  1.
         13    1    5    5    0    0  0.60008005715E+02 -0.31397012923E+03 -0.49591063693E+01  0.31969171953E+03  0.00000000000E+00 0. -1.
        -13    1    5    5    0    0  0.65151848415E+02 -0.29265594584E+03  0.84728155469E+02  0.31156239555E+03  0.00000000000E+00 0.  1.
          4    1    6    6  503    0  0.73529087380E+03 -0.24186318069E+03 -0.54086677737E+03  0.94429197717E+03  0.00000000000E+00 0. -1.
         -4    1    6    6    0  503  0.43633253862E+01 -0.10238562651E+02 -0.12898759157E+01  0.11204041836E+02  0.00000000000E+00 0.  1.
<mgrwt>
<rscale>  0 0.29120757E+04</rscale>
<asrwt>0</asrwt>
<pdfrwt beam="1">  1        2 0.22814453E+00 0.29120757E+04</pdfrwt>
<pdfrwt beam="2">  1       -1 0.21994220E+00 0.29120757E+04</pdfrwt>
<totfact> 0.14036824E+00</totfact>
</mgrwt>
</event>
<event>
12    7  0.1707730E-007  0.1288652E+04  0.7818608E-02  0.9038613E-01
          2   -1    0    0  501    0  0.00000000000E+00  0.00000000000E+00  0.42743218879E+03  0.42743218879E+03  0.00000000000E+00 0. -1.
         -1   -1    0    0    0  501 -0.00000000000E+00 -0.00000000000E+00 -0.97127914035E+03  0.97127914035E+03  0.00000000000E+00 0.  1.
         24    2    1    2    0    0 -0.84665211812E+02  0.34223267308E+02  0.19352508281E+03  0.22982032695E+03  0.83821207843E+02 0.  0.
        254    2    1    2    0    0  0.84665211812E+02 -0.34223267308E+02 -0.73737203437E+03  0.11688910022E+04  0.90235759421E+03 0.  0.
         23    2    4    4    0    0 -0.12970751914E+03 -0.26156116176E+03 -0.78250860417E+03  0.84027039440E+03  0.92175583822E+02 0.  0.
         23    2    4    4    0    0  0.21437273095E+03  0.22733789445E+03  0.45136569801E+02  0.32862060779E+03  0.91192148254E+02 0.  0.
          2    1    3    3  502    0 -0.78372161154E+02  0.13840219981E+02  0.19268246968E+03  0.20847129648E+03  0.00000000000E+00 0. -1.
         -1    1    3    3    0  502 -0.62930506577E+01  0.20383047328E+02  0.84261312796E+00  0.21349030466E+02  0.00000000000E+00 0.  1.
         13    1    5    5    0    0  0.59557333979E+01 -0.56162582286E+02 -0.10173450456E+03  0.11635985488E+03  0.00000000000E+00 0.  1.
        -13    1    5    5    0    0 -0.13566325254E+03 -0.20539857947E+03 -0.68077409961E+03  0.72391053953E+03  0.00000000000E+00 0. -1.
          3    1    6    6  503    0  0.20107654115E+03  0.16988771063E+03  0.18415559095E+02  0.26388016682E+03  0.00000000000E+00 0. -1.
         -3    1    6    6    0  503  0.13296189802E+02  0.57450183819E+02  0.26721010706E+02  0.64740440971E+02  0.00000000000E+00 0.  1.
<mgrwt>
<rscale>  0 0.12886520E+04</rscale>
<asrwt>0</asrwt>
<pdfrwt beam="1">  1        2 0.65758799E-01 0.12886520E+04</pdfrwt>
<pdfrwt beam="2">  1       -1 0.14942756E+00 0.12886520E+04</pdfrwt>
<totfact> 0.29184047E+01</totfact>
</mgrwt>
</event>
<event>
12    7  0.1707730E-007  0.1849793E+04  0.7818608E-02  0.8680259E-01
         -1   -1    0    0    0  501 -0.00000000000E+00  0.00000000000E+00  0.69910863617E+03  0.69910863617E+03  0.00000000000E+00 0.  1.
          2   -1    0    0  501    0  0.00000000000E+00 -0.00000000000E+00 -0.12236066588E+04  0.12236066588E+04  0.00000000000E+00 0. -1.
         24    2    1    2    0    0  0.37360417605E+03  0.54052284543E+03  0.69607766491E+02  0.66554341764E+03  0.79735643364E+02 0.  0.
        254    2    1    2    0    0 -0.37360417605E+03 -0.54052284543E+03 -0.59410578910E+03  0.12571718773E+04  0.89206188891E+03 0.  0.
         23    2    4    4    0    0 -0.35791283478E+03 -0.31507283834E+03  0.12191670029E+03  0.50081553126E+03  0.92628417812E+02 0.  0.
         23    2    4    4    0    0 -0.15691341268E+02 -0.22545000709E+03 -0.71602248939E+03  0.75635634604E+03  0.91174519435E+02 0.  0.
          2    1    3    3  502    0  0.20193849346E+02  0.18934662733E+02 -0.12126220741E+02  0.30221817180E+02  0.00000000000E+00 0. -1.
         -1    1    3    3    0  502  0.35341032670E+03  0.52158818269E+03  0.81733987232E+02  0.63532160046E+03  0.00000000000E+00 0.  1.
         13    1    5    5    0    0 -0.24983443225E+03 -0.17165375146E+03  0.49287068120E+02  0.30710172421E+03  0.00000000000E+00 0.  1.
        -13    1    5    5    0    0 -0.10807840253E+03 -0.14341908688E+03  0.72629632167E+02  0.19371380705E+03  0.00000000000E+00 0. -1.
          1    1    6    6  503    0 -0.35491735315E+02 -0.54158973421E+02 -0.28193681927E+03  0.28927707780E+03  0.00000000000E+00 0. -1.
         -1    1    6    6    0  503  0.19800394046E+02 -0.17129103367E+03 -0.43408567012E+03  0.46707926824E+03  0.00000000000E+00 0.  1.
<mgrwt>
<rscale>  0 0.18497935E+04</rscale>
<asrwt>0</asrwt>
<pdfrwt beam="1">  1        2 0.18824717E+00 0.18497935E+04</pdfrwt>
<pdfrwt beam="2">  1       -1 0.10755518E+00 0.18497935E+04</pdfrwt>
<totfact> 0.15821988E+01</totfact>
</mgrwt>
</event>
<event>
12    7  0.1707730E-007  0.1732860E+04  0.7818608E-02  0.8742842E-01
          2   -1    0    0  501    0  0.00000000000E+00  0.00000000000E+00  0.23189488259E+04  0.23189488259E+04  0.00000000000E+00 0. -1.
         -1   -1    0    0    0  501 -0.00000000000E+00 -0.00000000000E+00 -0.32372452829E+03  0.32372452829E+03  0.00000000000E+00 0.  1.
         24    2    1    2    0    0  0.91045018282E+02 -0.45906630140E+03  0.13901367341E+04  0.14688547089E+04  0.77607680202E+02 0.  0.
        254    2    1    2    0    0 -0.91045018282E+02  0.45906630140E+03  0.60508756354E+03  0.11738186453E+04  0.89033038138E+03 0.  0.
         23    2    4    4    0    0  0.15802632422E+03 -0.67885052262E+02 -0.12527686919E+03  0.23482217734E+03  0.99330063662E+02 0.  0.
         23    2    4    4    0    0 -0.24907134250E+03  0.52695135366E+03  0.73036443273E+03  0.93899646794E+03  0.92562948468E+02 0.  0.
          4    1    3    3  502    0  0.79082871173E+02 -0.44419018596E+03  0.12826839787E+04  0.13597195340E+04  0.00000000000E+00 0. -1.
         -3    1    3    3    0  502  0.11962147108E+02 -0.14876115446E+02  0.10745275538E+03  0.10913517496E+03  0.00000000000E+00 0.  1.
         13    1    5    5    0    0  0.11777772514E+03 -0.92885621818E+02 -0.83611444360E+02  0.17172712339E+03  0.00000000000E+00 0. -1.
        -13    1    5    5    0    0  0.40248599081E+02  0.25000569557E+02 -0.41665424829E+02  0.63095053945E+02  0.00000000000E+00 0.  1.
          4    1    6    6  503    0 -0.23539871626E+03  0.49694296974E+03  0.71660412621E+03  0.90326427168E+03  0.00000000000E+00 0. -1.
         -4    1    6    6    0  503 -0.13672626245E+02  0.30008383928E+02  0.13760306514E+02  0.35732196263E+02  0.00000000000E+00 0.  1.
<mgrwt>
<rscale>  0 0.17328596E+04</rscale>
<asrwt>0</asrwt>
<pdfrwt beam="1">  1        2 0.35676135E+00 0.17328596E+04</pdfrwt>
<pdfrwt beam="2">  1       -1 0.49803775E-01 0.17328596E+04</pdfrwt>
<totfact> 0.19345237E+01</totfact>
</mgrwt>
</event>
<event>
12    7  0.1707730E-007  0.1512238E+04  0.7818608E-02  0.8876356E-01
         -1   -1    0    0    0  501 -0.00000000000E+00  0.00000000000E+00  0.72485118473E+03  0.72485118473E+03  0.00000000000E+00 0.  1.
          2   -1    0    0  501    0  0.00000000000E+00 -0.00000000000E+00 -0.78873534727E+03  0.78873534727E+03  0.00000000000E+00 0. -1.
         24    2    1    2    0    0 -0.16907585942E+03  0.38103710746E+03  0.28386015229E+03  0.51065950982E+03  0.80128805120E+02 0.  0.
        254    2    1    2    0    0  0.16907585942E+03 -0.38103710746E+03 -0.34774431483E+03  0.10029270222E+04  0.84330337353E+03 0.  0.
         23    2    4    4    0    0 -0.13680514694E+03  0.20675800544E+03 -0.15701617279E+03  0.30720493240E+03  0.90864024402E+02 0.  0.
         23    2    4    4    0    0  0.30588100636E+03 -0.58779511290E+03 -0.19072814204E+03  0.69572208978E+03  0.92659145471E+02 0.  0.
          4    1    3    3  502    0  0.59139892072E+01  0.13766457370E+02  0.71898147014E+00  0.15000251705E+02  0.00000000000E+00 0. -1.
         -3    1    3    3    0  502 -0.17498984863E+03  0.36727065009E+03  0.28314117082E+03  0.49565925812E+03  0.00000000000E+00 0.  1.
         13    1    5    5    0    0  0.15391861244E+01  0.29675378055E+02  0.50533214882E+01  0.30141884723E+02  0.00000000000E+00 0. -1.
        -13    1    5    5    0    0 -0.13834433306E+03  0.17708262739E+03 -0.16206949427E+03  0.27706304767E+03  0.00000000000E+00 0.  1.
          1    1    6    6  503    0  0.21989339590E+02 -0.10040403230E+03 -0.50447375112E+02  0.11449645590E+03  0.00000000000E+00 0. -1.
         -1    1    6    6    0  503  0.28389166677E+03 -0.48739108060E+03 -0.14028076693E+03  0.58122563388E+03  0.00000000000E+00 0.  1.
<mgrwt>
<rscale>  0 0.15122377E+04</rscale>
<asrwt>0</asrwt>
<pdfrwt beam="1">  1        2 0.12134390E+00 0.15122377E+04</pdfrwt>
<pdfrwt beam="2">  1       -1 0.11151557E+00 0.15122377E+04</pdfrwt>
<totfact> 0.28591197E+01</totfact>
</mgrwt>
</event>
<event>
12    7  0.1707730E-007  0.2555452E+04  0.7818608E-02  0.8383493E-01
         -1   -1    0    0    0  501 -0.00000000000E+00  0.00000000000E+00  0.41834245042E+03  0.41834245042E+03  0.00000000000E+00 0.  1.
          2   -1    0    0  501    0  0.00000000000E+00 -0.00000000000E+00 -0.39025043747E+04  0.39025043747E+04  0.00000000000E+00 0. -1.
         24    2    1    2    0    0 -0.87719145220E+03  0.69265343079E+03 -0.16238688892E+04  0.19726629585E+04  0.72217446169E+02 0.  0.
        254    2    1    2    0    0  0.87719145220E+03 -0.69265343079E+03 -0.18602930351E+04  0.23481838666E+04  0.89668482538E+03 0.  0.
         23    2    4    4    0    0  0.44237969468E+02 -0.10516226113E+01  0.76716772800E+02  0.12733668623E+03  0.91493522056E+02 0.  0.
         23    2    4    4    0    0  0.83295348273E+03 -0.69160180818E+03 -0.19370098079E+04  0.22208471804E+04  0.89613823350E+02 0.  0.
          2    1    3    3  502    0 -0.48021399412E+02  0.60698042326E+02 -0.10618682868E+03  0.13139996092E+03  0.00000000000E+00 0. -1.
         -1    1    3    3    0  502 -0.82917005279E+03  0.63195538846E+03 -0.15176820605E+04  0.18412629976E+04  0.00000000000E+00 0.  1.
         13    1    5    5    0    0 -0.27363189406E+02 -0.59597926847E+01  0.11203491594E+02  0.30162584226E+02  0.00000000000E+00 0.  1.
        -13    1    5    5    0    0  0.71601158874E+02  0.49081700734E+01  0.65513281206E+02  0.97174102003E+02  0.00000000000E+00 0. -1.
          4    1    6    6  503    0  0.66273506744E+03 -0.56276680890E+03 -0.16217706808E+04  0.18401261891E+04  0.00000000000E+00 0. -1.
         -4    1    6    6    0  503  0.17021841529E+03 -0.12883499927E+03 -0.31523912712E+03  0.38072099129E+03  0.00000000000E+00 0.  1.
<mgrwt>
<rscale>  0 0.25554516E+04</rscale>
<asrwt>0</asrwt>
<pdfrwt beam="1">  1        2 0.60038530E+00 0.25554516E+04</pdfrwt>
<pdfrwt beam="2">  1       -1 0.64360376E-01 0.25554516E+04</pdfrwt>
<totfact> 0.10138199E+00</totfact>
</mgrwt>
</event>
<event>
12    7  0.1707730E-007  0.1472060E+04  0.7818608E-02  0.8903248E-01
          2   -1    0    0  501    0  0.00000000000E+00  0.00000000000E+00  0.12677255156E+04  0.12677255156E+04  0.00000000000E+00 0. -1.
         -1   -1    0    0    0  501 -0.00000000000E+00 -0.00000000000E+00 -0.42733218699E+03  0.42733218699E+03  0.00000000000E+00 0.  1.
         24    2    1    2    0    0  0.43093288223E+03  0.86280613947E+02  0.37658252549E+03  0.58403483790E+03  0.78324964443E+02 0.  0.
        254    2    1    2    0    0 -0.43093288223E+03 -0.86280613947E+02  0.46381080316E+03  0.11110228647E+04  0.90890255334E+03 0.  0.
         23    2    4    4    0    0 -0.20429403426E+03 -0.91626693476E+02 -0.25529756350E+03  0.35155397547E+03  0.91004661169E+02 0.  0.
         23    2    4    4    0    0 -0.22663884797E+03  0.53460795296E+01  0.71910836665E+03  0.75946888924E+03  0.91007707129E+02 0.  0.
          2    1    3    3  502    0  0.32102596864E+03  0.69198935719E+02  0.32281225055E+03  0.46049312085E+03  0.00000000000E+00 0. -1.
         -1    1    3    3    0  502  0.10990691359E+03  0.17081678228E+02  0.53770274937E+02  0.12354171705E+03  0.00000000000E+00 0.  1.
         13    1    5    5    0    0 -0.23614608274E+02  0.12712050333E+02 -0.60210958944E+02  0.65913621692E+02  0.00000000000E+00 0. -1.
        -13    1    5    5    0    0 -0.18067942598E+03 -0.10433874381E+03 -0.19508660455E+03  0.28564035378E+03  0.00000000000E+00 0.  1.
          1    1    6    6  503    0 -0.19148013508E+03 -0.22690036264E+02  0.64064163213E+03  0.66903002974E+03  0.00000000000E+00 0. -1.
         -1    1    6    6    0  503 -0.35158712891E+02  0.28036115793E+02  0.78466734526E+02  0.90438859502E+02  0.00000000000E+00 0.  1.
<mgrwt>
<rscale>  0 0.14720597E+04</rscale>
<asrwt>0</asrwt>
<pdfrwt beam="1">  1        2 0.19503469E+00 0.14720597E+04</pdfrwt>
<pdfrwt beam="2">  1       -1 0.65743414E-01 0.14720597E+04</pdfrwt>
<totfact> 0.44697559E+01</totfact>
</mgrwt>
</event>
<event>
12    7  0.1707730E-007  0.1231367E+04  0.7818608E-02  0.9085835E-01
          2   -1    0    0  501    0  0.00000000000E+00  0.00000000000E+00  0.15612480447E+04  0.15612480447E+04  0.00000000000E+00 0. -1.
         -1   -1    0    0    0  501 -0.00000000000E+00 -0.00000000000E+00 -0.24279703403E+03  0.24279703403E+03  0.00000000000E+00 0.  1.
         24    2    1    2    0    0 -0.22070596053E+03  0.12667402944E+02  0.60441670217E+02  0.24138940268E+03  0.75789604296E+02 0.  0.
        254    2    1    2    0    0  0.22070596053E+03 -0.12667402944E+02  0.12580093405E+04  0.15626556761E+04  0.90024089949E+03 0.  0.
         23    2    4    4    0    0 -0.29091495764E+02 -0.16391594835E+03 -0.65424706775E+02  0.20417198299E+03  0.98443146698E+02 0.  0.
         23    2    4    4    0    0  0.24979745629E+03  0.15124854540E+03  0.13234340473E+04  0.13584836931E+04  0.93409717251E+02 0.  0.
          4    1    3    3  502    0 -0.22008656557E+02  0.22620509256E+02 -0.50042011578E+01  0.31954818599E+02  0.00000000000E+00 0. -1.
         -3    1    3    3    0  502 -0.19869730397E+03 -0.99531063125E+01  0.65445871375E+02  0.20943458408E+03  0.00000000000E+00 0.  1.
         13    1    5    5    0    0 -0.16102561417E+02 -0.60283436220E+02  0.23823768079E+02  0.66790396706E+02  0.00000000000E+00 0. -1.
        -13    1    5    5    0    0 -0.12988934347E+02 -0.10363251213E+03 -0.89248474853E+02  0.13738158628E+03  0.00000000000E+00 0.  1.
          3    1    6    6  503    0 -0.71423859232E+01 -0.62069816934E+00  0.51723465826E+02  0.52217964916E+02  0.00000000000E+00 0. -1.
         -3    1    6    6    0  503  0.25693984221E+03  0.15186924357E+03  0.12717105814E+04  0.13062657282E+04  0.00000000000E+00 0.  1.
<mgrwt>
<rscale>  0 0.12313674E+04</rscale>
<asrwt>0</asrwt>
<pdfrwt beam="1">  1        2 0.24019200E+00 0.12313674E+04</pdfrwt>
<pdfrwt beam="2">  1       -1 0.37353391E-01 0.12313674E+04</pdfrwt>
<totfact> 0.90733933E+01</totfact>
</mgrwt>
</event>
<event>
12    7  0.1707730E-007  0.2121588E+04  0.7818608E-02  0.8551793E-01
          2   -1    0    0  501    0  0.00000000000E+00  0.00000000000E+00  0.23056481703E+04  0.23056481703E+04  0.00000000000E+00 0. -1.
         -1   -1    0    0    0  501 -0.00000000000E+00 -0.00000000000E+00 -0.48805528404E+03  0.48805528404E+03  0.00000000000E+00 0.  1.
         24    2    1    2    0    0  0.18043577758E+03 -0.54852933486E+03 -0.11565987179E+03  0.59428874919E+03  0.79752181411E+02 0.  0.
        254    2    1    2    0    0 -0.18043577758E+03  0.54852933486E+03  0.19332527581E+04  0.21994147052E+04  0.87550974733E+03 0.  0.
         23    2    4    4    0    0  0.88747923648E+02 -0.17500277038E+03  0.77827817656E+03  0.80739597704E+03  0.87573854715E+02 0.  0.
         23    2    4    4    0    0 -0.26918370123E+03  0.72353210524E+03  0.11549745815E+04  0.13920187282E+04  0.88268245702E+02 0.  0.
          2    1    3    3  502    0  0.43214540867E+02 -0.85973406482E+02 -0.46522391893E+02  0.10687963376E+03  0.00000000000E+00 0. -1.
         -1    1    3    3    0  502  0.13722123672E+03 -0.46255592838E+03 -0.69137479902E+02  0.48740911544E+03  0.00000000000E+00 0.  1.
         13    1    5    5    0    0 -0.60727756509E+01 -0.78312982999E+02  0.32220634121E+03  0.33164247048E+03  0.00000000000E+00 0.  1.
        -13    1    5    5    0    0  0.94820699299E+02 -0.96689787385E+02  0.45607183535E+03  0.47575350656E+03  0.00000000000E+00 0. -1.
          3    1    6    6  503    0 -0.19093801974E+03  0.60047946124E+03  0.90815699818E+03  0.11053425008E+04  0.00000000000E+00 0. -1.
         -3    1    6    6    0  503 -0.78245681488E+02  0.12305264400E+03  0.24681758336E+03  0.28667622734E+03  0.00000000000E+00 0.  1.
<mgrwt>
<rscale>  0 0.21215879E+04</rscale>
<asrwt>0</asrwt>
<pdfrwt beam="1">  1        2 0.35471510E+00 0.21215879E+04</pdfrwt>
<pdfrwt beam="2">  1       -1 0.75085429E-01 0.21215879E+04</pdfrwt>
<totfact> 0.84045990E+00</totfact>
</mgrwt>
</event>
<event>
12    7  0.1707730E-007  0.2164270E+04  0.7818608E-02  0.8533449E-01
          2   -1    0    0  501    0  0.00000000000E+00  0.00000000000E+00  0.75064050662E+03  0.75064050662E+03  0.00000000000E+00 0. -1.
         -1   -1    0    0    0  501 -0.00000000000E+00 -0.00000000000E+00 -0.15600227661E+04  0.15600227661E+04  0.00000000000E+00 0.  1.
         24    2    1    2    0    0 -0.36784937626E+01  0.46740603027E+03 -0.11524953168E+04  0.12462102222E+04  0.79451457863E+02 0.  0.
        254    2    1    2    0    0  0.36784937626E+01 -0.46740603027E+03  0.34311305731E+03  0.10644530506E+04  0.89266555791E+03 0.  0.
         23    2    4    4    0    0 -0.28679460528E+03 -0.13893496578E+03  0.49072656038E+03  0.59259222466E+03  0.93802544386E+02 0.  0.
         23    2    4    4    0    0  0.29047309904E+03 -0.32847106449E+03 -0.14761350306E+03  0.47186082589E+03  0.92709391400E+02 0.  0.
          4    1    3    3  502    0 -0.24291521420E+02  0.13175901446E+03 -0.26056022925E+03  0.29298830859E+03  0.00000000000E+00 0. -1.
         -3    1    3    3    0  502  0.20613027658E+02  0.33564701581E+03 -0.89193508754E+03  0.95322191357E+03  0.00000000000E+00 0.  1.
         13    1    5    5    0    0 -0.18139185183E+02 -0.40626697421E+02  0.87886671915E+02  0.98506982914E+02  0.00000000000E+00 0. -1.
        -13    1    5    5    0    0 -0.26865542010E+03 -0.98308268364E+02  0.40283988846E+03  0.49408524175E+03  0.00000000000E+00 0.  1.
          2    1    6    6  503    0  0.27843077246E+03 -0.31174041031E+03 -0.16029229427E+03  0.44765991341E+03  0.00000000000E+00 0. -1.
         -2    1    6    6    0  503  0.12042326588E+02 -0.16730654173E+02  0.12678791203E+02  0.24200912484E+02  0.00000000000E+00 0.  1.
<mgrwt>
<rscale>  0 0.21642701E+04</rscale>
<asrwt>0</asrwt>
<pdfrwt beam="1">  1        2 0.11548316E+00 0.21642701E+04</pdfrwt>
<pdfrwt beam="2">  1       -1 0.24000350E+00 0.21642701E+04</pdfrwt>
<totfact> 0.31765910E+00</totfact>
</mgrwt>
</event>
<event>
12    7  0.1707730E-007  0.2669244E+04  0.7818608E-02  0.8345054E-01
          2   -1    0    0  501    0  0.00000000000E+00  0.00000000000E+00  0.26403770864E+04  0.26403770864E+04  0.00000000000E+00 0. -1.
         -1   -1    0    0    0  501 -0.00000000000E+00 -0.00000000000E+00 -0.67460659067E+03  0.67460659067E+03  0.00000000000E+00 0.  1.
         24    2    1    2    0    0  0.56003342232E+03  0.51994030197E+03  0.19945333345E+04  0.21374037400E+04  0.79725612790E+02 0.  0.
        254    2    1    2    0    0 -0.56003342232E+03 -0.51994030197E+03 -0.28762838792E+02  0.11775799371E+04  0.89548414596E+03 0.  0.
         23    2    4    4    0    0 -0.53588010225E+03  0.90939593209E+02 -0.79320622900E+02  0.55727963564E+03  0.93975196093E+02 0.  0.
         23    2    4    4    0    0 -0.24153320077E+02 -0.61087989518E+03  0.50557784109E+02  0.62030030148E+03  0.91971437274E+02 0.  0.
          2    1    3    3  502    0  0.49254743004E+03  0.41955234487E+03  0.17033614608E+04  0.18221052130E+04  0.00000000000E+00 0. -1.
         -1    1    3    3    0  502  0.67485992279E+02  0.10038795711E+03  0.29117187369E+03  0.31529852698E+03  0.00000000000E+00 0.  1.
         13    1    5    5    0    0 -0.40840168074E+03  0.57349051037E+02 -0.20486392441E+02  0.41291710882E+03  0.00000000000E+00 0.  1.
        -13    1    5    5    0    0 -0.12747842151E+03  0.33590542172E+02 -0.58834230460E+02  0.14436252681E+03  0.00000000000E+00 0. -1.
          4    1    6    6  503    0 -0.17004223339E+02 -0.20521588192E+03 -0.25545179872E+02  0.20749760967E+03  0.00000000000E+00 0.  1.
         -4    1    6    6    0  503 -0.71490967379E+01 -0.40566401326E+03  0.76102963981E+02  0.41280269181E+03  0.00000000000E+00 0. -1.
<mgrwt>
<rscale>  0 0.26692439E+04</rscale>
<asrwt>0</asrwt>
<pdfrwt beam="1">  1        2 0.40621185E+00 0.26692439E+04</pdfrwt>
<pdfrwt beam="2">  1       -1 0.10378563E+00 0.26692439E+04</pdfrwt>
<totfact> 0.25193150E+00</totfact>
</mgrwt>
</event>
<event>
12    7  0.1707730E-007  0.2524349E+04  0.7818608E-02  0.8394362E-01
          2   -1    0    0  501    0  0.00000000000E+00  0.00000000000E+00  0.26778598059E+04  0.26778598059E+04  0.00000000000E+00 0. -1.
         -1   -1    0    0    0  501 -0.00000000000E+00 -0.00000000000E+00 -0.59490941746E+03  0.59490941746E+03  0.00000000000E+00 0.  1.
         24    2    1    2    0    0  0.16334099185E+03  0.10316238136E+04  0.13416523115E+04  0.17022091525E+04  0.80975932521E+02 0.  0.
        254    2    1    2    0    0 -0.16334099185E+03 -0.10316238136E+04  0.74129807697E+03  0.15705600709E+04  0.90895991385E+03 0.  0.
         23    2    4    4    0    0 -0.32439282300E+03 -0.11185592033E+04  0.55342191916E+03  0.12927133885E+04  0.91796999984E+02 0.  0.
         23    2    4    4    0    0  0.16105183115E+03  0.86935389744E+02  0.18787615781E+03  0.27784668241E+03  0.91683553294E+02 0.  0.
          2    1    3    3  502    0  0.36687672581E+02  0.36835089098E+03  0.52836020040E+03  0.64513011523E+03  0.00000000000E+00 0. -1.
         -1    1    3    3    0  502  0.12665331927E+03  0.66327292258E+03  0.81329211112E+03  0.10570790373E+04  0.00000000000E+00 0.  1.
         13    1    5    5    0    0 -0.32398683580E+03 -0.10841569930E+04  0.55005855822E+03  0.12581447742E+04  0.00000000000E+00 0. -1.
        -13    1    5    5    0    0 -0.40598719663E+00 -0.34402210286E+02  0.33633609437E+01  0.34568614305E+02  0.00000000000E+00 0.  1.
          1    1    6    6  503    0  0.16227263897E+03  0.63673621322E+02  0.18530656560E+03  0.25441160088E+03  0.00000000000E+00 0. -1.
         -1    1    6    6    0  503 -0.12208078174E+01  0.23261768422E+02  0.25695922084E+01  0.23435081523E+02  0.00000000000E+00 0.  1.
<mgrwt>
<rscale>  0 0.25243486E+04</rscale>
<asrwt>0</asrwt>
<pdfrwt beam="1">  1        2 0.41197842E+00 0.25243486E+04</pdfrwt>
<pdfrwt beam="2">  1       -1 0.91524527E-01 0.25243486E+04</pdfrwt>
<totfact> 0.32242414E+00</totfact>
</mgrwt>
</event>
<event>
12    7  0.1707730E-007  0.1654316E+04  0.7818608E-02  0.8787857E-01
          2   -1    0    0  501    0  0.00000000000E+00  0.00000000000E+00  0.11287103539E+04  0.11287103539E+04  0.00000000000E+00 0. -1.
         -1   -1    0    0    0  501 -0.00000000000E+00 -0.00000000000E+00 -0.60617018269E+03  0.60617018269E+03  0.00000000000E+00 0.  1.
         24    2    1    2    0    0  0.63894160842E+02  0.45569017726E+03  0.54412913764E+03  0.71720912767E+03  0.81095085814E+02 0.  0.
        254    2    1    2    0    0 -0.63894160842E+02 -0.45569017726E+03 -0.21588966417E+02  0.10176714089E+04  0.90744311758E+03 0.  0.
         23    2    4    4    0    0  0.30354537763E+03 -0.23841197033E+03 -0.30290069608E+03  0.49837346938E+03  0.87448381496E+02 0.  0.
         23    2    4    4    0    0 -0.36743953847E+03 -0.21727820693E+03  0.28131172966E+03  0.51929793955E+03  0.91172513040E+02 0.  0.
          4    1    3    3  502    0  0.62221342706E+02  0.45585558819E+03  0.52525854302E+03  0.69826381102E+03  0.00000000000E+00 0. -1.
         -3    1    3    3    0  502  0.16728181361E+01 -0.16541093403E+00  0.18870594626E+02  0.18945316647E+02  0.00000000000E+00 0.  1.
         13    1    5    5    0    0  0.61023021064E+02 -0.62977356176E+02 -0.28230043341E+02  0.92124328153E+02  0.00000000000E+00 0. -1.
        -13    1    5    5    0    0  0.24252235657E+03 -0.17543461415E+03 -0.27467065273E+03  0.40624914123E+03  0.00000000000E+00 0.  1.
          1    1    6    6  503    0 -0.21542172065E+03 -0.78676940249E+02  0.12716333456E+03  0.26223480378E+03  0.00000000000E+00 0. -1.
         -1    1    6    6    0  503 -0.15201781782E+03 -0.13860126668E+03  0.15414839510E+03  0.25706313577E+03  0.00000000000E+00 0.  1.
<mgrwt>
<rscale>  0 0.16543162E+04</rscale>
<asrwt>0</asrwt>
<pdfrwt beam="1">  1        2 0.17364775E+00 0.16543162E+04</pdfrwt>
<pdfrwt beam="2">  1       -1 0.93256951E-01 0.16543162E+04</pdfrwt>
<totfact> 0.25432595E+01</totfact>
</mgrwt>
</event>
<event>
12    7  0.1707730E-007  0.1577170E+04  0.7818608E-02  0.8834698E-01
         -1   -1    0    0    0  501 -0.00000000000E+00  0.00000000000E+00  0.16565860998E+04  0.16565860998E+04  0.00000000000E+00 0.  1.
          2   -1    0    0  501    0  0.00000000000E+00 -0.00000000000E+00 -0.37539014982E+03  0.37539014982E+03  0.00000000000E+00 0. -1.
         24    2    1    2    0    0  0.14974363440E+03  0.62223735097E+02  0.10017797318E+04  0.10180069310E+04  0.80501746017E+02 0.  0.
        254    2    1    2    0    0 -0.14974363440E+03 -0.62223735097E+02  0.27941621810E+03  0.10139693186E+04  0.96112715440E+03 0.  0.
         23    2    4    4    0    0 -0.39611550478E+03 -0.37926640140E+03  0.10083618879E+03  0.56502717491E+03  0.91308680086E+02 0.  0.
         23    2    4    4    0    0  0.24637187039E+03  0.31704266630E+03  0.17858002930E+03  0.44894214371E+03  0.91886183716E+02 0.  0.
          2    1    3    3  502    0  0.62420937954E+01  0.22755780587E+02  0.28291544368E+03  0.28389775899E+03  0.00000000000E+00 0. -1.
         -1    1    3    3    0  502  0.14350154060E+03  0.39467954510E+02  0.71886428816E+03  0.73410917198E+03  0.00000000000E+00 0.  1.
         13    1    5    5    0    0 -0.25259179934E+03 -0.21846159055E+03  0.10298599067E+03  0.34947703489E+03  0.00000000000E+00 0.  1.
        -13    1    5    5    0    0 -0.14352370544E+03 -0.16080481085E+03 -0.21498018764E+01  0.21555014003E+03  0.00000000000E+00 0. -1.
          2    1    6    6  503    0  0.18443005447E+01  0.24683064813E+02  0.32303931218E+02  0.40696426196E+02  0.00000000000E+00 0. -1.
         -2    1    6    6    0  503  0.24452756984E+03  0.29235960149E+03  0.14627609808E+03  0.40824571751E+03  0.00000000000E+00 0.  1.
<mgrwt>
<rscale>  0 0.15771697E+04</rscale>
<asrwt>0</asrwt>
<pdfrwt beam="1">  1        2 0.57752332E-01 0.15771697E+04</pdfrwt>
<pdfrwt beam="2">  1       -1 0.25485940E+00 0.15771697E+04</pdfrwt>
<totfact> 0.60874577E+00</totfact>
</mgrwt>
</event>
<event>
12    7  0.1707730E-007  0.1709420E+04  0.7818608E-02  0.8756010E-01
          2   -1    0    0  501    0  0.00000000000E+00  0.00000000000E+00  0.57334578507E+03  0.57334578507E+03  0.00000000000E+00 0. -1.
         -1   -1    0    0    0  501 -0.00000000000E+00 -0.00000000000E+00 -0.12741506058E+04  0.12741506058E+04  0.00000000000E+00 0.  1.
         24    2    1    2    0    0 -0.53727432362E+03  0.20763686612E+03  0.10837512443E+01  0.58151201337E+03  0.79864135785E+02 0.  0.
        254    2    1    2    0    0  0.53727432362E+03 -0.20763686612E+03 -0.70188857197E+03  0.12659843775E+04  0.88220865423E+03 0.  0.
         23    2    4    4    0    0 -0.22202373376E+01 -0.15414808880E+03 -0.69366953147E+03  0.71638832280E+03  0.90929903854E+02 0.  0.
         23    2    4    4    0    0  0.53949456095E+03 -0.53488777322E+02 -0.82190404950E+01  0.54959605469E+03  0.89848985012E+02 0.  0.
          2    1    3    3  502    0 -0.46156180107E+03  0.19536827077E+03 -0.21155349432E+02  0.50165287424E+03  0.00000000000E+00 0. -1.
         -3    1    3    3    0  502 -0.75712522549E+02  0.12268595349E+02  0.22239100676E+02  0.79859139123E+02  0.00000000000E+00 0.  1.
         13    1    5    5    0    0 -0.35208659694E+02 -0.13712345828E+03 -0.53239409923E+03  0.55089560665E+03  0.00000000000E+00 0.  1.
        -13    1    5    5    0    0  0.32988422356E+02 -0.17024630511E+02 -0.16127543224E+03  0.16549271615E+03  0.00000000000E+00 0. -1.
          4    1    6    6  503    0  0.33930433299E+03 -0.58678695052E+02 -0.40641255440E+02  0.34673092058E+03  0.00000000000E+00 0.  1.
         -4    1    6    6    0  503  0.20019022796E+03  0.51899177304E+01  0.32422214945E+02  0.20286513411E+03  0.00000000000E+00 0. -1.
<mgrwt>
<rscale>  0 0.17094196E+04</rscale>
<asrwt>0</asrwt>
<pdfrwt beam="1">  1        2 0.88207044E-01 0.17094196E+04</pdfrwt>
<pdfrwt beam="2">  1       -1 0.19602317E+00 0.17094196E+04</pdfrwt>
<totfact> 0.91253676E+00</totfact>
</mgrwt>
</event>
<event>
12    7  0.1707730E-007  0.1108400E+04  0.7818608E-02  0.9197043E-01
         -1   -1    0    0    0  501 -0.00000000000E+00  0.00000000000E+00  0.17497764103E+03  0.17497764103E+03  0.00000000000E+00 0.  1.
          2   -1    0    0  501    0  0.00000000000E+00 -0.00000000000E+00 -0.17552959455E+04  0.17552959455E+04  0.00000000000E+00 0. -1.
         24    2    1    2    0    0  0.15000945461E+03 -0.81891924087E+02 -0.21402500501E+03  0.28586035640E+03  0.81855463413E+02 0.  0.
        254    2    1    2    0    0 -0.15000945461E+03  0.81891924087E+02 -0.13662932995E+04  0.16444132302E+04  0.89895960285E+03 0.  0.
         23    2    4    4    0    0  0.29458174710E+03 -0.76746071634E+02 -0.18199978334E+03  0.36631456386E+03  0.91619175521E+02 0.  0.
         23    2    4    4    0    0 -0.44459120171E+03  0.15863799572E+03 -0.11842935162E+04  0.12780986663E+04  0.90320086617E+02 0.  0.
          4    1    3    3  502    0  0.56805920785E+02  0.82112049915E+01 -0.87994747901E+02  0.10505908900E+03  0.00000000000E+00 0. -1.
         -3    1    3    3    0  502  0.93203533825E+02 -0.90103129078E+02 -0.12603025711E+03  0.18080126740E+03  0.00000000000E+00 0.  1.
         13    1    5    5    0    0  0.87908114526E+02  0.19192914573E+02 -0.54965601913E+02  0.10543918609E+03  0.00000000000E+00 0.  1.
        -13    1    5    5    0    0  0.20667363258E+03 -0.95938986207E+02 -0.12703418142E+03  0.26087537777E+03  0.00000000000E+00 0. -1.
          4    1    6    6  503    0 -0.30927690756E+03  0.13835211436E+03 -0.92161736757E+03  0.98192264732E+03  0.00000000000E+00 0. -1.
         -4    1    6    6    0  503 -0.13531429415E+03  0.20285881362E+02 -0.26267614860E+03  0.29617601900E+03  0.00000000000E+00 0.  1.
<mgrwt>
<rscale>  0 0.11083998E+04</rscale>
<asrwt>0</asrwt>
<pdfrwt beam="1">  1        2 0.27004554E+00 0.11083998E+04</pdfrwt>
<pdfrwt beam="2">  1       -1 0.26919636E-01 0.11083998E+04</pdfrwt>
<totfact> 0.12737861E+02</totfact>
</mgrwt>
</event>
<event>
12    7  0.1707730E-007  0.1737151E+04  0.7818608E-02  0.8740455E-01
          2   -1    0    0  501    0  0.00000000000E+00  0.00000000000E+00  0.39662343451E+03  0.39662343451E+03  0.00000000000E+00 0. -1.
         -1   -1    0    0    0  501 -0.00000000000E+00 -0.00000000000E+00 -0.19021160329E+04  0.19021160329E+04  0.00000000000E+00 0.  1.
         24    2    1    2    0    0  0.49559285669E+03  0.25355484470E+03 -0.96022848423E+03  0.11127342337E+04  0.78970843299E+02 0.  0.
        254    2    1    2    0    0 -0.49559285669E+03 -0.25355484470E+03 -0.54526411417E+03  0.11860052337E+04  0.89408787114E+03 0.  0.
         23    2    4    4    0    0  0.74545915907E+02 -0.36524280967E+03 -0.44840842837E+03  0.58997288213E+03  0.89657567583E+02 0.  0.
         23    2    4    4    0    0 -0.57013877260E+03  0.11168796498E+03 -0.96855685800E+02  0.59603235157E+03  0.91329725235E+02 0.  0.
          2    1    3    3  502    0  0.10238200418E+03  0.73032488605E+02 -0.27416060293E+03  0.30162867133E+03  0.00000000000E+00 0. -1.
         -1    1    3    3    0  502  0.39321085251E+03  0.18052235609E+03 -0.68606788130E+03  0.81110556239E+03  0.00000000000E+00 0.  1.
         13    1    5    5    0    0  0.33871599504E+02 -0.63858598693E+02 -0.13580507344E+03  0.15384480444E+03  0.00000000000E+00 0.  1.
        -13    1    5    5    0    0  0.40674316403E+02 -0.30138421098E+03 -0.31260335493E+03  0.43612807770E+03  0.00000000000E+00 0. -1.
          2    1    6    6  503    0 -0.48130262426E+03  0.11727382007E+03 -0.10585331217E+03  0.50656716109E+03  0.00000000000E+00 0. -1.
         -2    1    6    6    0  503 -0.88836148339E+02 -0.55858550937E+01  0.89976263730E+01  0.89465190489E+02  0.00000000000E+00 0.  1.
<mgrwt>
<rscale>  0 0.17371515E+04</rscale>
<asrwt>0</asrwt>
<pdfrwt beam="1">  1        2 0.61018988E-01 0.17371515E+04</pdfrwt>
<pdfrwt beam="2">  1       -1 0.29263324E+00 0.17371515E+04</pdfrwt>
<totfact> 0.32148168E+00</totfact>
</mgrwt>
</event>
<event>
12    7  0.1707730E-007  0.1632228E+04  0.7818608E-02  0.8800990E-01
         -1   -1    0    0    0  501 -0.00000000000E+00  0.00000000000E+00  0.25868050896E+03  0.25868050896E+03  0.00000000000E+00 0.  1.
          2   -1    0    0  501    0  0.00000000000E+00 -0.00000000000E+00 -0.25747666987E+04  0.25747666987E+04  0.00000000000E+00 0. -1.
         24    2    1    2    0    0 -0.31996021286E+03  0.12856677256E+03 -0.28407279305E+02  0.35483427000E+03  0.78717423901E+02 0.  0.
        254    2    1    2    0    0  0.31996021286E+03 -0.12856677256E+03 -0.22876789105E+04  0.24786129377E+04  0.88946239080E+03 0.  0.
         23    2    4    4    0    0  0.46341985967E+03  0.25339076570E+03 -0.13110908408E+04  0.14164394517E+04  0.91524210237E+02 0.  0.
         23    2    4    4    0    0 -0.14345964680E+03 -0.38195753826E+03 -0.97658806971E+03  0.10621734860E+04  0.89532257882E+02 0.  0.
          4    1    3    3  502    0 -0.30888217314E+02 -0.63958770255E+01 -0.16471620328E+02  0.35585158254E+02  0.00000000000E+00 0. -1.
         -3    1    3    3    0  502 -0.28907199555E+03  0.13496264959E+03 -0.11935658977E+02  0.31924911175E+03  0.00000000000E+00 0.  1.
         13    1    5    5    0    0  0.36032510156E+03  0.23047804708E+03 -0.99074224265E+03  0.10791313638E+04  0.00000000000E+00 0. -1.
        -13    1    5    5    0    0  0.10309475811E+03  0.22912718616E+02 -0.32034859810E+03  0.33730808785E+03  0.00000000000E+00 0.  1.
          1    1    6    6  503    0 -0.15205542636E+03 -0.37773601007E+03 -0.94106481430E+03  0.10253820413E+04  0.00000000000E+00 0. -1.
         -1    1    6    6    0  503  0.85957795585E+01 -0.42215281927E+01 -0.35523255410E+02  0.36791444677E+02  0.00000000000E+00 0.  1.
<mgrwt>
<rscale>  0 0.16322279E+04</rscale>
<asrwt>0</asrwt>
<pdfrwt beam="1">  1        2 0.39611794E+00 0.16322279E+04</pdfrwt>
<pdfrwt beam="2">  1       -1 0.39797003E-01 0.16322279E+04</pdfrwt>
<totfact> 0.21137629E+01</totfact>
</mgrwt>
</event>
<event>
12    7  0.1707730E-007  0.1492725E+04  0.7818608E-02  0.8889305E-01
         -1   -1    0    0    0  501 -0.00000000000E+00  0.00000000000E+00  0.72387143700E+03  0.72387143700E+03  0.00000000000E+00 0.  1.
          2   -1    0    0  501    0  0.00000000000E+00 -0.00000000000E+00 -0.76955269601E+03  0.76955269601E+03  0.00000000000E+00 0. -1.
         24    2    1    2    0    0 -0.21457284087E+03 -0.26599157754E+03  0.30943960637E+03  0.46801178933E+03  0.80555208408E+02 0.  0.
        254    2    1    2    0    0  0.21457284087E+03  0.26599157754E+03 -0.35512086538E+03  0.10254123437E+04  0.89920332638E+03 0.  0.
         23    2    4    4    0    0  0.21806122790E+03  0.56514531595E+03 -0.36499273424E+03  0.71320063868E+03  0.92171186980E+02 0.  0.
         23    2    4    4    0    0 -0.34883870321E+01 -0.29915373842E+03  0.98718688649E+01  0.31221170499E+03  0.88733121705E+02 0.  0.
          4    1    3    3  502    0 -0.30955315779E+02 -0.96083094447E+02  0.88574255446E+02  0.13429665424E+03  0.00000000000E+00 0. -1.
         -3    1    3    3    0  502 -0.18361752509E+03 -0.16990848309E+03  0.22086535092E+03  0.33371513508E+03  0.00000000000E+00 0.  1.
         13    1    5    5    0    0  0.20015509446E+03  0.55906384249E+03 -0.35415578190E+03  0.69140491730E+03  0.00000000000E+00 0. -1.
        -13    1    5    5    0    0  0.17906133442E+02  0.60814734620E+01 -0.10836952343E+02  0.21795721378E+02  0.00000000000E+00 0.  1.
          2    1    6    6  503    0  0.16527330584E+02 -0.25878109194E+03 -0.16792908264E+02  0.25985151139E+03  0.00000000000E+00 0. -1.
         -2    1    6    6    0  503 -0.20015717616E+02 -0.40372646475E+02  0.26664777129E+02  0.52360193605E+02  0.00000000000E+00 0.  1.
<mgrwt>
<rscale>  0 0.14927253E+04</rscale>
<asrwt>0</asrwt>
<pdfrwt beam="1">  1        2 0.11839272E+00 0.14927253E+04</pdfrwt>
<pdfrwt beam="2">  1       -1 0.11136484E+00 0.14927253E+04</pdfrwt>
<totfact> 0.29676378E+01</totfact>
</mgrwt>
</event>
<event>
12    7  0.1707730E-007  0.1790295E+04  0.7818608E-02  0.8711478E-01
         -1   -1    0    0    0  501 -0.00000000000E+00  0.00000000000E+00  0.59163937496E+03  0.59163937496E+03  0.00000000000E+00 0.  1.
          2   -1    0    0  501    0  0.00000000000E+00 -0.00000000000E+00 -0.13543531095E+04  0.13543531095E+04  0.00000000000E+00 0. -1.
         24    2    1    2    0    0  0.29242064622E+03 -0.52615415537E+03  0.29816454228E+02  0.60809114658E+03  0.80856614247E+02 0.  0.
        254    2    1    2    0    0 -0.29242064622E+03  0.52615415537E+03 -0.79253018877E+03  0.13379013379E+04  0.89416321790E+03 0.  0.
         23    2    4    4    0    0  0.17447127951E+03  0.29321724813E+03 -0.72213031429E+03  0.80362628455E+03  0.89030514041E+02 0.  0.
         23    2    4    4    0    0 -0.46689192573E+03  0.23293690723E+03 -0.70399874482E+02  0.53427505333E+03  0.90807583490E+02 0.  0.
          4    1    3    3  502    0  0.16888574824E+03 -0.29172353573E+03 -0.23091165834E+02  0.33787308149E+03  0.00000000000E+00 0. -1.
         -3    1    3    3    0  502  0.12353489798E+03 -0.23443061964E+03  0.52907620062E+02  0.27021806509E+03  0.00000000000E+00 0.  1.
         13    1    5    5    0    0  0.15732641765E+03  0.29211115120E+03 -0.65378164981E+03  0.73315139772E+03  0.00000000000E+00 0. -1.
        -13    1    5    5    0    0  0.17144861861E+02  0.11060969385E+01 -0.68348664474E+02  0.70474886833E+02  0.00000000000E+00 0.  1.
          3    1    6    6  503    0 -0.44196495572E+03  0.23715763160E+03 -0.78602519429E+02  0.50769589359E+03  0.00000000000E+00 0. -1.
         -3    1    6    6    0  503 -0.24926970015E+02 -0.42207243688E+01  0.82026449469E+01  0.26579159739E+02  0.00000000000E+00 0.  1.
<mgrwt>
<rscale>  0 0.17902945E+04</rscale>
<asrwt>0</asrwt>
<pdfrwt beam="1">  1        2 0.20836201E+00 0.17902945E+04</pdfrwt>
<pdfrwt beam="2">  1       -1 0.91021444E-01 0.17902945E+04</pdfrwt>
<totfact> 0.19504785E+01</totfact>
</mgrwt>
</event>
<event>
12    7  0.1707730E-007  0.1296377E+04  0.7818608E-02  0.9032443E-01
         -1   -1    0    0    0  501 -0.00000000000E+00  0.00000000000E+00  0.39455001318E+03  0.39455001318E+03  0.00000000000E+00 0.  1.
          2   -1    0    0  501    0  0.00000000000E+00 -0.00000000000E+00 -0.10648797633E+04  0.10648797633E+04  0.00000000000E+00 0. -1.
         24    2    1    2    0    0 -0.12731493477E+03 -0.29913641988E+03 -0.13347203461E+03  0.36014731540E+03  0.78737630436E+02 0.  0.
        254    2    1    2    0    0  0.12731493477E+03  0.29913641988E+03 -0.53685771555E+03  0.10992824611E+04  0.90250431150E+03 0.  0.
         23    2    4    4    0    0  0.11628903324E+03  0.61049260596E+03 -0.28989773365E+03  0.69145764304E+03  0.88592409120E+02 0.  0.
         23    2    4    4    0    0  0.11025901539E+02 -0.31135618608E+03 -0.24695998190E+03  0.40782481808E+03  0.90926368417E+02 0.  0.
          4    1    3    3  502    0 -0.27700006712E+01 -0.94554904031E+02 -0.29962479572E+02  0.99227279324E+02  0.00000000000E+00 0. -1.
         -3    1    3    3    0  502 -0.12454493410E+03 -0.20458151585E+03 -0.10350955504E+03  0.26092003607E+03  0.00000000000E+00 0.  1.
         13    1    5    5    0    0  0.10679297261E+03  0.32778591579E+03 -0.16655855083E+03  0.38287086131E+03  0.00000000000E+00 0.  1.
        -13    1    5    5    0    0  0.94960606277E+01  0.28270669017E+03 -0.12333918282E+03  0.30858678173E+03  0.00000000000E+00 0. -1.
          2    1    6    6  503    0  0.40779462252E+02 -0.12479847499E+03 -0.13456133859E+03  0.18800100464E+03  0.00000000000E+00 0. -1.
         -2    1    6    6    0  503 -0.29753560712E+02 -0.18655771109E+03 -0.11239864331E+03  0.21982381345E+03  0.00000000000E+00 0.  1.
<mgrwt>
<rscale>  0 0.12963770E+04</rscale>
<asrwt>0</asrwt>
<pdfrwt beam="1">  1        2 0.16382766E+00 0.12963770E+04</pdfrwt>
<pdfrwt beam="2">  1       -1 0.60700002E-01 0.12963770E+04</pdfrwt>
<totfact> 0.70513866E+01</totfact>
</mgrwt>
</event>
<event>
12    7  0.1707730E-007  0.2609133E+04  0.7818608E-02  0.8365106E-01
          2   -1    0    0  501    0  0.00000000000E+00  0.00000000000E+00  0.21850574648E+04  0.21850574648E+04  0.00000000000E+00 0. -1.
         -1   -1    0    0    0  501 -0.00000000000E+00 -0.00000000000E+00 -0.77887814193E+03  0.77887814193E+03  0.00000000000E+00 0.  1.
         24    2    1    2    0    0 -0.35287339761E+03 -0.10748397655E+04  0.42104507075E+03  0.12098869435E+04  0.82141999192E+02 0.  0.
        254    2    1    2    0    0  0.35287339761E+03  0.10748397655E+04  0.98513425216E+03  0.17540486633E+04  0.90906383828E+03 0.  0.
         23    2    4    4    0    0  0.22611845036E+03  0.11726941469E+03  0.68830235513E+03  0.73954307160E+03  0.91006337428E+02 0.  0.
         23    2    4    4    0    0  0.12675494726E+03  0.95757035086E+03  0.29683189702E+03  0.10145055917E+04  0.90025701807E+02 0.  0.
          2    1    3    3  502    0 -0.26833593703E+01 -0.24531698708E+02  0.21873458797E+02  0.32976550134E+02  0.00000000000E+00 0. -1.
         -1    1    3    3    0  502 -0.35019003824E+03 -0.10503080668E+04  0.39917161195E+03  0.11769103933E+04  0.00000000000E+00 0.  1.
         13    1    5    5    0    0  0.16856906255E+03  0.85165955396E+02  0.38083299161E+03  0.42509120940E+03  0.00000000000E+00 0. -1.
        -13    1    5    5    0    0  0.57549387802E+02  0.32103459295E+02  0.30746936353E+03  0.31445186220E+03  0.00000000000E+00 0.  1.
          3    1    6    6  503    0  0.13721637054E+03  0.92758548769E+03  0.28016142641E+03  0.97863864331E+03  0.00000000000E+00 0. -1.
         -3    1    6    6    0  503 -0.10461423282E+02  0.29984863165E+02  0.16670470607E+02  0.35866948384E+02  0.00000000000E+00 0.  1.
<mgrwt>
<rscale>  0 0.26091328E+04</rscale>
<asrwt>0</asrwt>
<pdfrwt beam="1">  1        2 0.33616268E+00 0.26091328E+04</pdfrwt>
<pdfrwt beam="2">  1       -1 0.11982741E+00 0.26091328E+04</pdfrwt>
<totfact> 0.32881511E+00</totfact>
</mgrwt>
</event>
<event>
12    7  0.1707730E-007  0.1966033E+04  0.7818608E-02  0.8622668E-01
          2   -1    0    0  501    0  0.00000000000E+00  0.00000000000E+00  0.17642428522E+04  0.17642428522E+04  0.00000000000E+00 0. -1.
         -1   -1    0    0    0  501 -0.00000000000E+00 -0.00000000000E+00 -0.54772574197E+03  0.54772574197E+03  0.00000000000E+00 0.  1.
         24    2    1    2    0    0  0.45734894311E+03 -0.17793748343E+03 -0.22115456184E+03  0.54366164653E+03  0.76346852648E+02 0.  0.
        254    2    1    2    0    0 -0.45734894311E+03  0.17793748343E+03  0.14376716721E+04  0.17683069476E+04  0.90508553221E+03 0.  0.
         23    2    4    4    0    0 -0.30203940304E+03  0.31354398995E+03  0.14738691054E+04  0.15395869216E+04  0.92196067313E+02 0.  0.
         23    2    4    4    0    0 -0.15530954008E+03 -0.13560650652E+03 -0.36197433322E+02  0.22872002600E+03  0.92154317671E+02 0.  0.
          4    1    3    3  502    0  0.14546977570E+03 -0.28126447986E+02 -0.41819065367E+02  0.15395254771E+03  0.00000000000E+00 0. -1.
         -3    1    3    3    0  502  0.31187916741E+03 -0.14981103545E+03 -0.17933549648E+03  0.38970909882E+03  0.00000000000E+00 0.  1.
         13    1    5    5    0    0 -0.29704714974E+02  0.33470458242E+02  0.27663269132E+03  0.28022899132E+03  0.00000000000E+00 0.  1.
        -13    1    5    5    0    0 -0.27233468806E+03  0.28007353171E+03  0.11972364141E+04  0.12593579303E+04  0.00000000000E+00 0. -1.
          1    1    6    6  503    0 -0.16016918528E+03 -0.13982885697E+03 -0.45476187938E+02  0.21742667919E+03  0.00000000000E+00 0. -1.
         -1    1    6    6    0  503  0.48596452047E+01  0.42223504537E+01  0.92787546156E+01  0.11293346806E+02  0.00000000000E+00 0.  1.
<mgrwt>
<rscale>  0 0.19660328E+04</rscale>
<asrwt>0</asrwt>
<pdfrwt beam="1">  1        2 0.27142198E+00 0.19660328E+04</pdfrwt>
<pdfrwt beam="2">  1       -1 0.84265499E-01 0.19660328E+04</pdfrwt>
<totfact> 0.13369213E+01</totfact>
</mgrwt>
</event>
<event>
12    7  0.1707730E-007  0.2539884E+04  0.7818608E-02  0.8388913E-01
         -1   -1    0    0    0  501 -0.00000000000E+00  0.00000000000E+00  0.56601815307E+03  0.56601815307E+03  0.00000000000E+00 0.  1.
          2   -1    0    0  501    0  0.00000000000E+00 -0.00000000000E+00 -0.28492940187E+04  0.28492940187E+04  0.00000000000E+00 0. -1.
         24    2    1    2    0    0 -0.11054090653E+04 -0.10319653049E+03 -0.96762841491E+03  0.14747735435E+04  0.77932854988E+02 0.  0.
        254    2    1    2    0    0  0.11054090653E+04  0.10319653049E+03 -0.13156474507E+04  0.19405386282E+04  0.89564682080E+03 0.  0.
         23    2    4    4    0    0  0.43266009403E+03 -0.29925834841E+03 -0.90589745600E+03  0.10515020409E+04  0.90862672527E+02 0.  0.
         23    2    4    4    0    0  0.67274897123E+03  0.40245487890E+03 -0.40974999469E+03  0.88903658727E+03  0.89049915878E+02 0.  0.
          2    1    3    3  502    0 -0.41628280989E+03 -0.17286116393E+02 -0.40434431297E+03  0.58058979586E+03  0.00000000000E+00 0. -1.
         -1    1    3    3    0  502 -0.68912625537E+03 -0.85910414094E+02 -0.56328410195E+03  0.89418374767E+03  0.00000000000E+00 0.  1.
         13    1    5    5    0    0  0.37467037127E+03 -0.25754705949E+03 -0.71110849522E+03  0.84402823823E+03  0.00000000000E+00 0.  1.
        -13    1    5    5    0    0  0.57989722758E+02 -0.41711288923E+02 -0.19478896077E+03  0.20747380271E+03  0.00000000000E+00 0. -1.
          3    1    6    6  503    0  0.95410854719E+02  0.24713759833E+02 -0.41057238709E+02  0.10676936814E+03  0.00000000000E+00 0. -1.
         -3    1    6    6    0  503  0.57733811651E+03  0.37774111906E+03 -0.36869275598E+03  0.78226721913E+03  0.00000000000E+00 0.  1.
<mgrwt>
<rscale>  0 0.25398836E+04</rscale>
<asrwt>0</asrwt>
<pdfrwt beam="1">  1        2 0.43835292E+00 0.25398836E+04</pdfrwt>
<pdfrwt beam="2">  1       -1 0.87079717E-01 0.25398836E+04</pdfrwt>
<totfact> 0.28334001E+00</totfact>
</mgrwt>
</event>
<event>
12    7  0.1707730E-007  0.1754825E+04  0.7818608E-02  0.8730699E-01
          2   -1    0    0  501    0  0.00000000000E+00  0.00000000000E+00  0.18296513327E+04  0.18296513327E+04  0.00000000000E+00 0. -1.
         -1   -1    0    0    0  501 -0.00000000000E+00 -0.00000000000E+00 -0.42076474780E+03  0.42076474780E+03  0.00000000000E+00 0.  1.
         24    2    1    2    0    0 -0.58077443734E+02  0.52498779749E+03  0.10211960843E+04  0.11523787244E+04  0.78422604789E+02 0.  0.
        254    2    1    2    0    0  0.58077443734E+02 -0.52498779749E+03  0.38769050060E+03  0.10980373561E+04  0.88113389112E+03 0.  0.
         23    2    4    4    0    0  0.37716786931E+03  0.31000194683E+01  0.56242071991E+02  0.39219664767E+03  0.91596004422E+02 0.  0.
         23    2    4    4    0    0 -0.31909042557E+03 -0.52808781696E+03  0.33144842861E+03  0.70584070839E+03  0.87507729246E+02 0.  0.
          4    1    3    3  502    0 -0.46080871063E+02  0.20781416755E+03  0.47789830870E+03  0.52316055697E+03  0.00000000000E+00 0. -1.
         -3    1    3    3    0  502 -0.11996572671E+02  0.31717362995E+03  0.54329777559E+03  0.62921816745E+03  0.00000000000E+00 0.  1.
         13    1    5    5    0    0  0.35236565734E+02  0.27203140024E+02  0.14848587351E+02  0.46926612260E+02  0.00000000000E+00 0. -1.
        -13    1    5    5    0    0  0.34193130357E+03 -0.24103120556E+02  0.41393484640E+02  0.34527003541E+03  0.00000000000E+00 0.  1.
          1    1    6    6  503    0  0.13477107497E+01 -0.23118322626E+02  0.24122535060E+02  0.33439046982E+02  0.00000000000E+00 0. -1.
         -1    1    6    6    0  503 -0.32043813632E+03 -0.50496949434E+03  0.30732589355E+03  0.67240166141E+03  0.00000000000E+00 0.  1.
<mgrwt>
<rscale>  0 0.17548251E+04</rscale>
<asrwt>0</asrwt>
<pdfrwt beam="1">  1        2 0.28148482E+00 0.17548251E+04</pdfrwt>
<pdfrwt beam="2">  1       -1 0.64733039E-01 0.17548251E+04</pdfrwt>
<totfact> 0.21692967E+01</totfact>
</mgrwt>
</event>
<event>
12    7  0.1707730E-007  0.1047085E+04  0.7818608E-02  0.9258359E-01
          2   -1    0    0  501    0  0.00000000000E+00  0.00000000000E+00  0.20107552678E+04  0.20107552678E+04  0.00000000000E+00 0. -1.
         -1   -1    0    0    0  501 -0.00000000000E+00 -0.00000000000E+00 -0.13631522835E+03  0.13631522835E+03  0.00000000000E+00 0.  1.
         24    2    1    2    0    0 -0.62017658046E+01  0.69884960071E+02  0.71402161825E+03  0.72186695270E+03  0.79640796887E+02 0.  0.
        254    2    1    2    0    0  0.62017658046E+01 -0.69884960071E+02  0.11604184212E+04  0.14252035435E+04  0.82444639513E+03 0.  0.
         23    2    4    4    0    0  0.34647479518E+03 -0.23623656213E+03  0.50382077809E+03  0.66170635201E+03  0.90373795241E+02 0.  0.
         23    2    4    4    0    0 -0.34027302938E+03  0.16635160206E+03  0.65659764312E+03  0.76349719145E+03  0.91372350132E+02 0.  0.
          2    1    3    3  502    0 -0.32601439935E+02  0.72609120428E+02  0.53838031817E+03  0.54423184880E+03  0.00000000000E+00 0. -1.
         -3    1    3    3    0  502  0.26399674130E+02 -0.27241603579E+01  0.17564130008E+03  0.17763510390E+03  0.00000000000E+00 0.  1.
         13    1    5    5    0    0  0.20810167645E+03 -0.16474462044E+03  0.25439730421E+03  0.36764804650E+03  0.00000000000E+00 0. -1.
        -13    1    5    5    0    0  0.13837311873E+03 -0.71491941687E+02  0.24942347389E+03  0.29405830551E+03  0.00000000000E+00 0.  1.
          2    1    6    6  503    0 -0.29578174530E+03  0.17329920101E+03  0.60158788649E+03  0.69240698949E+03  0.00000000000E+00 0. -1.
         -2    1    6    6    0  503 -0.44491284073E+02 -0.69475989502E+01  0.55009756630E+02  0.71090201956E+02  0.00000000000E+00 0.  1.
<mgrwt>
<rscale>  0 0.10470846E+04</rscale>
<asrwt>0</asrwt>
<pdfrwt beam="1">  1        2 0.30934694E+00 0.10470846E+04</pdfrwt>
<pdfrwt beam="2">  1       -1 0.20971575E-01 0.10470846E+04</pdfrwt>
<totfact> 0.14161878E+02</totfact>
</mgrwt>
</event>
<event>
12    7  0.1707730E-007  0.2258780E+04  0.7818608E-02  0.8494353E-01
         -1   -1    0    0    0  501 -0.00000000000E+00  0.00000000000E+00  0.84405855112E+03  0.84405855112E+03  0.00000000000E+00 0.  1.
          2   -1    0    0  501    0  0.00000000000E+00 -0.00000000000E+00 -0.15111774508E+04  0.15111774508E+04  0.00000000000E+00 0. -1.
         24    2    1    2    0    0  0.88098207074E+03 -0.34404959693E+03 -0.32863469093E+03  0.10043387610E+04  0.78715008625E+02 0.  0.
        254    2    1    2    0    0 -0.88098207074E+03  0.34404959693E+03 -0.33848420879E+03  0.13508972410E+04  0.90324540520E+03 0.  0.
         23    2    4    4    0    0  0.14426752386E+03 -0.73256097558E+02  0.10865791937E+02  0.18658487177E+03  0.92283664153E+02 0.  0.
         23    2    4    4    0    0 -0.10252495946E+04  0.41730569448E+03 -0.34935000073E+03  0.11643123692E+04  0.91088397924E+02 0.  0.
          2    1    3    3  502    0  0.40405714700E+02 -0.32760069615E+01 -0.30700764723E+01  0.40654389328E+02  0.00000000000E+00 0. -1.
         -1    1    3    3    0  502  0.84057635604E+03 -0.34077358996E+03 -0.32556461446E+03  0.96368437163E+03  0.00000000000E+00 0.  1.
         13    1    5    5    0    0  0.15137385135E+03 -0.46485344311E+02  0.12467547419E+02  0.15884070589E+03  0.00000000000E+00 0. -1.
        -13    1    5    5    0    0 -0.71063274921E+01 -0.26770753247E+02 -0.16017554819E+01  0.27744165882E+02  0.00000000000E+00 0.  1.
          3    1    6    6  503    0 -0.70530754786E+03  0.26188035948E+03 -0.19963540783E+03  0.77839216068E+03  0.00000000000E+00 0. -1.
         -3    1    6    6    0  503 -0.31994204675E+03  0.15542533501E+03 -0.14971459290E+03  0.38592020855E+03  0.00000000000E+00 0.  1.
<mgrwt>
<rscale>  0 0.22587804E+04</rscale>
<asrwt>0</asrwt>
<pdfrwt beam="1">  1        2 0.23248884E+00 0.22587804E+04</pdfrwt>
<pdfrwt beam="2">  1       -1 0.12985516E+00 0.22587804E+04</pdfrwt>
<totfact> 0.65934182E+00</totfact>
</mgrwt>
</event>
<event>
12    7  0.1707730E-007  0.1380215E+04  0.7818608E-02  0.8968266E-01
          2   -1    0    0  501    0  0.00000000000E+00  0.00000000000E+00  0.10005711436E+04  0.10005711436E+04  0.00000000000E+00 0. -1.
         -1   -1    0    0    0  501 -0.00000000000E+00 -0.00000000000E+00 -0.47597654363E+03  0.47597654363E+03  0.00000000000E+00 0.  1.
         24    2    1    2    0    0  0.11969301579E+03 -0.16866979019E+03  0.50245905291E+03  0.54918863968E+03  0.79794398000E+02 0.  0.
        254    2    1    2    0    0 -0.11969301579E+03  0.16866979019E+03  0.22135547102E+02  0.92735904760E+03  0.90373054865E+03 0.  0.
         23    2    4    4    0    0  0.32890754809E+03 -0.14526747230E+03 -0.38192833777E+01  0.37151117559E+03  0.93397820990E+02 0.  0.
         23    2    4    4    0    0 -0.44860056388E+03  0.31393726248E+03  0.25954830480E+02  0.55584787201E+03  0.92163620291E+02 0.  0.
          2    1    3    3  502    0  0.11013057018E+03 -0.10705215989E+03  0.40852651344E+03  0.43644337503E+03  0.00000000000E+00 0. -1.
         -1    1    3    3    0  502  0.95624456103E+01 -0.61617630297E+02  0.93932539469E+02  0.11274526465E+03  0.00000000000E+00 0.  1.
         13    1    5    5    0    0  0.85837687742E+02 -0.85025020455E+02 -0.76055563738E+01  0.12105869332E+03  0.00000000000E+00 0. -1.
        -13    1    5    5    0    0  0.24306986035E+03 -0.60242451843E+02  0.37862729961E+01  0.25045248227E+03  0.00000000000E+00 0.  1.
          3    1    6    6  503    0 -0.22958974830E+03  0.21028947846E+03  0.35520600107E+02  0.31336054363E+03  0.00000000000E+00 0. -1.
         -3    1    6    6    0  503 -0.21901081558E+03  0.10364778402E+03 -0.95657696270E+01  0.24248732838E+03  0.00000000000E+00 0.  1.
<mgrwt>
<rscale>  0 0.13802150E+04</rscale>
<asrwt>0</asrwt>
<pdfrwt beam="1">  1        2 0.15393402E+00 0.13802150E+04</pdfrwt>
<pdfrwt beam="2">  1       -1 0.73227161E-01 0.13802150E+04</pdfrwt>
<totfact> 0.52609824E+01</totfact>
</mgrwt>
</event>
<event>
12    7  0.1707730E-007  0.1757671E+04  0.7818608E-02  0.8729139E-01
         -1   -1    0    0    0  501 -0.00000000000E+00  0.00000000000E+00  0.48298406345E+03  0.48298406345E+03  0.00000000000E+00 0.  1.
          2   -1    0    0  501    0  0.00000000000E+00 -0.00000000000E+00 -0.15991253559E+04  0.15991253559E+04  0.00000000000E+00 0. -1.
         24    2    1    2    0    0 -0.47311698390E+03  0.29632560208E+03 -0.69262189117E+03  0.89300690017E+03  0.78023693339E+02 0.  0.
        254    2    1    2    0    0  0.47311698390E+03 -0.29632560208E+03 -0.42351940126E+03  0.11891025192E+04  0.96070160555E+03 0.  0.
         23    2    4    4    0    0  0.48240343150E+03  0.16902191926E+03  0.46407744064E+02  0.52151015167E+03  0.92399565344E+02 0.  0.
         23    2    4    4    0    0 -0.92864475982E+01 -0.46534752133E+03 -0.46992714532E+03  0.66759236748E+03  0.90628326058E+02 0.  0.
          4    1    3    3  502    0 -0.44113780297E+03  0.26596788019E+03 -0.66423777167E+03  0.84056724408E+03  0.00000000000E+00 0. -1.
         -3    1    3    3    0  502 -0.31979180936E+02  0.30357721894E+02 -0.28384119500E+02  0.52439656098E+02  0.00000000000E+00 0.  1.
         13    1    5    5    0    0  0.43770683498E+03  0.16853124956E+03  0.64191270980E+02  0.47340318412E+03  0.00000000000E+00 0. -1.
        -13    1    5    5    0    0  0.44696596520E+02  0.49066969271E+00 -0.17783526916E+02  0.48106967549E+02  0.00000000000E+00 0.  1.
          3    1    6    6  503    0 -0.36970025449E+02 -0.30727993637E+03 -0.26600784827E+03  0.40810282702E+03  0.00000000000E+00 0. -1.
         -3    1    6    6    0  503  0.27683577851E+02 -0.15806758496E+03 -0.20391929705E+03  0.25948954046E+03  0.00000000000E+00 0.  1.
<mgrwt>
<rscale>  0 0.17576713E+04</rscale>
<asrwt>0</asrwt>
<pdfrwt beam="1">  1        2 0.24601929E+00 0.17576713E+04</pdfrwt>
<pdfrwt beam="2">  1       -1 0.74305240E-01 0.17576713E+04</pdfrwt>
<totfact> 0.21964620E+01</totfact>
</mgrwt>
</event>
<event>
12    7  0.1707730E-007  0.1335655E+04  0.7818608E-02  0.9001759E-01
         -1   -1    0    0    0  501 -0.00000000000E+00  0.00000000000E+00  0.37032751873E+03  0.37032751873E+03  0.00000000000E+00 0.  1.
          2   -1    0    0  501    0  0.00000000000E+00 -0.00000000000E+00 -0.12043211083E+04  0.12043211083E+04  0.00000000000E+00 0. -1.
         24    2    1    2    0    0  0.28773691759E+03  0.66027703006E+01 -0.47767092078E+03  0.56327381682E+03  0.79194405367E+02 0.  0.
        254    2    1    2    0    0 -0.28773691759E+03 -0.66027703006E+01 -0.35632266884E+03  0.10113748103E+04  0.90170784191E+03 0.  0.
         23    2    4    4    0    0  0.15640394813E+03 -0.20616100061E+03 -0.43038720751E+03  0.51075763732E+03  0.93143236612E+02 0.  0.
         23    2    4    4    0    0 -0.44414086571E+03  0.19955823031E+03  0.74064538667E+02  0.50061717293E+03  0.89707313345E+02 0.  0.
          2    1    3    3  502    0  0.25833088512E+03  0.53828512752E-01 -0.36855343174E+03  0.45007386188E+03  0.00000000000E+00 0. -1.
         -1    1    3    3    0  502  0.29406032471E+02  0.65489417878E+01 -0.10911748904E+03  0.11319995494E+03  0.00000000000E+00 0.  1.
         13    1    5    5    0    0  0.13390668640E+03 -0.18720934583E+03 -0.42111908523E+03  0.47991626746E+03  0.00000000000E+00 0.  1.
        -13    1    5    5    0    0  0.22497261729E+02 -0.18951654776E+02 -0.92681222841E+01  0.30841369858E+02  0.00000000000E+00 0. -1.
          1    1    6    6  503    0 -0.45567329655E+01  0.17505063634E+02  0.96010047542E+01  0.20478534138E+02  0.00000000000E+00 0. -1.
         -1    1    6    6    0  503 -0.43958413275E+03  0.18205316667E+03  0.64463533913E+02  0.48013863880E+03  0.00000000000E+00 0.  1.
<mgrwt>
<rscale>  0 0.13356545E+04</rscale>
<asrwt>0</asrwt>
<pdfrwt beam="1">  1        2 0.18528017E+00 0.13356545E+04</pdfrwt>
<pdfrwt beam="2">  1       -1 0.56973465E-01 0.13356545E+04</pdfrwt>
<totfact> 0.65461862E+01</totfact>
</mgrwt>
</event>
<event>
12    7  0.1707730E-007  0.2627097E+04  0.7818608E-02  0.8359055E-01
         -1   -1    0    0    0  501 -0.00000000000E+00  0.00000000000E+00  0.12905342027E+04  0.12905342027E+04  0.00000000000E+00 0.  1.
          2   -1    0    0  501    0  0.00000000000E+00 -0.00000000000E+00 -0.13369727738E+04  0.13369727738E+04  0.00000000000E+00 0. -1.
         24    2    1    2    0    0  0.85468167555E+03  0.37501112086E+03  0.66436358087E+03  0.11485387791E+04  0.81536815565E+02 0.  0.
        254    2    1    2    0    0 -0.85468167555E+03 -0.37501112086E+03 -0.71080215191E+03  0.14789681973E+04  0.90055156561E+03 0.  0.
         23    2    4    4    0    0 -0.45170638532E+03 -0.62808323012E+03 -0.59472766238E+03  0.98055795034E+03  0.96258501326E+02 0.  0.
         23    2    4    4    0    0 -0.40297529024E+03  0.25307210926E+03 -0.11607448952E+03  0.49841024701E+03  0.92222069915E+02 0.  0.
          2    1    3    3  502    0  0.19054767251E+02  0.18027254238E+02  0.32471165665E+02  0.41742575987E+02  0.00000000000E+00 0. -1.
         -1    1    3    3    0  502  0.83562690830E+03  0.35698386662E+03  0.63189241521E+03  0.11067962031E+04  0.00000000000E+00 0.  1.
         13    1    5    5    0    0 -0.17536715152E+03 -0.21635914788E+03 -0.16050165555E+03  0.32144315227E+03  0.00000000000E+00 0. -1.
        -13    1    5    5    0    0 -0.27633923380E+03 -0.41172408224E+03 -0.43422600683E+03  0.65911479807E+03  0.00000000000E+00 0.  1.
          2    1    6    6  503    0 -0.10315810130E+03  0.10533481421E+03 -0.61482973603E+02  0.15974095590E+03  0.00000000000E+00 0. -1.
         -2    1    6    6    0  503 -0.29981718894E+03  0.14773729505E+03 -0.54591515920E+02  0.33866929111E+03  0.00000000000E+00 0.  1.
<mgrwt>
<rscale>  0 0.26270966E+04</rscale>
<asrwt>0</asrwt>
<pdfrwt beam="1">  1        2 0.20568812E+00 0.26270966E+04</pdfrwt>
<pdfrwt beam="2">  1       -1 0.19854372E+00 0.26270966E+04</pdfrwt>
<totfact> 0.24367626E+00</totfact>
</mgrwt>
</event>
<event>
12    7  0.1707730E-007  0.1905756E+04  0.7818608E-02  0.8651997E-01
         -1   -1    0    0    0  501 -0.00000000000E+00  0.00000000000E+00  0.17767257187E+04  0.17767257187E+04  0.00000000000E+00 0.  1.
          2   -1    0    0  501    0  0.00000000000E+00 -0.00000000000E+00 -0.51103893566E+03  0.51103893566E+03  0.00000000000E+00 0. -1.
         24    2    1    2    0    0 -0.50376630777E+03 -0.28364484373E+03 -0.46463377314E+02  0.58663681425E+03  0.88028496450E+02 0.  0.
        254    2    1    2    0    0  0.50376630777E+03  0.28364484373E+03  0.13121501604E+04  0.17011278401E+04  0.91534856468E+03 0.  0.
         23    2    4    4    0    0  0.61237268424E+03 -0.33767454241E+02  0.43374506892E+03  0.75652780271E+03  0.89771855736E+02 0.  0.
         23    2    4    4    0    0 -0.10860637647E+03  0.31741229797E+03  0.87840509143E+03  0.94460003740E+03  0.90154390343E+02 0.  0.
          2    1    3    3  502    0 -0.31231718409E+03 -0.14502359324E+03 -0.61496606250E+02  0.34979379447E+03  0.00000000000E+00 0. -1.
         -1    1    3    3    0  502 -0.19144912368E+03 -0.13862125049E+03  0.15033228936E+02  0.23684301978E+03  0.00000000000E+00 0.  1.
         13    1    5    5    0    0  0.18089909227E+03  0.74028505359E+01  0.84016840331E+02  0.19959487278E+03  0.00000000000E+00 0. -1.
        -13    1    5    5    0    0  0.43147359197E+03 -0.41170304777E+02  0.34972822859E+03  0.55693292993E+03  0.00000000000E+00 0.  1.
          3    1    6    6  503    0 -0.11979296664E+02  0.67497137845E+00  0.69643219851E+02  0.70669209746E+02  0.00000000000E+00 0. -1.
         -3    1    6    6    0  503 -0.96627079807E+02  0.31673732659E+03  0.80876187158E+03  0.87393082766E+03  0.00000000000E+00 0.  1.
<mgrwt>
<rscale>  0 0.19057555E+04</rscale>
<asrwt>0</asrwt>
<pdfrwt beam="1">  1        2 0.78621376E-01 0.19057555E+04</pdfrwt>
<pdfrwt beam="2">  1       -1 0.27334242E+00 0.19057555E+04</pdfrwt>
<totfact> 0.31570086E+00</totfact>
</mgrwt>
</event>
<event>
12    7  0.1707730E-007  0.1878053E+04  0.7818608E-02  0.8665858E-01
         -1   -1    0    0    0  501 -0.00000000000E+00  0.00000000000E+00  0.34138649049E+03  0.34138649049E+03  0.00000000000E+00 0.  1.
          2   -1    0    0  501    0  0.00000000000E+00 -0.00000000000E+00 -0.25829111377E+04  0.25829111377E+04  0.00000000000E+00 0. -1.
         24    2    1    2    0    0 -0.11269623004E+03 -0.39936321537E+03 -0.17790274614E+04  0.18286245592E+04  0.82083202020E+02 0.  0.
        254    2    1    2    0    0  0.11269623004E+03  0.39936321537E+03 -0.46249718583E+03  0.10956730690E+04  0.90244357673E+03 0.  0.
         23    2    4    4    0    0  0.49992027708E+03  0.25152187759E+03 -0.22750877514E+03  0.61066424760E+03  0.89258289191E+02 0.  0.
         23    2    4    4    0    0 -0.38722404703E+03  0.14784133777E+03 -0.23498841069E+03  0.48500882140E+03  0.90633768121E+02 0.  0.
          2    1    3    3  502    0 -0.95649662514E+02 -0.22578655398E+03 -0.11508885846E+04  0.11767212754E+04  0.00000000000E+00 0. -1.
         -1    1    3    3    0  502 -0.17046567527E+02 -0.17357666138E+03 -0.62813887684E+03  0.65190328380E+03  0.00000000000E+00 0.  1.
         13    1    5    5    0    0  0.32840326366E+03  0.16491629085E+03 -0.19424241934E+03  0.41566357074E+03  0.00000000000E+00 0. -1.
        -13    1    5    5    0    0  0.17151701342E+03  0.86605586745E+02 -0.33266355798E+02  0.19500067686E+03  0.00000000000E+00 0.  1.
          1    1    6    6  503    0 -0.31112237251E+03  0.77459128560E+02 -0.17691816398E+03  0.36619268701E+03  0.00000000000E+00 0. -1.
         -1    1    6    6    0  503 -0.76101674525E+02  0.70382209213E+02 -0.58070246709E+02  0.11881613439E+03  0.00000000000E+00 0.  1.
<mgrwt>
<rscale>  0 0.18780532E+04</rscale>
<asrwt>0</asrwt>
<pdfrwt beam="1">  1        2 0.39737092E+00 0.18780532E+04</pdfrwt>
<pdfrwt beam="2">  1       -1 0.52521001E-01 0.18780532E+04</pdfrwt>
<totfact> 0.12165637E+01</totfact>
</mgrwt>
</event>
<event>
12    7  0.1707730E-007  0.2308011E+04  0.7818608E-02  0.8474769E-01
          2   -1    0    0  501    0  0.00000000000E+00  0.00000000000E+00  0.99732969972E+03  0.99732969972E+03  0.00000000000E+00 0. -1.
         -1   -1    0    0    0  501 -0.00000000000E+00 -0.00000000000E+00 -0.13352943592E+04  0.13352943592E+04  0.00000000000E+00 0.  1.
         24    2    1    2    0    0 -0.14645160297E+03  0.88012639946E+03 -0.53398168417E+03  0.10427681719E+04  0.78475921025E+02 0.  0.
        254    2    1    2    0    0  0.14645160297E+03 -0.88012639946E+03  0.19601702466E+03  0.12898558871E+04  0.91062340430E+03 0.  0.
         23    2    4    4    0    0  0.35802438154E+03 -0.74329915815E+03  0.42951527574E+03  0.93447531821E+03  0.89920253346E+02 0.  0.
         23    2    4    4    0    0 -0.21157277857E+03 -0.13682724131E+03 -0.23349825108E+03  0.35538056888E+03  0.91044938794E+02 0.  0.
          4    1    3    3  502    0 -0.33438410123E+02  0.24601750030E+03 -0.18949642687E+03  0.31233256878E+03  0.00000000000E+00 0. -1.
         -1    1    3    3    0  502 -0.11301319284E+03  0.63410889915E+03 -0.34448525730E+03  0.73043560307E+03  0.00000000000E+00 0.  1.
         13    1    5    5    0    0  0.63168887138E+02 -0.76561161429E+02  0.71192896921E+02  0.12214887766E+03  0.00000000000E+00 0.  1.
        -13    1    5    5    0    0  0.29485549440E+03 -0.66673799672E+03  0.35832237882E+03  0.81232644055E+03  0.00000000000E+00 0. -1.
          4    1    6    6  503    0 -0.12522486586E+03 -0.27019507838E+02 -0.11675267353E+03  0.17332774622E+03  0.00000000000E+00 0. -1.
         -4    1    6    6    0  503 -0.86347912718E+02 -0.10980773347E+03 -0.11674557755E+03  0.18205282266E+03  0.00000000000E+00 0.  1.
<mgrwt>
<rscale>  0 0.23080110E+04</rscale>
<asrwt>0</asrwt>
<pdfrwt beam="1">  1        2 0.15343534E+00 0.23080110E+04</pdfrwt>
<pdfrwt beam="2">  1       -1 0.20542990E+00 0.23080110E+04</pdfrwt>
<totfact> 0.36084058E+00</totfact>
</mgrwt>
</event>
<event>
12    7  0.1707730E-007  0.1868219E+04  0.7818608E-02  0.8670839E-01
          2   -1    0    0  501    0  0.00000000000E+00  0.00000000000E+00  0.54082896192E+03  0.54082896192E+03  0.00000000000E+00 0. -1.
         -1   -1    0    0    0  501 -0.00000000000E+00 -0.00000000000E+00 -0.16133768164E+04  0.16133768164E+04  0.00000000000E+00 0.  1.
         24    2    1    2    0    0  0.38594924969E+03 -0.30565021934E+03 -0.10685508565E+04  0.11791873542E+04  0.79391456902E+02 0.  0.
        254    2    1    2    0    0 -0.38594924969E+03  0.30565021934E+03 -0.39969979782E+01  0.97501842414E+03  0.84158545110E+03 0.  0.
         23    2    4    4    0    0 -0.63364161247E+03  0.28144513567E+03  0.59132466401E+02  0.70157233462E+03  0.89409365731E+02 0.  0.
         23    2    4    4    0    0  0.24769236278E+03  0.24205083670E+02 -0.63129464379E+02  0.27344608951E+03  0.94074661533E+02 0.  0.
          4    1    3    3  502    0  0.57167635670E+02 -0.67309306010E+02 -0.25619583338E+03  0.27098890436E+03  0.00000000000E+00 0. -1.
         -3    1    3    3    0  502  0.32878161402E+03 -0.23834091333E+03 -0.81235502312E+03  0.90819844983E+03  0.00000000000E+00 0.  1.
         13    1    5    5    0    0 -0.51489793473E+03  0.21768774884E+03  0.81556318893E+02  0.56494183093E+03  0.00000000000E+00 0. -1.
        -13    1    5    5    0    0 -0.11874367774E+03  0.63757386833E+02 -0.22423852492E+02  0.13663050370E+03  0.00000000000E+00 0.  1.
          1    1    6    6  503    0  0.69636907992E+02  0.38473396153E+02 -0.50802788195E+02  0.94395044651E+02  0.00000000000E+00 0. -1.
         -1    1    6    6    0  503  0.17805545479E+03 -0.14268312483E+02 -0.12326676184E+02  0.17905104486E+03  0.00000000000E+00 0.  1.
<mgrwt>
<rscale>  0 0.18682194E+04</rscale>
<asrwt>0</asrwt>
<pdfrwt beam="1">  1        2 0.83204457E-01 0.18682194E+04</pdfrwt>
<pdfrwt beam="2">  1       -1 0.24821181E+00 0.18682194E+04</pdfrwt>
<totfact> 0.43147854E+00</totfact>
</mgrwt>
</event>
<event>
12    7  0.1707730E-007  0.1603496E+04  0.7818608E-02  0.8818403E-01
         -1   -1    0    0    0  501 -0.00000000000E+00  0.00000000000E+00  0.64407912947E+03  0.64407912947E+03  0.00000000000E+00 0.  1.
          2   -1    0    0  501    0  0.00000000000E+00 -0.00000000000E+00 -0.99801396990E+03  0.99801396990E+03  0.00000000000E+00 0. -1.
         24    2    1    2    0    0 -0.51136814270E+03  0.37968446973E+02  0.67689135471E+02  0.52344775177E+03  0.80478254398E+02 0.  0.
        254    2    1    2    0    0  0.51136814270E+03 -0.37968446973E+02 -0.42162397590E+03  0.11186453476E+04  0.90036751182E+03 0.  0.
         23    2    4    4    0    0  0.36730967702E+03 -0.35589078262E+03 -0.52869366480E+03  0.74178624573E+03  0.95682784041E+02 0.  0.
         23    2    4    4    0    0  0.14405846569E+03  0.31792233565E+03  0.10706968890E+03  0.37685910188E+03  0.93442021342E+02 0.  0.
          4    1    3    3  502    0 -0.41218429192E+03  0.40888895795E+02  0.23635459053E+02  0.41488122063E+03  0.00000000000E+00 0. -1.
         -3    1    3    3    0  502 -0.99183850782E+02 -0.29204488225E+01  0.44053676417E+02  0.10856653114E+03  0.00000000000E+00 0.  1.
         13    1    5    5    0    0  0.14554416519E+03 -0.19469363186E+03 -0.28883485934E+03  0.37751064923E+03  0.00000000000E+00 0.  1.
        -13    1    5    5    0    0  0.22176551182E+03 -0.16119715076E+03 -0.23985880546E+03  0.36427559650E+03  0.00000000000E+00 0. -1.
          2    1    6    6  503    0  0.54198437734E+02  0.35896504533E+02  0.13190685525E+02  0.66332675772E+02  0.00000000000E+00 0. -1.
         -2    1    6    6    0  503  0.89860027952E+02  0.28202583111E+03  0.93879003374E+02  0.31052642611E+03  0.00000000000E+00 0.  1.
<mgrwt>
<rscale>  0 0.16034961E+04</rscale>
<asrwt>0</asrwt>
<pdfrwt beam="1">  1        2 0.15354061E+00 0.16034961E+04</pdfrwt>
<pdfrwt beam="2">  1       -1 0.99089096E-01 0.16034961E+04</pdfrwt>
<totfact> 0.26899395E+01</totfact>
</mgrwt>
</event>
<event>
12    7  0.1707730E-007  0.2518637E+04  0.7818608E-02  0.8396376E-01
         -1   -1    0    0    0  501 -0.00000000000E+00  0.00000000000E+00  0.96099881853E+03  0.96099881853E+03  0.00000000000E+00 0.  1.
          2   -1    0    0  501    0  0.00000000000E+00 -0.00000000000E+00 -0.16502446445E+04  0.16502446445E+04  0.00000000000E+00 0. -1.
         24    2    1    2    0    0 -0.12954941101E+03  0.10951025855E+04 -0.16247540642E+03  0.11175569171E+04  0.80637973532E+02 0.  0.
        254    2    1    2    0    0  0.12954941101E+03 -0.10951025855E+04 -0.52677041953E+03  0.14936865459E+04  0.85882460368E+03 0.  0.
         23    2    4    4    0    0  0.34140284948E+03 -0.93787014896E+02 -0.18747986893E+03  0.41161571252E+03  0.94482187460E+02 0.  0.
         23    2    4    4    0    0 -0.21185343847E+03 -0.10013155706E+04 -0.33929055060E+03  0.10820708334E+04  0.90799005707E+02 0.  0.
          4    1    3    3  502    0 -0.32346660638E+02  0.22293257615E+03 -0.65786570912E+02  0.23467661340E+03  0.00000000000E+00 0. -1.
         -3    1    3    3    0  502 -0.97202750373E+02  0.87217000930E+03 -0.96688835507E+02  0.88288030373E+03  0.00000000000E+00 0.  1.
         13    1    5    5    0    0  0.24098059437E+03 -0.36516436780E+02 -0.88098007124E+02  0.25916472730E+03  0.00000000000E+00 0. -1.
        -13    1    5    5    0    0  0.10042225511E+03 -0.57270578116E+02 -0.99381861809E+02  0.15245098522E+03  0.00000000000E+00 0.  1.
          4    1    6    6  503    0 -0.15602641269E+03 -0.74304265719E+03 -0.29293303189E+03  0.81379751353E+03  0.00000000000E+00 0. -1.
         -4    1    6    6    0  503 -0.55827025778E+02 -0.25827291337E+03 -0.46357518709E+02  0.26827331982E+03  0.00000000000E+00 0.  1.
<mgrwt>
<rscale>  0 0.25186371E+04</rscale>
<asrwt>0</asrwt>
<pdfrwt beam="1">  1        2 0.25388379E+00 0.25186371E+04</pdfrwt>
<pdfrwt beam="2">  1       -1 0.14784597E+00 0.25186371E+04</pdfrwt>
<totfact> 0.38450508E+00</totfact>
</mgrwt>
</event>
<event>
12    7  0.1707730E-007  0.1110622E+04  0.7818608E-02  0.9194900E-01
         -1   -1    0    0    0  501 -0.00000000000E+00  0.00000000000E+00  0.64966511920E+03  0.64966511920E+03  0.00000000000E+00 0.  1.
          2   -1    0    0  501    0  0.00000000000E+00 -0.00000000000E+00 -0.47466036322E+03  0.47466036322E+03  0.00000000000E+00 0. -1.
         24    2    1    2    0    0  0.71406892584E+02 -0.17179334597E+02  0.19124978327E+03  0.21981351738E+03  0.79670753578E+02 0.  0.
        254    2    1    2    0    0 -0.71406892584E+02  0.17179334597E+02 -0.16245027281E+02  0.90451196505E+03  0.90137889933E+03 0.  0.
         23    2    4    4    0    0  0.39592764821E+03  0.65109678160E+02  0.61262695070E+02  0.41864618914E+03  0.10253556000E+03 0.  0.
         23    2    4    4    0    0 -0.46733454079E+03 -0.47930343563E+02 -0.77507722351E+02  0.48586577591E+03  0.96743032413E+02 0.  0.
          4    1    3    3  502    0 -0.45328988255E+00  0.20001971751E+02  0.12463527014E+02  0.23571674766E+02  0.00000000000E+00 0. -1.
         -3    1    3    3    0  502  0.71860182466E+02 -0.37181306348E+02  0.17878625625E+03  0.19624184261E+03  0.00000000000E+00 0.  1.
         13    1    5    5    0    0  0.17837734935E+03 -0.22080309486E+02  0.29035680558E+02  0.18206891436E+03  0.00000000000E+00 0.  1.
        -13    1    5    5    0    0  0.21755029886E+03  0.87189987646E+02  0.32227014512E+02  0.23657727478E+03  0.00000000000E+00 0. -1.
          4    1    6    6  503    0 -0.89627014873E+02 -0.35022638580E+02  0.13407117032E+02  0.97156254535E+02  0.00000000000E+00 0. -1.
         -4    1    6    6    0  503 -0.37770752592E+03 -0.12907704984E+02 -0.90914839383E+02  0.38870952137E+03  0.00000000000E+00 0.  1.
<mgrwt>
<rscale>  0 0.11106220E+04</rscale>
<asrwt>0</asrwt>
<pdfrwt beam="1">  1        2 0.73024672E-01 0.11106220E+04</pdfrwt>
<pdfrwt beam="2">  1       -1 0.99948479E-01 0.11106220E+04</pdfrwt>
<totfact> 0.70882150E+01</totfact>
</mgrwt>
</event>
<event>
12    7  0.1707730E-007  0.1333604E+04  0.7818608E-02  0.9003333E-01
          2   -1    0    0  501    0  0.00000000000E+00  0.00000000000E+00  0.16552152821E+04  0.16552152821E+04  0.00000000000E+00 0. -1.
         -1   -1    0    0    0  501 -0.00000000000E+00 -0.00000000000E+00 -0.26862073013E+03  0.26862073013E+03  0.00000000000E+00 0.  1.
         24    2    1    2    0    0 -0.19382981464E+03  0.16962478109E+03  0.73750053249E+03  0.78532943382E+03  0.80577421170E+02 0.  0.
        254    2    1    2    0    0  0.19382981464E+03 -0.16962478109E+03  0.64909401950E+03  0.11385065784E+04  0.89918386304E+03 0.  0.
         23    2    4    4    0    0  0.54584817483E+03 -0.13252422090E+03  0.41879257068E+03  0.70678100953E+03  0.92947722376E+02 0.  0.
         23    2    4    4    0    0 -0.35201836019E+03 -0.37100560184E+02  0.23030144883E+03  0.43172556889E+03  0.89748716022E+02 0.  0.
          4    1    3    3  502    0 -0.16778909882E+03  0.16309126414E+03  0.57769625022E+03  0.62328556829E+03  0.00000000000E+00 0. -1.
         -3    1    3    3    0  502 -0.26040715815E+02  0.65335169446E+01  0.15980428227E+03  0.16204386553E+03  0.00000000000E+00 0.  1.
         13    1    5    5    0    0  0.14562651918E+03 -0.78568886782E+02  0.12512886646E+03  0.20745454027E+03  0.00000000000E+00 0.  1.
        -13    1    5    5    0    0  0.40022165565E+03 -0.53955334122E+02  0.29366370422E+03  0.49932646926E+03  0.00000000000E+00 0. -1.
          4    1    6    6  503    0 -0.21182512645E+03 -0.65906014736E+02  0.13288657318E+03  0.25859684512E+03  0.00000000000E+00 0. -1.
         -4    1    6    6    0  503 -0.14019323374E+03  0.28805454552E+02  0.97414875642E+02  0.17312872377E+03  0.00000000000E+00 0.  1.
<mgrwt>
<rscale>  0 0.13336043E+04</rscale>
<asrwt>0</asrwt>
<pdfrwt beam="1">  1        2 0.25464850E+00 0.13336043E+04</pdfrwt>
<pdfrwt beam="2">  1       -1 0.41326267E-01 0.13336043E+04</pdfrwt>
<totfact> 0.66375250E+01</totfact>
</mgrwt>
</event>
<event>
12    7  0.1707730E-007  0.2347231E+04  0.7818608E-02  0.8459528E-01
          2   -1    0    0  501    0  0.00000000000E+00  0.00000000000E+00  0.15234240475E+04  0.15234240475E+04  0.00000000000E+00 0. -1.
         -1   -1    0    0    0  501 -0.00000000000E+00 -0.00000000000E+00 -0.90412978282E+03  0.90412978282E+03  0.00000000000E+00 0.  1.
         24    2    1    2    0    0 -0.96619461082E+02 -0.80389448830E+03 -0.33740274787E+03  0.88077768326E+03  0.79668340518E+02 0.  0.
        254    2    1    2    0    0  0.96619461082E+02  0.80389448830E+03  0.95669701258E+03  0.15467761471E+04  0.90645772474E+03 0.  0.
         23    2    4    4    0    0 -0.21365363240E+03  0.55153180166E+03  0.11353721172E+03  0.60914088191E+03  0.91250822941E+02 0.  0.
         23    2    4    4    0    0  0.31027309348E+03  0.25236268664E+03  0.84315980087E+03  0.93763526519E+03  0.91022648692E+02 0.  0.
          4    1    3    3  502    0 -0.56505810578E+02 -0.35236300754E+03 -0.18881199595E+03  0.40373576201E+03  0.00000000000E+00 0. -1.
         -3    1    3    3    0  502 -0.40113650504E+02 -0.45153148075E+03 -0.14859075192E+03  0.47704192124E+03  0.00000000000E+00 0.  1.
         13    1    5    5    0    0 -0.86521166836E+02  0.18322290934E+03 -0.23534127236E+01  0.20263781821E+03  0.00000000000E+00 0. -1.
        -13    1    5    5    0    0 -0.12713246556E+03  0.36830889232E+03  0.11589062444E+03  0.40650306370E+03  0.00000000000E+00 0.  1.
          1    1    6    6  503    0  0.57819481323E+02  0.83125656180E+02  0.15245109978E+03  0.18301449385E+03  0.00000000000E+00 0. -1.
         -1    1    6    6    0  503  0.25245361216E+03  0.16923703046E+03  0.69070870109E+03  0.75462077133E+03  0.00000000000E+00 0.  1.
<mgrwt>
<rscale>  0 0.23472308E+04</rscale>
<asrwt>0</asrwt>
<pdfrwt beam="1">  1        2 0.23437293E+00 0.23472308E+04</pdfrwt>
<pdfrwt beam="2">  1       -1 0.13909689E+00 0.23472308E+04</pdfrwt>
<totfact> 0.54001849E+00</totfact>
</mgrwt>
</event>
<event>
12    7  0.1707730E-007  0.1191035E+04  0.7818608E-02  0.9120740E-01
         -1   -1    0    0    0  501 -0.00000000000E+00  0.00000000000E+00  0.40034605436E+03  0.40034605436E+03  0.00000000000E+00 0.  1.
          2   -1    0    0  501    0  0.00000000000E+00 -0.00000000000E+00 -0.88583701837E+03  0.88583701837E+03  0.00000000000E+00 0. -1.
         24    2    1    2    0    0  0.11806162733E+02 -0.97703168610E+02  0.12647223893E+03  0.17887878261E+03  0.79480167422E+02 0.  0.
        254    2    1    2    0    0 -0.11806162733E+02  0.97703168610E+02 -0.61196320294E+03  0.11073042901E+04  0.91757208683E+03 0.  0.
         23    2    4    4    0    0 -0.58430198377E+02 -0.88045221932E+02 -0.80743874587E+03  0.81895863669E+03  0.87005006153E+02 0.  0.
         23    2    4    4    0    0  0.46624035645E+02  0.18574839054E+03  0.19547554292E+03  0.28834565343E+03  0.90863979005E+02 0.  0.
          2    1    3    3  502    0 -0.15815965336E+02 -0.19384715647E+02 -0.28578355917E+01  0.25180928984E+02  0.00000000000E+00 0. -1.
         -1    1    3    3    0  502  0.27622128068E+02 -0.78318452963E+02  0.12933007452E+03  0.15369785363E+03  0.00000000000E+00 0.  1.
         13    1    5    5    0    0 -0.29437146323E+02  0.12623882959E+02 -0.20180730371E+03  0.20433329595E+03  0.00000000000E+00 0. -1.
        -13    1    5    5    0    0 -0.28993052054E+02 -0.10066910489E+03 -0.60563144216E+03  0.61462534074E+03  0.00000000000E+00 0.  1.
          4    1    6    6  503    0  0.31050967597E+02  0.67628015465E+02  0.21454240165E+02  0.77446726758E+02  0.00000000000E+00 0. -1.
         -4    1    6    6    0  503  0.15573068048E+02  0.11812037508E+03  0.17402130276E+03  0.21089892667E+03  0.00000000000E+00 0.  1.
<mgrwt>
<rscale>  0 0.11910354E+04</rscale>
<asrwt>0</asrwt>
<pdfrwt beam="1">  1        2 0.13628262E+00 0.11910354E+04</pdfrwt>
<pdfrwt beam="2">  1       -1 0.61591701E-01 0.11910354E+04</pdfrwt>
<totfact> 0.90318733E+01</totfact>
</mgrwt>
</event>
<event>
12    7  0.1707730E-007  0.1396145E+04  0.7818608E-02  0.8956614E-01
         -1   -1    0    0    0  501 -0.00000000000E+00  0.00000000000E+00  0.25956974832E+03  0.25956974832E+03  0.00000000000E+00 0.  1.
          2   -1    0    0  501    0  0.00000000000E+00 -0.00000000000E+00 -0.18773571601E+04  0.18773571601E+04  0.00000000000E+00 0. -1.
         24    2    1    2    0    0  0.13846664190E+03 -0.15835598232E+03  0.46918276947E+02  0.23067706505E+03  0.82225030091E+02 0.  0.
        254    2    1    2    0    0 -0.13846664190E+03  0.15835598232E+03 -0.16647056887E+04  0.19062498433E+04  0.90459593587E+03 0.  0.
         23    2    4    4    0    0  0.46773708969E+02  0.47896113419E+03 -0.12520773337E+04  0.13444345497E+04  0.90636973069E+02 0.  0.
         23    2    4    4    0    0 -0.18524035087E+03 -0.32060515187E+03 -0.41262835494E+03  0.56181529361E+03  0.90953910519E+02 0.  0.
          2    1    3    3  502    0  0.16702108232E+02 -0.78216982841E+02  0.19992698146E+02  0.82441280942E+02  0.00000000000E+00 0. -1.
         -1    1    3    3    0  502  0.12176453367E+03 -0.80138999479E+02  0.26925578800E+02  0.14823578411E+03  0.00000000000E+00 0.  1.
         13    1    5    5    0    0  0.74372241868E+02  0.35270304638E+03 -0.92345098861E+03  0.99130842711E+03  0.00000000000E+00 0.  1.
        -13    1    5    5    0    0 -0.27598532899E+02  0.12625808780E+03 -0.32862634514E+03  0.35312612261E+03  0.00000000000E+00 0. -1.
          3    1    6    6  503    0 -0.12555959200E+03 -0.27122903726E+03 -0.36126750097E+03  0.46887589941E+03  0.00000000000E+00 0. -1.
         -3    1    6    6    0  503 -0.59680758867E+02 -0.49376114609E+02 -0.51360853978E+02  0.92939394199E+02  0.00000000000E+00 0.  1.
<mgrwt>
<rscale>  0 0.13961449E+04</rscale>
<asrwt>0</asrwt>
<pdfrwt beam="1">  1        2 0.28882418E+00 0.13961449E+04</pdfrwt>
<pdfrwt beam="2">  1       -1 0.39933807E-01 0.13961449E+04</pdfrwt>
<totfact> 0.52976030E+01</totfact>
</mgrwt>
</event>
<event>
12    7  0.1707730E-007  0.1299599E+04  0.7818608E-02  0.9029883E-01
          2   -1    0    0  501    0  0.00000000000E+00  0.00000000000E+00  0.54727653212E+03  0.54727653212E+03  0.00000000000E+00 0. -1.
         -1   -1    0    0    0  501 -0.00000000000E+00 -0.00000000000E+00 -0.77152845492E+03  0.77152845492E+03  0.00000000000E+00 0.  1.
         24    2    1    2    0    0 -0.14729443751E+03  0.25737397601E+03  0.93831557092E+02  0.32118942617E+03  0.80132836757E+02 0.  0.
        254    2    1    2    0    0  0.14729443751E+03 -0.25737397601E+03 -0.31808347989E+03  0.99761556087E+03  0.89784335620E+03 0.  0.
         23    2    4    4    0    0  0.15849298544E+03  0.31052826154E+03 -0.19189017241E+03  0.40886184964E+03  0.93799499850E+02 0.  0.
         23    2    4    4    0    0 -0.11198547931E+02 -0.56790223755E+03 -0.12619330748E+03  0.58875371124E+03  0.89821059637E+02 0.  0.
          4    1    3    3  502    0 -0.13584860869E+03  0.24041322814E+03  0.10777710902E+03  0.29642751218E+03  0.00000000000E+00 0. -1.
         -3    1    3    3    0  502 -0.11445828822E+02  0.16960747872E+02 -0.13945551931E+02  0.24761913990E+02  0.00000000000E+00 0.  1.
         13    1    5    5    0    0 -0.11298971803E+02  0.71535578728E+01 -0.74985023221E+01  0.15331917399E+02  0.00000000000E+00 0. -1.
        -13    1    5    5    0    0  0.16979195724E+03  0.30337470366E+03 -0.18439167009E+03  0.39352993224E+03  0.00000000000E+00 0.  1.
          2    1    6    6  503    0 -0.56983766250E+01 -0.23573303357E+03 -0.73324303333E+01  0.23591587302E+03  0.00000000000E+00 0.  1.
         -2    1    6    6    0  503 -0.55001713065E+01 -0.33216920398E+03 -0.11886087714E+03  0.35283783821E+03  0.00000000000E+00 0. -1.
<mgrwt>
<rscale>  0 0.12995990E+04</rscale>
<asrwt>0</asrwt>
<pdfrwt beam="1">  1        2 0.84196390E-01 0.12995990E+04</pdfrwt>
<pdfrwt beam="2">  1       -1 0.11869668E+00 0.12995990E+04</pdfrwt>
<totfact> 0.39472455E+01</totfact>
</mgrwt>
</event>
<event>
12    7  0.1707730E-007  0.1119949E+04  0.7818608E-02  0.9185963E-01
         -1   -1    0    0    0  501 -0.00000000000E+00  0.00000000000E+00  0.11361090060E+04  0.11361090060E+04  0.00000000000E+00 0.  1.
          2   -1    0    0  501    0  0.00000000000E+00 -0.00000000000E+00 -0.27600478708E+03  0.27600478708E+03  0.00000000000E+00 0. -1.
         24    2    1    2    0    0 -0.39756887818E+02  0.10519138116E+03  0.43599579377E+03  0.45718067899E+03  0.79221236165E+02 0.  0.
        254    2    1    2    0    0  0.39756887818E+02 -0.10519138116E+03  0.42410842518E+03  0.95493311411E+03  0.84816475954E+03 0.  0.
         23    2    4    4    0    0 -0.26637024146E+03  0.18741313478E+03 -0.14467021626E+02  0.33869687188E+03  0.91812241463E+02 0.  0.
         23    2    4    4    0    0  0.30612712928E+03 -0.29260451595E+03  0.43857544681E+03  0.61623624223E+03  0.89819049540E+02 0.  0.
          4    1    3    3  502    0 -0.51316628908E+02  0.31301270271E+02  0.23965012914E+03  0.24707357269E+03  0.00000000000E+00 0. -1.
         -3    1    3    3    0  502  0.11559741090E+02  0.73890110892E+02  0.19634566463E+03  0.21010710630E+03  0.00000000000E+00 0.  1.
         13    1    5    5    0    0  0.37006197043E+01  0.57905141975E+01  0.10203525379E+02  0.12301892986E+02  0.00000000000E+00 0. -1.
        -13    1    5    5    0    0 -0.27007086117E+03  0.18162262059E+03 -0.24670547005E+02  0.32639497890E+03  0.00000000000E+00 0.  1.
          2    1    6    6  503    0  0.20405794274E+02 -0.36390866739E+02  0.14209565919E+02  0.44074974595E+02  0.00000000000E+00 0. -1.
         -2    1    6    6    0  503  0.28572133501E+03 -0.25621364921E+03  0.42436588089E+03  0.57216126763E+03  0.00000000000E+00 0.  1.
<mgrwt>
<rscale>  0 0.11199491E+04</rscale>
<asrwt>0</asrwt>
<pdfrwt beam="1">  1        2 0.42462275E-01 0.11199491E+04</pdfrwt>
<pdfrwt beam="2">  1       -1 0.17478600E+00 0.11199491E+04</pdfrwt>
<totfact> 0.31099890E+01</totfact>
</mgrwt>
</event>
<event>
12    7  0.1707730E-007  0.1689811E+04  0.7818608E-02  0.8767197E-01
          2   -1    0    0  501    0  0.00000000000E+00  0.00000000000E+00  0.23466455410E+04  0.23466455410E+04  0.00000000000E+00 0. -1.
         -1   -1    0    0    0  501 -0.00000000000E+00 -0.00000000000E+00 -0.30420675050E+03  0.30420675050E+03  0.00000000000E+00 0.  1.
         24    2    1    2    0    0 -0.17304628024E+03 -0.65736752174E+02 -0.18097543278E+03  0.27549554545E+03  0.94230316791E+02 0.  0.
        254    2    1    2    0    0  0.17304628024E+03  0.65736752174E+02  0.22234142233E+04  0.23753567460E+04  0.81515797672E+03 0.  0.
         23    2    4    4    0    0 -0.17411208874E+02 -0.28011123638E+03  0.16310426661E+04  0.16574948629E+04  0.90683994716E+02 0.  0.
         23    2    4    4    0    0  0.19045748911E+03  0.34584798855E+03  0.59237155716E+03  0.71786188315E+03  0.92394454380E+02 0.  0.
          4    1    3    3  502    0 -0.39469919941E+02  0.19935119513E+02 -0.66360824324E+02  0.79743605230E+02  0.00000000000E+00 0. -1.
         -3    1    3    3    0  502 -0.13357636030E+03 -0.85671871687E+02 -0.11461460846E+03  0.19575194022E+03  0.00000000000E+00 0.  1.
         13    1    5    5    0    0 -0.51157241661E+02 -0.19080345376E+03  0.11846198808E+04  0.12009776364E+04  0.00000000000E+00 0. -1.
        -13    1    5    5    0    0  0.33746032787E+02 -0.89307782613E+02  0.44642278534E+03  0.45651722644E+03  0.00000000000E+00 0.  1.
          2    1    6    6  503    0  0.12233180297E+03  0.27626681617E+03  0.49651833425E+03  0.58122188532E+03  0.00000000000E+00 0. -1.
         -2    1    6    6    0  503  0.68125686149E+02  0.69581172382E+02  0.95853222913E+02  0.13663999783E+03  0.00000000000E+00 0.  1.
<mgrwt>
<rscale>  0 0.16898111E+04</rscale>
<asrwt>0</asrwt>
<pdfrwt beam="1">  1        2 0.36102238E+00 0.16898111E+04</pdfrwt>
<pdfrwt beam="2">  1       -1 0.46801040E-01 0.16898111E+04</pdfrwt>
<totfact> 0.21064075E+01</totfact>
</mgrwt>
</event>
<event>
12    7  0.1707730E-007  0.1107619E+04  0.7818608E-02  0.9197797E-01
          2   -1    0    0  501    0  0.00000000000E+00  0.00000000000E+00  0.10722747832E+04  0.10722747832E+04  0.00000000000E+00 0. -1.
         -1   -1    0    0    0  501 -0.00000000000E+00 -0.00000000000E+00 -0.28603213478E+03  0.28603213478E+03  0.00000000000E+00 0.  1.
         24    2    1    2    0    0 -0.10146480366E+03  0.11095022163E+03  0.27410562251E+03  0.32338490926E+03  0.82697334804E+02 0.  0.
        254    2    1    2    0    0  0.10146480366E+03 -0.11095022163E+03  0.51213702593E+03  0.10349220087E+04  0.88666463378E+03 0.  0.
         23    2    4    4    0    0 -0.22219398210E+02 -0.45968303835E+03  0.44804833792E+03  0.64871359300E+03  0.90993490059E+02 0.  0.
         23    2    4    4    0    0  0.12368420187E+03  0.34873281672E+03  0.64088688007E+02  0.38620841574E+03  0.90206547497E+02 0.  0.
          2    1    3    3  502    0 -0.10312544982E+03  0.12212665048E+03  0.26124463071E+03  0.30626546366E+03  0.00000000000E+00 0. -1.
         -1    1    3    3    0  502  0.16606461554E+01 -0.11176428850E+02  0.12860991801E+02  0.17119445599E+02  0.00000000000E+00 0.  1.
         13    1    5    5    0    0 -0.27051910624E+02 -0.37238352673E+03  0.30989489304E+03  0.48521762291E+03  0.00000000000E+00 0.  1.
        -13    1    5    5    0    0  0.48325124144E+01 -0.87299511614E+02  0.13815344488E+03  0.16349597009E+03  0.00000000000E+00 0. -1.
          3    1    6    6  503    0  0.80014479840E+02  0.24512333639E+03  0.21940356657E+01  0.25786155359E+03  0.00000000000E+00 0. -1.
         -3    1    6    6    0  503  0.43669722032E+02  0.10360948033E+03  0.61894652342E+02  0.12834686215E+03  0.00000000000E+00 0.  1.
<mgrwt>
<rscale>  0 0.11076191E+04</rscale>
<asrwt>0</asrwt>
<pdfrwt beam="1">  1        2 0.16496535E+00 0.11076191E+04</pdfrwt>
<pdfrwt beam="2">  1       -1 0.44004944E-01 0.11076191E+04</pdfrwt>
<totfact> 0.13089433E+02</totfact>
</mgrwt>
</event>
<event>
12    7  0.1707730E-007  0.1418183E+04  0.7818608E-02  0.8940761E-01
          2   -1    0    0  501    0  0.00000000000E+00  0.00000000000E+00  0.28017254137E+04  0.28017254137E+04  0.00000000000E+00 0. -1.
         -1   -1    0    0    0  501 -0.00000000000E+00 -0.00000000000E+00 -0.17946469437E+03  0.17946469437E+03  0.00000000000E+00 0.  1.
         24    2    1    2    0    0 -0.17877247926E+03  0.11674619552E+02 -0.96050945377E+01  0.19528372287E+03  0.77120545227E+02 0.  0.
        254    2    1    2    0    0  0.17877247926E+03 -0.11674619552E+02  0.26318658139E+04  0.27859063852E+04  0.89580177990E+03 0.  0.
         23    2    4    4    0    0 -0.20322392897E+03  0.31321775971E+03  0.84763657212E+03  0.93043069002E+03  0.88363908033E+02 0.  0.
         23    2    4    4    0    0  0.38199640822E+03 -0.32489237926E+03  0.17842292418E+04  0.18554756952E+04  0.88542387154E+02 0.  0.
          2    1    3    3  502    0 -0.28642970902E+02  0.32494847601E+02  0.11943240500E+01  0.43333143350E+02  0.00000000000E+00 0. -1.
         -1    1    3    3    0  502 -0.15012950836E+03 -0.20820228048E+02 -0.10799418588E+02  0.15195057952E+03  0.00000000000E+00 0.  1.
         13    1    5    5    0    0 -0.20505453003E+03  0.30540668469E+03  0.78081893603E+03  0.86313313817E+03  0.00000000000E+00 0.  1.
        -13    1    5    5    0    0  0.18306010604E+01  0.78110750108E+01  0.66817636092E+02  0.67297551857E+02  0.00000000000E+00 0. -1.
          3    1    6    6  503    0  0.88738422073E+02 -0.77076432088E+02  0.56990572189E+03  0.58190017682E+03  0.00000000000E+00 0. -1.
         -3    1    6    6    0  503  0.29325798615E+03 -0.24781594717E+03  0.12143235199E+04  0.12735755184E+04  0.00000000000E+00 0.  1.
<mgrwt>
<rscale>  0 0.14181831E+04</rscale>
<asrwt>0</asrwt>
<pdfrwt beam="1">  1        2 0.43103465E+00 0.14181831E+04</pdfrwt>
<pdfrwt beam="2">  1       -1 0.27609955E-01 0.14181831E+04</pdfrwt>
<totfact> 0.30322236E+01</totfact>
</mgrwt>
</event>
<event>
12    7  0.1707730E-007  0.1139561E+04  0.7818608E-02  0.9167468E-01
          2   -1    0    0  501    0  0.00000000000E+00  0.00000000000E+00  0.19005284307E+04  0.19005284307E+04  0.00000000000E+00 0. -1.
         -1   -1    0    0    0  501 -0.00000000000E+00 -0.00000000000E+00 -0.17082084256E+03  0.17082084256E+03  0.00000000000E+00 0.  1.
         24    2    1    2    0    0 -0.87276665159E+01  0.12210330337E+03  0.16530748759E+03  0.22087374745E+03  0.80456559710E+02 0.  0.
        254    2    1    2    0    0  0.87276665159E+01 -0.12210330337E+03  0.15644001006E+04  0.18504755259E+04  0.98077857245E+03 0.  0.
         23    2    4    4    0    0 -0.14148778472E+03  0.32935437771E+03  0.11601412400E+04  0.12178313456E+04  0.93232989112E+02 0.  0.
         23    2    4    4    0    0  0.15021545124E+03 -0.45145768108E+03  0.40425886059E+03  0.63264418024E+03  0.10215044211E+03 0.  0.
          2    1    3    3  502    0 -0.22278691840E+02 -0.54687690592E+00  0.17546841050E+02  0.28364252419E+02  0.00000000000E+00 0. -1.
         -1    1    3    3    0  502  0.13551025324E+02  0.12265018028E+03  0.14776064654E+03  0.19250949503E+03  0.00000000000E+00 0.  1.
         13    1    5    5    0    0 -0.20832993522E+02  0.14511049484E+03  0.54830564234E+03  0.56756510354E+03  0.00000000000E+00 0.  1.
        -13    1    5    5    0    0 -0.12065479120E+03  0.18424388287E+03  0.61183559767E+03  0.65026624208E+03  0.00000000000E+00 0. -1.
          4    1    6    6  503    0  0.15231442156E+03 -0.40538740840E+03  0.32692679343E+03  0.54260460942E+03  0.00000000000E+00 0. -1.
         -4    1    6    6    0  503 -0.20989703174E+01 -0.46070272686E+02  0.77332067161E+02  0.90039570819E+02  0.00000000000E+00 0.  1.
<mgrwt>
<rscale>  0 0.11395611E+04</rscale>
<asrwt>0</asrwt>
<pdfrwt beam="1">  1        2 0.29238897E+00 0.11395611E+04</pdfrwt>
<pdfrwt beam="2">  1       -1 0.26280131E-01 0.11395611E+04</pdfrwt>
<totfact> 0.11016209E+02</totfact>
</mgrwt>
</event>
<event>
12    7  0.1707730E-007  0.2018130E+04  0.7818608E-02  0.8598191E-01
          2   -1    0    0  501    0  0.00000000000E+00  0.00000000000E+00  0.13818475656E+04  0.13818475656E+04  0.00000000000E+00 0. -1.
         -1   -1    0    0    0  501 -0.00000000000E+00 -0.00000000000E+00 -0.73684839805E+03  0.73684839805E+03  0.00000000000E+00 0.  1.
         24    2    1    2    0    0  0.12147898264E+03 -0.48349304115E+03  0.93468231347E+03  0.10621472346E+04  0.77479396060E+02 0.  0.
        254    2    1    2    0    0 -0.12147898264E+03  0.48349304115E+03 -0.28968314595E+03  0.10565487290E+04  0.88535655398E+03 0.  0.
         23    2    4    4    0    0 -0.45969101372E+03  0.28769141058E+03 -0.34799317043E+03  0.65099172020E+03  0.92783604598E+02 0.  0.
         23    2    4    4    0    0  0.33821203109E+03  0.19580163057E+03  0.58310024479E+02  0.40555700882E+03  0.91382558173E+02 0.  0.
          4    1    3    3  502    0  0.12440219051E+03 -0.38411722675E+03  0.77922042869E+03  0.87761405264E+03  0.00000000000E+00 0. -1.
         -3    1    3    3    0  502 -0.29232078670E+01 -0.99375814400E+02  0.15546188478E+03  0.18453318198E+03  0.00000000000E+00 0.  1.
         13    1    5    5    0    0 -0.15076386114E+02  0.33097155635E+02 -0.11992832585E+02  0.38295524057E+02  0.00000000000E+00 0.  1.
        -13    1    5    5    0    0 -0.44461462761E+03  0.25459425494E+03 -0.33600033784E+03  0.61269619614E+03  0.00000000000E+00 0. -1.
          1    1    6    6  503    0  0.33238502935E+03  0.16707998669E+03  0.55129196348E+02  0.37607812749E+03  0.00000000000E+00 0. -1.
         -1    1    6    6    0  503  0.58270017388E+01  0.28721643883E+02  0.31808281313E+01  0.29478881325E+02  0.00000000000E+00 0.  1.
<mgrwt>
<rscale>  0 0.20181300E+04</rscale>
<asrwt>0</asrwt>
<pdfrwt beam="1">  1        2 0.21259193E+00 0.20181300E+04</pdfrwt>
<pdfrwt beam="2">  1       -1 0.11336129E+00 0.20181300E+04</pdfrwt>
<totfact> 0.11133466E+01</totfact>
</mgrwt>
</event>
<event>
12    7  0.1707730E-007  0.1870769E+04  0.7818608E-02  0.8669545E-01
          2   -1    0    0  501    0  0.00000000000E+00  0.00000000000E+00  0.15770545176E+04  0.15770545176E+04  0.00000000000E+00 0. -1.
         -1   -1    0    0    0  501 -0.00000000000E+00 -0.00000000000E+00 -0.55479643952E+03  0.55479643952E+03  0.00000000000E+00 0.  1.
         24    2    1    2    0    0  0.54821541181E+03 -0.76816647356E+02  0.90882750301E+03  0.10674827032E+04  0.84326486525E+02 0.  0.
        254    2    1    2    0    0 -0.54821541181E+03  0.76816647356E+02  0.11343057512E+03  0.10643682540E+04  0.90198245528E+03 0.  0.
         23    2    4    4    0    0  0.14018773295E+03  0.21297120106E+03  0.21948019211E+03  0.34870930638E+03  0.91745804674E+02 0.  0.
         23    2    4    4    0    0 -0.68840314476E+03 -0.13615455370E+03 -0.10604961699E+03  0.71565894760E+03  0.92110020103E+02 0.  0.
          4    1    3    3  502    0  0.51961220341E+03 -0.56624672770E+02  0.82505266356E+03  0.97668576991E+03  0.00000000000E+00 0. -1.
         -3    1    3    3    0  502  0.28603208399E+02 -0.20191974586E+02  0.83774839442E+02  0.90796933274E+02  0.00000000000E+00 0.  1.
         13    1    5    5    0    0  0.13690681477E+03  0.17401206066E+03  0.14522562733E+03  0.26479077782E+03  0.00000000000E+00 0. -1.
        -13    1    5    5    0    0  0.32809181846E+01  0.38959140397E+02  0.74254564778E+02  0.83918528555E+02  0.00000000000E+00 0.  1.
          2    1    6    6  503    0 -0.13296441724E+03 -0.50638573342E+02  0.68576749577E+01  0.14244588119E+03  0.00000000000E+00 0. -1.
         -2    1    6    6    0  503 -0.55543872752E+03 -0.85515980362E+02 -0.11290729194E+03  0.57321306641E+03  0.00000000000E+00 0.  1.
<mgrwt>
<rscale>  0 0.18707691E+04</rscale>
<asrwt>0</asrwt>
<pdfrwt beam="1">  1        2 0.24262377E+00 0.18707691E+04</pdfrwt>
<pdfrwt beam="2">  1       -1 0.85353299E-01 0.18707691E+04</pdfrwt>
<totfact> 0.16668543E+01</totfact>
</mgrwt>
</event>
<event>
12    7  0.1707730E-007  0.3341950E+04  0.7818608E-02  0.8152302E-01
          2   -1    0    0  501    0  0.00000000000E+00  0.00000000000E+00  0.17792919478E+04  0.17792919478E+04  0.00000000000E+00 0. -1.
         -1   -1    0    0    0  501 -0.00000000000E+00 -0.00000000000E+00 -0.15692523260E+04  0.15692523260E+04  0.00000000000E+00 0.  1.
         24    2    1    2    0    0  0.23446852865E+03 -0.13004011241E+04 -0.71021995592E+03  0.15023032574E+04  0.80524014397E+02 0.  0.
        254    2    1    2    0    0 -0.23446852865E+03  0.13004011241E+04  0.92025957778E+03  0.18462410164E+04  0.90316644405E+03 0.  0.
         23    2    4    4    0    0  0.13837421355E+03  0.20829619251E+03 -0.11820224802E+03  0.29108525461E+03  0.90686973857E+02 0.  0.
         23    2    4    4    0    0 -0.37284274220E+03  0.10921049316E+04  0.10384618258E+04  0.15551557618E+04  0.91660175409E+02 0.  0.
          2    1    3    3  502    0  0.11910827771E+02 -0.22621117395E+03 -0.13357613991E+03  0.26297518551E+03  0.00000000000E+00 0. -1.
         -1    1    3    3    0  502  0.22255770088E+03 -0.10741899501E+04 -0.57664381601E+03  0.12393280719E+04  0.00000000000E+00 0.  1.
         13    1    5    5    0    0  0.11685044400E+03  0.13402433548E+03 -0.42389729669E+02  0.18279342971E+03  0.00000000000E+00 0. -1.
        -13    1    5    5    0    0  0.21523769551E+02  0.74271857023E+02 -0.75812518354E+02  0.10829182490E+03  0.00000000000E+00 0.  1.
          3    1    6    6  503    0 -0.17579105767E+03  0.39161913010E+03  0.41141934701E+03  0.59458718294E+03  0.00000000000E+00 0. -1.
         -3    1    6    6    0  503 -0.19705168452E+03  0.70048580150E+03  0.62704247879E+03  0.96056857885E+03  0.00000000000E+00 0.  1.
<mgrwt>
<rscale>  0 0.33419503E+04</rscale>
<asrwt>0</asrwt>
<pdfrwt beam="1">  1        2 0.27373722E+00 0.33419503E+04</pdfrwt>
<pdfrwt beam="2">  1       -1 0.24142344E+00 0.33419503E+04</pdfrwt>
<totfact> 0.66590651E-01</totfact>
</mgrwt>
</event>
<event>
12    7  0.1707730E-007  0.1553851E+04  0.7818608E-02  0.8849412E-01
         -1   -1    0    0    0  501 -0.00000000000E+00  0.00000000000E+00  0.32011167278E+03  0.32011167278E+03  0.00000000000E+00 0.  1.
          2   -1    0    0  501    0  0.00000000000E+00 -0.00000000000E+00 -0.18856329417E+04  0.18856329417E+04  0.00000000000E+00 0. -1.
         24    2    1    2    0    0 -0.42896954905E+03 -0.36855651560E+03 -0.39642932607E+03  0.69515519259E+03  0.78966777926E+02 0.  0.
        254    2    1    2    0    0  0.42896954905E+03  0.36855651560E+03 -0.11690919429E+04  0.15105894219E+04  0.77152812750E+03 0.  0.
         23    2    4    4    0    0  0.64841014787E+02 -0.11505242009E+03 -0.75385362872E+03  0.77080120026E+03  0.91639403168E+02 0.  0.
         23    2    4    4    0    0  0.36412853427E+03  0.48360893569E+03 -0.41523831415E+03  0.73978822166E+03  0.91632762845E+02 0.  0.
          2    1    3    3  502    0 -0.22589433849E+02 -0.47401259620E+02 -0.45777570320E+02  0.69661667218E+02  0.00000000000E+00 0. -1.
         -1    1    3    3    0  502 -0.40638011520E+03 -0.32115525598E+03 -0.35065175575E+03  0.62549352537E+03  0.00000000000E+00 0.  1.
         13    1    5    5    0    0  0.61448266395E+02 -0.12765011609E+03 -0.60450635731E+03  0.62088515653E+03  0.00000000000E+00 0. -1.
        -13    1    5    5    0    0  0.33927483916E+01  0.12597696000E+02 -0.14934727142E+03  0.14991604373E+03  0.00000000000E+00 0.  1.
          1    1    6    6  503    0  0.21798678099E+03  0.35953391644E+03 -0.27905392659E+03  0.50463250757E+03  0.00000000000E+00 0. -1.
         -1    1    6    6    0  503  0.14614175328E+03  0.12407501925E+03 -0.13618438756E+03  0.23515571409E+03  0.00000000000E+00 0.  1.
<mgrwt>
<rscale>  0 0.15538508E+04</rscale>
<asrwt>0</asrwt>
<pdfrwt beam="1">  1        2 0.29009737E+00 0.15538508E+04</pdfrwt>
<pdfrwt beam="2">  1       -1 0.49247951E-01 0.15538508E+04</pdfrwt>
<totfact> 0.35028992E+01</totfact>
</mgrwt>
</event>
<event>
12    7  0.1707730E-007  0.1640130E+04  0.7818608E-02  0.8796267E-01
         -1   -1    0    0    0  501 -0.00000000000E+00  0.00000000000E+00  0.33625789449E+03  0.33625789449E+03  0.00000000000E+00 0.  1.
          2   -1    0    0  501    0  0.00000000000E+00 -0.00000000000E+00 -0.19999738200E+04  0.19999738200E+04  0.00000000000E+00 0. -1.
         24    2    1    2    0    0 -0.45600772308E+03  0.62434145022E+02 -0.10503729828E+04  0.11496434961E+04  0.80967272671E+02 0.  0.
        254    2    1    2    0    0  0.45600772308E+03 -0.62434145022E+02 -0.61334294267E+03  0.11865882183E+04  0.90551696202E+03 0.  0.
         23    2    4    4    0    0  0.58486434884E+03 -0.30640930771E+03 -0.22886751892E+03  0.70447061599E+03  0.89137742758E+02 0.  0.
         23    2    4    4    0    0 -0.12885662575E+03  0.24397516269E+03 -0.38447542375E+03  0.48211760231E+03  0.92130999029E+02 0.  0.
          2    1    3    3  502    0 -0.24479711050E+03  0.67385791699E+01 -0.47965580663E+03  0.53855429308E+03  0.00000000000E+00 0. -1.
         -1    1    3    3    0  502 -0.21121061258E+03  0.55695565852E+02 -0.57071717617E+03  0.61108920306E+03  0.00000000000E+00 0.  1.
         13    1    5    5    0    0  0.32020593983E+03 -0.21562700354E+03 -0.12030088577E+03  0.40435028339E+03  0.00000000000E+00 0.  1.
        -13    1    5    5    0    0  0.26465840900E+03 -0.90782304173E+02 -0.10856663315E+03  0.30012033260E+03  0.00000000000E+00 0. -1.
          4    1    6    6  503    0 -0.12176022886E+03  0.20523900832E+03 -0.26643700074E+03  0.35768321072E+03  0.00000000000E+00 0. -1.
         -4    1    6    6    0  503 -0.70963968945E+01  0.38736154368E+02 -0.11803842301E+03  0.12443439159E+03  0.00000000000E+00 0.  1.
<mgrwt>
<rscale>  0 0.16401305E+04</rscale>
<asrwt>0</asrwt>
<pdfrwt beam="1">  1        2 0.30768828E+00 0.16401305E+04</pdfrwt>
<pdfrwt beam="2">  1       -1 0.51731983E-01 0.16401305E+04</pdfrwt>
<totfact> 0.27364884E+01</totfact>
</mgrwt>
</event>
<event>
12    7  0.1707730E-007  0.1300698E+04  0.7818608E-02  0.9029012E-01
         -1   -1    0    0    0  501 -0.00000000000E+00  0.00000000000E+00  0.12300459399E+04  0.12300459399E+04  0.00000000000E+00 0.  1.
          2   -1    0    0  501    0  0.00000000000E+00 -0.00000000000E+00 -0.34385225442E+03  0.34385225442E+03  0.00000000000E+00 0. -1.
         24    2    1    2    0    0 -0.19996004468E+02  0.41641759384E+02 -0.19530282032E+03  0.22366628434E+03  0.98739752921E+02 0.  0.
        254    2    1    2    0    0  0.19996004468E+02 -0.41641759384E+02  0.10814965058E+04  0.13502319100E+04  0.80706730968E+03 0.  0.
         23    2    4    4    0    0 -0.22942342209E+03 -0.26896960231E+02  0.11862117733E+02  0.24790346044E+03  0.89201248805E+02 0.  0.
         23    2    4    4    0    0  0.24941942656E+03 -0.14744799152E+02  0.10696343881E+04  0.11023284496E+04  0.92643548556E+02 0.  0.
          2    1    3    3  502    0 -0.12187133634E+02  0.44525983301E+02 -0.20543219700E+03  0.21055516374E+03  0.00000000000E+00 0. -1.
         -1    1    3    3    0  502 -0.78088708349E+01 -0.28842239176E+01  0.10129376682E+02  0.13111120596E+02  0.00000000000E+00 0.  1.
         13    1    5    5    0    0 -0.21429265847E+02  0.25319927523E+02  0.15610204714E+01  0.33207664016E+02  0.00000000000E+00 0.  1.
        -13    1    5    5    0    0 -0.20799415624E+03 -0.52216887754E+02  0.10301097262E+02  0.21469579642E+03  0.00000000000E+00 0. -1.
          4    1    6    6  503    0  0.14745438536E+03  0.31334035882E+02  0.51947003601E+03  0.54090085587E+03  0.00000000000E+00 0. -1.
         -4    1    6    6    0  503  0.10196504119E+03 -0.46078835034E+02  0.55016435208E+03  0.56142759369E+03  0.00000000000E+00 0.  1.
<mgrwt>
<rscale>  0 0.13006984E+04</rscale>
<asrwt>0</asrwt>
<pdfrwt beam="1">  1        2 0.52900348E-01 0.13006984E+04</pdfrwt>
<pdfrwt beam="2">  1       -1 0.18923783E+00 0.13006984E+04</pdfrwt>
<totfact> 0.18923999E+01</totfact>
</mgrwt>
</event>
<event>
12    7  0.1707730E-007  0.1512741E+04  0.7818608E-02  0.8876024E-01
         -1   -1    0    0    0  501 -0.00000000000E+00  0.00000000000E+00  0.27090694421E+03  0.27090694421E+03  0.00000000000E+00 0.  1.
          2   -1    0    0  501    0  0.00000000000E+00 -0.00000000000E+00 -0.21117809498E+04  0.21117809498E+04  0.00000000000E+00 0. -1.
         24    2    1    2    0    0  0.10943657705E+03  0.43642863175E+03 -0.88798631564E+03  0.99899508318E+03  0.83816254035E+02 0.  0.
        254    2    1    2    0    0 -0.10943657705E+03 -0.43642863175E+03 -0.95288768990E+03  0.13836928108E+04  0.89675221217E+03 0.  0.
         23    2    4    4    0    0  0.20480703192E+03 -0.73746645642E+02 -0.85356841289E+03  0.88550494365E+03  0.90307705502E+02 0.  0.
         23    2    4    4    0    0 -0.31424360897E+03 -0.36268198611E+03 -0.99319277018E+02  0.49818786714E+03  0.89663612187E+02 0.  0.
          2    1    3    3  502    0  0.34992817941E+02  0.55910375236E+02 -0.18136873960E+03  0.19298986261E+03  0.00000000000E+00 0. -1.
         -1    1    3    3    0  502  0.74443759107E+02  0.38051825651E+03 -0.70661757604E+03  0.80600522056E+03  0.00000000000E+00 0.  1.
         13    1    5    5    0    0  0.20721963364E+03 -0.59733393384E+02 -0.83324897352E+03  0.86070430853E+03  0.00000000000E+00 0.  1.
        -13    1    5    5    0    0 -0.24126017169E+01 -0.14013252258E+02 -0.20319439366E+02  0.24800635114E+02  0.00000000000E+00 0. -1.
          3    1    6    6  503    0 -0.39565186507E+02 -0.85585864564E+02 -0.44242160768E+02  0.10415235468E+03  0.00000000000E+00 0. -1.
         -3    1    6    6    0  503 -0.27467842247E+03 -0.27709612154E+03 -0.55077116250E+02  0.39403551246E+03  0.00000000000E+00 0.  1.
<mgrwt>
<rscale>  0 0.15127407E+04</rscale>
<asrwt>0</asrwt>
<pdfrwt beam="1">  1        2 0.32488937E+00 0.15127407E+04</pdfrwt>
<pdfrwt beam="2">  1       -1 0.41677993E-01 0.15127407E+04</pdfrwt>
<totfact> 0.35959324E+01</totfact>
</mgrwt>
</event>
<event>
12    7  0.1707730E-007  0.1192579E+04  0.7818608E-02  0.9119377E-01
          2   -1    0    0  501    0  0.00000000000E+00  0.00000000000E+00  0.18791864689E+04  0.18791864689E+04  0.00000000000E+00 0. -1.
         -1   -1    0    0    0  501 -0.00000000000E+00 -0.00000000000E+00 -0.18921009777E+03  0.18921009777E+03  0.00000000000E+00 0.  1.
         24    2    1    2    0    0 -0.10265421489E+03 -0.12707867975E+03  0.69856450017E+03  0.72210576543E+03  0.82203995512E+02 0.  0.
        254    2    1    2    0    0  0.10265421489E+03  0.12707867975E+03  0.99141187092E+03  0.13462908012E+04  0.89605498990E+03 0.  0.
         23    2    4    4    0    0  0.90975866414E+02  0.17554643321E+03 -0.10565657703E+03  0.24388487854E+03  0.96038342489E+02 0.  0.
         23    2    4    4    0    0  0.11678348473E+02 -0.48467753460E+02  0.10970684480E+04  0.11024059227E+04  0.96198398512E+02 0.  0.
          4    1    3    3  502    0 -0.11118878981E+03 -0.11838880291E+03  0.56197134591E+03  0.58497063966E+03  0.00000000000E+00 0. -1.
         -3    1    3    3    0  502  0.85345749233E+01 -0.86898768345E+01  0.13659315426E+03  0.13713512577E+03  0.00000000000E+00 0.  1.
         13    1    5    5    0    0 -0.36061129832E+01 -0.10224630865E+02 -0.90618923296E+01  0.14130287320E+02  0.00000000000E+00 0. -1.
        -13    1    5    5    0    0  0.94581979397E+02  0.18577106407E+03 -0.96594684705E+02  0.22975459122E+03  0.00000000000E+00 0.  1.
          3    1    6    6  503    0 -0.70885361825E+00 -0.10053768028E+02  0.87725381923E+01  0.13361816918E+02  0.00000000000E+00 0. -1.
         -3    1    6    6    0  503  0.12387202092E+02 -0.38413985432E+02  0.10882959098E+04  0.10890441057E+04  0.00000000000E+00 0.  1.
<mgrwt>
<rscale>  0 0.11925788E+04</rscale>
<asrwt>0</asrwt>
<pdfrwt beam="1">  1        2 0.28910560E+00 0.11925788E+04</pdfrwt>
<pdfrwt beam="2">  1       -1 0.29109247E-01 0.11925788E+04</pdfrwt>
<totfact> 0.94410577E+01</totfact>
</mgrwt>
</event>
<event>
12    7  0.1707730E-007  0.2362132E+04  0.7818608E-02  0.8453818E-01
         -1   -1    0    0    0  501 -0.00000000000E+00  0.00000000000E+00  0.80121112722E+03  0.80121112722E+03  0.00000000000E+00 0.  1.
          2   -1    0    0  501    0  0.00000000000E+00 -0.00000000000E+00 -0.17410105728E+04  0.17410105728E+04  0.00000000000E+00 0. -1.
         24    2    1    2    0    0 -0.73443881833E+03  0.68025447815E+03 -0.47200402425E+03  0.11096471837E+04  0.79890802914E+02 0.  0.
        254    2    1    2    0    0  0.73443881833E+03 -0.68025447815E+03 -0.46779542131E+03  0.14325745163E+04  0.91175142213E+03 0.  0.
         23    2    4    4    0    0  0.37332310094E+03 -0.42459586725E+03  0.21603097315E+03  0.61210391912E+03  0.91378543756E+02 0.  0.
         23    2    4    4    0    0  0.36111571739E+03 -0.25565861090E+03 -0.68382639446E+03  0.82047059722E+03  0.98932181178E+02 0.  0.
          2    1    3    3  502    0 -0.64668206662E+03  0.62377060589E+03 -0.40443358393E+03  0.98531923145E+03  0.00000000000E+00 0. -1.
         -1    1    3    3    0  502 -0.87756751706E+02  0.56483872266E+02 -0.67570440317E+02  0.12432795221E+03  0.00000000000E+00 0.  1.
         13    1    5    5    0    0  0.63154978172E+02 -0.44189982835E+02  0.32794168127E+01  0.77149597702E+02  0.00000000000E+00 0. -1.
        -13    1    5    5    0    0  0.31016812277E+03 -0.38040588442E+03  0.21275155634E+03  0.53495432142E+03  0.00000000000E+00 0.  1.
          2    1    6    6  503    0  0.12298057657E+03 -0.12845154504E+03 -0.21051922568E+03  0.27557642500E+03  0.00000000000E+00 0. -1.
         -2    1    6    6    0  503  0.23813514082E+03 -0.12720706586E+03 -0.47330716879E+03  0.54489417222E+03  0.00000000000E+00 0.  1.
<mgrwt>
<rscale>  0 0.23621321E+04</rscale>
<asrwt>0</asrwt>
<pdfrwt beam="1">  1        2 0.26784778E+00 0.23621321E+04</pdfrwt>
<pdfrwt beam="2">  1       -1 0.12326325E+00 0.23621321E+04</pdfrwt>
<totfact> 0.55371292E+00</totfact>
</mgrwt>
</event>
<event>
12    7  0.1707730E-007  0.1669227E+04  0.7818608E-02  0.8779112E-01
          2   -1    0    0  501    0  0.00000000000E+00  0.00000000000E+00  0.20598279177E+04  0.20598279177E+04  0.00000000000E+00 0. -1.
         -1   -1    0    0    0  501 -0.00000000000E+00 -0.00000000000E+00 -0.33817390590E+03  0.33817390590E+03  0.00000000000E+00 0.  1.
         24    2    1    2    0    0 -0.11270893174E+03 -0.20803952010E+03  0.13877080209E+04  0.14098691652E+04  0.77548478581E+02 0.  0.
        254    2    1    2    0    0  0.11270893174E+03  0.20803952010E+03  0.33394599083E+03  0.98813265832E+03  0.89939006023E+03 0.  0.
         23    2    4    4    0    0  0.44616979083E+03  0.30645202045E+03  0.94974189472E+02  0.55672724667E+03  0.89133649249E+02 0.  0.
         23    2    4    4    0    0 -0.33346085909E+03 -0.98412500351E+02  0.23897180136E+03  0.43140541166E+03  0.90121820837E+02 0.  0.
          2    1    3    3  502    0 -0.92510537676E+02 -0.20916473084E+03  0.12666846472E+04  0.12871666868E+04  0.00000000000E+00 0. -1.
         -1    1    3    3    0  502 -0.20198394066E+02  0.11252107362E+01  0.12102337373E+03  0.12270247843E+03  0.00000000000E+00 0.  1.
         13    1    5    5    0    0  0.28638934188E+03  0.16360046084E+03  0.22950871443E+02  0.33062169988E+03  0.00000000000E+00 0.  1.
        -13    1    5    5    0    0  0.15978044895E+03  0.14285155961E+03  0.72023318029E+02  0.22610554679E+03  0.00000000000E+00 0. -1.
          2    1    6    6  503    0 -0.24207416682E+03 -0.10921148027E+03  0.15928206334E+03  0.30967374019E+03  0.00000000000E+00 0. -1.
         -2    1    6    6    0  503 -0.91386692270E+02  0.10798979917E+02  0.79689738022E+02  0.12173167146E+03  0.00000000000E+00 0.  1.
<mgrwt>
<rscale>  0 0.16692274E+04</rscale>
<asrwt>0</asrwt>
<pdfrwt beam="1">  1        2 0.31689660E+00 0.16692274E+04</pdfrwt>
<pdfrwt beam="2">  1       -1 0.52026756E-01 0.16692274E+04</pdfrwt>
<totfact> 0.25010766E+01</totfact>
</mgrwt>
</event>
<event>
12    7  0.1707730E-007  0.1248008E+04  0.7818608E-02  0.9071843E-01
          2   -1    0    0  501    0  0.00000000000E+00  0.00000000000E+00  0.33552972553E+04  0.33552972553E+04  0.00000000000E+00 0. -1.
         -1   -1    0    0    0  501 -0.00000000000E+00 -0.00000000000E+00 -0.11604966910E+03  0.11604966910E+03  0.00000000000E+00 0.  1.
         24    2    1    2    0    0  0.27950031089E+03 -0.44933060327E+02  0.92468057952E+03  0.97007941144E+03  0.76684331169E+02 0.  0.
        254    2    1    2    0    0 -0.27950031089E+03  0.44933060327E+02  0.23145670067E+04  0.25012675130E+04  0.90497477278E+03 0.  0.
         23    2    4    4    0    0 -0.28109165793E+02  0.29200883632E+03  0.22730378020E+03  0.38245552200E+03  0.92444210836E+02 0.  0.
         23    2    4    4    0    0 -0.25139114510E+03 -0.24707577600E+03  0.20872632265E+04  0.21188119910E+04  0.91937639744E+02 0.  0.
          2    1    3    3  502    0  0.41013536369E+02 -0.34466362986E+02  0.14040546602E+03  0.15027885824E+03  0.00000000000E+00 0. -1.
         -1    1    3    3    0  502  0.23848677452E+03 -0.10466697340E+02  0.78427511350E+03  0.81980055320E+03  0.00000000000E+00 0.  1.
         13    1    5    5    0    0 -0.34974405702E+02  0.22009543490E+03  0.12003024815E+03  0.25312540368E+03  0.00000000000E+00 0. -1.
        -13    1    5    5    0    0  0.68652399086E+01  0.71913401424E+02  0.10727353206E+03  0.12933011832E+03  0.00000000000E+00 0.  1.
          2    1    6    6  503    0 -0.33381577677E+01  0.78792044097E+01  0.47500119633E+02  0.48264754475E+02  0.00000000000E+00 0.  1.
         -2    1    6    6    0  503 -0.24805298733E+03 -0.25495498041E+03  0.20397631069E+04  0.20705472365E+04  0.00000000000E+00 0. -1.
<mgrwt>
<rscale>  0 0.12480082E+04</rscale>
<asrwt>0</asrwt>
<pdfrwt beam="1">  1        2 0.51619950E+00 0.12480082E+04</pdfrwt>
<pdfrwt beam="2">  1       -1 0.17853798E-01 0.12480082E+04</pdfrwt>
<totfact> 0.28880523E+01</totfact>
</mgrwt>
</event>
<event>
12    7  0.1707730E-007  0.1501314E+04  0.7818608E-02  0.8883580E-01
         -1   -1    0    0    0  501 -0.00000000000E+00  0.00000000000E+00  0.79757303711E+03  0.79757303711E+03  0.00000000000E+00 0.  1.
          2   -1    0    0  501    0  0.00000000000E+00 -0.00000000000E+00 -0.70650074317E+03  0.70650074317E+03  0.00000000000E+00 0. -1.
         24    2    1    2    0    0 -0.16645866428E+03  0.18385289523E+03  0.45046345078E+03  0.52038634301E+03  0.79838909686E+02 0.  0.
        254    2    1    2    0    0  0.16645866428E+03 -0.18385289523E+03 -0.35939115685E+03  0.98368743727E+03  0.88145822172E+03 0.  0.
         23    2    4    4    0    0  0.86745109935E+02 -0.44819266106E+03  0.62991368765E+02  0.47087785028E+03  0.96729839342E+02 0.  0.
         23    2    4    4    0    0  0.79713554346E+02  0.26433976583E+03 -0.42238252561E+03  0.51280958700E+03  0.91306692150E+02 0.  0.
          4    1    3    3  502    0 -0.18668196856E+02  0.47127933259E+02  0.45416041614E+02  0.68059977248E+02  0.00000000000E+00 0. -1.
         -3    1    3    3    0  502 -0.14779046743E+03  0.13672496197E+03  0.40504740917E+03  0.45232636576E+03  0.00000000000E+00 0.  1.
         13    1    5    5    0    0  0.30777748538E+02 -0.17169755597E+03 -0.23038213730E+02  0.17594908304E+03  0.00000000000E+00 0.  1.
        -13    1    5    5    0    0  0.55967361397E+02 -0.27649510509E+03  0.86029582495E+02  0.29492876724E+03  0.00000000000E+00 0. -1.
          4    1    6    6  503    0  0.68073720997E+02  0.20014894473E+03 -0.38049646411E+03  0.43528288591E+03  0.00000000000E+00 0.  1.
         -4    1    6    6    0  503  0.11639833349E+02  0.64190821093E+02 -0.41886061501E+02  0.77526701084E+02  0.00000000000E+00 0. -1.
<mgrwt>
<rscale>  0 0.15013140E+04</rscale>
<asrwt>0</asrwt>
<pdfrwt beam="1">  1        2 0.10869242E+00 0.15013140E+04</pdfrwt>
<pdfrwt beam="2">  1       -1 0.12270354E+00 0.15013140E+04</pdfrwt>
<totfact> 0.26191508E+01</totfact>
</mgrwt>
</event>
<event>
12    7  0.1707730E-007  0.2174823E+04  0.7818608E-02  0.8528981E-01
         -1   -1    0    0    0  501 -0.00000000000E+00  0.00000000000E+00  0.49255019905E+03  0.49255019905E+03  0.00000000000E+00 0.  1.
          2   -1    0    0  501    0  0.00000000000E+00 -0.00000000000E+00 -0.24006968982E+04  0.24006968982E+04  0.00000000000E+00 0. -1.
         24    2    1    2    0    0  0.15533291923E+03 -0.63044419346E+02 -0.19684441659E+04  0.19771923221E+04  0.80088263419E+02 0.  0.
        254    2    1    2    0    0 -0.15533291923E+03  0.63044419346E+02  0.60297466743E+02  0.91605477510E+03  0.89856421690E+03 0.  0.
         23    2    4    4    0    0 -0.11232261176E+03 -0.16554047905E+03  0.42244593857E+03  0.47623982577E+03  0.91234759398E+02 0.  0.
         23    2    4    4    0    0 -0.43010307473E+02  0.22858489840E+03 -0.36214847183E+03  0.43981494933E+03  0.90469506924E+02 0.  0.
          4    1    3    3  502    0  0.12896303608E+03 -0.79876165045E+02 -0.17428664625E+04  0.17494556789E+04  0.00000000000E+00 0. -1.
         -3    1    3    3    0  502  0.26369883156E+02  0.16831745699E+02 -0.22557770339E+03  0.22773664322E+03  0.00000000000E+00 0.  1.
         13    1    5    5    0    0 -0.43328145506E+02 -0.52964826446E+02  0.24914334310E+03  0.25836990236E+03  0.00000000000E+00 0.  1.
        -13    1    5    5    0    0 -0.68994466252E+02 -0.11257565260E+03  0.17330259547E+03  0.21786992342E+03  0.00000000000E+00 0. -1.
          1    1    6    6  503    0 -0.11832417874E+02  0.23384715821E+02 -0.11074792153E+03  0.11380664818E+03  0.00000000000E+00 0. -1.
         -1    1    6    6    0  503 -0.31177889599E+02  0.20520018257E+03 -0.25140055030E+03  0.32600830115E+03  0.00000000000E+00 0.  1.
<mgrwt>
<rscale>  0 0.21748230E+04</rscale>
<asrwt>0</asrwt>
<pdfrwt beam="1">  1        2 0.36933798E+00 0.21748230E+04</pdfrwt>
<pdfrwt beam="2">  1       -1 0.75776954E-01 0.21748230E+04</pdfrwt>
<totfact> 0.72440787E+00</totfact>
</mgrwt>
</event>
<event>
12    7  0.1707730E-007  0.1395025E+04  0.7818608E-02  0.8957428E-01
         -3   -1    0    0    0  501 -0.00000000000E+00  0.00000000000E+00  0.83671157275E+03  0.83671157275E+03  0.00000000000E+00 0.  1.
          4   -1    0    0  501    0  0.00000000000E+00 -0.00000000000E+00 -0.58147118421E+03  0.58147118421E+03  0.00000000000E+00 0. -1.
         24    2    1    2    0    0 -0.30019377995E+03 -0.14589317049E+03  0.32818385278E+03  0.47464580598E+03  0.78631273638E+02 0.  0.
        254    2    1    2    0    0  0.30019377995E+03  0.14589317049E+03 -0.72943464239E+02  0.94353695098E+03  0.87951128825E+03 0.  0.
         23    2    4    4    0    0  0.59845284380E+03  0.15808787686E+03 -0.15168747411E+02  0.62580315077E+03  0.90895046929E+02 0.  0.
         23    2    4    4    0    0 -0.29825906385E+03 -0.12194706375E+02 -0.57774716828E+02  0.31773380020E+03  0.92247871806E+02 0.  0.
          2    1    3    3  502    0 -0.11326552307E+03 -0.77787540687E+02  0.18062564624E+03  0.22694846173E+03  0.00000000000E+00 0. -1.
         -1    1    3    3    0  502 -0.18692825688E+03 -0.68105629800E+02  0.14755820653E+03  0.24769734425E+03  0.00000000000E+00 0.  1.
         13    1    5    5    0    0  0.37983547540E+03  0.54638396110E+02 -0.71237732926E+01  0.38381126983E+03  0.00000000000E+00 0. -1.
        -13    1    5    5    0    0  0.21861736840E+03  0.10344948075E+03 -0.80449741182E+01  0.24199188094E+03  0.00000000000E+00 0.  1.
          3    1    6    6  503    0 -0.19367455246E+03  0.36255645223E+02 -0.31921560418E+02  0.19960784078E+03  0.00000000000E+00 0. -1.
         -3    1    6    6    0  503 -0.10458451139E+03 -0.48450351599E+02 -0.25853156410E+02  0.11812595942E+03  0.00000000000E+00 0.  1.
<mgrwt>
<rscale>  0 0.13950250E+04</rscale>
<asrwt>0</asrwt>
<pdfrwt beam="1">  1        4 0.89457105E-01 0.13950250E+04</pdfrwt>
<pdfrwt beam="2">  1       -3 0.12872486E+00 0.13950250E+04</pdfrwt>
<totfact> 0.11370027E+00</totfact>
</mgrwt>
</event>
<event>
12    7  0.1707730E-007  0.3331718E+04  0.7818608E-02  0.8154871E-01
         -1   -1    0    0    0  501 -0.00000000000E+00  0.00000000000E+00  0.67842146429E+03  0.67842146429E+03  0.00000000000E+00 0.  1.
          2   -1    0    0  501    0  0.00000000000E+00 -0.00000000000E+00 -0.40905044226E+04  0.40905044226E+04  0.00000000000E+00 0. -1.
         24    2    1    2    0    0  0.21355254500E+02  0.35295417632E+03  0.56568133877E+03  0.67162252776E+03  0.77773679891E+02 0.  0.
        254    2    1    2    0    0 -0.21355254500E+02 -0.35295417632E+03 -0.39777642971E+04  0.40973033592E+04  0.91665332388E+03 0.  0.
         23    2    4    4    0    0  0.15056080734E+03 -0.61652183552E+03 -0.29439943280E+04  0.30130152213E+04  0.91599072550E+02 0.  0.
         23    2    4    4    0    0 -0.17191606184E+03  0.26356765921E+03 -0.10337699691E+04  0.10842881379E+04  0.89316144032E+02 0.  0.
          4    1    3    3  502    0  0.37260864382E+02  0.81331919617E+02  0.15565105811E+03  0.17952856334E+03  0.00000000000E+00 0. -1.
         -3    1    3    3    0  502 -0.15905609883E+02  0.27162225670E+03  0.41003028066E+03  0.49209396442E+03  0.00000000000E+00 0.  1.
         13    1    5    5    0    0  0.79168437634E+02 -0.19029770905E+03 -0.82047533956E+03  0.84596728212E+03  0.00000000000E+00 0. -1.
        -13    1    5    5    0    0  0.71392369705E+02 -0.42622412647E+03 -0.21235189885E+04  0.21670479392E+04  0.00000000000E+00 0.  1.
          3    1    6    6  503    0 -0.97687625369E+02  0.16857204854E+03 -0.77011146136E+03  0.79437464122E+03  0.00000000000E+00 0. -1.
         -3    1    6    6    0  503 -0.74228436470E+02  0.94995610666E+02 -0.26365850774E+03  0.28991349663E+03  0.00000000000E+00 0.  1.
<mgrwt>
<rscale>  0 0.33317179E+04</rscale>
<asrwt>0</asrwt>
<pdfrwt beam="1">  1        2 0.62930837E+00 0.33317179E+04</pdfrwt>
<pdfrwt beam="2">  1       -1 0.10437253E+00 0.33317179E+04</pdfrwt>
<totfact> 0.23476984E-01</totfact>
</mgrwt>
</event>
<event>
12    7  0.1707730E-007  0.2570517E+04  0.7818608E-02  0.8378285E-01
          2   -1    0    0  501    0  0.00000000000E+00  0.00000000000E+00  0.23778282672E+04  0.23778282672E+04  0.00000000000E+00 0. -1.
         -1   -1    0    0    0  501 -0.00000000000E+00 -0.00000000000E+00 -0.69470530511E+03  0.69470530511E+03  0.00000000000E+00 0.  1.
         24    2    1    2    0    0 -0.54528435757E+03 -0.30330999632E+03  0.18628973918E+04  0.19663230948E+04  0.81901382234E+02 0.  0.
        254    2    1    2    0    0  0.54528435757E+03  0.30330999632E+03 -0.17977442965E+03  0.11062104775E+04  0.89557288401E+03 0.  0.
         23    2    4    4    0    0 -0.61711800077E+02 -0.72124203606E+02 -0.34475982886E+03  0.36803254122E+03  0.87053803977E+02 0.  0.
         23    2    4    4    0    0  0.60699615765E+03  0.37543419993E+03  0.16498539921E+03  0.73817793631E+03  0.91056629776E+02 0.  0.
          4    1    3    3  502    0 -0.46571350049E+03 -0.28330189887E+03  0.16695371777E+04  0.17562754391E+04  0.00000000000E+00 0. -1.
         -3    1    3    3    0  502 -0.79570857081E+02 -0.20008097451E+02  0.19336021411E+03  0.21004765569E+03  0.00000000000E+00 0.  1.
         13    1    5    5    0    0 -0.51764825345E+02 -0.91954622048E+02 -0.30117304844E+03  0.31912451295E+03  0.00000000000E+00 0.  1.
        -13    1    5    5    0    0 -0.99469747326E+01  0.19830418442E+02 -0.43586780424E+02  0.48908028274E+02  0.00000000000E+00 0. -1.
          2    1    6    6  503    0  0.32388393271E+03  0.19870955834E+03  0.13434358241E+03  0.40303162231E+03  0.00000000000E+00 0.  1.
         -2    1    6    6    0  503  0.28311222494E+03  0.17672464158E+03  0.30641816803E+02  0.33514631400E+03  0.00000000000E+00 0. -1.
<mgrwt>
<rscale>  0 0.25705174E+04</rscale>
<asrwt>0</asrwt>
<pdfrwt beam="1">  1        2 0.36581973E+00 0.25705174E+04</pdfrwt>
<pdfrwt beam="2">  1       -1 0.10687774E+00 0.25705174E+04</pdfrwt>
<totfact> 0.33711425E+00</totfact>
</mgrwt>
</event>
<event>
12    7  0.1707730E-007  0.1406813E+04  0.7818608E-02  0.8948901E-01
         -1   -1    0    0    0  501 -0.00000000000E+00  0.00000000000E+00  0.19590583938E+03  0.19590583938E+03  0.00000000000E+00 0.  1.
          2   -1    0    0  501    0  0.00000000000E+00 -0.00000000000E+00 -0.25256056651E+04  0.25256056651E+04  0.00000000000E+00 0. -1.
         24    2    1    2    0    0  0.12448775936E+03 -0.33815734229E+03 -0.10375910916E+04  0.11012587619E+04  0.79548707153E+02 0.  0.
        254    2    1    2    0    0 -0.12448775936E+03  0.33815734229E+03 -0.12921087341E+04  0.16202527426E+04  0.90874989894E+03 0.  0.
         23    2    4    4    0    0 -0.17840069156E+03  0.30571381924E+02 -0.12785246843E+04  0.12945802911E+04  0.92473486903E+02 0.  0.
         23    2    4    4    0    0  0.53912932194E+02  0.30758596036E+03 -0.13584049827E+02  0.32567245147E+03  0.91445568332E+02 0.  0.
          4    1    3    3  502    0 -0.11572111908E+01 -0.50435895408E+01 -0.70961693177E+02  0.71150114770E+02  0.00000000000E+00 0. -1.
         -3    1    3    3    0  502  0.12564497055E+03 -0.33311375275E+03 -0.96662939847E+03  0.10301086471E+04  0.00000000000E+00 0.  1.
         13    1    5    5    0    0 -0.25296234733E+02  0.39382856161E+02 -0.40500101136E+03  0.40769685804E+03  0.00000000000E+00 0.  1.
        -13    1    5    5    0    0 -0.15310445682E+03 -0.88114742366E+01 -0.87352367289E+03  0.88688343308E+03  0.00000000000E+00 0. -1.
          1    1    6    6  503    0  0.52012545496E+02  0.30314355772E+03 -0.29551770818E+02  0.30898969017E+03  0.00000000000E+00 0. -1.
         -1    1    6    6    0  503  0.19003866973E+01  0.44424026443E+01  0.15967720991E+02  0.16682761297E+02  0.00000000000E+00 0.  1.
<mgrwt>
<rscale>  0 0.14068133E+04</rscale>
<asrwt>0</asrwt>
<pdfrwt beam="1">  1        2 0.38855472E+00 0.14068133E+04</pdfrwt>
<pdfrwt beam="2">  1       -1 0.30139360E-01 0.14068133E+04</pdfrwt>
<totfact> 0.37866210E+01</totfact>
</mgrwt>
</event>
<event>
12    7  0.1707730E-007  0.2023810E+04  0.7818608E-02  0.8595569E-01
         -1   -1    0    0    0  501 -0.00000000000E+00  0.00000000000E+00  0.53279603064E+03  0.53279603064E+03  0.00000000000E+00 0.  1.
          2   -1    0    0  501    0  0.00000000000E+00 -0.00000000000E+00 -0.19218447133E+04  0.19218447133E+04  0.00000000000E+00 0. -1.
         24    2    1    2    0    0 -0.37293699372E+03  0.29251007999E+03  0.23917264138E+03  0.53661971193E+03  0.78185770235E+02 0.  0.
        254    2    1    2    0    0  0.37293699372E+03 -0.29251007999E+03 -0.16282213241E+04  0.19180210320E+04  0.89613383541E+03 0.  0.
         23    2    4    4    0    0  0.14785283076E+03 -0.59803225426E+03 -0.10383362205E+04  0.12108909539E+04  0.92799561426E+02 0.  0.
         23    2    4    4    0    0  0.22508416296E+03  0.30552217427E+03 -0.58988510357E+03  0.70713007819E+03  0.89787708935E+02 0.  0.
          2    1    3    3  502    0 -0.13735219372E+03  0.75962097009E+02  0.10937141109E+03  0.19130596140E+03  0.00000000000E+00 0. -1.
         -1    1    3    3    0  502 -0.23558480000E+03  0.21654798298E+03  0.12980123030E+03  0.34531375053E+03  0.00000000000E+00 0.  1.
         13    1    5    5    0    0  0.14367418123E+03 -0.42084969929E+03 -0.70982435200E+03  0.83762005136E+03  0.00000000000E+00 0.  1.
        -13    1    5    5    0    0  0.41786495325E+01 -0.17718255497E+03 -0.32851186852E+03  0.37327090250E+03  0.00000000000E+00 0. -1.
          1    1    6    6  503    0  0.11328346569E+03  0.16916001724E+03 -0.23552203704E+03  0.31131798047E+03  0.00000000000E+00 0. -1.
         -1    1    6    6    0  503  0.11180069726E+03  0.13636215703E+03 -0.35436306653E+03  0.39581209772E+03  0.00000000000E+00 0.  1.
<mgrwt>
<rscale>  0 0.20238095E+04</rscale>
<asrwt>0</asrwt>
<pdfrwt beam="1">  1        2 0.29566841E+00 0.20238095E+04</pdfrwt>
<pdfrwt beam="2">  1       -1 0.81968621E-01 0.20238095E+04</pdfrwt>
<totfact> 0.11544076E+01</totfact>
</mgrwt>
</event>
<event>
12    7  0.1707730E-007  0.1099378E+04  0.7818608E-02  0.9205798E-01
          2   -1    0    0  501    0  0.00000000000E+00  0.00000000000E+00  0.95774267016E+03  0.95774267016E+03  0.00000000000E+00 0. -1.
         -1   -1    0    0    0  501 -0.00000000000E+00 -0.00000000000E+00 -0.31548971121E+03  0.31548971121E+03  0.00000000000E+00 0.  1.
         24    2    1    2    0    0 -0.13544426615E+03  0.11254864706E+03  0.12293875129E+03  0.22912188536E+03  0.79815754046E+02 0.  0.
        254    2    1    2    0    0  0.13544426615E+03 -0.11254864706E+03  0.51931420766E+03  0.10441104960E+04  0.88851963085E+03 0.  0.
         23    2    4    4    0    0  0.46774211913E+03  0.67169480186E+02  0.42952345375E+03  0.64524894550E+03  0.92527700051E+02 0.  0.
         23    2    4    4    0    0 -0.33229785298E+03 -0.17971812725E+03  0.89790753909E+02  0.39886155050E+03  0.91146522851E+02 0.  0.
          4    1    3    3  502    0 -0.75536855602E+01 -0.11589438816E+02  0.16482167690E+02  0.21518250611E+02  0.00000000000E+00 0. -1.
         -3    1    3    3    0  502 -0.12789058059E+03  0.12413808588E+03  0.10645658360E+03  0.20760363475E+03  0.00000000000E+00 0.  1.
         13    1    5    5    0    0  0.33682552051E+03  0.79821923654E+02  0.27335934053E+03  0.44107629704E+03  0.00000000000E+00 0. -1.
        -13    1    5    5    0    0  0.13091659862E+03 -0.12652443468E+02  0.15616411322E+03  0.20417264846E+03  0.00000000000E+00 0.  1.
          4    1    6    6  503    0 -0.32565336590E+03 -0.17400386761E+03  0.10271481425E+03  0.38324638777E+03  0.00000000000E+00 0. -1.
         -4    1    6    6    0  503 -0.66444870736E+01 -0.57142596362E+01 -0.12924060341E+02  0.15615162739E+02  0.00000000000E+00 0.  1.
<mgrwt>
<rscale>  0 0.10993779E+04</rscale>
<asrwt>0</asrwt>
<pdfrwt beam="1">  1        2 0.14734502E+00 0.10993779E+04</pdfrwt>
<pdfrwt beam="2">  1       -1 0.48536879E-01 0.10993779E+04</pdfrwt>
<totfact> 0.12901950E+02</totfact>
</mgrwt>
</event>
<event>
12    7  0.1707730E-007  0.1948592E+04  0.7818608E-02  0.8631040E-01
         -1   -1    0    0    0  501 -0.00000000000E+00  0.00000000000E+00  0.38301090987E+03  0.38301090987E+03  0.00000000000E+00 0.  1.
          2   -1    0    0  501    0  0.00000000000E+00 -0.00000000000E+00 -0.24783957965E+04  0.24783957965E+04  0.00000000000E+00 0. -1.
         24    2    1    2    0    0  0.49439004118E+03  0.37743925756E+03 -0.19548037745E+03  0.65693895986E+03  0.80463116060E+02 0.  0.
        254    2    1    2    0    0 -0.49439004118E+03 -0.37743925756E+03 -0.18999045091E+04  0.22044677465E+04  0.92906350452E+03 0.  0.
         23    2    4    4    0    0 -0.27128708966E+03 -0.67598363754E+03 -0.12078342182E+04  0.14131460850E+04  0.86993078311E+02 0.  0.
         23    2    4    4    0    0 -0.22310295152E+03  0.29854437998E+03 -0.69207029091E+03  0.79132166144E+03  0.91241495552E+02 0.  0.
          4    1    3    3  502    0  0.22698444000E+01  0.86936984561E+00  0.50734669736E+01  0.56256612643E+01  0.00000000000E+00 0. -1.
         -3    1    3    3    0  502  0.49212019678E+03  0.37656988772E+03 -0.20055384443E+03  0.65131329860E+03  0.00000000000E+00 0.  1.
         13    1    5    5    0    0 -0.42155163379E+02 -0.14577633170E+03 -0.19374624650E+03  0.24610039560E+03  0.00000000000E+00 0. -1.
        -13    1    5    5    0    0 -0.22913192628E+03 -0.53020730585E+03 -0.10140879717E+04  0.11670456894E+04  0.00000000000E+00 0.  1.
          1    1    6    6  503    0 -0.14621017337E+03  0.21647844825E+03 -0.55947989700E+03  0.61746100160E+03  0.00000000000E+00 0. -1.
         -1    1    6    6    0  503 -0.76892778148E+02  0.82065931731E+02 -0.13259039392E+03  0.17386065984E+03  0.00000000000E+00 0.  1.
<mgrwt>
<rscale>  0 0.19485919E+04</rscale>
<asrwt>0</asrwt>
<pdfrwt beam="1">  1        2 0.38129166E+00 0.19485919E+04</pdfrwt>
<pdfrwt beam="2">  1       -1 0.58924756E-01 0.19485919E+04</pdfrwt>
<totfact> 0.11114913E+01</totfact>
</mgrwt>
</event>
<event>
12    7  0.1707730E-007  0.1291881E+04  0.7818608E-02  0.9036029E-01
         -1   -1    0    0    0  501 -0.00000000000E+00  0.00000000000E+00  0.25743519723E+03  0.25743519723E+03  0.00000000000E+00 0.  1.
          2   -1    0    0  501    0  0.00000000000E+00 -0.00000000000E+00 -0.16207532323E+04  0.16207532323E+04  0.00000000000E+00 0. -1.
         24    2    1    2    0    0 -0.30939013856E+03 -0.63092785902E+02 -0.57260011800E+03  0.65857080282E+03  0.78368678205E+02 0.  0.
        254    2    1    2    0    0  0.30939013856E+03  0.63092785902E+02 -0.79071791703E+03  0.12196176267E+04  0.87322927888E+03 0.  0.
         23    2    4    4    0    0  0.38565678933E+03  0.79134973808E+02  0.15579349209E+02  0.40478272958E+03  0.92805381338E+02 0.  0.
         23    2    4    4    0    0 -0.76266650777E+02 -0.16042187906E+02 -0.80629726623E+03  0.81483489708E+03  0.88128736266E+02 0.  0.
          4    1    3    3  502    0 -0.13094352438E+03 -0.14920566065E+02 -0.31555264331E+03  0.34196827421E+03  0.00000000000E+00 0. -1.
         -3    1    3    3    0  502 -0.17844661418E+03 -0.48172219837E+02 -0.25704747470E+03  0.31660252861E+03  0.00000000000E+00 0.  1.
         13    1    5    5    0    0  0.17564811730E+03  0.12945560089E+02  0.47180094749E+02  0.18233433571E+03  0.00000000000E+00 0.  1.
        -13    1    5    5    0    0  0.21000867203E+03  0.66189413719E+02 -0.31600745541E+02  0.22244839387E+03  0.00000000000E+00 0. -1.
          3    1    6    6  503    0  0.57954070089E+01 -0.32534512336E+02 -0.18557109685E+03  0.18849061839E+03  0.00000000000E+00 0. -1.
         -3    1    6    6    0  503 -0.82062057786E+02  0.16492324430E+02 -0.62072616939E+03  0.62634427869E+03  0.00000000000E+00 0.  1.
<mgrwt>
<rscale>  0 0.12918807E+04</rscale>
<asrwt>0</asrwt>
<pdfrwt beam="1">  1        2 0.24934666E+00 0.12918807E+04</pdfrwt>
<pdfrwt beam="2">  1       -1 0.39605414E-01 0.12918807E+04</pdfrwt>
<totfact> 0.75232982E+01</totfact>
</mgrwt>
</event>
<event>
12    7  0.1707730E-007  0.1816074E+04  0.7818608E-02  0.8697798E-01
          2   -1    0    0  501    0  0.00000000000E+00  0.00000000000E+00  0.13515970540E+04  0.13515970540E+04  0.00000000000E+00 0. -1.
         -1   -1    0    0    0  501 -0.00000000000E+00 -0.00000000000E+00 -0.61004214540E+03  0.61004214540E+03  0.00000000000E+00 0.  1.
         24    2    1    2    0    0  0.17372130554E+02 -0.27247414545E+03 -0.39701662401E+03  0.48782772039E+03  0.76221612324E+02 0.  0.
        254    2    1    2    0    0 -0.17372130554E+02  0.27247414545E+03  0.11385715326E+04  0.14738114790E+04  0.89511518249E+03 0.  0.
         23    2    4    4    0    0 -0.20732110270E+03  0.34448359411E+03  0.11783147394E+04  0.12482446514E+04  0.89655443121E+02 0.  0.
         23    2    4    4    0    0  0.18994897215E+03 -0.72009448655E+02 -0.39743206749E+02  0.22556682762E+03  0.89637595484E+02 0.  0.
          4    1    3    3  502    0 -0.35988681375E+01  0.77010342593E+00 -0.27680334247E+02  0.27923929078E+02  0.00000000000E+00 0. -1.
         -3    1    3    3    0  502  0.20970998691E+02 -0.27324424888E+03 -0.36933628976E+03  0.45990379131E+03  0.00000000000E+00 0.  1.
         13    1    5    5    0    0 -0.11298603469E+03  0.24893029132E+03  0.87056518907E+03  0.91247788050E+03  0.00000000000E+00 0.  1.
        -13    1    5    5    0    0 -0.94335068009E+02  0.95553302784E+02  0.30774955031E+03  0.33576677090E+03  0.00000000000E+00 0. -1.
          1    1    6    6  503    0  0.67144150929E+02  0.16476472184E+02 -0.25114352811E+00  0.69136634375E+02  0.00000000000E+00 0. -1.
         -1    1    6    6    0  503  0.12280482122E+03 -0.88485920839E+02 -0.39492063221E+02  0.15643019325E+03  0.00000000000E+00 0.  1.
<mgrwt>
<rscale>  0 0.18160740E+04</rscale>
<asrwt>0</asrwt>
<pdfrwt beam="1">  1        2 0.20793801E+00 0.18160740E+04</pdfrwt>
<pdfrwt beam="2">  1       -1 0.93852638E-01 0.18160740E+04</pdfrwt>
<totfact> 0.18246777E+01</totfact>
</mgrwt>
</event>
<event>
12    7  0.1707730E-007  0.1123956E+04  0.7818608E-02  0.9182153E-01
         -1   -1    0    0    0  501 -0.00000000000E+00  0.00000000000E+00  0.13709279075E+03  0.13709279075E+03  0.00000000000E+00 0.  1.
          2   -1    0    0  501    0  0.00000000000E+00 -0.00000000000E+00 -0.23036884667E+04  0.23036884667E+04  0.00000000000E+00 0. -1.
         24    2    1    2    0    0  0.13564148076E+03  0.36193845819E+02 -0.64904972911E+03  0.66856761576E+03  0.77514516095E+02 0.  0.
        254    2    1    2    0    0 -0.13564148076E+03 -0.36193845819E+02 -0.15175459469E+04  0.17722136417E+04  0.90448155609E+03 0.  0.
         23    2    4    4    0    0 -0.48708580990E+03  0.24505715391E+02 -0.57002456518E+03  0.75579805617E+03  0.91921599812E+02 0.  0.
         23    2    4    4    0    0  0.35144432915E+03 -0.60699561210E+02 -0.94752138170E+03  0.10164155856E+04  0.90035107487E+02 0.  0.
          2    1    3    3  502    0  0.11477010873E+03  0.79615660180E+01 -0.57774087334E+03  0.58908410360E+03  0.00000000000E+00 0. -1.
         -1    1    3    3    0  502  0.20871372030E+02  0.28232279801E+02 -0.71308855769E+02  0.79483512153E+02  0.00000000000E+00 0.  1.
         13    1    5    5    0    0 -0.47473615622E+03  0.10843754799E+02 -0.52922884200E+03  0.71103809479E+03  0.00000000000E+00 0.  1.
        -13    1    5    5    0    0 -0.12349653686E+02  0.13661960592E+02 -0.40795723175E+02  0.44759961380E+02  0.00000000000E+00 0. -1.
          2    1    6    6  503    0 -0.27840870533E+01  0.66226383994E+01 -0.21724657420E+02  0.22881678700E+02  0.00000000000E+00 0. -1.
         -2    1    6    6    0  503  0.35422841620E+03 -0.67322199610E+02 -0.92579672428E+03  0.99353390687E+03  0.00000000000E+00 0.  1.
<mgrwt>
<rscale>  0 0.11239557E+04</rscale>
<asrwt>0</asrwt>
<pdfrwt beam="1">  1        2 0.35441356E+00 0.11239557E+04</pdfrwt>
<pdfrwt beam="2">  1       -1 0.21091202E-01 0.11239557E+04</pdfrwt>
<totfact> 0.95824952E+01</totfact>
</mgrwt>
</event>
<event>
12    7  0.1707730E-007  0.1241768E+04  0.7818608E-02  0.9077063E-01
          2   -1    0    0  501    0  0.00000000000E+00  0.00000000000E+00  0.10451828783E+04  0.10451828783E+04  0.00000000000E+00 0. -1.
         -1   -1    0    0    0  501 -0.00000000000E+00 -0.00000000000E+00 -0.36883213705E+03  0.36883213705E+03  0.00000000000E+00 0.  1.
         24    2    1    2    0    0 -0.18465098448E+03  0.15845197517E+03 -0.33008495416E+01  0.25936871256E+03  0.89767582893E+02 0.  0.
        254    2    1    2    0    0  0.18465098448E+03 -0.15845197517E+03  0.67965159079E+03  0.11546463028E+04  0.90115414063E+03 0.  0.
         23    2    4    4    0    0  0.52657482207E+03 -0.19859676720E+03  0.34882496883E+03  0.66855719272E+03  0.92564258115E+02 0.  0.
         23    2    4    4    0    0 -0.34192383759E+03  0.40144792029E+02  0.33082662196E+03  0.48608911007E+03  0.91174854512E+02 0.  0.
          4    1    3    3  502    0  0.24834847787E+01 -0.78220115793E+01  0.35519024891E+01  0.89424590066E+01  0.00000000000E+00 0. -1.
         -3    1    3    3    0  502 -0.18713446926E+03  0.16627398675E+03 -0.68527520307E+01  0.25042625355E+03  0.00000000000E+00 0.  1.
         13    1    5    5    0    0  0.54205056528E+02 -0.50393415165E+02  0.60897776806E+02  0.95844789452E+02  0.00000000000E+00 0. -1.
        -13    1    5    5    0    0  0.47236976554E+03 -0.14820335204E+03  0.28792719203E+03  0.57271240327E+03  0.00000000000E+00 0.  1.
          2    1    6    6  503    0 -0.67617133414E+02  0.19405332999E+02  0.24785686452E+02  0.74585346636E+02  0.00000000000E+00 0. -1.
         -2    1    6    6    0  503 -0.27430670417E+03  0.20739459030E+02  0.30604093551E+03  0.41150376343E+03  0.00000000000E+00 0.  1.
<mgrwt>
<rscale>  0 0.12417682E+04</rscale>
<asrwt>0</asrwt>
<pdfrwt beam="1">  1        2 0.16079736E+00 0.12417682E+04</pdfrwt>
<pdfrwt beam="2">  1       -1 0.56743406E-01 0.12417682E+04</pdfrwt>
<totfact> 0.83170252E+01</totfact>
</mgrwt>
</event>
<event>
12    7  0.1707730E-007  0.1904538E+04  0.7818608E-02  0.8652601E-01
          2   -1    0    0  501    0  0.00000000000E+00  0.00000000000E+00  0.18164982707E+04  0.18164982707E+04  0.00000000000E+00 0. -1.
         -1   -1    0    0    0  501 -0.00000000000E+00 -0.00000000000E+00 -0.49921113168E+03  0.49921113168E+03  0.00000000000E+00 0.  1.
         24    2    1    2    0    0 -0.71637964019E+03 -0.10721179982E+03  0.59601706149E+03  0.94141053451E+03  0.79519167455E+02 0.  0.
        254    2    1    2    0    0  0.71637964019E+03  0.10721179982E+03  0.72127007747E+03  0.13742988678E+04  0.91857100681E+03 0.  0.
         23    2    4    4    0    0  0.36424924985E+03  0.50271603359E+03  0.44529620665E+03  0.76983440302E+03  0.94632816564E+02 0.  0.
         23    2    4    4    0    0  0.35213039034E+03 -0.39550423378E+03  0.27597387082E+03  0.60446446480E+03  0.93788597905E+02 0.  0.
          2    1    3    3  502    0 -0.42777411570E+02 -0.13634464915E+01  0.14317854274E+02  0.45130553707E+02  0.00000000000E+00 0. -1.
         -1    1    3    3    0  502 -0.67360222862E+03 -0.10584835333E+03  0.58169920722E+03  0.89627998080E+03  0.00000000000E+00 0.  1.
         13    1    5    5    0    0  0.21164976854E+02  0.77946202885E+02  0.73921262049E+02  0.10948935917E+03  0.00000000000E+00 0. -1.
        -13    1    5    5    0    0  0.34308427299E+03  0.42476983071E+03  0.37137494461E+03  0.66034504385E+03  0.00000000000E+00 0.  1.
          2    1    6    6  503    0  0.24720512675E+03 -0.30035336005E+03  0.15702088322E+03  0.41949740566E+03  0.00000000000E+00 0. -1.
         -2    1    6    6    0  503  0.10492526359E+03 -0.95150873723E+02  0.11895298760E+03  0.18496705914E+03  0.00000000000E+00 0.  1.
<mgrwt>
<rscale>  0 0.19045379E+04</rscale>
<asrwt>0</asrwt>
<pdfrwt beam="1">  1        2 0.27946127E+00 0.19045379E+04</pdfrwt>
<pdfrwt beam="2">  1       -1 0.76801713E-01 0.19045379E+04</pdfrwt>
<totfact> 0.15321158E+01</totfact>
</mgrwt>
</event>
<event>
12    7  0.1707730E-007  0.1445243E+04  0.7818608E-02  0.8921705E-01
          2   -1    0    0  501    0  0.00000000000E+00  0.00000000000E+00  0.20620471923E+04  0.20620471923E+04  0.00000000000E+00 0. -1.
         -1   -1    0    0    0  501 -0.00000000000E+00 -0.00000000000E+00 -0.25323474587E+03  0.25323474587E+03  0.00000000000E+00 0.  1.
         24    2    1    2    0    0 -0.35411966322E+03  0.78473025170E+02  0.74909081983E+02  0.38168033973E+03  0.92248358350E+02 0.  0.
        254    2    1    2    0    0  0.35411966322E+03 -0.78473025170E+02  0.17339033645E+04  0.19336015985E+04  0.77513580276E+03 0.  0.
         23    2    4    4    0    0  0.27195624821E+03 -0.56088282717E+02  0.17782215055E+04  0.18018978349E+04  0.87509931888E+02 0.  0.
         23    2    4    4    0    0  0.82163415009E+02 -0.22384742453E+02 -0.44318141030E+02  0.13170376363E+03  0.90165848683E+02 0.  0.
          2    1    3    3  502    0 -0.75283262717E+02  0.56178579563E+02  0.28244023641E+02  0.98088364848E+02  0.00000000000E+00 0. -1.
         -1    1    3    3    0  502 -0.27883640050E+03  0.22294445606E+02  0.46665058342E+02  0.28359197488E+03  0.00000000000E+00 0.  1.
         13    1    5    5    0    0  0.65537427871E+02 -0.26190408592E+02  0.71039801003E+03  0.71389524764E+03  0.00000000000E+00 0. -1.
        -13    1    5    5    0    0  0.20641882034E+03 -0.29897874125E+02  0.10678234955E+04  0.10880025872E+04  0.00000000000E+00 0.  1.
          2    1    6    6  503    0  0.22445648696E+02 -0.18923882911E+02 -0.62610013563E+02  0.69151531351E+02  0.00000000000E+00 0. -1.
         -2    1    6    6    0  503  0.59717766312E+02 -0.34608595422E+01  0.18291872533E+02  0.62552232277E+02  0.00000000000E+00 0.  1.
<mgrwt>
<rscale>  0 0.14452432E+04</rscale>
<asrwt>0</asrwt>
<pdfrwt beam="1">  1        2 0.31723802E+00 0.14452432E+04</pdfrwt>
<pdfrwt beam="2">  1       -1 0.38959193E-01 0.14452432E+04</pdfrwt>
<totfact> 0.43610113E+01</totfact>
</mgrwt>
</event>
<event>
12    7  0.1707730E-007  0.1193589E+04  0.7818608E-02  0.9118487E-01
          2   -1    0    0  501    0  0.00000000000E+00  0.00000000000E+00  0.21665112956E+04  0.21665112956E+04  0.00000000000E+00 0. -1.
         -1   -1    0    0    0  501 -0.00000000000E+00 -0.00000000000E+00 -0.16439505926E+03  0.16439505926E+03  0.00000000000E+00 0.  1.
         24    2    1    2    0    0  0.16697796623E+03 -0.62766133096E+02  0.69547134617E+03  0.72241573769E+03  0.79892903568E+02 0.  0.
        254    2    1    2    0    0 -0.16697796623E+03  0.62766133096E+02  0.13066448902E+04  0.16084906172E+04  0.92092343213E+03 0.  0.
         23    2    4    4    0    0  0.30636005456E+03 -0.11587891225E+03  0.86903871994E+03  0.93325459733E+03  0.91931721127E+02 0.  0.
         23    2    4    4    0    0 -0.47333802080E+03  0.17864504535E+03  0.43760617023E+03  0.67523601984E+03  0.92095537947E+02 0.  0.
          4    1    3    3  502    0  0.16258164722E+03 -0.77418311918E+02  0.63492598777E+03  0.65996772420E+03  0.00000000000E+00 0. -1.
         -3    1    3    3    0  502  0.43963190127E+01  0.14652178822E+02  0.60545358400E+02  0.62448013490E+02  0.00000000000E+00 0.  1.
         13    1    5    5    0    0  0.10103663198E+03 -0.58718881011E+02  0.42406070151E+03  0.43986791944E+03  0.00000000000E+00 0. -1.
        -13    1    5    5    0    0  0.20532342258E+03 -0.57160031240E+02  0.44497801843E+03  0.49338667789E+03  0.00000000000E+00 0.  1.
          1    1    6    6  503    0 -0.13640570065E+03  0.32369079924E+02  0.74574442956E+02  0.15879426957E+03  0.00000000000E+00 0. -1.
         -1    1    6    6    0  503 -0.33693232014E+03  0.14627596542E+03  0.36303172727E+03  0.51644175027E+03  0.00000000000E+00 0.  1.
<mgrwt>
<rscale>  0 0.11935891E+04</rscale>
<asrwt>0</asrwt>
<pdfrwt beam="1">  1        2 0.33330941E+00 0.11935891E+04</pdfrwt>
<pdfrwt beam="2">  1       -1 0.25291549E-01 0.11935891E+04</pdfrwt>
<totfact> 0.83489298E+01</totfact>
</mgrwt>
</event>
<event>
12    7  0.1707730E-007  0.1439831E+04  0.7818608E-02  0.8925481E-01
         -1   -1    0    0    0  501 -0.00000000000E+00  0.00000000000E+00  0.24047038142E+03  0.24047038142E+03  0.00000000000E+00 0.  1.
          2   -1    0    0  501    0  0.00000000000E+00 -0.00000000000E+00 -0.21552697074E+04  0.21552697074E+04  0.00000000000E+00 0. -1.
         24    2    1    2    0    0 -0.96730898450E+02  0.37304272793E+03 -0.90905457437E+03  0.99061502345E+03  0.80125912964E+02 0.  0.
        254    2    1    2    0    0  0.96730898450E+02 -0.37304272793E+03 -0.10057447516E+04  0.14051250654E+04  0.90240578475E+03 0.  0.
         23    2    4    4    0    0  0.24236417725E+03 -0.62341845611E+03 -0.64711545695E+03  0.93537579272E+03  0.93693613151E+02 0.  0.
         23    2    4    4    0    0 -0.14563327880E+03  0.25037572819E+03 -0.35862929467E+03  0.46974927265E+03  0.90290370466E+02 0.  0.
          4    1    3    3  502    0 -0.10322612742E+03  0.35875659093E+03 -0.83103818274E+03  0.91103588628E+03  0.00000000000E+00 0. -1.
         -3    1    3    3    0  502  0.64952289717E+01  0.14286136995E+02 -0.78016391634E+02  0.79579137173E+02  0.00000000000E+00 0.  1.
         13    1    5    5    0    0  0.12943087558E+03 -0.32550334940E+03 -0.27389271365E+03  0.44465942092E+03  0.00000000000E+00 0. -1.
        -13    1    5    5    0    0  0.11293330168E+03 -0.29791510671E+03 -0.37322274330E+03  0.49071637180E+03  0.00000000000E+00 0.  1.
          2    1    6    6  503    0 -0.22461796658E+02  0.10672662302E+03 -0.17412076419E+03  0.20545837752E+03  0.00000000000E+00 0. -1.
         -2    1    6    6    0  503 -0.12317148215E+03  0.14364910517E+03 -0.18450853048E+03  0.26429089513E+03  0.00000000000E+00 0.  1.
<mgrwt>
<rscale>  0 0.14398313E+04</rscale>
<asrwt>0</asrwt>
<pdfrwt beam="1">  1        2 0.33157996E+00 0.14398313E+04</pdfrwt>
<pdfrwt beam="2">  1       -1 0.36995443E-01 0.14398313E+04</pdfrwt>
<totfact> 0.42518198E+01</totfact>
</mgrwt>
</event>
<event>
12    7  0.1707730E-007  0.2659417E+04  0.7818608E-02  0.8348294E-01
         -1   -1    0    0    0  501 -0.00000000000E+00  0.00000000000E+00  0.67151816883E+03  0.67151816883E+03  0.00000000000E+00 0.  1.
          2   -1    0    0  501    0  0.00000000000E+00 -0.00000000000E+00 -0.26330257015E+04  0.26330257015E+04  0.00000000000E+00 0. -1.
         24    2    1    2    0    0  0.28431337957E+03 -0.92280616106E+03 -0.33751220816E+02  0.96943814776E+03  0.79157240544E+02 0.  0.
        254    2    1    2    0    0 -0.28431337957E+03  0.92280616106E+03 -0.19277563118E+04  0.23351057226E+04  0.89669896230E+03 0.  0.
         23    2    4    4    0    0  0.21166619932E+02  0.59940142417E+03 -0.17425032760E+04  0.18450394429E+04  0.90126498709E+02 0.  0.
         23    2    4    4    0    0 -0.30547999951E+03  0.32340473689E+03 -0.18525303583E+03  0.49006627968E+03  0.89093306451E+02 0.  0.
          4    1    3    3  502    0  0.11542021629E+02 -0.49011106642E+02 -0.19356305804E+02  0.53944169397E+02  0.00000000000E+00 0. -1.
         -3    1    3    3    0  502  0.27277135794E+03 -0.87379505442E+03 -0.14394915012E+02  0.91549397836E+03  0.00000000000E+00 0.  1.
         13    1    5    5    0    0  0.46817253924E+02  0.53209504287E+03 -0.15150377980E+04  0.16064421930E+04  0.00000000000E+00 0.  1.
        -13    1    5    5    0    0 -0.25650633992E+02  0.67306381297E+02 -0.22746547797E+03  0.23859724989E+03  0.00000000000E+00 0. -1.
          3    1    6    6  503    0 -0.87458460145E+02  0.99324638523E+02 -0.12655495334E+02  0.13294558146E+03  0.00000000000E+00 0. -1.
         -3    1    6    6    0  503 -0.21802153936E+03  0.22408009837E+03 -0.17259754049E+03  0.35712069822E+03  0.00000000000E+00 0.  1.
<mgrwt>
<rscale>  0 0.26594169E+04</rscale>
<asrwt>0</asrwt>
<pdfrwt beam="1">  1        2 0.40508087E+00 0.26594169E+04</pdfrwt>
<pdfrwt beam="2">  1       -1 0.10331049E+00 0.26594169E+04</pdfrwt>
<totfact> 0.25740576E+00</totfact>
</mgrwt>
</event>
<event>
12    7  0.1707730E-007  0.1522919E+04  0.7818608E-02  0.8869353E-01
         -1   -1    0    0    0  501 -0.00000000000E+00  0.00000000000E+00  0.14553235080E+04  0.14553235080E+04  0.00000000000E+00 0.  1.
          2   -1    0    0  501    0  0.00000000000E+00 -0.00000000000E+00 -0.39841365429E+03  0.39841365429E+03  0.00000000000E+00 0. -1.
         24    2    1    2    0    0  0.20515603551E+03  0.83226279004E+02 -0.18829495631E+03  0.30154868804E+03  0.80380397263E+02 0.  0.
        254    2    1    2    0    0 -0.20515603551E+03 -0.83226279004E+02  0.12452048100E+04  0.15521884743E+04  0.89985467063E+03 0.  0.
         23    2    4    4    0    0  0.14069357967E+02  0.37123416578E+03  0.73596776854E+03  0.82956359752E+03  0.92273795406E+02 0.  0.
         23    2    4    4    0    0 -0.21922539348E+03 -0.45446044479E+03  0.50923704151E+03  0.72262487675E+03  0.90941074504E+02 0.  0.
          2    1    3    3  502    0  0.19826099599E+03  0.70367216947E+02 -0.19371860443E+03  0.28598228171E+03  0.00000000000E+00 0. -1.
         -1    1    3    3    0  502  0.68950395260E+01  0.12859062057E+02  0.54236481225E+01  0.15566406330E+02  0.00000000000E+00 0.  1.
         13    1    5    5    0    0  0.12143585333E+02  0.58915290644E+01  0.98374290047E+01  0.16701849864E+02  0.00000000000E+00 0. -1.
        -13    1    5    5    0    0  0.19257726332E+01  0.36534263672E+03  0.72613033953E+03  0.81286174765E+03  0.00000000000E+00 0.  1.
          4    1    6    6  503    0 -0.14195809810E+03 -0.23596720732E+03  0.32898128954E+03  0.42902367466E+03  0.00000000000E+00 0. -1.
         -4    1    6    6    0  503 -0.77267295378E+02 -0.21849323747E+03  0.18025575196E+03  0.29360120209E+03  0.00000000000E+00 0.  1.
<mgrwt>
<rscale>  0 0.15229192E+04</rscale>
<asrwt>0</asrwt>
<pdfrwt beam="1">  1        2 0.61294409E-01 0.15229192E+04</pdfrwt>
<pdfrwt beam="2">  1       -1 0.22389592E+00 0.15229192E+04</pdfrwt>
<totfact> 0.91352175E+00</totfact>
</mgrwt>
</event>
<event>
12    7  0.1707730E-007  0.2170597E+04  0.7818608E-02  0.8530767E-01
          2   -1    0    0  501    0  0.00000000000E+00  0.00000000000E+00  0.39189175950E+04  0.39189175950E+04  0.00000000000E+00 0. -1.
         -1   -1    0    0    0  501 -0.00000000000E+00 -0.00000000000E+00 -0.30056075578E+03  0.30056075578E+03  0.00000000000E+00 0.  1.
         24    2    1    2    0    0  0.40704194641E+03  0.30382616675E+03  0.57290266518E+02  0.51807255681E+03  0.84400910824E+02 0.  0.
        254    2    1    2    0    0 -0.40704194641E+03 -0.30382616675E+03  0.35610665727E+04  0.37014057940E+04  0.87247706600E+03 0.  0.
         23    2    4    4    0    0  0.13261333308E+03 -0.27385259341E+02  0.22346244979E+04  0.22406061462E+04  0.91831406115E+02 0.  0.
         23    2    4    4    0    0 -0.53965527949E+03 -0.27644090741E+03  0.13264420749E+04  0.14607996479E+04  0.82702099263E+02 0.  0.
          2    1    3    3  502    0  0.32783854242E+02  0.67324659296E+01 -0.11317009804E+02  0.35329617991E+02  0.00000000000E+00 0. -1.
         -1    1    3    3    0  502  0.37425809217E+03  0.29709370082E+03  0.68607276322E+02  0.48274293882E+03  0.00000000000E+00 0.  1.
         13    1    5    5    0    0  0.92802673096E+01 -0.14387123502E+02  0.58579473389E+02  0.61030053142E+02  0.00000000000E+00 0.  1.
        -13    1    5    5    0    0  0.12333306577E+03 -0.12998135840E+02  0.21760450245E+04  0.21795760930E+04  0.00000000000E+00 0. -1.
          2    1    6    6  503    0 -0.47670629897E+03 -0.24855547754E+03  0.11039451773E+04  0.12278940000E+04  0.00000000000E+00 0.  1.
         -2    1    6    6    0  503 -0.62948980516E+02 -0.27885429866E+02  0.22249689760E+03  0.23290564782E+03  0.00000000000E+00 0. -1.
<mgrwt>
<rscale>  0 0.21705970E+04</rscale>
<asrwt>0</asrwt>
<pdfrwt beam="1">  1        2 0.60291036E+00 0.21705970E+04</pdfrwt>
<pdfrwt beam="2">  1       -1 0.46240119E-01 0.21705970E+04</pdfrwt>
<totfact> 0.19408525E+00</totfact>
</mgrwt>
</event>
<event>
12    7  0.1707730E-007  0.2452245E+04  0.7818608E-02  0.8420199E-01
          2   -1    0    0  501    0  0.00000000000E+00  0.00000000000E+00  0.19189291829E+04  0.19189291829E+04  0.00000000000E+00 0. -1.
         -1   -1    0    0    0  501 -0.00000000000E+00 -0.00000000000E+00 -0.78344562950E+03  0.78344562950E+03  0.00000000000E+00 0.  1.
         24    2    1    2    0    0  0.38856612049E+03  0.72800290154E+03  0.12234666046E+04  0.14778065437E+04  0.77908878091E+02 0.  0.
        254    2    1    2    0    0 -0.38856612049E+03 -0.72800290154E+03 -0.87983051224E+02  0.12245682687E+04  0.90047463753E+03 0.  0.
         23    2    4    4    0    0 -0.13817459080E+03 -0.40645585781E+03 -0.48090955023E+03  0.65087748369E+03  0.89827175081E+02 0.  0.
         23    2    4    4    0    0 -0.25039152969E+03 -0.32154704373E+03  0.39292649901E+03  0.57369078504E+03  0.92959473640E+02 0.  0.
          2    1    3    3  502    0  0.20433832242E+03  0.39724285525E+03  0.59363292136E+03  0.74293746801E+03  0.00000000000E+00 0. -1.
         -1    1    3    3    0  502  0.18422779807E+03  0.33076004629E+03  0.62983368329E+03  0.73486907569E+03  0.00000000000E+00 0.  1.
         13    1    5    5    0    0 -0.10338144600E+02 -0.14389384521E+03 -0.19123252937E+03  0.23954581235E+03  0.00000000000E+00 0.  1.
        -13    1    5    5    0    0 -0.12783644620E+03 -0.26256201260E+03 -0.28967702086E+03  0.41133167134E+03  0.00000000000E+00 0. -1.
          1    1    6    6  503    0 -0.22163563541E+01 -0.98955787812E+01  0.40618333293E+02  0.41865065561E+02  0.00000000000E+00 0. -1.
         -1    1    6    6    0  503 -0.24817517334E+03 -0.31165146495E+03  0.35230816572E+03  0.53182571948E+03  0.00000000000E+00 0.  1.
<mgrwt>
<rscale>  0 0.24522452E+04</rscale>
<asrwt>0</asrwt>
<pdfrwt beam="1">  1        2 0.29521987E+00 0.24522452E+04</pdfrwt>
<pdfrwt beam="2">  1       -1 0.12053010E+00 0.24522452E+04</pdfrwt>
<totfact> 0.46253339E+00</totfact>
</mgrwt>
</event>
<event>
12    7  0.1707730E-007  0.1571502E+04  0.7818608E-02  0.8838249E-01
         -1   -1    0    0    0  501 -0.00000000000E+00  0.00000000000E+00  0.30225218007E+03  0.30225218007E+03  0.00000000000E+00 0.  1.
          2   -1    0    0  501    0  0.00000000000E+00 -0.00000000000E+00 -0.20426812233E+04  0.20426812233E+04  0.00000000000E+00 0. -1.
         24    2    1    2    0    0  0.15619920910E+03 -0.40155919857E+03 -0.96430812802E+03  0.10591731859E+04  0.79433550968E+02 0.  0.
        254    2    1    2    0    0 -0.15619920910E+03  0.40155919857E+03 -0.77612091526E+03  0.12857602176E+04  0.93014390234E+03 0.  0.
         23    2    4    4    0    0 -0.52596663104E+03  0.34217383531E+03 -0.54826384534E+03  0.83823182366E+03  0.91189448649E+02 0.  0.
         23    2    4    4    0    0  0.36976742194E+03  0.59385363256E+02 -0.22785706991E+03  0.44752839389E+03  0.90045829093E+02 0.  0.
          4    1    3    3  502    0  0.97745542051E+02 -0.33435531585E+03 -0.74270906528E+03  0.82034408871E+03  0.00000000000E+00 0. -1.
         -3    1    3    3    0  502  0.58453667047E+02 -0.67203882721E+02 -0.22159906274E+03  0.23882909716E+03  0.00000000000E+00 0.  1.
         13    1    5    5    0    0 -0.10599771273E+03  0.44767177245E+02 -0.14082158536E+03  0.18185250662E+03  0.00000000000E+00 0. -1.
        -13    1    5    5    0    0 -0.41996891831E+03  0.29740665807E+03 -0.40744225998E+03  0.65637931703E+03  0.00000000000E+00 0.  1.
          2    1    6    6  503    0  0.10246593134E+03  0.46974800893E+02 -0.10117386989E+03  0.15146633604E+03  0.00000000000E+00 0. -1.
         -2    1    6    6    0  503  0.26730149060E+03  0.12410562363E+02 -0.12668320002E+03  0.29606205785E+03  0.00000000000E+00 0.  1.
<mgrwt>
<rscale>  0 0.15715023E+04</rscale>
<asrwt>0</asrwt>
<pdfrwt beam="1">  1        2 0.31425866E+00 0.15715023E+04</pdfrwt>
<pdfrwt beam="2">  1       -1 0.46500334E-01 0.15715023E+04</pdfrwt>
<totfact> 0.31896850E+01</totfact>
</mgrwt>
</event>
<event>
12    7  0.1707730E-007  0.1662350E+04  0.7818608E-02  0.8783134E-01
          2   -1    0    0  501    0  0.00000000000E+00  0.00000000000E+00  0.12281054467E+04  0.12281054467E+04  0.00000000000E+00 0. -1.
         -1   -1    0    0    0  501 -0.00000000000E+00 -0.00000000000E+00 -0.56253470539E+03  0.56253470539E+03  0.00000000000E+00 0.  1.
         24    2    1    2    0    0 -0.69620415978E+02  0.33150155460E+03  0.74799443351E+03  0.82493598514E+03  0.79268051546E+02 0.  0.
        254    2    1    2    0    0  0.69620415978E+02 -0.33150155460E+03 -0.82423692223E+02  0.96570416692E+03  0.90058347195E+03 0.  0.
         23    2    4    4    0    0 -0.13157227353E+03 -0.59611259634E+03 -0.47335496551E+02  0.61909126530E+03  0.91497840697E+02 0.  0.
         23    2    4    4    0    0  0.20119268950E+03  0.26461104175E+03 -0.35088195672E+02  0.34661290162E+03  0.91715976644E+02 0.  0.
          2    1    3    3  502    0 -0.43180894124E+02  0.17665705484E+03  0.30726758050E+03  0.35705135579E+03  0.00000000000E+00 0. -1.
         -1    1    3    3    0  502 -0.26439521854E+02  0.15484449975E+03  0.44072685301E+03  0.46788462936E+03  0.00000000000E+00 0.  1.
         13    1    5    5    0    0 -0.31139684350E+02 -0.33811886090E+03 -0.42472231229E+02  0.34219575459E+03  0.00000000000E+00 0.  1.
        -13    1    5    5    0    0 -0.10043258918E+03 -0.25799373545E+03 -0.48632653225E+01  0.27689551071E+03  0.00000000000E+00 0. -1.
          1    1    6    6  503    0  0.14285203364E+03  0.15506156489E+03 -0.61699915176E+02  0.21967628901E+03  0.00000000000E+00 0. -1.
         -1    1    6    6    0  503  0.58340655864E+02  0.10954947686E+03  0.26611719504E+02  0.12693661261E+03  0.00000000000E+00 0.  1.
<mgrwt>
<rscale>  0 0.16623501E+04</rscale>
<asrwt>0</asrwt>
<pdfrwt beam="1">  1        2 0.18893930E+00 0.16623501E+04</pdfrwt>
<pdfrwt beam="2">  1       -1 0.86543801E-01 0.16623501E+04</pdfrwt>
<totfact> 0.26108341E+01</totfact>
</mgrwt>
</event>
<event>
12    7  0.1707730E-007  0.1453076E+04  0.7818608E-02  0.8916271E-01
          2   -1    0    0  501    0  0.00000000000E+00  0.00000000000E+00  0.89676449743E+03  0.89676449743E+03  0.00000000000E+00 0. -1.
         -1   -1    0    0    0  501 -0.00000000000E+00 -0.00000000000E+00 -0.58862428307E+03  0.58862428307E+03  0.00000000000E+00 0.  1.
         24    2    1    2    0    0 -0.40456101845E+03 -0.52595403841E+01  0.27216651027E+03  0.49419724536E+03  0.80368075738E+02 0.  0.
        254    2    1    2    0    0  0.40456101845E+03  0.52595403841E+01  0.35973704086E+02  0.99119153513E+03  0.90414007295E+03 0.  0.
         23    2    4    4    0    0  0.18357257136E+03  0.32675129381E+03 -0.28346097458E+03  0.47875371470E+03  0.91595296108E+02 0.  0.
         23    2    4    4    0    0  0.22098844709E+03 -0.32149175342E+03  0.31943467866E+03  0.51243782043E+03  0.91439404036E+02 0.  0.
          2    1    3    3  502    0 -0.21709586487E+03 -0.30766589878E+02  0.11149000354E+03  0.24598215074E+03  0.00000000000E+00 0. -1.
         -1    1    3    3    0  502 -0.18746515358E+03  0.25507049494E+02  0.16067650674E+03  0.24821509462E+03  0.00000000000E+00 0.  1.
         13    1    5    5    0    0  0.29246504452E+02  0.13684491402E+03 -0.12133516908E+03  0.18521369218E+03  0.00000000000E+00 0. -1.
        -13    1    5    5    0    0  0.15432606691E+03  0.18990637978E+03 -0.16212580550E+03  0.29354002252E+03  0.00000000000E+00 0.  1.
          1    1    6    6  503    0  0.20237614679E+02  0.14142337670E+01  0.12914170053E+02  0.24048635995E+02  0.00000000000E+00 0. -1.
         -1    1    6    6    0  503  0.20075083241E+03 -0.32290598719E+03  0.30652050861E+03  0.48838918444E+03  0.00000000000E+00 0.  1.
<mgrwt>
<rscale>  0 0.14530759E+04</rscale>
<asrwt>0</asrwt>
<pdfrwt beam="1">  1        2 0.13796377E+00 0.14530759E+04</pdfrwt>
<pdfrwt beam="2">  1       -1 0.90557582E-01 0.14530759E+04</pdfrwt>
<totfact> 0.38870042E+01</totfact>
</mgrwt>
</event>
<event>
12    7  0.1707730E-007  0.1441702E+04  0.7818608E-02  0.8924174E-01
         -1   -1    0    0    0  501 -0.00000000000E+00  0.00000000000E+00  0.45059061648E+03  0.45059061648E+03  0.00000000000E+00 0.  1.
          2   -1    0    0  501    0  0.00000000000E+00 -0.00000000000E+00 -0.11532110486E+04  0.11532110486E+04  0.00000000000E+00 0. -1.
         24    2    1    2    0    0  0.88593717932E+02  0.28830200648E+03 -0.56359402404E+03  0.64423579458E+03  0.80216215831E+02 0.  0.
        254    2    1    2    0    0 -0.88593717932E+02 -0.28830200648E+03 -0.13902640810E+03  0.95956587052E+03  0.90026186408E+03 0.  0.
         23    2    4    4    0    0 -0.40011295495E+02 -0.12251274263E+03 -0.51230289258E+03  0.53589710297E+03  0.90117564063E+02 0.  0.
         23    2    4    4    0    0 -0.48582422436E+02 -0.16578926385E+03  0.37327648448E+03  0.42366876755E+03  0.10155569387E+03 0.  0.
          2    1    3    3  502    0  0.90485197184E+02  0.28313661028E+03 -0.50953903316E+03  0.58990163358E+03  0.00000000000E+00 0. -1.
         -3    1    3    3    0  502 -0.18914792530E+01  0.51653961988E+01 -0.54054990885E+02  0.54334160997E+02  0.00000000000E+00 0.  1.
         13    1    5    5    0    0  0.27861049971E+02 -0.47982065714E+02 -0.15428110098E+03  0.16395479516E+03  0.00000000000E+00 0. -1.
        -13    1    5    5    0    0 -0.67872345466E+02 -0.74530676911E+02 -0.35802179159E+03  0.37194230781E+03  0.00000000000E+00 0.  1.
          2    1    6    6  503    0  0.26231328781E+02 -0.15297019300E+02  0.81191166624E+02  0.86683833249E+02  0.00000000000E+00 0. -1.
         -2    1    6    6    0  503 -0.74813751217E+02 -0.15049224455E+03  0.29208531785E+03  0.33698493430E+03  0.00000000000E+00 0.  1.
<mgrwt>
<rscale>  0 0.14417019E+04</rscale>
<asrwt>0</asrwt>
<pdfrwt beam="1">  1        2 0.17741708E+00 0.14417019E+04</pdfrwt>
<pdfrwt beam="2">  1       -1 0.69321634E-01 0.14417019E+04</pdfrwt>
<totfact> 0.47082446E+01</totfact>
</mgrwt>
</event>
<event>
12    7  0.1707730E-007  0.1144927E+04  0.7818608E-02  0.9162476E-01
          2   -1    0    0  501    0  0.00000000000E+00  0.00000000000E+00  0.28503991037E+04  0.28503991037E+04  0.00000000000E+00 0. -1.
         -1   -1    0    0    0  501 -0.00000000000E+00 -0.00000000000E+00 -0.11497147721E+03  0.11497147721E+03  0.00000000000E+00 0.  1.
         24    2    1    2    0    0 -0.17558994374E+03  0.11281990282E+03  0.77429285463E+03  0.80567452063E+03  0.77600577625E+02 0.  0.
        254    2    1    2    0    0  0.17558994374E+03 -0.11281990282E+03  0.19611347719E+04  0.21596960603E+04  0.88015755440E+03 0.  0.
         23    2    4    4    0    0  0.27426615569E+03  0.30174611509E+02  0.13040708627E+03  0.31844941608E+03  0.90948288130E+02 0.  0.
         23    2    4    4    0    0 -0.98676211956E+02 -0.14299451432E+03  0.18307276856E+04  0.18412466442E+04  0.91874479821E+02 0.  0.
          4    1    3    3  502    0 -0.15777783396E+03  0.87310527183E+02  0.53971546340E+03  0.56904284063E+03  0.00000000000E+00 0. -1.
         -3    1    3    3    0  502 -0.17812109774E+02  0.25509375632E+02  0.23457739124E+03  0.23663168000E+03  0.00000000000E+00 0.  1.
         13    1    5    5    0    0  0.16345408975E+03 -0.27260014222E+02  0.74357704898E+02  0.18162988771E+03  0.00000000000E+00 0. -1.
        -13    1    5    5    0    0  0.11081206594E+03  0.57434625731E+02  0.56049381376E+02  0.13681952837E+03  0.00000000000E+00 0.  1.
          3    1    6    6  503    0 -0.65445343541E+02 -0.83507923260E+02  0.65420791671E+03  0.66275535797E+03  0.00000000000E+00 0. -1.
         -3    1    6    6    0  503 -0.33230868415E+02 -0.59486591065E+02  0.11765197689E+04  0.11784912862E+04  0.00000000000E+00 0.  1.
<mgrwt>
<rscale>  0 0.11449272E+04</rscale>
<asrwt>0</asrwt>
<pdfrwt beam="1">  1        2 0.43852289E+00 0.11449272E+04</pdfrwt>
<pdfrwt beam="2">  1       -1 0.17687922E-01 0.11449272E+04</pdfrwt>
<totfact> 0.61839299E+01</totfact>
</mgrwt>
</event>
<event>
12    7  0.1707730E-007  0.1751717E+04  0.7818608E-02  0.8732406E-01
          2   -1    0    0  501    0  0.00000000000E+00  0.00000000000E+00  0.25581785397E+04  0.25581785397E+04  0.00000000000E+00 0. -1.
         -1   -1    0    0    0  501 -0.00000000000E+00 -0.00000000000E+00 -0.29987269974E+03  0.29987269974E+03  0.00000000000E+00 0.  1.
         24    2    1    2    0    0 -0.48951857018E+03  0.11864000807E+03  0.19794788276E+03  0.54736546054E+03  0.81985980726E+02 0.  0.
        254    2    1    2    0    0  0.48951857018E+03 -0.11864000807E+03  0.20603579572E+04  0.23106857789E+04  0.91678240325E+03 0.  0.
         23    2    4    4    0    0  0.53591408792E+03 -0.15152484125E+03  0.52208013655E+03  0.76865683002E+03  0.90010922722E+02 0.  0.
         23    2    4    4    0    0 -0.46395517745E+02  0.32884833181E+02  0.15382778206E+04  0.15420289489E+04  0.91217702935E+02 0.  0.
          2    1    3    3  502    0 -0.68312506920E+02  0.47302958991E+02  0.34175927219E+02  0.89845214298E+02  0.00000000000E+00 0. -1.
         -1    1    3    3    0  502 -0.42120606326E+03  0.71337049077E+02  0.16377195554E+03  0.45752024624E+03  0.00000000000E+00 0.  1.
         13    1    5    5    0    0  0.20333956661E+03 -0.70426808927E+02  0.14562610962E+03  0.25983432908E+03  0.00000000000E+00 0. -1.
        -13    1    5    5    0    0  0.33257452131E+03 -0.81098032322E+02  0.37645402693E+03  0.50882250094E+03  0.00000000000E+00 0.  1.
          4    1    6    6  503    0 -0.12764046542E+02 -0.31903847610E+02  0.45733145667E+03  0.45862058134E+03  0.00000000000E+00 0. -1.
         -4    1    6    6    0  503 -0.33631471203E+02  0.64788680791E+02  0.10809463640E+04  0.10834083675E+04  0.00000000000E+00 0.  1.
<mgrwt>
<rscale>  0 0.17517168E+04</rscale>
<asrwt>0</asrwt>
<pdfrwt beam="1">  1        2 0.39356591E+00 0.17517168E+04</pdfrwt>
<pdfrwt beam="2">  1       -1 0.46134263E-01 0.17517168E+04</pdfrwt>
<totfact> 0.16267316E+01</totfact>
</mgrwt>
</event>
<event>
12    7  0.1707730E-007  0.2905270E+04  0.7818608E-02  0.8271311E-01
          2   -1    0    0  501    0  0.00000000000E+00  0.00000000000E+00  0.28305515065E+04  0.28305515065E+04  0.00000000000E+00 0. -1.
         -1   -1    0    0    0  501 -0.00000000000E+00 -0.00000000000E+00 -0.74549012071E+03  0.74549012071E+03  0.00000000000E+00 0.  1.
         24    2    1    2    0    0  0.12913807003E+04 -0.82373181088E+02  0.13751134345E+04  0.18897187105E+04  0.75169095134E+02 0.  0.
        254    2    1    2    0    0 -0.12913807003E+04  0.82373181088E+02  0.70994795135E+03  0.16863229168E+04  0.81560372227E+03 0.  0.
         23    2    4    4    0    0 -0.46543953748E+03  0.29685790976E+03 -0.19309523067E+02  0.55996805387E+03  0.91830180436E+02 0.  0.
         23    2    4    4    0    0 -0.82594116286E+03 -0.21448472867E+03  0.72925747442E+03  0.11263548629E+04  0.93146711247E+02 0.  0.
          2    1    3    3  502    0  0.10051057041E+04 -0.83862988429E+02  0.11055779636E+04  0.14965203342E+04  0.00000000000E+00 0. -1.
         -1    1    3    3    0  502  0.28627499628E+03  0.14898073406E+01  0.26953547088E+03  0.39319837625E+03  0.00000000000E+00 0.  1.
         13    1    5    5    0    0 -0.36395103369E+03  0.22266630321E+03  0.23113739021E+02  0.42728782154E+03  0.00000000000E+00 0. -1.
        -13    1    5    5    0    0 -0.10148850379E+03  0.74191606557E+02 -0.42423262087E+02  0.13268023233E+03  0.00000000000E+00 0.  1.
          3    1    6    6  503    0 -0.12079092531E+02 -0.16196088087E+02  0.23649303504E+02  0.31104779406E+02  0.00000000000E+00 0. -1.
         -3    1    6    6    0  503 -0.81386207033E+03 -0.19828864059E+03  0.70560817091E+03  0.10952500835E+04  0.00000000000E+00 0.  1.
<mgrwt>
<rscale>  0 0.29052698E+04</rscale>
<asrwt>0</asrwt>
<pdfrwt beam="1">  1        2 0.43546946E+00 0.29052698E+04</pdfrwt>
<pdfrwt beam="2">  1       -1 0.11469079E+00 0.29052698E+04</pdfrwt>
<totfact> 0.15000737E+00</totfact>
</mgrwt>
</event>
<event>
12    7  0.1707730E-007  0.1288939E+04  0.7818608E-02  0.9038383E-01
         -1   -1    0    0    0  501 -0.00000000000E+00  0.00000000000E+00  0.33873890001E+03  0.33873890001E+03  0.00000000000E+00 0.  1.
          2   -1    0    0  501    0  0.00000000000E+00 -0.00000000000E+00 -0.12261387800E+04  0.12261387800E+04  0.00000000000E+00 0. -1.
         24    2    1    2    0    0  0.28063794120E+03  0.55165596161E+02 -0.34294779510E+03  0.45406070878E+03  0.82201216886E+02 0.  0.
        254    2    1    2    0    0 -0.28063794120E+03 -0.55165596161E+02 -0.54445208490E+03  0.11108169712E+04  0.92503263391E+03 0.  0.
         23    2    4    4    0    0 -0.34509027398E+03 -0.39305833453E+03 -0.53670281934E+03  0.75494570075E+03  0.91164374847E+02 0.  0.
         23    2    4    4    0    0  0.64452332785E+02  0.33789273837E+03 -0.77492655567E+01  0.35587127049E+03  0.90877413033E+02 0.  0.
          2    1    3    3  502    0  0.17870513601E+03  0.12951744124E+02 -0.26120038587E+03  0.31674739918E+03  0.00000000000E+00 0. -1.
         -1    1    3    3    0  502  0.10193280518E+03  0.42213852037E+02 -0.81747409234E+02  0.13731330960E+03  0.00000000000E+00 0.  1.
         13    1    5    5    0    0 -0.10514262001E+03 -0.12527084950E+03 -0.23075152933E+03  0.28283214910E+03  0.00000000000E+00 0. -1.
        -13    1    5    5    0    0 -0.23994765397E+03 -0.26778748503E+03 -0.30595129002E+03  0.47211355165E+03  0.00000000000E+00 0.  1.
          3    1    6    6  503    0  0.43372957465E+02  0.32510884149E+03  0.51871730636E+01  0.32803030198E+03  0.00000000000E+00 0. -1.
         -3    1    6    6    0  503  0.21079375320E+02  0.12783896880E+02 -0.12936438620E+02  0.27840968509E+02  0.00000000000E+00 0.  1.
<mgrwt>
<rscale>  0 0.12889389E+04</rscale>
<asrwt>0</asrwt>
<pdfrwt beam="1">  1        2 0.18863674E+00 0.12889389E+04</pdfrwt>
<pdfrwt beam="2">  1       -1 0.52113676E-01 0.12889389E+04</pdfrwt>
<totfact> 0.75754503E+01</totfact>
</mgrwt>
</event>
<event>
12    7  0.1707730E-007  0.1875359E+04  0.7818608E-02  0.8667220E-01
         -1   -1    0    0    0  501 -0.00000000000E+00  0.00000000000E+00  0.10185748402E+04  0.10185748402E+04  0.00000000000E+00 0.  1.
          2   -1    0    0  501    0  0.00000000000E+00 -0.00000000000E+00 -0.86320928919E+03  0.86320928919E+03  0.00000000000E+00 0. -1.
         24    2    1    2    0    0 -0.47434601280E+03  0.48662638485E+03  0.29355741889E+03  0.74455271963E+03  0.79833676109E+02 0.  0.
        254    2    1    2    0    0  0.47434601280E+03 -0.48662638485E+03 -0.13819186792E+03  0.11372314097E+04  0.90132619433E+03 0.  0.
         23    2    4    4    0    0 -0.22086324294E+03 -0.45965510285E+02 -0.18867062005E+03  0.30760436932E+03  0.90168979911E+02 0.  0.
         23    2    4    4    0    0  0.69520925574E+03 -0.44066087457E+03  0.50478752134E+02  0.82962704039E+03  0.90746934365E+02 0.  0.
          4    1    3    3  502    0 -0.19690151080E+03  0.15944930314E+03  0.82437956410E+02  0.26644005308E+03  0.00000000000E+00 0. -1.
         -3    1    3    3    0  502 -0.27744450200E+03  0.32717708171E+03  0.21111946248E+03  0.47811266656E+03  0.00000000000E+00 0.  1.
         13    1    5    5    0    0 -0.74148325378E+02  0.23263001348E+02 -0.84547161948E+02  0.11483624855E+03  0.00000000000E+00 0.  1.
        -13    1    5    5    0    0 -0.14671491756E+03 -0.69228511633E+02 -0.10412345810E+03  0.19276812077E+03  0.00000000000E+00 0. -1.
          4    1    6    6  503    0  0.87187751589E+02 -0.87096556917E+02  0.25427044428E+02  0.12583341703E+03  0.00000000000E+00 0.  1.
         -4    1    6    6    0  503  0.60802150415E+03 -0.35356431765E+03  0.25051707706E+02  0.70379362336E+03  0.00000000000E+00 0. -1.
<mgrwt>
<rscale>  0 0.18753594E+04</rscale>
<asrwt>0</asrwt>
<pdfrwt beam="1">  1        2 0.13280143E+00 0.18753594E+04</pdfrwt>
<pdfrwt beam="2">  1       -1 0.15670382E+00 0.18753594E+04</pdfrwt>
<totfact> 0.10304816E+01</totfact>
</mgrwt>
</event>
<event>
12    7  0.1707730E-007  0.1493423E+04  0.7818608E-02  0.8888838E-01
         -3   -1    0    0    0  501 -0.00000000000E+00  0.00000000000E+00  0.17607028041E+03  0.17607028041E+03  0.00000000000E+00 0.  1.
          2   -1    0    0  501    0  0.00000000000E+00 -0.00000000000E+00 -0.31667945199E+04  0.31667945199E+04  0.00000000000E+00 0. -1.
         24    2    1    2    0    0  0.53705406972E+02 -0.37347286586E+03 -0.26495827469E+03  0.46789494681E+03  0.79727922627E+02 0.  0.
        254    2    1    2    0    0 -0.53705406972E+02  0.37347286586E+03 -0.27257659647E+04  0.28749698535E+04  0.83263756307E+03 0.  0.
         23    2    4    4    0    0 -0.34825044968E+03  0.42484186127E+03 -0.12836155102E+04  0.13992854019E+04  0.92530400349E+02 0.  0.
         23    2    4    4    0    0  0.29454504271E+03 -0.51368995409E+02 -0.14421504545E+04  0.14756844516E+04  0.91929926140E+02 0.  0.
          2    1    3    3  502    0  0.53929522977E+02 -0.18754918979E+03 -0.17152223535E+03  0.25981333542E+03  0.00000000000E+00 0. -1.
         -1    1    3    3    0  502 -0.22411600527E+00 -0.18592367607E+03 -0.93436039342E+02  0.20808161139E+03  0.00000000000E+00 0.  1.
         13    1    5    5    0    0 -0.18178824478E+02  0.66016627519E+02 -0.13158801077E+03  0.14833768687E+03  0.00000000000E+00 0. -1.
        -13    1    5    5    0    0 -0.33007162520E+03  0.35882523375E+03 -0.11520274995E+04  0.12509477150E+04  0.00000000000E+00 0.  1.
          1    1    6    6  503    0  0.80153988523E+02  0.26574348361E+02 -0.41581007602E+03  0.42429809944E+03  0.00000000000E+00 0. -1.
         -1    1    6    6    0  503  0.21439105418E+03 -0.77943343771E+02 -0.10263403785E+04  0.10513863522E+04  0.00000000000E+00 0.  1.
<mgrwt>
<rscale>  0 0.14934234E+04</rscale>
<asrwt>0</asrwt>
<pdfrwt beam="1">  1        2 0.48719916E+00 0.14934234E+04</pdfrwt>
<pdfrwt beam="2">  1       -3 0.27087735E-01 0.14934234E+04</pdfrwt>
<totfact> 0.11386492E+01</totfact>
</mgrwt>
</event>
<event>
12    7  0.1707730E-007  0.2366077E+04  0.7818608E-02  0.8452314E-01
         -1   -1    0    0    0  501 -0.00000000000E+00  0.00000000000E+00  0.80776353615E+03  0.80776353615E+03  0.00000000000E+00 0.  1.
          2   -1    0    0  501    0  0.00000000000E+00 -0.00000000000E+00 -0.17326602556E+04  0.17326602556E+04  0.00000000000E+00 0. -1.
         24    2    1    2    0    0  0.40515636854E+03  0.33892137368E+03  0.52759665122E+03  0.75087897486E+03  0.80259753327E+02 0.  0.
        254    2    1    2    0    0 -0.40515636854E+03 -0.33892137368E+03 -0.14524933707E+04  0.17895448169E+04  0.90206112837E+03 0.  0.
         23    2    4    4    0    0 -0.52524507663E+02 -0.58912888913E+03 -0.76721615387E+03  0.97303325758E+03  0.91331383859E+02 0.  0.
         23    2    4    4    0    0 -0.35263186087E+03  0.25020751545E+03 -0.68527721680E+03  0.81651155932E+03  0.10066395851E+03 0.  0.
          2    1    3    3  502    0  0.14269720479E+02 -0.13972773521E+01  0.59017130074E+01  0.15505080553E+02  0.00000000000E+00 0. -1.
         -1    1    3    3    0  502  0.39088664806E+03  0.34031865103E+03  0.52169493822E+03  0.73537389431E+03  0.00000000000E+00 0.  1.
         13    1    5    5    0    0  0.20041339333E+02 -0.22528731664E+03 -0.32196811179E+03  0.39347108577E+03  0.00000000000E+00 0. -1.
        -13    1    5    5    0    0 -0.72565846996E+02 -0.36384157248E+03 -0.44524804208E+03  0.57956217181E+03  0.00000000000E+00 0.  1.
          1    1    6    6  503    0 -0.22064931048E+03  0.10181272037E+03 -0.33506564492E+03  0.41390933144E+03  0.00000000000E+00 0. -1.
         -1    1    6    6    0  503 -0.13198255039E+03  0.14839479508E+03 -0.35021157188E+03  0.40260222788E+03  0.00000000000E+00 0.  1.
<mgrwt>
<rscale>  0 0.23660767E+04</rscale>
<asrwt>0</asrwt>
<pdfrwt beam="1">  1        2 0.26656312E+00 0.23660767E+04</pdfrwt>
<pdfrwt beam="2">  1       -1 0.12427131E+00 0.23660767E+04</pdfrwt>
<totfact> 0.54828969E+00</totfact>
</mgrwt>
</event>
<event>
12    7  0.1707730E-007  0.1400028E+04  0.7818608E-02  0.8953798E-01
         -1   -1    0    0    0  501 -0.00000000000E+00  0.00000000000E+00  0.22122653324E+03  0.22122653324E+03  0.00000000000E+00 0.  1.
          2   -1    0    0  501    0  0.00000000000E+00 -0.00000000000E+00 -0.22150124018E+04  0.22150124018E+04  0.00000000000E+00 0. -1.
         24    2    1    2    0    0 -0.33499889505E+03  0.26373677552E+03 -0.55648387739E+03  0.70550090946E+03  0.79220458266E+02 0.  0.
        254    2    1    2    0    0  0.33499889505E+03 -0.26373677552E+03 -0.14373019912E+04  0.17307380256E+04  0.86477497243E+03 0.  0.
         23    2    4    4    0    0  0.13250330754E+03 -0.40392375919E+03 -0.13977200512E+04  0.14638034076E+04  0.91583538931E+02 0.  0.
         23    2    4    4    0    0  0.20249558752E+03  0.14018698367E+03 -0.39581939959E+02  0.26693461805E+03  0.95028979732E+02 0.  0.
          2    1    3    3  502    0 -0.88776440354E+02  0.62975371376E+02 -0.20220892618E+03  0.22964233841E+03  0.00000000000E+00 0. -1.
         -1    1    3    3    0  502 -0.24622245470E+03  0.20076140414E+03 -0.35427495121E+03  0.47585857105E+03  0.00000000000E+00 0.  1.
         13    1    5    5    0    0 -0.83694060293E+01 -0.67948695171E+02 -0.27806362761E+03  0.28636768871E+03  0.00000000000E+00 0. -1.
        -13    1    5    5    0    0  0.14087271357E+03 -0.33597506402E+03 -0.11196564236E+04  0.11774357189E+04  0.00000000000E+00 0.  1.
          4    1    6    6  503    0 -0.61962778940E+00  0.56735015843E+01 -0.21949644918E+02  0.22679494502E+02  0.00000000000E+00 0. -1.
         -4    1    6    6    0  503  0.20311521531E+03  0.13451348209E+03 -0.17632295041E+02  0.24425512355E+03  0.00000000000E+00 0.  1.
<mgrwt>
<rscale>  0 0.14000279E+04</rscale>
<asrwt>0</asrwt>
<pdfrwt beam="1">  1        2 0.34077115E+00 0.14000279E+04</pdfrwt>
<pdfrwt beam="2">  1       -1 0.34034850E-01 0.14000279E+04</pdfrwt>
<totfact> 0.45878334E+01</totfact>
</mgrwt>
</event>
<event>
12    7  0.1707730E-007  0.1248257E+04  0.7818608E-02  0.9071635E-01
          2   -1    0    0  501    0  0.00000000000E+00  0.00000000000E+00  0.24705707361E+03  0.24705707361E+03  0.00000000000E+00 0. -1.
         -3   -1    0    0    0  501 -0.00000000000E+00 -0.00000000000E+00 -0.15767073120E+04  0.15767073120E+04  0.00000000000E+00 0.  1.
         24    2    1    2    0    0 -0.14639333059E+03 -0.26615230473E+02  0.39373122761E+02  0.17435950639E+03  0.81924458720E+02 0.  0.
        254    2    1    2    0    0  0.14639333059E+03  0.26615230473E+02 -0.13690233611E+04  0.16494048792E+04  0.90783925588E+03 0.  0.
         23    2    4    4    0    0  0.96554939558E+02 -0.13392137607E+03 -0.14368364988E+04  0.14490482487E+04  0.89352735558E+02 0.  0.
         23    2    4    4    0    0  0.49838391034E+02  0.16053660655E+03  0.67813137682E+02  0.20035663053E+03  0.85371485256E+02 0.  0.
          4    1    3    3  502    0 -0.14727980162E+03 -0.12971998513E+02  0.51013603650E+02  0.15640332627E+03  0.00000000000E+00 0. -1.
         -1    1    3    3    0  502  0.88647102556E+00 -0.13643231960E+02 -0.11640480889E+02  0.17956180120E+02  0.00000000000E+00 0.  1.
         13    1    5    5    0    0 -0.16313180845E+02 -0.10888841446E+02 -0.20766088367E+03  0.20858506501E+03  0.00000000000E+00 0. -1.
        -13    1    5    5    0    0  0.11286812040E+03 -0.12303253463E+03 -0.12291756151E+04  0.12404631837E+04  0.00000000000E+00 0.  1.
          1    1    6    6  503    0  0.67251133197E+02  0.15388600213E+03  0.51697850938E+02  0.17571648858E+03  0.00000000000E+00 0. -1.
         -1    1    6    6    0  503 -0.17412742163E+02  0.66506044197E+01  0.16115286744E+02  0.24640141956E+02  0.00000000000E+00 0.  1.
<mgrwt>
<rscale>  0 0.12482575E+04</rscale>
<asrwt>0</asrwt>
<pdfrwt beam="1">  1        2 0.38008780E-01 0.12482575E+04</pdfrwt>
<pdfrwt beam="2">  1       -3 0.24257036E+00 0.12482575E+04</pdfrwt>
<totfact> 0.67497077E+00</totfact>
</mgrwt>
</event>
<event>
12    7  0.1707730E-007  0.1193079E+04  0.7818608E-02  0.9118937E-01
          2   -1    0    0  501    0  0.00000000000E+00  0.00000000000E+00  0.27336341928E+03  0.27336341928E+03  0.00000000000E+00 0. -1.
         -1   -1    0    0    0  501 -0.00000000000E+00 -0.00000000000E+00 -0.13017802443E+04  0.13017802443E+04  0.00000000000E+00 0.  1.
         24    2    1    2    0    0  0.54920814117E+02  0.22311241808E+03 -0.94014698959E+02  0.26071114279E+03  0.79599556706E+02 0.  0.
        254    2    1    2    0    0 -0.54920814117E+02 -0.22311241808E+03 -0.93440212608E+03  0.13144325208E+04  0.89544964772E+03 0.  0.
         23    2    4    4    0    0  0.40686519549E+02 -0.70508010898E+02  0.15999220343E+03  0.20162671526E+03  0.91809883314E+02 0.  0.
         23    2    4    4    0    0 -0.95607333666E+02 -0.15260440718E+03 -0.10943943295E+04  0.11128058055E+04  0.90603228649E+02 0.  0.
          2    1    3    3  502    0  0.33414236535E+02  0.12446465105E+03 -0.98162303107E+01  0.12924518924E+03  0.00000000000E+00 0. -1.
         -3    1    3    3    0  502  0.21506577582E+02  0.98647767036E+02 -0.84198468649E+02  0.13146595355E+03  0.00000000000E+00 0.  1.
         13    1    5    5    0    0  0.19328396903E+02 -0.88520731521E+02  0.97100648134E+02  0.13280829305E+03  0.00000000000E+00 0. -1.
        -13    1    5    5    0    0  0.21358122646E+02  0.18012720623E+02  0.62891555299E+02  0.68818422208E+02  0.00000000000E+00 0.  1.
          3    1    6    6  503    0 -0.11072962650E+03 -0.14960578685E+03 -0.10041945474E+04  0.10212980127E+04  0.00000000000E+00 0. -1.
         -3    1    6    6    0  503  0.15122292837E+02 -0.29986203310E+01 -0.90199782119E+02  0.91507792886E+02  0.00000000000E+00 0.  1.
<mgrwt>
<rscale>  0 0.11930785E+04</rscale>
<asrwt>0</asrwt>
<pdfrwt beam="1">  1        2 0.42055910E-01 0.11930785E+04</pdfrwt>
<pdfrwt beam="2">  1       -1 0.20027388E+00 0.11930785E+04</pdfrwt>
<totfact> 0.20659146E+01</totfact>
</mgrwt>
</event>
<event>
12    7  0.1707730E-007  0.1794692E+04  0.7818608E-02  0.8709127E-01
          2   -1    0    0  501    0  0.00000000000E+00  0.00000000000E+00  0.11770665930E+04  0.11770665930E+04  0.00000000000E+00 0. -1.
         -1   -1    0    0    0  501 -0.00000000000E+00 -0.00000000000E+00 -0.68409868156E+03  0.68409868156E+03  0.00000000000E+00 0.  1.
         24    2    1    2    0    0 -0.36628657711E+03 -0.25268594071E+03  0.72983748911E+03  0.85795516055E+03  0.73540844428E+02 0.  0.
        254    2    1    2    0    0  0.36628657711E+03  0.25268594071E+03 -0.23686957769E+03  0.10032101140E+04  0.86735649809E+03 0.  0.
         23    2    4    4    0    0  0.41361717470E+02 -0.30458383635E+03 -0.11535457686E+03  0.33997156714E+03  0.88271643380E+02 0.  0.
         23    2    4    4    0    0  0.32492485964E+03  0.55726977706E+03 -0.12151500082E+03  0.66323854685E+03  0.94835150427E+02 0.  0.
          4    1    3    3  502    0 -0.13641793284E+03 -0.13562794229E+03  0.33560009634E+03  0.38682323585E+03  0.00000000000E+00 0. -1.
         -3    1    3    3    0  502 -0.22986864427E+03 -0.11705799842E+03  0.39423739277E+03  0.47113192470E+03  0.00000000000E+00 0.  1.
         13    1    5    5    0    0  0.40716596422E+02 -0.47961804951E+02 -0.17253358828E+02  0.65236909409E+02  0.00000000000E+00 0. -1.
        -13    1    5    5    0    0  0.64512104716E+00 -0.25662203140E+03 -0.98101218035E+02  0.27473465774E+03  0.00000000000E+00 0.  1.
          3    1    6    6  503    0  0.11141582020E+03  0.13500972140E+03 -0.13604549596E+01  0.17505130877E+03  0.00000000000E+00 0. -1.
         -3    1    6    6    0  503  0.21350903944E+03  0.42226005566E+03 -0.12015454586E+03  0.48818723808E+03  0.00000000000E+00 0.  1.
<mgrwt>
<rscale>  0 0.17946918E+04</rscale>
<asrwt>0</asrwt>
<pdfrwt beam="1">  1        2 0.18108717E+00 0.17946918E+04</pdfrwt>
<pdfrwt beam="2">  1       -1 0.10524595E+00 0.17946918E+04</pdfrwt>
<totfact> 0.17831160E+01</totfact>
</mgrwt>
</event>
<event>
12    7  0.1707730E-007  0.1496417E+04  0.7818608E-02  0.8886839E-01
          2   -1    0    0  501    0  0.00000000000E+00  0.00000000000E+00  0.27952139916E+04  0.27952139916E+04  0.00000000000E+00 0. -1.
         -1   -1    0    0    0  501 -0.00000000000E+00 -0.00000000000E+00 -0.20027673317E+03  0.20027673317E+03  0.00000000000E+00 0.  1.
         24    2    1    2    0    0 -0.14120288227E+03  0.13619622547E+03 -0.29773166351E+02  0.21380033755E+03  0.79601991874E+02 0.  0.
        254    2    1    2    0    0  0.14120288227E+03 -0.13619622547E+03  0.26247104248E+04  0.27816903872E+04  0.90011606505E+03 0.  0.
         23    2    4    4    0    0 -0.15172822203E+03  0.25062220628E+03  0.40188819114E+03  0.50475267443E+03  0.86187009049E+02 0.  0.
         23    2    4    4    0    0  0.29293110429E+03 -0.38681843176E+03  0.22228222336E+04  0.22769377128E+04  0.89830587684E+02 0.  0.
          4    1    3    3  502    0 -0.66868906563E+02  0.58609299696E+02  0.26130552653E+02  0.92678511305E+02  0.00000000000E+00 0. -1.
         -3    1    3    3    0  502 -0.74333975703E+02  0.77586925778E+02 -0.55903719004E+02  0.12112182625E+03  0.00000000000E+00 0.  1.
         13    1    5    5    0    0 -0.85065202226E+02  0.93497196091E+02  0.11477280022E+03  0.17073549712E+03  0.00000000000E+00 0. -1.
        -13    1    5    5    0    0 -0.66663019802E+02  0.15712501019E+03  0.28711539092E+03  0.33401717732E+03  0.00000000000E+00 0.  1.
          3    1    6    6  503    0  0.19227164898E+03 -0.18292621313E+03  0.12569191567E+04  0.12846307458E+04  0.00000000000E+00 0. -1.
         -3    1    6    6    0  503  0.10065945532E+03 -0.20389221863E+03  0.96590307688E+03  0.99230696697E+03  0.00000000000E+00 0.  1.
<mgrwt>
<rscale>  0 0.14964175E+04</rscale>
<asrwt>0</asrwt>
<pdfrwt beam="1">  1        2 0.43003289E+00 0.14964175E+04</pdfrwt>
<pdfrwt beam="2">  1       -1 0.30811807E-01 0.14964175E+04</pdfrwt>
<totfact> 0.25073521E+01</totfact>
</mgrwt>
</event>
<event>
12    7  0.1707730E-007  0.1602359E+04  0.7818608E-02  0.8819100E-01
         -1   -1    0    0    0  501 -0.00000000000E+00  0.00000000000E+00  0.32823387348E+03  0.32823387348E+03  0.00000000000E+00 0.  1.
          2   -1    0    0  501    0  0.00000000000E+00 -0.00000000000E+00 -0.19555826109E+04  0.19555826109E+04  0.00000000000E+00 0. -1.
         24    2    1    2    0    0  0.45302973957E+03 -0.20840941168E+03 -0.24651779433E+03  0.56226973442E+03  0.81888970630E+02 0.  0.
        254    2    1    2    0    0 -0.45302973957E+03  0.20840941168E+03 -0.13808309430E+04  0.17215467499E+04  0.89908769930E+03 0.  0.
         23    2    4    4    0    0 -0.33767667060E+03  0.78185904265E+02 -0.14646746419E+04  0.15078264912E+04  0.90168462477E+02 0.  0.
         23    2    4    4    0    0 -0.11535306897E+03  0.13022350741E+03  0.83843698812E+02  0.21372025869E+03  0.91553758739E+02 0.  0.
          2    1    3    3  502    0  0.54421810168E+02 -0.21967059370E+02 -0.61178132468E+02  0.84776464963E+02  0.00000000000E+00 0. -1.
         -1    1    3    3    0  502  0.39860792940E+03 -0.18644235231E+03 -0.18533966186E+03  0.47749326946E+03  0.00000000000E+00 0.  1.
         13    1    5    5    0    0 -0.22386496101E+03  0.56877637863E+02 -0.78187063248E+03  0.81527435407E+03  0.00000000000E+00 0.  1.
        -13    1    5    5    0    0 -0.11381170958E+03  0.21308266402E+02 -0.68280400937E+03  0.69255213715E+03  0.00000000000E+00 0. -1.
          1    1    6    6  503    0 -0.12622789780E+03  0.13311167091E+03  0.71156486680E+02  0.19676240676E+03  0.00000000000E+00 0. -1.
         -1    1    6    6    0  503  0.10874828827E+02 -0.28881635015E+01  0.12687212131E+02  0.16957851930E+02  0.00000000000E+00 0.  1.
<mgrwt>
<rscale>  0 0.16023588E+04</rscale>
<asrwt>0</asrwt>
<pdfrwt beam="1">  1        2 0.30085887E+00 0.16023588E+04</pdfrwt>
<pdfrwt beam="2">  1       -1 0.50497518E-01 0.16023588E+04</pdfrwt>
<totfact> 0.30425432E+01</totfact>
</mgrwt>
</event>
<event>
12    7  0.1707730E-007  0.2731302E+04  0.7818608E-02  0.8324920E-01
          2   -1    0    0  501    0  0.00000000000E+00  0.00000000000E+00  0.89762764393E+03  0.89762764393E+03  0.00000000000E+00 0. -1.
         -1   -1    0    0    0  501 -0.00000000000E+00 -0.00000000000E+00 -0.20777016411E+04  0.20777016411E+04  0.00000000000E+00 0.  1.
         24    2    1    2    0    0  0.62480459784E+03  0.87184374143E+03 -0.11694873544E+04  0.15887987310E+04  0.78028459841E+02 0.  0.
        254    2    1    2    0    0 -0.62480459784E+03 -0.87184374143E+03 -0.10586642826E+02  0.13865305541E+04  0.87855711563E+03 0.  0.
         23    2    4    4    0    0  0.13385502793E+03 -0.33637229581E+03 -0.21600473651E+03  0.43124805440E+03  0.90847940757E+02 0.  0.
         23    2    4    4    0    0 -0.75865962577E+03 -0.53547144562E+03  0.20541809368E+03  0.95528249967E+03  0.89855239831E+02 0.  0.
          2    1    3    3  502    0  0.52826149985E+03  0.71162902700E+03 -0.10020473988E+04  0.13377500042E+04  0.00000000000E+00 0. -1.
         -1    1    3    3    0  502  0.96543097996E+02  0.16021471443E+03 -0.16743995551E+03  0.25104872673E+03  0.00000000000E+00 0.  1.
         13    1    5    5    0    0  0.30450424516E+02 -0.75419879116E+02 -0.96418041640E+02  0.12614208367E+03  0.00000000000E+00 0. -1.
        -13    1    5    5    0    0  0.10340460341E+03 -0.26095241670E+03 -0.11958669487E+03  0.30510597073E+03  0.00000000000E+00 0.  1.
          4    1    6    6  503    0 -0.26506589729E+03 -0.24021000569E+03  0.83802211525E+02  0.36740112602E+03  0.00000000000E+00 0. -1.
         -4    1    6    6    0  503 -0.49359372848E+03 -0.29526143993E+03  0.12161588216E+03  0.58788137366E+03  0.00000000000E+00 0.  1.
<mgrwt>
<rscale>  0 0.27313018E+04</rscale>
<asrwt>0</asrwt>
<pdfrwt beam="1">  1        2 0.13809656E+00 0.27313018E+04</pdfrwt>
<pdfrwt beam="2">  1       -1 0.31964640E+00 0.27313018E+04</pdfrwt>
<totfact> 0.72241877E-01</totfact>
</mgrwt>
</event>
<event>
12    7  0.1707730E-007  0.2430433E+04  0.7818608E-02  0.8428197E-01
         -1   -1    0    0    0  501 -0.00000000000E+00  0.00000000000E+00  0.13673211124E+04  0.13673211124E+04  0.00000000000E+00 0.  1.
          2   -1    0    0  501    0  0.00000000000E+00 -0.00000000000E+00 -0.10800324345E+04  0.10800324345E+04  0.00000000000E+00 0. -1.
         24    2    1    2    0    0 -0.44373779828E+03 -0.42078375305E+03 -0.72754425951E+03  0.95386959861E+03  0.81144076579E+02 0.  0.
        254    2    1    2    0    0  0.44373779828E+03  0.42078375305E+03  0.10148329374E+04  0.14934839483E+04  0.90920086482E+03 0.  0.
         23    2    4    4    0    0 -0.25718879400E+03  0.55406263634E+02  0.40504945804E+03  0.49118648629E+03  0.89348592863E+02 0.  0.
         23    2    4    4    0    0  0.70092659229E+03  0.36537748941E+03  0.60978347933E+03  0.10022974620E+04  0.89249723447E+02 0.  0.
          2    1    3    3  502    0 -0.43751685654E+03 -0.39455912043E+03 -0.68499342962E+03  0.90350091195E+03  0.00000000000E+00 0. -1.
         -1    1    3    3    0  502 -0.62209417400E+01 -0.26224632616E+02 -0.42550829886E+02  0.50368686661E+02  0.00000000000E+00 0.  1.
         13    1    5    5    0    0 -0.42610772844E+02  0.24620772167E+02  0.14222589878E+03  0.15049939092E+03  0.00000000000E+00 0. -1.
        -13    1    5    5    0    0 -0.21457802116E+03  0.30785491467E+02  0.26282355926E+03  0.34068709537E+03  0.00000000000E+00 0.  1.
          4    1    6    6  503    0  0.38093522479E+03  0.19955318037E+03  0.27541128461E+03  0.51067063061E+03  0.00000000000E+00 0. -1.
         -4    1    6    6    0  503  0.31999136750E+03  0.16582430904E+03  0.33437219472E+03  0.49162683139E+03  0.00000000000E+00 0.  1.
<mgrwt>
<rscale>  0 0.24304330E+04</rscale>
<asrwt>0</asrwt>
<pdfrwt beam="1">  1        2 0.16615884E+00 0.24304330E+04</pdfrwt>
<pdfrwt beam="2">  1       -1 0.21035709E+00 0.24304330E+04</pdfrwt>
<totfact> 0.29304523E+00</totfact>
</mgrwt>
</event>
<event>
12    7  0.1707730E-007  0.2519737E+04  0.7818608E-02  0.8395988E-01
         -1   -1    0    0    0  501 -0.00000000000E+00  0.00000000000E+00  0.19955991107E+04  0.19955991107E+04  0.00000000000E+00 0.  1.
          2   -1    0    0  501    0  0.00000000000E+00 -0.00000000000E+00 -0.79538470238E+03  0.79538470238E+03  0.00000000000E+00 0. -1.
         24    2    1    2    0    0  0.76357449989E+03 -0.25619066373E+03 -0.30830203975E+03  0.86630729638E+03  0.82210163436E+02 0.  0.
        254    2    1    2    0    0 -0.76357449989E+03  0.25619066373E+03  0.15085164481E+04  0.19246765167E+04  0.88322032742E+03 0.  0.
         23    2    4    4    0    0 -0.75410419568E+03  0.19797185229E+01  0.57434293608E+03  0.95234645559E+03  0.91743697463E+02 0.  0.
         23    2    4    4    0    0 -0.94703042135E+01  0.25421094521E+03  0.93417351202E+03  0.97233006113E+03  0.89625364120E+02 0.  0.
          2    1    3    3  502    0  0.47297667091E+03 -0.19586218733E+03 -0.17570709765E+03  0.54124108475E+03  0.00000000000E+00 0. -1.
         -1    1    3    3    0  502  0.29059782898E+03 -0.60328476400E+02 -0.13259494210E+03  0.32506621163E+03  0.00000000000E+00 0.  1.
         13    1    5    5    0    0 -0.46923957465E+02  0.18869222469E+02  0.55484069295E+02  0.75075876860E+02  0.00000000000E+00 0. -1.
        -13    1    5    5    0    0 -0.70718023822E+03 -0.16889503947E+02  0.51885886678E+03  0.87727057873E+03  0.00000000000E+00 0.  1.
          4    1    6    6  503    0 -0.40350591247E+02  0.55755780206E+02  0.23070181335E+03  0.24074925529E+03  0.00000000000E+00 0. -1.
         -4    1    6    6    0  503  0.30880287034E+02  0.19845516501E+03  0.70347169867E+03  0.73158080584E+03  0.00000000000E+00 0.  1.
<mgrwt>
<rscale>  0 0.25197373E+04</rscale>
<asrwt>0</asrwt>
<pdfrwt beam="1">  1        2 0.12236688E+00 0.25197373E+04</pdfrwt>
<pdfrwt beam="2">  1       -1 0.30701525E+00 0.25197373E+04</pdfrwt>
<totfact> 0.10484207E+00</totfact>
</mgrwt>
</event>
<event>
12    7  0.1707730E-007  0.1289236E+04  0.7818608E-02  0.9038145E-01
          2   -1    0    0  501    0  0.00000000000E+00  0.00000000000E+00  0.15292836994E+04  0.15292836994E+04  0.00000000000E+00 0. -1.
         -1   -1    0    0    0  501 -0.00000000000E+00 -0.00000000000E+00 -0.27171693510E+03  0.27171693510E+03  0.00000000000E+00 0.  1.
         24    2    1    2    0    0  0.16404083780E+03  0.10676152166E+03  0.69550297927E+03  0.72725839106E+03  0.82903282370E+02 0.  0.
        254    2    1    2    0    0 -0.16404083780E+03 -0.10676152166E+03  0.56206378502E+03  0.10737422434E+04  0.89369977505E+03 0.  0.
         23    2    4    4    0    0 -0.22920318067E+03  0.33185843090E+03  0.44285447716E+03  0.60549877837E+03  0.88569557269E+02 0.  0.
         23    2    4    4    0    0  0.65162342869E+02 -0.43861995256E+03  0.11920930786E+03  0.46824346506E+03  0.91692364879E+02 0.  0.
          2    1    3    3  502    0  0.14256892785E+03  0.84081275306E+02  0.65777826346E+03  0.67828298219E+03  0.00000000000E+00 0. -1.
         -3    1    3    3    0  502  0.21471909955E+02  0.22680246352E+02  0.37724715804E+02  0.48975408872E+02  0.00000000000E+00 0.  1.
         13    1    5    5    0    0 -0.87809032602E+02  0.19110207551E+03  0.19012636293E+03  0.28351095808E+03  0.00000000000E+00 0.  1.
        -13    1    5    5    0    0 -0.14139414807E+03  0.14075635539E+03  0.25272811423E+03  0.32198782029E+03  0.00000000000E+00 0. -1.
          2    1    6    6  503    0  0.78407380406E+02 -0.25847291576E+03  0.49367186976E+02  0.27457801192E+03  0.00000000000E+00 0. -1.
         -2    1    6    6    0  503 -0.13245037536E+02 -0.18014703680E+03  0.69842120881E+02  0.19366545313E+03  0.00000000000E+00 0.  1.
<mgrwt>
<rscale>  0 0.12892359E+04</rscale>
<asrwt>0</asrwt>
<pdfrwt beam="1">  1        2 0.23527441E+00 0.12892359E+04</pdfrwt>
<pdfrwt beam="2">  1       -1 0.41802606E-01 0.12892359E+04</pdfrwt>
<totfact> 0.76683434E+01</totfact>
</mgrwt>
</event>
<event>
12    7  0.1756460E-007  0.1627850E+04  0.7818608E-02  0.8803619E-01
         -1   -1    0    0    0  501 -0.00000000000E+00  0.00000000000E+00  0.45700287018E+03  0.45700287018E+03  0.00000000000E+00 0.  1.
          2   -1    0    0  501    0  0.00000000000E+00 -0.00000000000E+00 -0.14496053493E+04  0.14496053493E+04  0.00000000000E+00 0. -1.
         24    2    1    2    0    0 -0.30615209400E+03 -0.12437720024E+03  0.18269847106E+03  0.38788853983E+03  0.88769338218E+02 0.  0.
        254    2    1    2    0    0  0.30615209400E+03  0.12437720024E+03 -0.11753009502E+04  0.15187196797E+04  0.90331519929E+03 0.  0.
         23    2    4    4    0    0  0.48075133160E+03  0.23322115095E+02 -0.12000059028E+04  0.12960113741E+04  0.89249935495E+02 0.  0.
         23    2    4    4    0    0 -0.17459923760E+03  0.10105508514E+03  0.24704952618E+02  0.22270830561E+03  0.91058391727E+02 0.  0.
          2    1    3    3  502    0 -0.40451456772E+02  0.38584168433E+01  0.49896046425E+02  0.64349228312E+02  0.00000000000E+00 0. -1.
         -1    1    3    3    0  502 -0.26570063723E+03 -0.12823561708E+03  0.13280242463E+03  0.32353931152E+03  0.00000000000E+00 0.  1.
         13    1    5    5    0    0  0.11745902421E+03 -0.99601100637E+01 -0.20843878040E+03  0.23946304795E+03  0.00000000000E+00 0. -1.
        -13    1    5    5    0    0  0.36329230739E+03  0.33282225158E+02 -0.99156712244E+03  0.10565483261E+04  0.00000000000E+00 0.  1.
          3    1    6    6  503    0  0.23449586521E+01  0.25124320445E+02 -0.98432791564E+01  0.27085428804E+02  0.00000000000E+00 0. -1.
         -3    1    6    6    0  503 -0.17694419625E+03  0.75930764696E+02  0.34548231775E+02  0.19562287681E+03  0.00000000000E+00 0.  1.
<mgrwt>
<rscale>  0 0.16278499E+04</rscale>
<asrwt>0</asrwt>
<pdfrwt beam="1">  1        2 0.22301621E+00 0.16278499E+04</pdfrwt>
<pdfrwt beam="2">  1       -1 0.70308134E-01 0.16278499E+04</pdfrwt>
<totfact> 0.30227804E+01</totfact>
</mgrwt>
</event>
