<event>
12    3  0.1201947E-007  0.1561595E+04  0.7818608E-02  0.8844495E-01
          1   -1    0    0  501    0  0.00000000000E+00  0.00000000000E+00  0.27240753337E+04  0.27240753337E+04  0.00000000000E+00 0. -1.
         -2   -1    0    0    0  501 -0.00000000000E+00 -0.00000000000E+00 -0.10886176289E+04  0.10886176289E+04  0.00000000000E+00 0.  1.
        -24    2    1    2    0    0 -0.14325905142E+04 -0.47805668899E+03  0.75636311474E+01  0.15124855196E+04  0.81862440290E+02 0.  0.
    5000000    2    1    2    0    0  0.14325905142E+04  0.47805668899E+03  0.16278940736E+04  0.23002074431E+04  0.60005115351E+03 0.  0.
        -24    2    4    4    0    0  0.11139070298E+04  0.10910985491E+03  0.10138525549E+04  0.15123046852E+04  0.80465062688E+02 0.  0.
         24    2    4    4    0    0  0.31868348440E+03  0.36894683407E+03  0.61404151872E+03  0.78790275784E+03  0.77864237600E+02 0.  0.
         13    1    3    3    0    0 -0.76000594135E+03 -0.21311719102E+03  0.17962737299E+02  0.78952557142E+03  0.00000000000E+00 0. -1.
        -14    1    3    3    0    0 -0.67258457287E+03 -0.26493949797E+03 -0.10399106151E+02  0.72295994817E+03  0.00000000000E+00 0.  1.
         15    1    5    5    0    0  0.90525898428E+03  0.98654550757E+02  0.78307692502E+03  0.12010158938E+04  0.17770000000E+01 0. -1.
        -16    1    5    5    0    0  0.20864804554E+03  0.10455304158E+02  0.23077562989E+03  0.31128879139E+03  0.00000000000E+00 0.  1.
          2    1    6    6  502    0  0.33945402323E+02  0.74405547320E+02  0.13213210992E+03  0.15539424147E+03  0.00000000000E+00 0. -1.
         -1    1    6    6    0  502  0.28473808207E+03  0.29454128675E+03  0.48190940880E+03  0.63250851637E+03  0.00000000000E+00 0.  1.
<mgrwt>
<rscale>  0 0.15615954E+04</rscale>
<asrwt>0</asrwt>
<pdfrwt beam="1">  1        1 0.41908851E+00 0.15615954E+04</pdfrwt>
<pdfrwt beam="2">  1       -2 0.16747964E+00 0.15615954E+04</pdfrwt>
<totfact> 0.17263534E-01</totfact>
</mgrwt>
</event>
<event>
12    3  0.1201947E-007  0.6858509E+03  0.7818608E-02  0.9741740E-01
          1   -1    0    0  501    0  0.00000000000E+00  0.00000000000E+00  0.14766605918E+04  0.14766605918E+04  0.00000000000E+00 0. -1.
         -2   -1    0    0    0  501 -0.00000000000E+00 -0.00000000000E+00 -0.39843529330E+03  0.39843529330E+03  0.00000000000E+00 0.  1.
        -24    2    1    2    0    0 -0.54580853384E+03 -0.11207587897E+03  0.85984641168E+03  0.10276378382E+04  0.78966553353E+02 0.  0.
    5000000    2    1    2    0    0  0.54580853384E+03  0.11207587897E+03  0.21837888679E+03  0.84745804688E+03  0.60002320353E+03 0.  0.
        -24    2    4    4    0    0  0.40907462380E+03  0.34200392365E+03  0.11670966400E+03  0.55157324599E+03  0.79392495835E+02 0.  0.
         24    2    4    4    0    0  0.13673391003E+03 -0.22992804468E+03  0.10166922280E+03  0.29588480089E+03  0.75153952998E+02 0.  0.
         13    1    3    3    0    0 -0.30891746818E+02  0.10393730260E+02  0.64661736195E+02  0.72411806896E+02  0.00000000000E+00 0. -1.
        -14    1    3    3    0    0 -0.51491678702E+03 -0.12246960923E+03  0.79518467549E+03  0.95522603130E+03  0.00000000000E+00 0.  1.
         15    1    5    5    0    0  0.21407322817E+03  0.16135459004E+03  0.20430567322E+02  0.26885538223E+03  0.17770000000E+01 0. -1.
        -16    1    5    5    0    0  0.19500139563E+03  0.18064933361E+03  0.96279096677E+02  0.28271786376E+03  0.00000000000E+00 0.  1.
          2    1    6    6  502    0  0.10340266563E+03 -0.10796181637E+03  0.37638947370E+02  0.15415756684E+03  0.00000000000E+00 0. -1.
         -1    1    6    6    0  502  0.33331244399E+02 -0.12196622831E+03  0.64030275425E+02  0.14172723405E+03  0.00000000000E+00 0.  1.
<mgrwt>
<rscale>  0 0.68585089E+03</rscale>
<asrwt>0</asrwt>
<pdfrwt beam="1">  1        1 0.22717855E+00 0.68585089E+03</pdfrwt>
<pdfrwt beam="2">  1       -2 0.61297738E-01 0.68585089E+03</pdfrwt>
<totfact> 0.15333940E+01</totfact>
</mgrwt>
</event>
<event>
12    3  0.1201947E-007  0.8824173E+03  0.7818608E-02  0.9447831E-01
         -2   -1    0    0    0  501 -0.00000000000E+00  0.00000000000E+00  0.15554431464E+04  0.15554431464E+04  0.00000000000E+00 0.  1.
          1   -1    0    0  501    0  0.00000000000E+00 -0.00000000000E+00 -0.55833872065E+03  0.55833872065E+03  0.00000000000E+00 0. -1.
        -24    2    1    2    0    0 -0.47447878649E+03  0.63192780236E+03  0.15090370978E+03  0.80953833417E+03  0.90097273264E+02 0.  0.
    5000000    2    1    2    0    0  0.47447878649E+03 -0.63192780236E+03  0.84620071597E+03  0.13042435329E+04  0.60044373186E+03 0.  0.
        -24    2    4    4    0    0  0.36168779501E+03 -0.34124978593E+02  0.39681636214E+03  0.54392349234E+03  0.80043519639E+02 0.  0.
         24    2    4    4    0    0  0.11279099148E+03 -0.59780282376E+03  0.44938435383E+03  0.76032004053E+03  0.77783306161E+02 0.  0.
         11    1    3    3    0    0 -0.11789383404E+03  0.11760442131E+03  0.34522622961E+01  0.16655832051E+03  0.00000000000E+00 0. -1.
        -12    1    3    3    0    0 -0.35658495245E+03  0.51432338104E+03  0.14745144748E+03  0.64298001366E+03  0.00000000000E+00 0.  1.
         15    1    5    5    0    0  0.31743306727E+03 -0.22003069830E+02  0.37858864828E+03  0.49455071491E+03  0.17770000000E+01 0. -1.
        -16    1    5    5    0    0  0.44254727738E+02 -0.12121908762E+02  0.18227713864E+02  0.49372777438E+02  0.00000000000E+00 0.  1.
          2    1    6    6  502    0  0.53908745449E+02 -0.30274685747E+03  0.27515615988E+03  0.41264115750E+03  0.00000000000E+00 0. -1.
         -1    1    6    6    0  502  0.58882246032E+02 -0.29505596629E+03  0.17422819395E+03  0.34767888303E+03  0.00000000000E+00 0.  1.
<mgrwt>
<rscale>  0 0.88241732E+03</rscale>
<asrwt>0</asrwt>
<pdfrwt beam="1">  1        1 0.85898265E-01 0.88241732E+03</pdfrwt>
<pdfrwt beam="2">  1       -2 0.23929894E+00 0.88241732E+03</pdfrwt>
<totfact> 0.25251385E+00</totfact>
</mgrwt>
</event>
<event>
12    3  0.1201947E-007  0.5255557E+03  0.7818608E-02  0.1007316E+00
          1   -1    0    0  501    0  0.00000000000E+00  0.00000000000E+00  0.32811028404E+04  0.32811028404E+04  0.00000000000E+00 0. -1.
         -2   -1    0    0    0  501 -0.00000000000E+00 -0.00000000000E+00 -0.10730783111E+03  0.10730783111E+03  0.00000000000E+00 0.  1.
        -24    2    1    2    0    0 -0.12076853586E+03  0.40773361475E+03  0.14776897834E+04  0.15397332254E+04  0.79872208082E+02 0.  0.
    5000000    2    1    2    0    0  0.12076853586E+03 -0.40773361475E+03  0.16961052259E+04  0.18486774461E+04  0.60000301876E+03 0.  0.
        -24    2    4    4    0    0 -0.83874049271E+02  0.27855002543E+02  0.79945658143E+02  0.16048724038E+03  0.10748994726E+03 0.  0.
         24    2    4    4    0    0  0.20464258513E+03 -0.43558861730E+03  0.16161595677E+04  0.16881902057E+04  0.79989943373E+02 0.  0.
         11    1    3    3    0    0 -0.57644710134E+02  0.28378090168E+03  0.10913735413E+04  0.11291371570E+04  0.00000000000E+00 0. -1.
        -12    1    3    3    0    0 -0.63123825728E+02  0.12395271307E+03  0.38631624217E+03  0.41059606844E+03  0.00000000000E+00 0.  1.
         15    1    5    5    0    0  0.23944017459E+02  0.59867604550E+01  0.43488498013E+00  0.24748820715E+02  0.17770000000E+01 0. -1.
        -16    1    5    5    0    0 -0.10781806673E+03  0.21868242088E+02  0.79510773163E+02  0.13573841967E+03  0.00000000000E+00 0.  1.
          4    1    6    6  502    0  0.14331062707E+03 -0.21248716242E+03  0.82575970170E+03  0.86462004081E+03  0.00000000000E+00 0. -1.
         -3    1    6    6    0  502  0.61331958061E+02 -0.22310145488E+03  0.79039986602E+03  0.82357016486E+03  0.00000000000E+00 0.  1.
<mgrwt>
<rscale>  0 0.52555574E+03</rscale>
<asrwt>0</asrwt>
<pdfrwt beam="1">  1        1 0.50478498E+00 0.52555574E+03</pdfrwt>
<pdfrwt beam="2">  1       -2 0.16508900E-01 0.52555574E+03</pdfrwt>
<totfact> 0.10788626E+01</totfact>
</mgrwt>
</event>
<event>
12    3  0.1201947E-007  0.7280059E+03  0.7818608E-02  0.9670502E-01
          1   -1    0    0  501    0  0.00000000000E+00  0.00000000000E+00  0.13669111461E+04  0.13669111461E+04  0.00000000000E+00 0. -1.
         -2   -1    0    0    0  501 -0.00000000000E+00 -0.00000000000E+00 -0.53685075035E+03  0.53685075035E+03  0.00000000000E+00 0.  1.
        -24    2    1    2    0    0  0.40413820279E+03 -0.53934746037E+03  0.72856967903E+03  0.99566078268E+03  0.79392990910E+02 0.  0.
    5000000    2    1    2    0    0 -0.40413820279E+03  0.53934746037E+03  0.10149071670E+03  0.90810111374E+03  0.60010323882E+03 0.  0.
        -24    2    4    4    0    0 -0.12880492019E+03 -0.37150303537E+02  0.20278181081E+03  0.25629684427E+03  0.81220422726E+02 0.  0.
         24    2    4    4    0    0 -0.27533328260E+03  0.57649776391E+03 -0.10129109410E+03  0.65180426948E+03  0.80192466392E+02 0.  0.
         11    1    3    3    0    0  0.12639650148E+03 -0.22967675210E+03  0.30011044070E+03  0.39848935075E+03  0.00000000000E+00 0. -1.
        -12    1    3    3    0    0  0.27774170131E+03 -0.30967070827E+03  0.42845923833E+03  0.59717143193E+03  0.00000000000E+00 0.  1.
         15    1    5    5    0    0 -0.10153968074E+03 -0.44179310359E+02  0.98280310906E+02  0.14806854990E+03  0.17770000000E+01 0. -1.
        -16    1    5    5    0    0 -0.27265239446E+02  0.70290068221E+01  0.10450149990E+03  0.10822829436E+03  0.00000000000E+00 0.  1.
          4    1    6    6  502    0 -0.81983014027E+02  0.15996807191E+03 -0.65039869851E+02  0.19115748295E+03  0.00000000000E+00 0. -1.
         -3    1    6    6    0  502 -0.19335026857E+03  0.41652969200E+03 -0.36251224253E+02  0.46064678653E+03  0.00000000000E+00 0.  1.
<mgrwt>
<rscale>  0 0.72800594E+03</rscale>
<asrwt>0</asrwt>
<pdfrwt beam="1">  1        1 0.21029402E+00 0.72800594E+03</pdfrwt>
<pdfrwt beam="2">  1       -2 0.82592423E-01 0.72800594E+03</pdfrwt>
<totfact> 0.94495503E+00</totfact>
</mgrwt>
</event>
<event>
12    3  0.1253268E-007  0.1179787E+04  0.7818608E-02  0.9130736E-01
         -2   -1    0    0    0  501 -0.00000000000E+00  0.00000000000E+00  0.13485757023E+04  0.13485757023E+04  0.00000000000E+00 0.  1.
          1   -1    0    0  501    0  0.00000000000E+00 -0.00000000000E+00 -0.11895649566E+04  0.11895649566E+04  0.00000000000E+00 0. -1.
        -24    2    1    2    0    0  0.21758326804E+03 -0.11049613802E+04 -0.32271228735E+03  0.11742044647E+04  0.79566162587E+02 0.  0.
    5000000    2    1    2    0    0 -0.21758326804E+03  0.11049613802E+04  0.48172303309E+03  0.13639361942E+04  0.59998560895E+03 0.  0.
        -24    2    4    4    0    0 -0.25952380044E+02 -0.24635806078E+02  0.14209577829E+03  0.16623126688E+03  0.78493151990E+02 0.  0.
         24    2    4    4    0    0 -0.19163088799E+03  0.11295971863E+04  0.33962725480E+03  0.11977049273E+04  0.80238520779E+02 0.  0.
         11    1    3    3    0    0  0.85694183261E+02 -0.45278886198E+03 -0.91656464824E+02  0.46985333257E+03  0.00000000000E+00 0. -1.
        -12    1    3    3    0    0  0.13188908477E+03 -0.65217251824E+03 -0.23105582252E+03  0.70435113214E+03  0.00000000000E+00 0.  1.
         15    1    5    5    0    0 -0.53085365876E+02 -0.62338109913E+01  0.87804116097E+02  0.10280873991E+03  0.17770000000E+01 0. -1.
        -16    1    5    5    0    0  0.27132985831E+02 -0.18401995087E+02  0.54291662189E+02  0.63422526964E+02  0.00000000000E+00 0.  1.
          2    1    6    6  502    0 -0.13363754765E+03  0.62113420474E+03  0.21782106446E+03  0.67164924668E+03  0.00000000000E+00 0. -1.
         -1    1    6    6    0  502 -0.57993340338E+02  0.50846298155E+03  0.12180619034E+03  0.52605568065E+03  0.00000000000E+00 0.  1.
<mgrwt>
<rscale>  0 0.11797866E+04</rscale>
<asrwt>0</asrwt>
<pdfrwt beam="1">  1        1 0.18300999E+00 0.11797866E+04</pdfrwt>
<pdfrwt beam="2">  1       -2 0.20747319E+00 0.11797866E+04</pdfrwt>
<totfact> 0.11072817E+00</totfact>
</mgrwt>
</event>
<event>
12    3  0.1201947E-007  0.4469162E+03  0.7818608E-02  0.1028646E+00
         -2   -1    0    0    0  501 -0.00000000000E+00  0.00000000000E+00  0.57672984661E+03  0.57672984661E+03  0.00000000000E+00 0.  1.
          1   -1    0    0  501    0  0.00000000000E+00 -0.00000000000E+00 -0.58595889361E+03  0.58595889361E+03  0.00000000000E+00 0. -1.
        -24    2    1    2    0    0 -0.26015141832E+01  0.27948832545E+03  0.31260959890E+03  0.42670189505E+03  0.78925623079E+02 0.  0.
    5000000    2    1    2    0    0  0.26015141832E+01 -0.27948832545E+03 -0.32183864590E+03  0.73598684517E+03  0.59998002494E+03 0.  0.
        -24    2    4    4    0    0  0.65460821768E+02 -0.42501878641E+03 -0.34476091142E+03  0.55713675777E+03  0.81333835722E+02 0.  0.
         24    2    4    4    0    0 -0.62859307585E+02  0.14553046095E+03  0.22922265516E+02  0.17885008740E+03  0.79570823109E+02 0.  0.
         11    1    3    3    0    0 -0.85525080522E+01  0.52541409085E+02  0.21204637156E+02  0.57300800165E+02  0.00000000000E+00 0. -1.
        -12    1    3    3    0    0  0.59509938691E+01  0.22694691637E+03  0.29140496174E+03  0.36940109489E+03  0.00000000000E+00 0.  1.
         15    1    5    5    0    0  0.58971101524E+02 -0.15117352712E+03 -0.10661491628E+03  0.19416725836E+03  0.17770000000E+01 0. -1.
        -16    1    5    5    0    0  0.64897202445E+01 -0.27384525929E+03 -0.23814599514E+03  0.36296949941E+03  0.00000000000E+00 0.  1.
          4    1    6    6  502    0  0.18290691621E+02  0.42155024810E+02  0.61678735366E+01  0.46364190716E+02  0.00000000000E+00 0. -1.
         -3    1    6    6    0  502 -0.81149999207E+02  0.10337543614E+03  0.16754391980E+02  0.13248589668E+03  0.00000000000E+00 0.  1.
<mgrwt>
<rscale>  0 0.44691622E+03</rscale>
<asrwt>0</asrwt>
<pdfrwt beam="1">  1        1 0.90147522E-01 0.44691622E+03</pdfrwt>
<pdfrwt beam="2">  1       -2 0.88727669E-01 0.44691622E+03</pdfrwt>
<totfact> 0.35562439E+01</totfact>
</mgrwt>
</event>
<event>
12    3  0.1551921E-007  0.1101212E+04  0.7818608E-02  0.9204012E-01
         -4   -1    0    0    0  501 -0.00000000000E+00  0.00000000000E+00  0.17734975916E+04  0.17734975916E+04  0.00000000000E+00 0.  1.
          1   -1    0    0  501    0  0.00000000000E+00 -0.00000000000E+00 -0.10661835830E+04  0.10661835830E+04  0.00000000000E+00 0. -1.
        -24    2    1    2    0    0  0.59798636730E+03 -0.83794636906E+03 -0.49687127988E+03  0.11456229435E+04  0.76348195943E+02 0.  0.
    5000000    2    1    2    0    0 -0.59798636730E+03  0.83794636906E+03  0.12041852885E+04  0.16940582311E+04  0.60002438983E+03 0.  0.
        -24    2    4    4    0    0 -0.65132900711E+03  0.49409928180E+03  0.71604194257E+03  0.10893095760E+04  0.74267846172E+02 0.  0.
         24    2    4    4    0    0  0.53342639814E+02  0.34384708726E+03  0.48814334598E+03  0.60474865517E+03  0.79754329421E+02 0.  0.
         13    1    3    3    0    0  0.17447688074E+03 -0.29520751335E+03 -0.18824887228E+03  0.39118703425E+03  0.00000000000E+00 0. -1.
        -14    1    3    3    0    0  0.42350948656E+03 -0.54273885571E+03 -0.30862240760E+03  0.75443590926E+03  0.00000000000E+00 0.  1.
         15    1    5    5    0    0 -0.40621712966E+03  0.34210555525E+03  0.49408789490E+03  0.72537891683E+03  0.17770000000E+01 0. -1.
        -16    1    5    5    0    0 -0.24511187745E+03  0.15199372656E+03  0.22195404766E+03  0.36393065913E+03  0.00000000000E+00 0.  1.
          4    1    6    6  502    0  0.59807547678E+01  0.20111398228E+03  0.33012524765E+03  0.38660740090E+03  0.00000000000E+00 0. -1.
         -3    1    6    6    0  502  0.47361885047E+02  0.14273310498E+03  0.15801809833E+03  0.21814125426E+03  0.00000000000E+00 0.  1.
<mgrwt>
<rscale>  0 0.11012115E+04</rscale>
<asrwt>0</asrwt>
<pdfrwt beam="1">  1        1 0.16402824E+00 0.11012115E+04</pdfrwt>
<pdfrwt beam="2">  1       -4 0.27284578E+00 0.11012115E+04</pdfrwt>
<totfact> 0.28768521E-01</totfact>
</mgrwt>
</event>
<event>
12    3  0.1201947E-007  0.8421546E+03  0.7818608E-02  0.9500928E-01
         -2   -1    0    0    0  501 -0.00000000000E+00  0.00000000000E+00  0.48400929809E+03  0.48400929809E+03  0.00000000000E+00 0.  1.
          1   -1    0    0  501    0  0.00000000000E+00 -0.00000000000E+00 -0.20159493696E+04  0.20159493696E+04  0.00000000000E+00 0. -1.
        -24    2    1    2    0    0 -0.55906507278E+03  0.49490830435E+03 -0.13203790967E+04  0.15190021353E+04  0.80489395172E+02 0.  0.
    5000000    2    1    2    0    0  0.55906507278E+03 -0.49490830435E+03 -0.21156097478E+03  0.98095653236E+03  0.60002473866E+03 0.  0.
        -24    2    4    4    0    0  0.30477549441E+02  0.11394833412E+03  0.29574372822E+01  0.14268514498E+03  0.80232164956E+02 0.  0.
         24    2    4    4    0    0  0.52858752334E+03 -0.60885663847E+03 -0.21451841206E+03  0.83827138738E+03  0.81053030484E+02 0.  0.
         13    1    3    3    0    0 -0.16032382623E+03  0.19255734434E+03 -0.43850756147E+03  0.50504548467E+03  0.00000000000E+00 0. -1.
        -14    1    3    3    0    0 -0.39874124655E+03  0.30235096001E+03 -0.88187153526E+03  0.10139566507E+04  0.00000000000E+00 0.  1.
         15    1    5    5    0    0  0.38710242620E+02  0.84785619393E+02  0.34072006320E+02  0.99252926825E+02  0.17770000000E+01 0. -1.
        -16    1    5    5    0    0 -0.82326931796E+01  0.29162714724E+02 -0.31114569038E+02  0.43432218151E+02  0.00000000000E+00 0.  1.
          4    1    6    6  502    0  0.37416460284E+03 -0.37635776408E+03 -0.12589943940E+03  0.54543100888E+03  0.00000000000E+00 0. -1.
         -3    1    6    6    0  502  0.15442292049E+03 -0.23249887438E+03 -0.88618972662E+02  0.29284037850E+03  0.00000000000E+00 0.  1.
<mgrwt>
<rscale>  0 0.84215464E+03</rscale>
<asrwt>0</asrwt>
<pdfrwt beam="1">  1        1 0.31014606E+00 0.84215464E+03</pdfrwt>
<pdfrwt beam="2">  1       -2 0.74462967E-01 0.84215464E+03</pdfrwt>
<totfact> 0.42613526E+00</totfact>
</mgrwt>
</event>
<event>
12    3  0.1201947E-007  0.3748930E+03  0.7818608E-02  0.1052838E+00
          1   -1    0    0  501    0  0.00000000000E+00  0.00000000000E+00  0.23005284484E+04  0.23005284484E+04  0.00000000000E+00 0. -1.
         -2   -1    0    0    0  501 -0.00000000000E+00 -0.00000000000E+00 -0.83491830944E+02  0.83491830944E+02  0.00000000000E+00 0.  1.
        -24    2    1    2    0    0  0.19237533750E+03 -0.11030444754E+03  0.54849405118E+03  0.59705313136E+03  0.80320457310E+02 0.  0.
    5000000    2    1    2    0    0 -0.19237533750E+03  0.11030444754E+03  0.16685425663E+04  0.17869671480E+04  0.60003495804E+03 0.  0.
        -24    2    4    4    0    0 -0.34862168744E+03  0.90274064757E+02  0.15148952753E+04  0.15591741655E+04  0.80186629139E+02 0.  0.
         24    2    4    4    0    0  0.15624634994E+03  0.20030382785E+02  0.15364729093E+03  0.22779298244E+03  0.58889852573E+02 0.  0.
         13    1    3    3    0    0  0.84814589250E+02 -0.67225835599E+02  0.17276252758E+03  0.20386200837E+03  0.00000000000E+00 0. -1.
        -14    1    3    3    0    0  0.10756074825E+03 -0.43078611943E+02  0.37573152359E+03  0.39319112298E+03  0.00000000000E+00 0.  1.
         15    1    5    5    0    0 -0.66594137091E+02  0.46508023622E+02  0.26866704463E+03  0.28068294204E+03  0.17770000000E+01 0. -1.
        -16    1    5    5    0    0 -0.28202755035E+03  0.43766041135E+02  0.12462282307E+04  0.12784912235E+04  0.00000000000E+00 0.  1.
          2    1    6    6  502    0  0.85263158971E+02  0.21920542660E+02  0.47355030408E+02  0.99964070411E+02  0.00000000000E+00 0. -1.
         -1    1    6    6    0  502  0.70983190970E+02 -0.18901598753E+01  0.10629226052E+03  0.12782891203E+03  0.00000000000E+00 0.  1.
<mgrwt>
<rscale>  0 0.37489303E+03</rscale>
<asrwt>0</asrwt>
<pdfrwt beam="1">  1        1 0.35392741E+00 0.37489303E+03</pdfrwt>
<pdfrwt beam="2">  1       -2 0.12844899E-01 0.37489303E+03</pdfrwt>
<totfact> 0.81617947E+01</totfact>
</mgrwt>
</event>
<event>
12    3  0.1201947E-007  0.7736860E+03  0.7818608E-02  0.9598906E-01
         -2   -1    0    0    0  501 -0.00000000000E+00  0.00000000000E+00  0.45222787804E+03  0.45222787804E+03  0.00000000000E+00 0.  1.
          1   -1    0    0  501    0  0.00000000000E+00 -0.00000000000E+00 -0.17379982551E+04  0.17379982551E+04  0.00000000000E+00 0. -1.
        -24    2    1    2    0    0  0.26799702079E+02  0.69643940397E+03 -0.10107977087E+04  0.12303480069E+04  0.79360839495E+02 0.  0.
    5000000    2    1    2    0    0 -0.26799702079E+02 -0.69643940397E+03 -0.27497266839E+03  0.95987812622E+03  0.60000831778E+03 0.  0.
        -24    2    4    4    0    0 -0.22215835418E+03 -0.16575929737E+03  0.65175288015E+02  0.29515612487E+03  0.77709979303E+02 0.  0.
         24    2    4    4    0    0  0.19535865210E+03 -0.53068010660E+03 -0.34014795641E+03  0.66472200135E+03  0.79801806644E+02 0.  0.
         13    1    3    3    0    0 -0.22484446033E+01  0.49517724206E+03 -0.76585193947E+03  0.91199492857E+03  0.00000000000E+00 0. -1.
        -14    1    3    3    0    0  0.29048146682E+02  0.20126216191E+03 -0.24494576919E+03  0.31835307834E+03  0.00000000000E+00 0.  1.
         15    1    5    5    0    0 -0.10603766672E+03 -0.68272067518E+02  0.68447568339E+02  0.14350362124E+03  0.17770000000E+01 0. -1.
        -16    1    5    5    0    0 -0.11612068746E+03 -0.97487229850E+02 -0.32722803246E+01  0.15165250363E+03  0.00000000000E+00 0.  1.
          2    1    6    6  502    0  0.12462626980E+03 -0.22369528051E+03 -0.15154309935E+03  0.29755099833E+03  0.00000000000E+00 0. -1.
         -1    1    6    6    0  502  0.70732382304E+02 -0.30698482609E+03 -0.18860485706E+03  0.36717100303E+03  0.00000000000E+00 0.  1.
<mgrwt>
<rscale>  0 0.77368602E+03</rscale>
<asrwt>0</asrwt>
<pdfrwt beam="1">  1        1 0.26738435E+00 0.77368602E+03</pdfrwt>
<pdfrwt beam="2">  1       -2 0.69573519E-01 0.77368602E+03</pdfrwt>
<totfact> 0.76744007E+00</totfact>
</mgrwt>
</event>
<event>
12    3  0.1201947E-007  0.5669093E+03  0.7818608E-02  0.9976541E-01
          1   -1    0    0  501    0  0.00000000000E+00  0.00000000000E+00  0.66408332434E+03  0.66408332434E+03  0.00000000000E+00 0. -1.
         -2   -1    0    0    0  501 -0.00000000000E+00 -0.00000000000E+00 -0.63005880616E+03  0.63005880616E+03  0.00000000000E+00 0.  1.
        -24    2    1    2    0    0  0.50394235794E+03  0.50857049735E+01  0.23597608841E+02  0.51076748636E+03  0.79641782119E+02 0.  0.
    5000000    2    1    2    0    0 -0.50394235794E+03 -0.50857049735E+01  0.10426909337E+02  0.78337464415E+03  0.59965268960E+03 0.  0.
        -24    2    4    4    0    0 -0.33867105900E+03  0.17091349413E+03 -0.21567359987E+03  0.44386737088E+03  0.81201185749E+02 0.  0.
         24    2    4    4    0    0 -0.16527129893E+03 -0.17599919910E+03  0.22610050921E+03  0.33950727327E+03  0.76507698994E+02 0.  0.
         11    1    3    3    0    0  0.23343074568E+03 -0.32665178724E+02 -0.78104188720E+01  0.23583453855E+03  0.00000000000E+00 0. -1.
        -12    1    3    3    0    0  0.27051161226E+03  0.37750883698E+02  0.31408027713E+02  0.27493294781E+03  0.00000000000E+00 0.  1.
         15    1    5    5    0    0 -0.51722178278E+02  0.48954430589E+02 -0.14181617258E+02  0.72636051635E+02  0.17770000000E+01 0. -1.
        -16    1    5    5    0    0 -0.28694888072E+03  0.12195906354E+03 -0.20149198261E+03  0.37123131924E+03  0.00000000000E+00 0.  1.
          2    1    6    6  502    0 -0.10612689454E+03 -0.12384033654E+03  0.19628654971E+03  0.25520140339E+03  0.00000000000E+00 0. -1.
         -1    1    6    6    0  502 -0.59144404394E+02 -0.52158862563E+02  0.29813959504E+02  0.84305869880E+02  0.00000000000E+00 0.  1.
<mgrwt>
<rscale>  0 0.56690934E+03</rscale>
<asrwt>0</asrwt>
<pdfrwt beam="1">  1        1 0.10216666E+00 0.56690934E+03</pdfrwt>
<pdfrwt beam="2">  1       -2 0.96932124E-01 0.56690934E+03</pdfrwt>
<totfact> 0.23855104E+01</totfact>
</mgrwt>
</event>
<event>
12    3  0.1201947E-007  0.8730132E+03  0.7818608E-02  0.9459960E-01
         -2   -1    0    0    0  501 -0.00000000000E+00  0.00000000000E+00  0.59588325088E+03  0.59588325088E+03  0.00000000000E+00 0.  1.
          1   -1    0    0  501    0  0.00000000000E+00 -0.00000000000E+00 -0.30454226698E+04  0.30454226698E+04  0.00000000000E+00 0. -1.
        -24    2    1    2    0    0 -0.36284390613E+03 -0.68535917957E+03  0.20949703789E+03  0.80724702818E+03  0.79911515913E+02 0.  0.
    5000000    2    1    2    0    0  0.36284390613E+03  0.68535917957E+03 -0.26590364568E+04  0.28340588925E+04  0.60003501752E+03 0.  0.
        -24    2    4    4    0    0  0.50825593630E+03  0.45025762136E+03 -0.20359781248E+04  0.21477481077E+04  0.80987574157E+02 0.  0.
         24    2    4    4    0    0 -0.14541203017E+03  0.23510155821E+03 -0.62305833202E+03  0.68631078479E+03  0.80021291054E+02 0.  0.
         11    1    3    3    0    0 -0.15192511553E+03 -0.36942537053E+03  0.11807860720E+03  0.41653199468E+03  0.00000000000E+00 0. -1.
        -12    1    3    3    0    0 -0.21091879060E+03 -0.31593380905E+03  0.91418430690E+02  0.39071503349E+03  0.00000000000E+00 0.  1.
         15    1    5    5    0    0  0.42943734493E+03  0.33746746625E+03 -0.16156598455E+04  0.17054795859E+04  0.17770000000E+01 0. -1.
        -16    1    5    5    0    0  0.78818591375E+02  0.11279015511E+03 -0.42031827928E+03  0.44226852175E+03  0.00000000000E+00 0.  1.
          2    1    6    6  502    0 -0.62082567860E+02  0.15659578437E+03 -0.43056899515E+03  0.46234850978E+03  0.00000000000E+00 0. -1.
         -1    1    6    6    0  502 -0.83329462313E+02  0.78505773846E+02 -0.19248933687E+03  0.22396227501E+03  0.00000000000E+00 0.  1.
<mgrwt>
<rscale>  0 0.87301316E+03</rscale>
<asrwt>0</asrwt>
<pdfrwt beam="1">  1        1 0.46852657E+00 0.87301316E+03</pdfrwt>
<pdfrwt beam="2">  1       -2 0.91674345E-01 0.87301316E+03</pdfrwt>
<totfact> 0.51547541E-01</totfact>
</mgrwt>
</event>
<event>
12    3  0.1201947E-007  0.4544908E+03  0.7818608E-02  0.1026391E+00
          1   -1    0    0  501    0  0.00000000000E+00  0.00000000000E+00  0.45718771631E+03  0.45718771631E+03  0.00000000000E+00 0. -1.
         -2   -1    0    0    0  501 -0.00000000000E+00 -0.00000000000E+00 -0.46428478621E+03  0.46428478621E+03  0.00000000000E+00 0.  1.
        -24    2    1    2    0    0 -0.54765626170E+02  0.24722501364E+03 -0.44065058972E+02  0.26915832014E+03  0.79906136810E+02 0.  0.
    5000000    2    1    2    0    0  0.54765626170E+02 -0.24722501364E+03  0.36967989077E+02  0.65231418238E+03  0.60002306551E+03 0.  0.
        -24    2    4    4    0    0  0.30474365968E+03 -0.21932398851E+03  0.53035046687E+02  0.38752673432E+03  0.79953383840E+02 0.  0.
         24    2    4    4    0    0 -0.24997803351E+03 -0.27901025130E+02 -0.16067057610E+02  0.26478744806E+03  0.81158843446E+02 0.  0.
         13    1    3    3    0    0  0.14135251700E+02  0.67418264528E+02 -0.32742085658E+02  0.76269731256E+02  0.00000000000E+00 0. -1.
        -14    1    3    3    0    0 -0.68900877870E+02  0.17980674911E+03 -0.11322973313E+02  0.19288858888E+03  0.00000000000E+00 0.  1.
         15    1    5    5    0    0  0.19899965281E+03 -0.95725337741E+02  0.39126891616E+02  0.22427276580E+03  0.17770000000E+01 0. -1.
        -16    1    5    5    0    0  0.10574400687E+03 -0.12359865077E+03  0.13908155071E+02  0.16325396852E+03  0.00000000000E+00 0.  1.
          2    1    6    6  502    0 -0.11112307314E+03  0.27619846421E+02 -0.12418122394E+01  0.11451085276E+03  0.00000000000E+00 0. -1.
         -1    1    6    6    0  502 -0.13885496036E+03 -0.55520871551E+02 -0.14825245371E+02  0.15027659530E+03  0.00000000000E+00 0.  1.
<mgrwt>
<rscale>  0 0.45449077E+03</rscale>
<asrwt>0</asrwt>
<pdfrwt beam="1">  1        1 0.70336572E-01 0.45449077E+03</pdfrwt>
<pdfrwt beam="2">  1       -2 0.71428429E-01 0.45449077E+03</pdfrwt>
<totfact> 0.80893740E+01</totfact>
</mgrwt>
</event>
<event>
12    3  0.1201947E-007  0.6707293E+03  0.7818608E-02  0.9768641E-01
          1   -1    0    0  501    0  0.00000000000E+00  0.00000000000E+00  0.16075532944E+04  0.16075532944E+04  0.00000000000E+00 0. -1.
         -2   -1    0    0    0  501 -0.00000000000E+00 -0.00000000000E+00 -0.50952768308E+03  0.50952768308E+03  0.00000000000E+00 0.  1.
        -24    2    1    2    0    0  0.59445071915E+03 -0.97478139465E+02 -0.13154963526E+03  0.62219874735E+03  0.83380630215E+02 0.  0.
    5000000    2    1    2    0    0 -0.59445071915E+03  0.97478139465E+02  0.12295752466E+04  0.14948822302E+04  0.59995328968E+03 0.  0.
        -24    2    4    4    0    0  0.55518591745E+02  0.60906310123E+02  0.50653753526E+03  0.51917637755E+03  0.78561719298E+02 0.  0.
         24    2    4    4    0    0 -0.64996931089E+03  0.36571829342E+02  0.72303771137E+03  0.97570585262E+03  0.73625912395E+02 0.  0.
         13    1    3    3    0    0  0.64234803345E+02 -0.30503637199E+02  0.27169347772E+01  0.71161531586E+02  0.00000000000E+00 0. -1.
        -14    1    3    3    0    0  0.53021591581E+03 -0.66974502266E+02 -0.13426657003E+03  0.55103721576E+03  0.00000000000E+00 0.  1.
         15    1    5    5    0    0  0.15666162323E+02  0.20451478913E+02  0.37520167022E+03  0.37608927490E+03  0.17770000000E+01 0. -1.
        -16    1    5    5    0    0  0.39852429421E+02  0.40454831210E+02  0.13133586504E+03  0.14308710265E+03  0.00000000000E+00 0.  1.
          2    1    6    6  502    0 -0.49446280015E+03  0.42602806512E+01  0.57758211663E+03  0.76033723582E+03  0.00000000000E+00 0. -1.
         -1    1    6    6    0  502 -0.15550651075E+03  0.32311548691E+02  0.14545559473E+03  0.21536861680E+03  0.00000000000E+00 0.  1.
<mgrwt>
<rscale>  0 0.67072935E+03</rscale>
<asrwt>0</asrwt>
<pdfrwt beam="1">  1        1 0.24731589E+00 0.67072935E+03</pdfrwt>
<pdfrwt beam="2">  1       -2 0.78388875E-01 0.67072935E+03</pdfrwt>
<totfact> 0.73327598E+00</totfact>
</mgrwt>
</event>
<event>
12    3  0.1201947E-007  0.5552593E+03  0.7818608E-02  0.1000284E+00
         -2   -1    0    0    0  501 -0.00000000000E+00  0.00000000000E+00  0.29527944766E+03  0.29527944766E+03  0.00000000000E+00 0.  1.
          1   -1    0    0  501    0  0.00000000000E+00 -0.00000000000E+00 -0.31748990853E+04  0.31748990853E+04  0.00000000000E+00 0. -1.
        -24    2    1    2    0    0  0.14946731323E+03 -0.44321059056E+03  0.17000672955E+02  0.47532241426E+03  0.82862955011E+02 0.  0.
    5000000    2    1    2    0    0 -0.14946731323E+03  0.44321059056E+03 -0.28966203106E+04  0.29948561187E+04  0.59998153528E+03 0.  0.
        -24    2    4    4    0    0 -0.23146476751E+03  0.54381362829E+02 -0.46789638509E+03  0.53254517465E+03  0.90244471538E+02 0.  0.
         24    2    4    4    0    0  0.81997454278E+02  0.38882922773E+03 -0.24287239255E+04  0.24623109441E+04  0.79771724545E+02 0.  0.
         11    1    3    3    0    0  0.79423374868E+01 -0.20354101030E+02  0.19676597624E+02  0.29403038066E+02  0.00000000000E+00 0. -1.
        -12    1    3    3    0    0  0.14152497574E+03 -0.42285648953E+03 -0.26759246687E+01  0.44591937620E+03  0.00000000000E+00 0.  1.
         15    1    5    5    0    0 -0.73797933596E+02  0.23968589762E+02 -0.25069093634E+03  0.26243043191E+03  0.17770000000E+01 0. -1.
        -16    1    5    5    0    0 -0.15766683391E+03  0.30412773067E+02 -0.21720544874E+03  0.27011474274E+03  0.00000000000E+00 0.  1.
          4    1    6    6  502    0  0.40825984239E+02  0.33142337569E+03 -0.19453525000E+04  0.19738045912E+04  0.00000000000E+00 0. -1.
         -3    1    6    6    0  502  0.41171470038E+02  0.57405852044E+02 -0.48337142555E+03  0.48850635291E+03  0.00000000000E+00 0.  1.
<mgrwt>
<rscale>  0 0.55525927E+03</rscale>
<asrwt>0</asrwt>
<pdfrwt beam="1">  1        1 0.48844602E+00 0.55525927E+03</pdfrwt>
<pdfrwt beam="2">  1       -2 0.45427607E-01 0.55525927E+03</pdfrwt>
<totfact> 0.20149961E+00</totfact>
</mgrwt>
</event>
<event>
12    3  0.1201947E-007  0.8789366E+03  0.7818608E-02  0.9452302E-01
         -2   -1    0    0    0  501 -0.00000000000E+00  0.00000000000E+00  0.78194993706E+03  0.78194993706E+03  0.00000000000E+00 0.  1.
          1   -1    0    0  501    0  0.00000000000E+00 -0.00000000000E+00 -0.12052562618E+04  0.12052562618E+04  0.00000000000E+00 0. -1.
        -24    2    1    2    0    0  0.41502426031E+03  0.75033399089E+03 -0.37566649552E+03  0.93962145393E+03  0.80727481611E+02 0.  0.
    5000000    2    1    2    0    0 -0.41502426031E+03 -0.75033399089E+03 -0.47639829230E+02  0.10475847449E+04  0.59993167108E+03 0.  0.
        -24    2    4    4    0    0 -0.76856556343E+02 -0.39817827872E+02  0.18850657924E+03  0.22234392022E+03  0.80060594402E+02 0.  0.
         24    2    4    4    0    0 -0.33816770397E+03 -0.71051616302E+03 -0.23614640847E+03  0.82524082471E+03  0.77888886379E+02 0.  0.
         11    1    3    3    0    0  0.81820565052E+02  0.21508278504E+03 -0.11668909135E+03  0.25801463781E+03  0.00000000000E+00 0. -1.
        -12    1    3    3    0    0  0.33320369526E+03  0.53525120585E+03 -0.25897740417E+03  0.68160681612E+03  0.00000000000E+00 0.  1.
         15    1    5    5    0    0 -0.85355895898E+02 -0.24064270119E+02  0.10743787939E+03  0.13932255279E+03  0.17770000000E+01 0. -1.
        -16    1    5    5    0    0  0.84993395543E+01 -0.15753557753E+02  0.81068699850E+02  0.83021367431E+02  0.00000000000E+00 0.  1.
          4    1    6    6  502    0 -0.67920114492E+02 -0.81788026066E+02 -0.35535491869E+02  0.11209457767E+03  0.00000000000E+00 0. -1.
         -3    1    6    6    0  502 -0.27024758948E+03 -0.62872813695E+03 -0.20061091660E+03  0.71314624704E+03  0.00000000000E+00 0.  1.
<mgrwt>
<rscale>  0 0.87893659E+03</rscale>
<asrwt>0</asrwt>
<pdfrwt beam="1">  1        1 0.18542404E+00 0.87893659E+03</pdfrwt>
<pdfrwt beam="2">  1       -2 0.12029999E+00 0.87893659E+03</pdfrwt>
<totfact> 0.49562160E+00</totfact>
</mgrwt>
</event>
<event>
12    3  0.1201947E-007  0.1920525E+04  0.7818608E-02  0.8644707E-01
         -2   -1    0    0    0  501 -0.00000000000E+00  0.00000000000E+00  0.13620235622E+04  0.13620235622E+04  0.00000000000E+00 0.  1.
          1   -1    0    0  501    0  0.00000000000E+00 -0.00000000000E+00 -0.28463668127E+04  0.28463668127E+04  0.00000000000E+00 0. -1.
        -24    2    1    2    0    0  0.58455145857E+03 -0.18286124836E+04 -0.61779441126E+03  0.20183408908E+04  0.80659742152E+02 0.  0.
    5000000    2    1    2    0    0 -0.58455145857E+03  0.18286124836E+04 -0.86654883923E+03  0.21900494840E+04  0.59990484963E+03 0.  0.
        -24    2    4    4    0    0 -0.33642977819E+03  0.95482788725E+03 -0.76727877201E+03  0.12726971448E+04  0.78485785025E+02 0.  0.
         24    2    4    4    0    0 -0.24812168038E+03  0.87378459639E+03 -0.99270067226E+02  0.91735233922E+03  0.81344199995E+02 0.  0.
         11    1    3    3    0    0  0.38455056930E+03 -0.11786491901E+04 -0.43858049734E+03  0.13150839921E+04  0.00000000000E+00 0. -1.
        -12    1    3    3    0    0  0.20000088927E+03 -0.64996329351E+03 -0.17921391391E+03  0.70325689869E+03  0.00000000000E+00 0.  1.
         15    1    5    5    0    0 -0.79864829237E+02  0.26806582627E+03 -0.17232416690E+03  0.32853683871E+03  0.17770000000E+01 0. -1.
        -16    1    5    5    0    0 -0.25656494895E+03  0.68676206098E+03 -0.59495460510E+03  0.94416030608E+03  0.00000000000E+00 0.  1.
          2    1    6    6  502    0 -0.18834037948E+03  0.64841971782E+03 -0.10915096664E+03  0.68398403674E+03  0.00000000000E+00 0. -1.
         -1    1    6    6    0  502 -0.59781300897E+02  0.22536487857E+03  0.98808994180E+01  0.23336830248E+03  0.00000000000E+00 0.  1.
<mgrwt>
<rscale>  0 0.19205247E+04</rscale>
<asrwt>0</asrwt>
<pdfrwt beam="1">  1        1 0.43790258E+00 0.19205247E+04</pdfrwt>
<pdfrwt beam="2">  1       -2 0.20954209E+00 0.19205247E+04</pdfrwt>
<totfact> 0.70231262E-02</totfact>
</mgrwt>
</event>
<event>
12    3  0.1201947E-007  0.5383475E+03  0.7818608E-02  0.1004228E+00
          1   -1    0    0  501    0  0.00000000000E+00  0.00000000000E+00  0.41440961604E+03  0.41440961604E+03  0.00000000000E+00 0. -1.
         -2   -1    0    0    0  501 -0.00000000000E+00 -0.00000000000E+00 -0.11181795803E+04  0.11181795803E+04  0.00000000000E+00 0.  1.
        -24    2    1    2    0    0  0.21778181989E+03 -0.48512990348E+03 -0.41926792434E+03  0.68190042741E+03  0.80141476178E+02 0.  0.
    5000000    2    1    2    0    0 -0.21778181989E+03  0.48512990348E+03 -0.28450203995E+03  0.85068876896E+03  0.59995835403E+03 0.  0.
        -24    2    4    4    0    0 -0.10402339333E+03  0.16151228671E+03 -0.42338014871E+03  0.47205968657E+03  0.81746634461E+02 0.  0.
         24    2    4    4    0    0 -0.11375842656E+03  0.32361761677E+03  0.13887810876E+03  0.37862908238E+03  0.80021943473E+02 0.  0.
         13    1    3    3    0    0  0.10886976276E+03 -0.27154576680E+03 -0.18174534882E+03  0.34441414101E+03  0.00000000000E+00 0. -1.
        -14    1    3    3    0    0  0.10891205713E+03 -0.21358413668E+03 -0.23752257552E+03  0.33748628640E+03  0.00000000000E+00 0.  1.
         15    1    5    5    0    0 -0.31017317349E+02  0.86909410980E+02 -0.27921203443E+03  0.29407114376E+03  0.17770000000E+01 0. -1.
        -16    1    5    5    0    0 -0.73006075980E+02  0.74602875733E+02 -0.14416811428E+03  0.17798854282E+03  0.00000000000E+00 0.  1.
          4    1    6    6  502    0 -0.29007296560E+01  0.80041027012E+02  0.73308326477E+01  0.80428361571E+02  0.00000000000E+00 0. -1.
         -1    1    6    6    0  502 -0.11085769690E+03  0.24357658975E+03  0.13154727611E+03  0.29820072081E+03  0.00000000000E+00 0.  1.
<mgrwt>
<rscale>  0 0.53834747E+03</rscale>
<asrwt>0</asrwt>
<pdfrwt beam="1">  1        1 0.63755326E-01 0.53834747E+03</pdfrwt>
<pdfrwt beam="2">  1       -2 0.17202763E+00 0.53834747E+03</pdfrwt>
<totfact> 0.10790202E+01</totfact>
</mgrwt>
</event>
<event>
12    3  0.1201947E-007  0.2394485E+04  0.7818608E-02  0.8441571E-01
         -2   -1    0    0    0  501 -0.00000000000E+00  0.00000000000E+00  0.27635449905E+04  0.27635449905E+04  0.00000000000E+00 0.  1.
          1   -1    0    0  501    0  0.00000000000E+00 -0.00000000000E+00 -0.21769777271E+04  0.21769777271E+04  0.00000000000E+00 0. -1.
        -24    2    1    2    0    0  0.15639155765E+04 -0.17763432589E+04 -0.19718416201E+03  0.23762285074E+04  0.79705844970E+02 0.  0.
    5000000    2    1    2    0    0 -0.15639155765E+04  0.17763432589E+04  0.78375142539E+03  0.25642942102E+04  0.60009265604E+03 0.  0.
        -24    2    4    4    0    0 -0.72719853915E+03  0.12024649952E+04  0.59972466888E+03  0.15300471226E+04  0.81453906110E+02 0.  0.
         24    2    4    4    0    0 -0.83671703733E+03  0.57387826371E+03  0.18402675651E+03  0.10342470876E+04  0.79809329145E+02 0.  0.
         13    1    3    3    0    0  0.11841981031E+03 -0.15639473630E+03  0.21019747028E+00  0.19616984783E+03  0.00000000000E+00 0. -1.
        -14    1    3    3    0    0  0.14454957662E+04 -0.16199485226E+04 -0.19739435948E+03  0.21800586596E+04  0.00000000000E+00 0.  1.
         15    1    5    5    0    0 -0.15785826048E+03  0.29094933569E+03  0.10808629042E+03  0.34821911240E+03  0.17770000000E+01 0. -1.
        -16    1    5    5    0    0 -0.56934027867E+03  0.91151565955E+03  0.49163837846E+03  0.11818280102E+04  0.00000000000E+00 0.  1.
          4    1    6    6  502    0 -0.13848227418E+03  0.11937895201E+03  0.98032786733E+01  0.18309772996E+03  0.00000000000E+00 0. -1.
         -3    1    6    6    0  502 -0.69823476315E+03  0.45449931170E+03  0.17422347784E+03  0.85114935765E+03  0.00000000000E+00 0.  1.
<mgrwt>
<rscale>  0 0.23944845E+04</rscale>
<asrwt>0</asrwt>
<pdfrwt beam="1">  1        1 0.33491965E+00 0.23944845E+04</pdfrwt>
<pdfrwt beam="2">  1       -2 0.42516077E+00 0.23944845E+04</pdfrwt>
<totfact> 0.85213612E-03</totfact>
</mgrwt>
</event>
<event>
12    3  0.1201947E-007  0.7234510E+03  0.7818608E-02  0.9677947E-01
          1   -1    0    0  501    0  0.00000000000E+00  0.00000000000E+00  0.88098623182E+03  0.88098623182E+03  0.00000000000E+00 0. -1.
         -2   -1    0    0    0  501 -0.00000000000E+00 -0.00000000000E+00 -0.91041105688E+03  0.91041105688E+03  0.00000000000E+00 0.  1.
        -24    2    1    2    0    0  0.70744260472E+03  0.27513759640E+01  0.34486281854E+03  0.79117183815E+03  0.80869678074E+02 0.  0.
    5000000    2    1    2    0    0 -0.70744260472E+03 -0.27513759640E+01 -0.37428764360E+03  0.10002254506E+04  0.59989757688E+03 0.  0.
        -24    2    4    4    0    0 -0.27736604751E+03  0.77657238687E+02  0.13052909083E+03  0.32752744253E+03  0.85286640384E+02 0.  0.
         24    2    4    4    0    0 -0.43007655721E+03 -0.80408614651E+02 -0.50481673443E+03  0.67269800803E+03  0.79065063538E+02 0.  0.
         13    1    3    3    0    0  0.49701787805E+03 -0.32116904882E+01  0.20064498882E+03  0.53599953134E+03  0.00000000000E+00 0. -1.
        -14    1    3    3    0    0  0.21042472667E+03  0.59630664522E+01  0.14421782972E+03  0.25517230681E+03  0.00000000000E+00 0.  1.
         15    1    5    5    0    0 -0.13036378787E+03  0.80663915409E+02  0.69579477537E+02  0.16836224595E+03  0.17770000000E+01 0. -1.
        -16    1    5    5    0    0 -0.14700225963E+03 -0.30066767222E+01  0.60949613291E+02  0.15916519658E+03  0.00000000000E+00 0.  1.
          4    1    6    6  502    0 -0.35537350574E+00  0.15175612244E+01 -0.18539650644E+02  0.18605051153E+02  0.00000000000E+00 0. -1.
         -3    1    6    6    0  502 -0.42972118370E+03 -0.81926175876E+02 -0.48627708378E+03  0.65409295687E+03  0.00000000000E+00 0.  1.
<mgrwt>
<rscale>  0 0.72345103E+03</rscale>
<asrwt>0</asrwt>
<pdfrwt beam="1">  1        1 0.13553634E+00 0.72345103E+03</pdfrwt>
<pdfrwt beam="2">  1       -2 0.14006324E+00 0.72345103E+03</pdfrwt>
<totfact> 0.60922753E+00</totfact>
</mgrwt>
</event>
<event>
12    3  0.1201947E-007  0.1102664E+04  0.7818608E-02  0.9202599E-01
         -2   -1    0    0    0  501 -0.00000000000E+00  0.00000000000E+00  0.11676052100E+04  0.11676052100E+04  0.00000000000E+00 0.  1.
          1   -1    0    0  501    0  0.00000000000E+00 -0.00000000000E+00 -0.12116466165E+04  0.12116466165E+04  0.00000000000E+00 0. -1.
        -24    2    1    2    0    0 -0.95932955409E+03  0.35317942429E+03  0.41773129971E+03  0.11070922879E+04  0.78134474954E+02 0.  0.
    5000000    2    1    2    0    0  0.95932955409E+03 -0.35317942429E+03 -0.46177270626E+03  0.12721595386E+04  0.60008912695E+03 0.  0.
        -24    2    4    4    0    0  0.25707540779E+02 -0.22258629088E+03 -0.11788468487E+03  0.26549108660E+03  0.79894828344E+02 0.  0.
         24    2    4    4    0    0  0.93362201331E+03 -0.13059313340E+03 -0.34388802139E+03  0.10066684520E+04  0.80110990121E+02 0.  0.
         13    1    3    3    0    0 -0.62527032743E+03  0.19593620216E+03  0.28795713706E+03  0.71573269484E+03  0.00000000000E+00 0. -1.
        -14    1    3    3    0    0 -0.33405922665E+03  0.15724322213E+03  0.12977416265E+03  0.39135959310E+03  0.00000000000E+00 0.  1.
         15    1    5    5    0    0 -0.19564137045E+02 -0.14156971189E+03 -0.53840197334E+02  0.15273068899E+03  0.17770000000E+01 0. -1.
        -16    1    5    5    0    0  0.45271677825E+02 -0.81016578997E+02 -0.64044487537E+02  0.11276039761E+03  0.00000000000E+00 0.  1.
          4    1    6    6  502    0  0.46957812132E+03 -0.31592696693E+02 -0.14831307391E+03  0.49345564988E+03  0.00000000000E+00 0. -1.
         -3    1    6    6    0  502  0.46404389199E+03 -0.99000436711E+02 -0.19557494748E+03  0.51321280210E+03  0.00000000000E+00 0.  1.
<mgrwt>
<rscale>  0 0.11026640E+04</rscale>
<asrwt>0</asrwt>
<pdfrwt beam="1">  1        1 0.18640717E+00 0.11026640E+04</pdfrwt>
<pdfrwt beam="2">  1       -2 0.17963157E+00 0.11026640E+04</pdfrwt>
<totfact> 0.16503778E+00</totfact>
</mgrwt>
</event>
<event>
12    3  0.1201947E-007  0.4817735E+03  0.7818608E-02  0.1018649E+00
          1   -1    0    0  501    0  0.00000000000E+00  0.00000000000E+00  0.42629042323E+03  0.42629042323E+03  0.00000000000E+00 0. -1.
         -2   -1    0    0    0  501 -0.00000000000E+00 -0.00000000000E+00 -0.89859872136E+03  0.89859872136E+03  0.00000000000E+00 0.  1.
        -24    2    1    2    0    0 -0.34220855475E+03 -0.16984725953E+03 -0.47270340863E+03  0.61308118905E+03  0.80406749220E+02 0.  0.
    5000000    2    1    2    0    0  0.34220855475E+03  0.16984725953E+03  0.39511049878E+00  0.71180795554E+03  0.60059605639E+03 0.  0.
        -24    2    4    4    0    0  0.18208489442E+03 -0.12717928751E+03  0.20077571259E+03  0.31002683911E+03  0.80475302123E+02 0.  0.
         24    2    4    4    0    0  0.16012366033E+03  0.29702654704E+03 -0.20038060210E+03  0.40178111643E+03  0.86089044484E+02 0.  0.
         11    1    3    3    0    0 -0.22565064987E+03 -0.14966528882E+03 -0.35174849255E+03  0.44389741661E+03  0.00000000000E+00 0. -1.
        -12    1    3    3    0    0 -0.11655790488E+03 -0.20181970712E+02 -0.12095491608E+03  0.16918377244E+03  0.00000000000E+00 0.  1.
         15    1    5    5    0    0  0.13071157038E+03 -0.55183308204E+02  0.15604948151E+03  0.21091541088E+03  0.17770000000E+01 0. -1.
        -16    1    5    5    0    0  0.51373324034E+02 -0.71995979310E+02  0.44726231085E+02  0.99111428232E+02  0.00000000000E+00 0.  1.
          2    1    6    6  502    0  0.66513031856E+02  0.61076910327E+02 -0.26545325931E+02  0.94122402809E+02  0.00000000000E+00 0. -1.
         -1    1    6    6    0  502  0.93610628475E+02  0.23594963672E+03 -0.17383527616E+03  0.30765871362E+03  0.00000000000E+00 0.  1.
<mgrwt>
<rscale>  0 0.48177352E+03</rscale>
<asrwt>0</asrwt>
<pdfrwt beam="1">  1        1 0.65583142E-01 0.48177352E+03</pdfrwt>
<pdfrwt beam="2">  1       -2 0.13824596E+00 0.48177352E+03</pdfrwt>
<totfact> 0.18719961E+01</totfact>
</mgrwt>
</event>
<event>
12    3  0.1201947E-007  0.6809165E+03  0.7818608E-02  0.9750436E-01
         -4   -1    0    0    0  501 -0.00000000000E+00  0.00000000000E+00  0.31926958553E+03  0.31926958553E+03  0.00000000000E+00 0.  1.
          1   -1    0    0  501    0  0.00000000000E+00 -0.00000000000E+00 -0.18166405280E+04  0.18166405280E+04  0.00000000000E+00 0. -1.
        -24    2    1    2    0    0 -0.24518137887E+03 -0.49924452512E+03 -0.10798685270E+04  0.12173570088E+04  0.80517370376E+02 0.  0.
    5000000    2    1    2    0    0  0.24518137887E+03  0.49924452512E+03 -0.41750241549E+03  0.91855310472E+03  0.60006044265E+03 0.  0.
        -24    2    4    4    0    0  0.31330107779E+03  0.59570361626E+03 -0.36954733536E+03  0.77189412321E+03  0.78961640118E+02 0.  0.
         24    2    4    4    0    0 -0.68119698923E+02 -0.96459091135E+02 -0.47955080136E+02  0.14665898150E+03  0.72556994848E+02 0.  0.
         13    1    3    3    0    0 -0.13108168374E+03 -0.25766278973E+03 -0.64746683901E+03  0.70907392325E+03  0.00000000000E+00 0. -1.
        -14    1    3    3    0    0 -0.11409969513E+03 -0.24158173540E+03 -0.43240168800E+03  0.50828308558E+03  0.00000000000E+00 0.  1.
         15    1    5    5    0    0  0.86582768907E+02  0.22462456735E+03 -0.16100145691E+03  0.28961595085E+03  0.17770000000E+01 0. -1.
        -16    1    5    5    0    0  0.22671830888E+03  0.37107904891E+03 -0.20854587845E+03  0.48227817236E+03  0.00000000000E+00 0.  1.
          4    1    6    6  502    0 -0.12337475069E+02 -0.64534880307E+02 -0.49668778916E+02  0.82364747716E+02  0.00000000000E+00 0. -1.
         -3    1    6    6    0  502 -0.55782223853E+02 -0.31924210828E+02  0.17136987800E+01  0.64294233789E+02  0.00000000000E+00 0.  1.
<mgrwt>
<rscale>  0 0.68091651E+03</rscale>
<asrwt>0</asrwt>
<pdfrwt beam="1">  1        1 0.27948316E+00 0.68091651E+03</pdfrwt>
<pdfrwt beam="2">  1       -4 0.49118398E-01 0.68091651E+03</pdfrwt>
<totfact> 0.79796153E+00</totfact>
</mgrwt>
</event>
<event>
12    3  0.1201947E-007  0.7130189E+03  0.7818608E-02  0.9695224E-01
          1   -1    0    0  501    0  0.00000000000E+00  0.00000000000E+00  0.26297996466E+04  0.26297996466E+04  0.00000000000E+00 0. -1.
         -4   -1    0    0    0  501 -0.00000000000E+00 -0.00000000000E+00 -0.20747606532E+03  0.20747606532E+03  0.00000000000E+00 0.  1.
        -24    2    1    2    0    0 -0.47608976911E+03  0.37381504701E+03  0.82935115983E+03  0.10307928857E+04  0.91167259881E+02 0.  0.
    5000000    2    1    2    0    0  0.47608976911E+03 -0.37381504701E+03  0.15929724214E+04  0.18064828262E+04  0.59951639534E+03 0.  0.
        -24    2    4    4    0    0 -0.94398055499E+02 -0.18673341727E+03  0.63110984884E+03  0.66967644426E+03  0.79915809978E+02 0.  0.
         24    2    4    4    0    0  0.57048782461E+03 -0.18708162974E+03  0.96186257261E+03  0.11368063820E+04  0.81812268352E+02 0.  0.
         13    1    3    3    0    0 -0.40668447269E+03  0.28971090551E+03  0.72142012166E+03  0.87736632089E+03  0.00000000000E+00 0. -1.
        -14    1    3    3    0    0 -0.69405296422E+02  0.84104141496E+02  0.10793103817E+03  0.15342656481E+03  0.00000000000E+00 0.  1.
         15    1    5    5    0    0 -0.65803209662E+02 -0.17366304435E+03  0.58573492894E+03  0.61447333554E+03  0.17770000000E+01 0. -1.
        -16    1    5    5    0    0 -0.28594845837E+02 -0.13070372917E+02  0.45374919899E+02  0.55203108721E+02  0.00000000000E+00 0.  1.
          4    1    6    6  502    0  0.21063508929E+03 -0.75403146234E+02  0.43392688791E+03  0.48820622626E+03  0.00000000000E+00 0. -1.
         -3    1    6    6    0  502  0.35985273532E+03 -0.11167848351E+03  0.52793568469E+03  0.64860015570E+03  0.00000000000E+00 0.  1.
<mgrwt>
<rscale>  0 0.71301886E+03</rscale>
<asrwt>0</asrwt>
<pdfrwt beam="1">  1        1 0.40458454E+00 0.71301886E+03</pdfrwt>
<pdfrwt beam="2">  1       -4 0.31919397E-01 0.71301886E+03</pdfrwt>
<totfact> 0.53973405E+00</totfact>
</mgrwt>
</event>
<event>
12    3  0.1201947E-007  0.6118444E+03  0.7818608E-02  0.9881133E-01
         -2   -1    0    0    0  501 -0.00000000000E+00  0.00000000000E+00  0.50800202647E+03  0.50800202647E+03  0.00000000000E+00 0.  1.
          3   -1    0    0  501    0  0.00000000000E+00 -0.00000000000E+00 -0.77326411613E+03  0.77326411613E+03  0.00000000000E+00 0. -1.
        -24    2    1    2    0    0  0.21018278127E+03 -0.42619269324E+03 -0.17708678449E+03  0.51085368054E+03  0.61601463970E+02 0.  0.
    5000000    2    1    2    0    0 -0.21018278127E+03  0.42619269324E+03 -0.88175305177E+02  0.77041246206E+03  0.59995288476E+03 0.  0.
        -24    2    4    4    0    0 -0.23254142735E+03 -0.68934240925E+02 -0.85753838379E+02  0.26899393767E+03  0.78591174448E+02 0.  0.
         24    2    4    4    0    0  0.22358646072E+02  0.49512693417E+03 -0.24214667974E+01  0.50141852439E+03  0.75921558890E+02 0.  0.
         13    1    3    3    0    0  0.93814630178E+02 -0.25507001637E+03 -0.89402742314E+02  0.28610268859E+03  0.00000000000E+00 0. -1.
        -14    1    3    3    0    0  0.11636815110E+03 -0.17112267688E+03 -0.87684042171E+02  0.22475099195E+03  0.00000000000E+00 0.  1.
         15    1    5    5    0    0 -0.21905433414E+03 -0.70267653790E+02 -0.56707649766E+02  0.23694146903E+03  0.17770000000E+01 0. -1.
        -16    1    5    5    0    0 -0.13487093211E+02  0.13334128644E+01 -0.29046188613E+02  0.32052468643E+02  0.00000000000E+00 0.  1.
          4    1    6    6  502    0 -0.20820213578E+02  0.33094317444E+03 -0.49040570806E+01  0.33163370724E+03  0.00000000000E+00 0. -1.
         -3    1    6    6    0  502  0.43178859651E+02  0.16418375973E+03  0.24825902832E+01  0.16978481714E+03  0.00000000000E+00 0.  1.
<mgrwt>
<rscale>  0 0.61184435E+03</rscale>
<asrwt>0</asrwt>
<pdfrwt beam="1">  1        3 0.11896371E+00 0.61184435E+03</pdfrwt>
<pdfrwt beam="2">  1       -2 0.78154158E-01 0.61184435E+03</pdfrwt>
<totfact> 0.35353495E+00</totfact>
</mgrwt>
</event>
<event>
12    3  0.1201947E-007  0.3684428E+03  0.7818608E-02  0.1055290E+00
         -4   -1    0    0    0  501 -0.00000000000E+00  0.00000000000E+00  0.95212467247E+03  0.95212467247E+03  0.00000000000E+00 0.  1.
          3   -1    0    0  501    0  0.00000000000E+00 -0.00000000000E+00 -0.25574756471E+03  0.25574756471E+03  0.00000000000E+00 0. -1.
        -24    2    1    2    0    0 -0.16845092453E+03 -0.13990479538E+03 -0.36460936802E+02  0.23590681231E+03  0.79834569193E+02 0.  0.
    5000000    2    1    2    0    0  0.16845092453E+03  0.13990479538E+03  0.73283804456E+03  0.97196542487E+03  0.59976338822E+03 0.  0.
        -24    2    4    4    0    0 -0.12388891231E+03  0.16090013987E+03  0.48640656221E+02  0.22342860241E+03  0.79480244916E+02 0.  0.
         24    2    4    4    0    0  0.29233983684E+03 -0.20995344491E+02  0.68419738833E+03  0.74853682246E+03  0.79233349571E+02 0.  0.
         13    1    3    3    0    0 -0.45450519819E+02 -0.88098797597E+02 -0.22994806435E+02  0.10176398682E+03  0.00000000000E+00 0. -1.
        -14    1    3    3    0    0 -0.12300040471E+03 -0.51805997783E+02 -0.13466130367E+02  0.13414282550E+03  0.00000000000E+00 0.  1.
         15    1    5    5    0    0 -0.11527128646E+03  0.16431591527E+03  0.59301410412E+02  0.20930122909E+03  0.17770000000E+01 0. -1.
        -16    1    5    5    0    0 -0.86176258453E+01 -0.34157753993E+01 -0.10660754191E+02  0.14127373313E+02  0.00000000000E+00 0.  1.
          4    1    6    6  502    0  0.13021891701E+03 -0.22597246539E+02  0.21780215160E+03  0.25476534132E+03  0.00000000000E+00 0. -1.
         -3    1    6    6    0  502  0.16212091983E+03  0.16019020481E+01  0.46639523674E+03  0.49377148114E+03  0.00000000000E+00 0.  1.
<mgrwt>
<rscale>  0 0.36844276E+03</rscale>
<asrwt>0</asrwt>
<pdfrwt beam="1">  1        3 0.39345780E-01 0.36844276E+03</pdfrwt>
<pdfrwt beam="2">  1       -4 0.14648072E+00 0.36844276E+03</pdfrwt>
<totfact> 0.45907994E+00</totfact>
</mgrwt>
</event>
<event>
12    3  0.1201947E-007  0.1409169E+04  0.7818608E-02  0.8947208E-01
         -2   -1    0    0    0  501 -0.00000000000E+00  0.00000000000E+00  0.26184207563E+04  0.26184207563E+04  0.00000000000E+00 0.  1.
          1   -1    0    0  501    0  0.00000000000E+00 -0.00000000000E+00 -0.77732437704E+03  0.77732437704E+03  0.00000000000E+00 0. -1.
        -24    2    1    2    0    0  0.50378893394E+03  0.12556301504E+04  0.10704327759E+04  0.17270854253E+04  0.81162640209E+02 0.  0.
    5000000    2    1    2    0    0 -0.50378893394E+03 -0.12556301504E+04  0.77066360336E+03  0.16686597080E+04  0.60007705091E+03 0.  0.
        -24    2    4    4    0    0 -0.47700189740E+03 -0.12915581193E+04  0.76294458838E+03  0.15763781148E+04  0.85031349414E+02 0.  0.
         24    2    4    4    0    0 -0.26787036532E+02  0.35927968903E+02  0.77190149775E+01  0.92281593155E+02  0.80299096927E+02 0.  0.
         11    1    3    3    0    0  0.19813705590E+03  0.49018064069E+03  0.36829539299E+03  0.64434218388E+03  0.00000000000E+00 0. -1.
        -12    1    3    3    0    0  0.30565187804E+03  0.76544950969E+03  0.70213738286E+03  0.10827432414E+04  0.00000000000E+00 0.  1.
         15    1    5    5    0    0 -0.55732544806E+02 -0.13044953879E+03  0.10808634373E+03  0.17835081764E+03  0.17770000000E+01 0. -1.
        -16    1    5    5    0    0 -0.42126935260E+03 -0.11611085805E+04  0.65485824465E+03  0.13980272972E+04  0.00000000000E+00 0.  1.
          4    1    6    6  502    0 -0.83237798892E+01 -0.24138008091E+02 -0.93070769303E+01  0.27176284279E+02  0.00000000000E+00 0. -1.
         -3    1    6    6    0  502 -0.18463256643E+02  0.60065976994E+02  0.17026091908E+02  0.65105308876E+02  0.00000000000E+00 0.  1.
<mgrwt>
<rscale>  0 0.14091689E+04</rscale>
<asrwt>0</asrwt>
<pdfrwt beam="1">  1        1 0.11958837E+00 0.14091689E+04</pdfrwt>
<pdfrwt beam="2">  1       -2 0.40283396E+00 0.14091689E+04</pdfrwt>
<totfact> 0.13926347E-01</totfact>
</mgrwt>
</event>
<event>
12    3  0.1201947E-007  0.6855837E+03  0.7818608E-02  0.9742209E-01
         -2   -1    0    0    0  501 -0.00000000000E+00  0.00000000000E+00  0.57640231238E+03  0.57640231238E+03  0.00000000000E+00 0.  1.
          1   -1    0    0  501    0  0.00000000000E+00 -0.00000000000E+00 -0.84861417179E+03  0.84861417179E+03  0.00000000000E+00 0. -1.
        -24    2    1    2    0    0 -0.54193666536E+03  0.16509670564E+03 -0.79745788425E+02  0.57750689908E+03  0.78756309161E+02 0.  0.
    5000000    2    1    2    0    0  0.54193666536E+03 -0.16509670564E+03 -0.19246607099E+03  0.84750958509E+03  0.60023081965E+03 0.  0.
        -24    2    4    4    0    0 -0.10657795304E+02  0.15749941330E+03 -0.88108254942E+01  0.17679681645E+03  0.79119086630E+02 0.  0.
         24    2    4    4    0    0  0.55259446067E+03 -0.32259611894E+03 -0.18365524550E+03  0.67071276864E+03  0.81838101811E+02 0.  0.
         11    1    3    3    0    0 -0.16807800570E+03  0.13952729014E+02 -0.27432296986E+02  0.17087254187E+03  0.00000000000E+00 0. -1.
        -12    1    3    3    0    0 -0.37385865966E+03  0.15114397662E+03 -0.52313491439E+02  0.40663435720E+03  0.00000000000E+00 0.  1.
         15    1    5    5    0    0 -0.43415218141E+01  0.10879216971E+03 -0.42869816377E+02  0.11702804744E+03  0.17770000000E+01 0. -1.
        -16    1    5    5    0    0 -0.63162734902E+01  0.48707243591E+02  0.34058990883E+02  0.59768769010E+02  0.00000000000E+00 0.  1.
          2    1    6    6  502    0  0.27327591490E+03 -0.13520726618E+03 -0.12382612306E+03  0.32907998912E+03  0.00000000000E+00 0. -1.
         -1    1    6    6    0  502  0.27931854577E+03 -0.18738885276E+03 -0.59829122438E+02  0.34163277952E+03  0.00000000000E+00 0.  1.
<mgrwt>
<rscale>  0 0.68558375E+03</rscale>
<asrwt>0</asrwt>
<pdfrwt beam="1">  1        1 0.13055603E+00 0.68558375E+03</pdfrwt>
<pdfrwt beam="2">  1       -2 0.88677278E-01 0.68558375E+03</pdfrwt>
<totfact> 0.19791761E+01</totfact>
</mgrwt>
</event>
<event>
12    3  0.1201947E-007  0.6029950E+03  0.7818608E-02  0.9899212E-01
          1   -1    0    0  501    0  0.00000000000E+00  0.00000000000E+00  0.80659073150E+03  0.80659073150E+03  0.00000000000E+00 0. -1.
         -2   -1    0    0    0  501 -0.00000000000E+00 -0.00000000000E+00 -0.49525000486E+03  0.49525000486E+03  0.00000000000E+00 0.  1.
        -24    2    1    2    0    0  0.44317274879E+03 -0.12524883558E+03  0.28115432911E+03  0.54491369444E+03  0.76117156553E+02 0.  0.
    5000000    2    1    2    0    0 -0.44317274879E+03  0.12524883558E+03  0.30186397531E+02  0.75692704193E+03  0.59994830787E+03 0.  0.
        -24    2    4    4    0    0 -0.20551736481E+03  0.35120520927E+03  0.54241637450E+02  0.41845742200E+03  0.81129356796E+02 0.  0.
         24    2    4    4    0    0 -0.23765538398E+03 -0.22595637369E+03 -0.24055239920E+02  0.33846961993E+03  0.80291124680E+02 0.  0.
         11    1    3    3    0    0  0.20290723373E+03 -0.25284813906E+02  0.98402635607E+02  0.22692233475E+03  0.00000000000E+00 0. -1.
        -12    1    3    3    0    0  0.24026551506E+03 -0.99964021678E+02  0.18275169350E+03  0.31799135969E+03  0.00000000000E+00 0.  1.
         15    1    5    5    0    0 -0.73688742244E+02  0.82350287978E+02 -0.13828113113E+02  0.11138211304E+03  0.17770000000E+01 0. -1.
        -16    1    5    5    0    0 -0.13182862257E+03  0.26885492129E+03  0.68069750563E+02  0.30707530896E+03  0.00000000000E+00 0.  1.
          4    1    6    6  502    0 -0.95291943642E+02 -0.59711589986E+02 -0.39159531018E+02  0.11907769468E+03  0.00000000000E+00 0. -1.
         -3    1    6    6    0  502 -0.14236344033E+03 -0.16624478370E+03  0.15104291098E+02  0.21939192524E+03  0.00000000000E+00 0.  1.
<mgrwt>
<rscale>  0 0.60299496E+03</rscale>
<asrwt>0</asrwt>
<pdfrwt beam="1">  1        1 0.12409088E+00 0.60299496E+03</pdfrwt>
<pdfrwt beam="2">  1       -2 0.76192308E-01 0.60299496E+03</pdfrwt>
<totfact> 0.30530729E+01</totfact>
</mgrwt>
</event>
<event>
12    3  0.1201947E-007  0.1779630E+04  0.7818608E-02  0.8717208E-01
          1   -1    0    0  501    0  0.00000000000E+00  0.00000000000E+00  0.21281985128E+04  0.21281985128E+04  0.00000000000E+00 0. -1.
         -2   -1    0    0    0  501 -0.00000000000E+00 -0.00000000000E+00 -0.16633768166E+04  0.16633768166E+04  0.00000000000E+00 0.  1.
        -24    2    1    2    0    0 -0.26397435450E+03  0.17195632666E+04 -0.35448878684E+03  0.17772189948E+04  0.79150285429E+02 0.  0.
    5000000    2    1    2    0    0  0.26397435450E+03 -0.17195632666E+04  0.81931048303E+03  0.20143563346E+04  0.59981787850E+03 0.  0.
        -24    2    4    4    0    0  0.36868197233E+03 -0.16238892509E+04  0.67014562737E+03  0.17966422184E+04  0.76716379759E+02 0.  0.
         24    2    4    4    0    0 -0.10470761783E+03 -0.95674015671E+02  0.14916485566E+03  0.21771411621E+03  0.70937153363E+02 0.  0.
         13    1    3    3    0    0 -0.24006302840E+03  0.14156818026E+04 -0.27190716116E+03  0.14614098426E+04  0.00000000000E+00 0. -1.
        -14    1    3    3    0    0 -0.23911326102E+02  0.30388146400E+03 -0.82581625674E+02  0.31580915215E+03  0.00000000000E+00 0.  1.
         15    1    5    5    0    0  0.14582136823E+02 -0.16832464090E+03  0.67620641591E+02  0.18199322060E+03  0.17770000000E+01 0. -1.
        -16    1    5    5    0    0  0.35409983551E+03 -0.14555646100E+04  0.60252498578E+03  0.16146489978E+04  0.00000000000E+00 0.  1.
          2    1    6    6  502    0 -0.38659441487E+02 -0.71406196550E+02  0.11140706622E+03  0.13785837561E+03  0.00000000000E+00 0. -1.
         -1    1    6    6    0  502 -0.66048176346E+02 -0.24267819122E+02  0.37757789431E+02  0.79855740596E+02  0.00000000000E+00 0.  1.
<mgrwt>
<rscale>  0 0.17796296E+04</rscale>
<asrwt>0</asrwt>
<pdfrwt beam="1">  1        1 0.32741516E+00 0.17796296E+04</pdfrwt>
<pdfrwt beam="2">  1       -2 0.25590413E+00 0.17796296E+04</pdfrwt>
<totfact> 0.11519734E-01</totfact>
</mgrwt>
</event>
<event>
12    3  0.1201947E-007  0.1604972E+04  0.7818608E-02  0.8817500E-01
         -2   -1    0    0    0  501 -0.00000000000E+00  0.00000000000E+00  0.15386751995E+04  0.15386751995E+04  0.00000000000E+00 0.  1.
          1   -1    0    0  501    0  0.00000000000E+00 -0.00000000000E+00 -0.18079847714E+04  0.18079847714E+04  0.00000000000E+00 0. -1.
        -24    2    1    2    0    0  0.72887961151E+03  0.14238649433E+04 -0.33795877867E+03  0.16368719662E+04  0.80478773239E+02 0.  0.
    5000000    2    1    2    0    0 -0.72887961151E+03 -0.14238649433E+04  0.68649206719E+02  0.17097880047E+04  0.60000453550E+03 0.  0.
        -24    2    4    4    0    0 -0.11338174452E+03 -0.36978696167E+03  0.25934496987E+03  0.47184063181E+03  0.75999680434E+02 0.  0.
         24    2    4    4    0    0 -0.61549786699E+03 -0.10540779816E+04 -0.19069576315E+03  0.12379473729E+04  0.78935469445E+02 0.  0.
         13    1    3    3    0    0  0.46481277014E+03  0.98828738731E+03 -0.22214257742E+03  0.11144999757E+04  0.00000000000E+00 0. -1.
        -14    1    3    3    0    0  0.26406684136E+03  0.43557755595E+03 -0.11581620125E+03  0.52237199047E+03  0.00000000000E+00 0.  1.
         15    1    5    5    0    0 -0.59778069701E+02 -0.22454350652E+03  0.11138241789E+03  0.25768664047E+03  0.17770000000E+01 0. -1.
        -16    1    5    5    0    0 -0.53603674820E+02 -0.14524345515E+03  0.14796255198E+03  0.21415399134E+03  0.00000000000E+00 0.  1.
          2    1    6    6  502    0 -0.19524314686E+03 -0.29918907203E+03 -0.24300431611E+02  0.35808448472E+03  0.00000000000E+00 0. -1.
         -1    1    6    6    0  502 -0.42025472013E+03 -0.75488890956E+03 -0.16639533154E+03  0.87986288814E+03  0.00000000000E+00 0.  1.
<mgrwt>
<rscale>  0 0.16049716E+04</rscale>
<asrwt>0</asrwt>
<pdfrwt beam="1">  1        1 0.27815150E+00 0.16049716E+04</pdfrwt>
<pdfrwt beam="2">  1       -2 0.23671926E+00 0.16049716E+04</pdfrwt>
<totfact> 0.25486874E-01</totfact>
</mgrwt>
</event>
<event>
12    3  0.1201947E-007  0.6597322E+03  0.7818608E-02  0.9788687E-01
          1   -1    0    0  501    0  0.00000000000E+00  0.00000000000E+00  0.11765232089E+04  0.11765232089E+04  0.00000000000E+00 0. -1.
         -2   -1    0    0    0  501 -0.00000000000E+00 -0.00000000000E+00 -0.51131629655E+03  0.51131629655E+03  0.00000000000E+00 0.  1.
        -24    2    1    2    0    0 -0.37626648975E+03  0.41358295397E+03 -0.90702761941E+02  0.57235774685E+03  0.82091828035E+02 0.  0.
    5000000    2    1    2    0    0  0.37626648975E+03 -0.41358295397E+03  0.75590967427E+03  0.11154817586E+04  0.60022727940E+03 0.  0.
        -24    2    4    4    0    0  0.47171174246E+03 -0.41372917924E+03  0.76226282524E+03  0.99045763961E+03  0.79233322567E+02 0.  0.
         24    2    4    4    0    0 -0.95445252710E+02  0.14622526663E+00 -0.63531509702E+01  0.12502411896E+03  0.80503727536E+02 0.  0.
         11    1    3    3    0    0 -0.12985470810E+03  0.94834284353E+02 -0.44414031056E+02  0.16681844280E+03  0.00000000000E+00 0. -1.
        -12    1    3    3    0    0 -0.24641178165E+03  0.31874866962E+03 -0.46288730885E+02  0.40553930404E+03  0.00000000000E+00 0.  1.
         15    1    5    5    0    0  0.36501767425E+03 -0.35869271697E+03  0.59990328326E+03  0.78853374989E+03  0.17770000000E+01 0. -1.
        -16    1    5    5    0    0  0.10669406821E+03 -0.55036462269E+02  0.16235954198E+03  0.20192388972E+03  0.00000000000E+00 0.  1.
          2    1    6    6  502    0 -0.27236977166E+02  0.37381964104E+02  0.48693484799E+01  0.46507792035E+02  0.00000000000E+00 0. -1.
         -1    1    6    6    0  502 -0.68208275544E+02 -0.37235738837E+02 -0.11222499450E+02  0.78516326922E+02  0.00000000000E+00 0.  1.
<mgrwt>
<rscale>  0 0.65973220E+03</rscale>
<asrwt>0</asrwt>
<pdfrwt beam="1">  1        1 0.18100357E+00 0.65973220E+03</pdfrwt>
<pdfrwt beam="2">  1       -2 0.78664046E-01 0.65973220E+03</pdfrwt>
<totfact> 0.14531912E+01</totfact>
</mgrwt>
</event>
<event>
12    3  0.1201947E-007  0.9110016E+03  0.7818608E-02  0.9411932E-01
          1   -1    0    0  501    0  0.00000000000E+00  0.00000000000E+00  0.93351672375E+03  0.93351672375E+03  0.00000000000E+00 0. -1.
         -2   -1    0    0    0  501 -0.00000000000E+00 -0.00000000000E+00 -0.10340352811E+04  0.10340352811E+04  0.00000000000E+00 0.  1.
        -24    2    1    2    0    0 -0.63155924902E+03  0.58292239618E+03  0.18139798229E+03  0.88203409410E+03  0.80083145416E+02 0.  0.
    5000000    2    1    2    0    0  0.63155924902E+03 -0.58292239618E+03 -0.28191653969E+03  0.10855179108E+04  0.60017213722E+03 0.  0.
        -24    2    4    4    0    0 -0.32094344430E+02  0.32255441917E+02 -0.13987279333E+03  0.16624082529E+03  0.77467110443E+02 0.  0.
         24    2    4    4    0    0  0.66365359345E+03 -0.61517783810E+03 -0.14204374636E+03  0.91927708550E+03  0.77550431696E+02 0.  0.
         13    1    3    3    0    0 -0.31766506174E+03  0.27670163903E+03  0.49907463611E+02  0.42422357716E+03  0.00000000000E+00 0. -1.
        -14    1    3    3    0    0 -0.31389418728E+03  0.30622075716E+03  0.13149051868E+03  0.45781051695E+03  0.00000000000E+00 0.  1.
         15    1    5    5    0    0  0.53132431851E+01  0.68290945846E+01 -0.11358040811E+03  0.11392336864E+03  0.17770000000E+01 0. -1.
        -16    1    5    5    0    0 -0.37407587615E+02  0.25426347333E+02 -0.26292385221E+02  0.52317456651E+02  0.00000000000E+00 0.  1.
          2    1    6    6  502    0  0.49782091452E+03 -0.41437261651E+03 -0.95252064861E+02  0.65467800032E+03  0.00000000000E+00 0. -1.
         -1    1    6    6    0  502  0.16583267893E+03 -0.20080522159E+03 -0.46791681495E+02  0.26459908518E+03  0.00000000000E+00 0.  1.
<mgrwt>
<rscale>  0 0.91100162E+03</rscale>
<asrwt>0</asrwt>
<pdfrwt beam="1">  1        1 0.14361796E+00 0.91100162E+03</pdfrwt>
<pdfrwt beam="2">  1       -2 0.15908235E+00 0.91100162E+03</pdfrwt>
<totfact> 0.38531734E+00</totfact>
</mgrwt>
</event>
<event>
12    3  0.1201947E-007  0.6508789E+03  0.7818608E-02  0.9805131E-01
          1   -1    0    0  501    0  0.00000000000E+00  0.00000000000E+00  0.28522859152E+04  0.28522859152E+04  0.00000000000E+00 0. -1.
         -2   -1    0    0    0  501 -0.00000000000E+00 -0.00000000000E+00 -0.21519417322E+03  0.21519417322E+03  0.00000000000E+00 0.  1.
        -24    2    1    2    0    0 -0.25001627359E+03  0.47908688199E+03  0.36840787343E+03  0.65936466848E+03  0.83696041059E+02 0.  0.
    5000000    2    1    2    0    0  0.25001627359E+03 -0.47908688199E+03  0.22686838685E+04  0.24081154199E+04  0.60005083347E+03 0.  0.
        -24    2    4    4    0    0  0.28565814435E+03 -0.22364256083E+02  0.12999737749E+04  0.13337434586E+04  0.82698625516E+02 0.  0.
         24    2    4    4    0    0 -0.35641870761E+02 -0.45672262590E+03  0.96871009363E+03  0.10743719613E+04  0.77523968559E+02 0.  0.
         11    1    3    3    0    0 -0.83819438243E+02  0.10221566765E+03  0.11891493523E+03  0.17780467587E+03  0.00000000000E+00 0. -1.
        -12    1    3    3    0    0 -0.16619683535E+03  0.37687121434E+03  0.24949293820E+03  0.48155999262E+03  0.00000000000E+00 0.  1.
         15    1    5    5    0    0  0.12049567526E+03 -0.50417041804E+02  0.58389080929E+03  0.59832492908E+03  0.17770000000E+01 0. -1.
        -16    1    5    5    0    0  0.16516246909E+03  0.28052785722E+02  0.71608296560E+03  0.73541852955E+03  0.00000000000E+00 0.  1.
          4    1    6    6  502    0 -0.14407608936E+02 -0.36841888366E+03  0.83448560308E+03  0.91230821260E+03  0.00000000000E+00 0. -1.
         -3    1    6    6    0  502 -0.21234261825E+02 -0.88303742243E+02  0.13422449055E+03  0.16206374867E+03  0.00000000000E+00 0.  1.
<mgrwt>
<rscale>  0 0.65087886E+03</rscale>
<asrwt>0</asrwt>
<pdfrwt beam="1">  1        1 0.43881319E+00 0.65087886E+03</pdfrwt>
<pdfrwt beam="2">  1       -2 0.33106798E-01 0.65087886E+03</pdfrwt>
<totfact> 0.61785118E+00</totfact>
</mgrwt>
</event>
<event>
12    3  0.1201947E-007  0.5814237E+03  0.7818608E-02  0.9944714E-01
          1   -1    0    0  501    0  0.00000000000E+00  0.00000000000E+00  0.27745373921E+03  0.27745373921E+03  0.00000000000E+00 0. -1.
         -2   -1    0    0    0  501 -0.00000000000E+00 -0.00000000000E+00 -0.13544090388E+04  0.13544090388E+04  0.00000000000E+00 0.  1.
        -24    2    1    2    0    0  0.47154120491E+02 -0.44843609003E+03 -0.53672607246E+03  0.70704315610E+03  0.92286021744E+02 0.  0.
    5000000    2    1    2    0    0 -0.47154120491E+02  0.44843609003E+03 -0.54022922710E+03  0.92481962188E+03  0.60010438866E+03 0.  0.
        -24    2    4    4    0    0 -0.21725782296E+03  0.47140980479E+03 -0.25769359402E+03  0.58493906344E+03  0.79495621559E+02 0.  0.
         24    2    4    4    0    0  0.17010370246E+03 -0.22973714758E+02 -0.28253563308E+03  0.33988055845E+03  0.78926224340E+02 0.  0.
         11    1    3    3    0    0 -0.89577155014E+01 -0.68597326862E+02 -0.42485978915E+02  0.81184310824E+02  0.00000000000E+00 0. -1.
        -12    1    3    3    0    0  0.56111835993E+02 -0.37983876317E+03 -0.49424009354E+03  0.62585884528E+03  0.00000000000E+00 0.  1.
         15    1    5    5    0    0 -0.13897574123E+03  0.35649270126E+03 -0.21783821559E+03  0.44029302584E+03  0.17770000000E+01 0. -1.
        -16    1    5    5    0    0 -0.78282081723E+02  0.11491710353E+03 -0.39855378432E+02  0.14464603760E+03  0.00000000000E+00 0.  1.
          2    1    6    6  502    0 -0.82306364238E+01 -0.19815277301E+01 -0.69353345039E+01  0.10943888375E+02  0.00000000000E+00 0. -1.
         -1    1    6    6    0  502  0.17833433889E+03 -0.20992187028E+02 -0.27560029858E+03  0.32893667007E+03  0.00000000000E+00 0.  1.
<mgrwt>
<rscale>  0 0.58142365E+03</rscale>
<asrwt>0</asrwt>
<pdfrwt beam="1">  1        1 0.42685191E-01 0.58142365E+03</pdfrwt>
<pdfrwt beam="2">  1       -2 0.20837062E+00 0.58142365E+03</pdfrwt>
<totfact> 0.10369170E+01</totfact>
</mgrwt>
</event>
<event>
12    3  0.2590488E-007  0.1096884E+04  0.7818608E-02  0.9208234E-01
         -2   -1    0    0    0  501 -0.00000000000E+00  0.00000000000E+00  0.55783122668E+03  0.55783122668E+03  0.00000000000E+00 0.  1.
          1   -1    0    0  501    0  0.00000000000E+00 -0.00000000000E+00 -0.27009172312E+04  0.27009172312E+04  0.00000000000E+00 0. -1.
        -24    2    1    2    0    0 -0.10075745836E+04 -0.36639564270E+03 -0.15708071405E+04  0.19034676664E+04  0.79383725073E+02 0.  0.
    5000000    2    1    2    0    0  0.10075745836E+04  0.36639564270E+03 -0.57227886403E+03  0.13552807915E+04  0.59985883089E+03 0.  0.
        -24    2    4    4    0    0  0.92349538828E+03  0.38502688547E+03 -0.66572277431E+03  0.12046053099E+04  0.82448199980E+02 0.  0.
         24    2    4    4    0    0  0.84079195351E+02 -0.18631242763E+02  0.93443910280E+02  0.15067548160E+03  0.80962349825E+02 0.  0.
         13    1    3    3    0    0 -0.43225975661E+03 -0.11582454267E+03 -0.64599170312E+03  0.78585564983E+03  0.00000000000E+00 0. -1.
        -14    1    3    3    0    0 -0.57531482702E+03 -0.25057110004E+03 -0.92481543737E+03  0.11176120166E+04  0.00000000000E+00 0.  1.
         15    1    5    5    0    0  0.48364521579E+03  0.20123932755E+03 -0.39782420424E+03  0.65778204363E+03  0.17770000000E+01 0. -1.
        -16    1    5    5    0    0  0.43985017249E+03  0.18378755792E+03 -0.26789857007E+03  0.54682326626E+03  0.00000000000E+00 0.  1.
          2    1    6    6  502    0  0.28146241308E+02 -0.47532406332E+02  0.44004080781E+02  0.70625064084E+02  0.00000000000E+00 0. -1.
         -1    1    6    6    0  502  0.55932954043E+02  0.28901163569E+02  0.49439829498E+02  0.80050417515E+02  0.00000000000E+00 0.  1.
<mgrwt>
<rscale>  0 0.10968845E+04</rscale>
<asrwt>0</asrwt>
<pdfrwt beam="1">  1        1 0.41552572E+00 0.10968845E+04</pdfrwt>
<pdfrwt beam="2">  1       -2 0.85820190E-01 0.10968845E+04</pdfrwt>
<totfact> 0.10180014E+00</totfact>
</mgrwt>
</event>
<event>
12    3  0.1201947E-007  0.1012328E+04  0.7818608E-02  0.9295126E-01
         -2   -1    0    0    0  501 -0.00000000000E+00  0.00000000000E+00  0.95905453419E+03  0.95905453419E+03  0.00000000000E+00 0.  1.
          1   -1    0    0  501    0  0.00000000000E+00 -0.00000000000E+00 -0.11554657805E+04  0.11554657805E+04  0.00000000000E+00 0. -1.
        -24    2    1    2    0    0  0.40897460490E+03  0.86630445058E+03  0.29520466330E+02  0.96178533144E+03  0.80099546206E+02 0.  0.
    5000000    2    1    2    0    0 -0.40897460490E+03 -0.86630445058E+03 -0.22593171266E+03  0.11527349833E+04  0.60000764522E+03 0.  0.
        -24    2    4    4    0    0 -0.14207027458E+03  0.81442819263E+01 -0.16653862603E+03  0.23292676202E+03  0.79179986461E+02 0.  0.
         24    2    4    4    0    0 -0.26690433032E+03 -0.87444873250E+03 -0.59393086634E+02  0.91980822126E+03  0.81370251486E+02 0.  0.
         11    1    3    3    0    0  0.30140107739E+03  0.57522193335E+03  0.45957923439E+02  0.65102612296E+03  0.00000000000E+00 0. -1.
        -12    1    3    3    0    0  0.10757352752E+03  0.29108251723E+03 -0.16437457108E+02  0.31075920848E+03  0.00000000000E+00 0.  1.
         15    1    5    5    0    0 -0.64847706438E+02  0.27780557066E+02 -0.34125051438E+02  0.78387889663E+02  0.17770000000E+01 0. -1.
        -16    1    5    5    0    0 -0.77222568140E+02 -0.19636275139E+02 -0.13241357459E+03  0.15453887235E+03  0.00000000000E+00 0.  1.
          4    1    6    6  502    0 -0.23337390531E+03 -0.73030173958E+03 -0.78028301464E+02  0.77064416324E+03  0.00000000000E+00 0. -1.
         -3    1    6    6    0  502 -0.33530425010E+02 -0.14414699293E+03  0.18635214830E+02  0.14916405801E+03  0.00000000000E+00 0.  1.
<mgrwt>
<rscale>  0 0.10123277E+04</rscale>
<asrwt>0</asrwt>
<pdfrwt beam="1">  1        1 0.17776397E+00 0.10123277E+04</pdfrwt>
<pdfrwt beam="2">  1       -2 0.14754685E+00 0.10123277E+04</pdfrwt>
<totfact> 0.31470727E+00</totfact>
</mgrwt>
</event>
<event>
12    3  0.1201947E-007  0.7003281E+03  0.7818608E-02  0.9716671E-01
          1   -1    0    0  501    0  0.00000000000E+00  0.00000000000E+00  0.10684290735E+04  0.10684290735E+04  0.00000000000E+00 0. -1.
         -2   -1    0    0    0  501 -0.00000000000E+00 -0.00000000000E+00 -0.11193980096E+04  0.11193980096E+04  0.00000000000E+00 0.  1.
        -24    2    1    2    0    0 -0.49220806328E+03 -0.37743280251E+03 -0.82013026172E+03  0.10318071184E+04  0.85369698746E+02 0.  0.
    5000000    2    1    2    0    0  0.49220806328E+03  0.37743280251E+03  0.76916132569E+03  0.11560199647E+04  0.60004059520E+03 0.  0.
        -24    2    4    4    0    0 -0.33410256417E+02  0.19877293416E+03  0.47575445622E+03  0.52294522689E+03  0.80637975651E+02 0.  0.
         24    2    4    4    0    0  0.52561831970E+03  0.17865986835E+03  0.29340686947E+03  0.63307473782E+03  0.80635389600E+02 0.  0.
         11    1    3    3    0    0 -0.41067014749E+03 -0.34363365918E+03 -0.67048307180E+03  0.85806853533E+03  0.00000000000E+00 0. -1.
        -12    1    3    3    0    0 -0.81537915790E+02 -0.33799143329E+02 -0.14964718992E+03  0.17373858309E+03  0.00000000000E+00 0.  1.
         15    1    5    5    0    0  0.24975597733E+02  0.83414379541E+02  0.17106850858E+03  0.19196179712E+03  0.17770000000E+01 0. -1.
        -16    1    5    5    0    0 -0.58385854150E+02  0.11535855462E+03  0.30468594764E+03  0.33098342977E+03  0.00000000000E+00 0.  1.
          2    1    6    6  502    0  0.35774898874E+03  0.82747089326E+02  0.20413558846E+03  0.42012231340E+03  0.00000000000E+00 0. -1.
         -3    1    6    6    0  502  0.16786933096E+03  0.95912779023E+02  0.89271281005E+02  0.21295242442E+03  0.00000000000E+00 0.  1.
<mgrwt>
<rscale>  0 0.70032810E+03</rscale>
<asrwt>0</asrwt>
<pdfrwt beam="1">  1        1 0.16437370E+00 0.70032810E+03</pdfrwt>
<pdfrwt beam="2">  1       -2 0.17221508E+00 0.70032810E+03</pdfrwt>
<totfact> 0.25047253E+00</totfact>
</mgrwt>
</event>
<event>
12    3  0.1201947E-007  0.7506970E+03  0.7818608E-02  0.9634257E-01
         -2   -1    0    0    0  501 -0.00000000000E+00  0.00000000000E+00  0.69888989113E+03  0.69888989113E+03  0.00000000000E+00 0.  1.
          1   -1    0    0  501    0  0.00000000000E+00 -0.00000000000E+00 -0.13695776196E+04  0.13695776196E+04  0.00000000000E+00 0. -1.
        -24    2    1    2    0    0 -0.63880443463E+03 -0.35638365709E+03 -0.82987311020E+03  0.11090662751E+04  0.79108828194E+02 0.  0.
    5000000    2    1    2    0    0  0.63880443463E+03  0.35638365709E+03  0.15918538170E+03  0.95940123569E+03  0.60002527327E+03 0.  0.
        -24    2    4    4    0    0  0.55192340603E+03  0.26153970915E+03 -0.13318565662E+03  0.62932713933E+03  0.72744508970E+02 0.  0.
         24    2    4    4    0    0  0.86881028599E+02  0.94843947936E+02  0.29237103832E+03  0.33007409636E+03  0.83212964453E+02 0.  0.
         13    1    3    3    0    0 -0.39759202693E+03 -0.19262454248E+03 -0.54331937116E+03  0.70027107132E+03  0.00000000000E+00 0. -1.
        -14    1    3    3    0    0 -0.24121240770E+03 -0.16375911461E+03 -0.28655373904E+03  0.40879520374E+03  0.00000000000E+00 0.  1.
         15    1    5    5    0    0  0.38160193295E+03  0.21662147998E+03 -0.89298122542E+02  0.44779706703E+03  0.17770000000E+01 0. -1.
        -16    1    5    5    0    0  0.17032147308E+03  0.44918229172E+02 -0.43887534074E+02  0.18153007230E+03  0.00000000000E+00 0.  1.
          4    1    6    6  502    0  0.45125867612E+02 -0.44900223874E+01  0.81471944444E+02  0.93242597348E+02  0.00000000000E+00 0. -1.
         -3    1    6    6    0  502  0.41755160987E+02  0.99333970324E+02  0.21089909387E+03  0.23683149902E+03  0.00000000000E+00 0.  1.
<mgrwt>
<rscale>  0 0.75069704E+03</rscale>
<asrwt>0</asrwt>
<pdfrwt beam="1">  1        1 0.21070425E+00 0.75069704E+03</pdfrwt>
<pdfrwt beam="2">  1       -2 0.10752152E+00 0.75069704E+03</pdfrwt>
<totfact> 0.50664347E+00</totfact>
</mgrwt>
</event>
<event>
12    3  0.1201947E-007  0.6157951E+03  0.7818608E-02  0.9873167E-01
          1   -1    0    0  501    0  0.00000000000E+00  0.00000000000E+00  0.55137277763E+03  0.55137277763E+03  0.00000000000E+00 0. -1.
         -2   -1    0    0    0  501 -0.00000000000E+00 -0.00000000000E+00 -0.74746799436E+03  0.74746799436E+03  0.00000000000E+00 0.  1.
        -24    2    1    2    0    0  0.47219137751E+03  0.39850349169E+02  0.77619705902E+02  0.48673903941E+03  0.79607326425E+02 0.  0.
    5000000    2    1    2    0    0 -0.47219137751E+03 -0.39850349169E+02 -0.27371492263E+03  0.81210173258E+03  0.60003051412E+03 0.  0.
        -24    2    4    4    0    0 -0.20071897079E+03 -0.30333087865E+03 -0.87290961730E+02  0.38258541681E+03  0.80337799164E+02 0.  0.
         24    2    4    4    0    0 -0.27147240671E+03  0.26348052948E+03 -0.18642396090E+03  0.42951631578E+03  0.81308765188E+02 0.  0.
         13    1    3    3    0    0  0.26263764681E+03 -0.15979433440E+02  0.53846744712E+02  0.26857652118E+03  0.00000000000E+00 0. -1.
        -14    1    3    3    0    0  0.20955373070E+03  0.55829782609E+02  0.23772961190E+02  0.21816251823E+03  0.00000000000E+00 0.  1.
         15    1    5    5    0    0 -0.10444903622E+03 -0.12946463305E+03 -0.21293201167E+01  0.16636821846E+03  0.17770000000E+01 0. -1.
        -16    1    5    5    0    0 -0.96269934574E+02 -0.17386624560E+03 -0.85161641613E+02  0.21621719835E+03  0.00000000000E+00 0.  1.
          4    1    6    6  502    0 -0.10461135692E+03  0.15668788426E+03 -0.80632957286E+02  0.20492999505E+03  0.00000000000E+00 0. -1.
         -3    1    6    6    0  502 -0.16686104979E+03  0.10679264523E+03 -0.10579100361E+03  0.22458632073E+03  0.00000000000E+00 0.  1.
<mgrwt>
<rscale>  0 0.61579510E+03</rscale>
<asrwt>0</asrwt>
<pdfrwt beam="1">  1        1 0.84826582E-01 0.61579510E+03</pdfrwt>
<pdfrwt beam="2">  1       -2 0.11499508E+00 0.61579510E+03</pdfrwt>
<totfact> 0.20584595E+01</totfact>
</mgrwt>
</event>
<event>
12    3  0.1201947E-007  0.8839993E+03  0.7818608E-02  0.9445807E-01
          1   -1    0    0  501    0  0.00000000000E+00  0.00000000000E+00  0.19427047442E+04  0.19427047442E+04  0.00000000000E+00 0. -1.
         -2   -1    0    0    0  501 -0.00000000000E+00 -0.00000000000E+00 -0.47502706242E+03  0.47502706242E+03  0.00000000000E+00 0.  1.
        -24    2    1    2    0    0 -0.17883107717E+03  0.83331496161E+03  0.47854592705E+03  0.98079043971E+03  0.80927763693E+02 0.  0.
    5000000    2    1    2    0    0  0.17883107717E+03 -0.83331496161E+03  0.98913175474E+03  0.14369413669E+04  0.60002040324E+03 0.  0.
        -24    2    4    4    0    0 -0.32361936781E+02 -0.51159444918E+02 -0.52885834404E+02  0.11476371416E+03  0.81909797043E+02 0.  0.
         24    2    4    4    0    0  0.21119301395E+03 -0.78215551669E+03  0.10420175891E+04  0.13221776527E+04  0.77352103466E+02 0.  0.
         13    1    3    3    0    0 -0.14016281565E+03  0.51304115260E+03  0.26787400910E+03  0.59549418460E+03  0.00000000000E+00 0. -1.
        -14    1    3    3    0    0 -0.38668261528E+02  0.32027380901E+03  0.21067191795E+03  0.38529625511E+03  0.00000000000E+00 0.  1.
         15    1    5    5    0    0 -0.43262912905E+02 -0.68311057914E+02 -0.36854394828E+02  0.88879043725E+02  0.17770000000E+01 0. -1.
        -16    1    5    5    0    0  0.10900976124E+02  0.17151612996E+02 -0.16031439576E+02  0.25884670438E+02  0.00000000000E+00 0.  1.
          2    1    6    6  502    0  0.43061209761E+02 -0.26720001536E+03  0.38556956146E+03  0.47107749121E+03  0.00000000000E+00 0. -1.
         -1    1    6    6    0  502  0.16813180419E+03 -0.51495550133E+03  0.65644802768E+03  0.85110016154E+03  0.00000000000E+00 0.  1.
<mgrwt>
<rscale>  0 0.88399930E+03</rscale>
<asrwt>0</asrwt>
<pdfrwt beam="1">  1        1 0.29887765E+00 0.88399930E+03</pdfrwt>
<pdfrwt beam="2">  1       -2 0.73081088E-01 0.88399930E+03</pdfrwt>
<totfact> 0.49447312E+00</totfact>
</mgrwt>
</event>
<event>
12    3  0.1537158E-007  0.1271971E+04  0.7818608E-02  0.9052092E-01
          1   -1    0    0  501    0  0.00000000000E+00  0.00000000000E+00  0.16197438628E+04  0.16197438628E+04  0.00000000000E+00 0. -1.
         -2   -1    0    0    0  501 -0.00000000000E+00 -0.00000000000E+00 -0.17408650592E+04  0.17408650592E+04  0.00000000000E+00 0.  1.
        -24    2    1    2    0    0 -0.12036707908E+04  0.11392062821E+03  0.10273374719E+04  0.15883802997E+04  0.75686280411E+02 0.  0.
    5000000    2    1    2    0    0  0.12036707908E+04 -0.11392062821E+03 -0.11484586684E+04  0.17722286223E+04  0.60002974458E+03 0.  0.
        -24    2    4    4    0    0  0.13116430859E+02  0.83990602630E+02 -0.37687578880E+02  0.13003653910E+03  0.90899316883E+02 0.  0.
         24    2    4    4    0    0  0.11905543600E+04 -0.19791123084E+03 -0.11107710895E+04  0.16421920832E+04  0.79961774770E+02 0.  0.
         11    1    3    3    0    0 -0.58169601740E+03  0.85697636782E+02  0.52831665626E+03  0.79046368095E+03  0.00000000000E+00 0. -1.
        -12    1    3    3    0    0 -0.62197477344E+03  0.28222991430E+02  0.49902081563E+03  0.79791661875E+03  0.00000000000E+00 0.  1.
         15    1    5    5    0    0  0.34167946470E+02  0.94676989579E+02 -0.27770146055E+02  0.10442949613E+03  0.17770000000E+01 0. -1.
        -16    1    5    5    0    0 -0.21051515610E+02 -0.10686386949E+02 -0.99174328249E+01  0.25607042964E+02  0.00000000000E+00 0.  1.
          4    1    6    6  502    0  0.93729563740E+03 -0.12545070028E+03 -0.84975734025E+03  0.12713569630E+04  0.00000000000E+00 0. -1.
         -3    1    6    6    0  502  0.25325872259E+03 -0.72460530558E+02 -0.26101374924E+03  0.37083512016E+03  0.00000000000E+00 0.  1.
<mgrwt>
<rscale>  0 0.12719711E+04</rscale>
<asrwt>0</asrwt>
<pdfrwt beam="1">  1        1 0.24919136E+00 0.12719711E+04</pdfrwt>
<pdfrwt beam="2">  1       -2 0.26782539E+00 0.12719711E+04</pdfrwt>
<totfact> 0.22932280E-01</totfact>
</mgrwt>
</event>
<event>
12    3  0.1201947E-007  0.2464197E+03  0.7818608E-02  0.1115589E+00
          1   -1    0    0  501    0  0.00000000000E+00  0.00000000000E+00  0.34361016812E+04  0.34361016812E+04  0.00000000000E+00 0. -1.
         -2   -1    0    0    0  501 -0.00000000000E+00 -0.00000000000E+00 -0.10115569381E+03  0.10115569381E+03  0.00000000000E+00 0.  1.
        -24    2    1    2    0    0  0.79696110802E+02 -0.20176701985E+03  0.12175970207E+03  0.26136497628E+03  0.80155008585E+02 0.  0.
    5000000    2    1    2    0    0 -0.79696110802E+02  0.20176701985E+03  0.32131862853E+04  0.32758923988E+04  0.59986957213E+03 0.  0.
        -24    2    4    4    0    0  0.25174236628E+01  0.72565016797E+02  0.29977950620E+04  0.29996065513E+04  0.74781081266E+02 0.  0.
         24    2    4    4    0    0 -0.82213534465E+02  0.12920200306E+03  0.21539122339E+03  0.27628584745E+03  0.80549783019E+02 0.  0.
         13    1    3    3    0    0  0.60221988192E+02 -0.68718961913E+02  0.22137576392E+02  0.94016253258E+02  0.00000000000E+00 0. -1.
        -14    1    3    3    0    0  0.19474122610E+02 -0.13304805794E+03  0.99622125678E+02  0.16734872302E+03  0.00000000000E+00 0.  1.
         15    1    5    5    0    0  0.12676303610E+02  0.84130318782E+02  0.21693140565E+04  0.21709825501E+04  0.17770000000E+01 0. -1.
        -16    1    5    5    0    0 -0.10158879947E+02 -0.11565301986E+02  0.82848100544E+03  0.82862400123E+03  0.00000000000E+00 0.  1.
          4    1    6    6  502    0 -0.33744499120E+02  0.10881459316E+03  0.10930152846E+03  0.15788011600E+03  0.00000000000E+00 0. -1.
         -3    1    6    6    0  502 -0.48469035345E+02  0.20387409900E+02  0.10608969493E+03  0.11840573145E+03  0.00000000000E+00 0.  1.
<mgrwt>
<rscale>  0 0.24641974E+03</rscale>
<asrwt>0</asrwt>
<pdfrwt beam="1">  1        1 0.52863094E+00 0.24641974E+03</pdfrwt>
<pdfrwt beam="2">  1       -2 0.15562417E-01 0.24641974E+03</pdfrwt>
<totfact> 0.10092722E+01</totfact>
</mgrwt>
</event>
<event>
12    3  0.1201947E-007  0.4537157E+03  0.7818608E-02  0.1026620E+00
          1   -1    0    0  501    0  0.00000000000E+00  0.00000000000E+00  0.74885619809E+03  0.74885619809E+03  0.00000000000E+00 0. -1.
         -2   -1    0    0    0  501 -0.00000000000E+00 -0.00000000000E+00 -0.33505299298E+03  0.33505299298E+03  0.00000000000E+00 0.  1.
        -24    2    1    2    0    0 -0.27474924808E+02  0.29871126056E+03  0.24359764264E+03  0.39189222872E+03  0.65241235043E+02 0.  0.
    5000000    2    1    2    0    0  0.27474924808E+02 -0.29871126056E+03  0.17020556246E+03  0.69201696235E+03  0.59994520918E+03 0.  0.
        -24    2    4    4    0    0 -0.14846627212E+03  0.91139265832E+02  0.17100009286E+03  0.25666390232E+03  0.79288884845E+02 0.  0.
         24    2    4    4    0    0  0.17594119693E+03 -0.38985052639E+03 -0.79453040007E+00  0.43535306003E+03  0.81196785025E+02 0.  0.
         13    1    3    3    0    0 -0.32957608612E+02  0.12388349886E+03  0.72808129945E+02  0.14742574077E+03  0.00000000000E+00 0. -1.
        -14    1    3    3    0    0  0.54826838038E+01  0.17482776170E+03  0.17078951270E+03  0.24446648795E+03  0.00000000000E+00 0.  1.
         15    1    5    5    0    0 -0.94533020653E+02  0.41973404277E+02  0.48916642395E+02  0.11443012843E+03  0.17770000000E+01 0. -1.
        -16    1    5    5    0    0 -0.53933251470E+02  0.49165861555E+02  0.12208345047E+03  0.14223377389E+03  0.00000000000E+00 0.  1.
          4    1    6    6  502    0  0.32258312984E+01 -0.12316738386E+02 -0.15336754658E+02  0.19932989627E+02  0.00000000000E+00 0. -1.
         -3    1    6    6    0  502  0.17271536563E+03 -0.37753378800E+03  0.14542224258E+02  0.41542007041E+03  0.00000000000E+00 0.  1.
<mgrwt>
<rscale>  0 0.45371575E+03</rscale>
<asrwt>0</asrwt>
<pdfrwt beam="1">  1        1 0.11520865E+00 0.45371575E+03</pdfrwt>
<pdfrwt beam="2">  1       -2 0.51546614E-01 0.45371575E+03</pdfrwt>
<totfact> 0.79885176E+01</totfact>
</mgrwt>
</event>
<event>
12    3  0.1201947E-007  0.6924184E+03  0.7818608E-02  0.9730286E-01
         -2   -1    0    0    0  501 -0.00000000000E+00  0.00000000000E+00  0.25816232119E+03  0.25816232119E+03  0.00000000000E+00 0.  1.
          1   -1    0    0  501    0  0.00000000000E+00 -0.00000000000E+00 -0.26897247725E+04  0.26897247725E+04  0.00000000000E+00 0. -1.
        -24    2    1    2    0    0  0.39332138119E+03 -0.56047595972E+03 -0.14697875079E+04  0.16234327880E+04  0.80147917364E+02 0.  0.
    5000000    2    1    2    0    0 -0.39332138119E+03  0.56047595972E+03 -0.96177494342E+03  0.13244543056E+04  0.60027756545E+03 0.  0.
        -24    2    4    4    0    0 -0.28074838229E+03  0.42408170855E+03 -0.10014494878E+04  0.11261254033E+04  0.81193582067E+02 0.  0.
         24    2    4    4    0    0 -0.11257299890E+03  0.13639425116E+03  0.39674544367E+02  0.19832890229E+03  0.80524606057E+02 0.  0.
         13    1    3    3    0    0  0.18498884253E+03 -0.26904198862E+03 -0.60730774743E+03  0.68951226500E+03  0.00000000000E+00 0. -1.
        -14    1    3    3    0    0  0.20833253866E+03 -0.29143397110E+03 -0.86247976044E+03  0.93392052304E+03  0.00000000000E+00 0.  1.
         15    1    5    5    0    0 -0.98410073577E+02  0.11776089505E+03 -0.23286065759E+03  0.27888961000E+03  0.17770000000E+01 0. -1.
        -16    1    5    5    0    0 -0.18233830871E+03  0.30632081351E+03 -0.76858883019E+03  0.84723579333E+03  0.00000000000E+00 0.  1.
          4    1    6    6  502    0 -0.75897389709E+02  0.37497797668E+02 -0.25988738927E+01  0.84695057353E+02  0.00000000000E+00 0. -1.
         -3    1    6    6    0  502 -0.36675609192E+02  0.98896453495E+02  0.42273418259E+02  0.11363384494E+03  0.00000000000E+00 0.  1.
<mgrwt>
<rscale>  0 0.69241842E+03</rscale>
<asrwt>0</asrwt>
<pdfrwt beam="1">  1        1 0.41380383E+00 0.69241842E+03</pdfrwt>
<pdfrwt beam="2">  1       -2 0.39717278E-01 0.69241842E+03</pdfrwt>
<totfact> 0.56166288E+00</totfact>
</mgrwt>
</event>
<event>
12    3  0.1201947E-007  0.6242282E+03  0.7818608E-02  0.9856377E-01
          1   -1    0    0  501    0  0.00000000000E+00  0.00000000000E+00  0.76928179251E+03  0.76928179251E+03  0.00000000000E+00 0. -1.
         -2   -1    0    0    0  501 -0.00000000000E+00 -0.00000000000E+00 -0.67354459790E+03  0.67354459790E+03  0.00000000000E+00 0.  1.
        -24    2    1    2    0    0 -0.55347559414E+03 -0.11145156240E+03 -0.13713323161E+03  0.58704448753E+03  0.84017992450E+02 0.  0.
    5000000    2    1    2    0    0  0.55347559414E+03  0.11145156240E+03  0.23287042622E+03  0.85578190289E+03  0.59948089697E+03 0.  0.
        -24    2    4    4    0    0  0.16860773017E+03  0.19607005791E+03 -0.13768520042E+03  0.30871977484E+03  0.97358362154E+02 0.  0.
         24    2    4    4    0    0  0.38486786397E+03 -0.84618495504E+02  0.37055562664E+03  0.54706212805E+03  0.81743115988E+02 0.  0.
         13    1    3    3    0    0 -0.16508171305E+03  0.21177454142E+01 -0.55993024595E+02  0.17433208435E+03  0.00000000000E+00 0. -1.
        -14    1    3    3    0    0 -0.38839388108E+03 -0.11356930782E+03 -0.81140207011E+02  0.41271240318E+03  0.00000000000E+00 0.  1.
         15    1    5    5    0    0 -0.29869598755E+01  0.52330639178E+02 -0.24445602626E+02  0.57863312580E+02  0.17770000000E+01 0. -1.
        -16    1    5    5    0    0  0.17159469004E+03  0.14373941873E+03 -0.11323959780E+03  0.25085646226E+03  0.00000000000E+00 0.  1.
          4    1    6    6  502    0  0.36352491371E+02 -0.34857990189E+02  0.44011871169E+02  0.66885184553E+02  0.00000000000E+00 0. -1.
         -3    1    6    6    0  502  0.34851537260E+03 -0.49760505315E+02  0.32654375547E+03  0.48017694350E+03  0.00000000000E+00 0.  1.
<mgrwt>
<rscale>  0 0.62422816E+03</rscale>
<asrwt>0</asrwt>
<pdfrwt beam="1">  1        1 0.11835105E+00 0.62422816E+03</pdfrwt>
<pdfrwt beam="2">  1       -2 0.10362225E+00 0.62422816E+03</pdfrwt>
<totfact> 0.16194783E+01</totfact>
</mgrwt>
</event>
<event>
12    3  0.1201947E-007  0.2516222E+04  0.7818608E-02  0.8397229E-01
          1   -1    0    0  501    0  0.00000000000E+00  0.00000000000E+00  0.29763516344E+04  0.29763516344E+04  0.00000000000E+00 0. -1.
         -2   -1    0    0    0  501 -0.00000000000E+00 -0.00000000000E+00 -0.23460473646E+04  0.23460473646E+04  0.00000000000E+00 0.  1.
        -24    2    1    2    0    0  0.21560182010E+04 -0.12709456499E+04 -0.42658265087E+03  0.25402295156E+04  0.84118406073E+02 0.  0.
    5000000    2    1    2    0    0 -0.21560182010E+04  0.12709456499E+04  0.10568869207E+04  0.27821694833E+04  0.59978307992E+03 0.  0.
        -24    2    4    4    0    0 -0.78408796867E+03  0.27776397365E+03  0.11729053583E+03  0.84368131716E+03  0.78066173610E+02 0.  0.
         24    2    4    4    0    0 -0.13719302323E+04  0.99318167626E+03  0.93959638487E+03  0.19384881662E+04  0.79325907544E+02 0.  0.
         11    1    3    3    0    0  0.15059492902E+04 -0.88000535401E+03 -0.25856354769E+03  0.17632775720E+04  0.00000000000E+00 0. -1.
        -12    1    3    3    0    0  0.65006891074E+03 -0.39094029589E+03 -0.16801910317E+03  0.77695194362E+03  0.00000000000E+00 0.  1.
         15    1    5    5    0    0 -0.52483605960E+03  0.14789696267E+03  0.86364400351E+02  0.55207641536E+03  0.17770000000E+01 0. -1.
        -16    1    5    5    0    0 -0.25925190907E+03  0.12986701098E+03  0.30926135476E+02  0.29160490179E+03  0.00000000000E+00 0.  1.
          2    1    6    6  502    0 -0.12282162513E+04  0.90738431304E+03  0.86743256650E+03  0.17562177282E+04  0.00000000000E+00 0. -1.
         -1    1    6    6    0  502 -0.14371398101E+03  0.85797363213E+02  0.72163818364E+02  0.18227043796E+03  0.00000000000E+00 0.  1.
<mgrwt>
<rscale>  0 0.25162217E+04</rscale>
<asrwt>0</asrwt>
<pdfrwt beam="1">  1        1 0.45790025E+00 0.25162217E+04</pdfrwt>
<pdfrwt beam="2">  1       -2 0.36093036E+00 0.25162217E+04</pdfrwt>
<totfact> 0.60473371E-03</totfact>
</mgrwt>
</event>
<event>
12    3  0.1201947E-007  0.5798797E+03  0.7818608E-02  0.9948051E-01
          1   -1    0    0  501    0  0.00000000000E+00  0.00000000000E+00  0.64081207351E+03  0.64081207351E+03  0.00000000000E+00 0. -1.
         -2   -1    0    0    0  501 -0.00000000000E+00 -0.00000000000E+00 -0.19998277278E+04  0.19998277278E+04  0.00000000000E+00 0.  1.
        -24    2    1    2    0    0 -0.41300951828E+03 -0.12702808347E+03  0.48466522277E+03  0.65424498280E+03  0.80144389504E+02 0.  0.
    5000000    2    1    2    0    0  0.41300951828E+03  0.12702808347E+03 -0.18436808771E+04  0.19863948186E+04  0.59991016196E+03 0.  0.
        -24    2    4    4    0    0  0.49431191127E+03 -0.76068138723E+02 -0.12600411896E+04  0.13580514468E+04  0.80431992563E+02 0.  0.
         24    2    4    4    0    0 -0.81302392988E+02  0.20309622219E+03 -0.58363968754E+03  0.62834337176E+03  0.79510712361E+02 0.  0.
         11    1    3    3    0    0 -0.22182203286E+03 -0.26306768299E+02  0.24607890073E+03  0.33234302416E+03  0.00000000000E+00 0. -1.
        -12    1    3    3    0    0 -0.19118748542E+03 -0.10072131517E+03  0.23858632204E+03  0.32190195864E+03  0.00000000000E+00 0.  1.
         15    1    5    5    0    0  0.92839275453E+02 -0.48510208744E+00 -0.31713265059E+03  0.33044763910E+03  0.17770000000E+01 0. -1.
        -16    1    5    5    0    0  0.40147263582E+03 -0.75583036635E+02 -0.94290853898E+03  0.10276038077E+04  0.00000000000E+00 0.  1.
          4    1    6    6  502    0 -0.51129789870E+02  0.11738293296E+03 -0.44107062045E+03  0.45927802101E+03  0.00000000000E+00 0. -1.
         -3    1    6    6    0  502 -0.30172603118E+02  0.85713289232E+02 -0.14256906710E+03  0.16906535075E+03  0.00000000000E+00 0.  1.
<mgrwt>
<rscale>  0 0.57987975E+03</rscale>
<asrwt>0</asrwt>
<pdfrwt beam="1">  1        1 0.98586476E-01 0.57987975E+03</pdfrwt>
<pdfrwt beam="2">  1       -2 0.30766579E+00 0.57987975E+03</pdfrwt>
<totfact> 0.84618096E-01</totfact>
</mgrwt>
</event>
<event>
12    3  0.1201947E-007  0.5582719E+03  0.7818608E-02  0.9995972E-01
          1   -1    0    0  501    0  0.00000000000E+00  0.00000000000E+00  0.58930565608E+03  0.58930565608E+03  0.00000000000E+00 0. -1.
         -2   -1    0    0    0  501 -0.00000000000E+00 -0.00000000000E+00 -0.10936953066E+04  0.10936953066E+04  0.00000000000E+00 0.  1.
        -24    2    1    2    0    0 -0.50978999111E+03 -0.16657199607E+03  0.23457180439E+03  0.59054504588E+03  0.78022143569E+02 0.  0.
    5000000    2    1    2    0    0  0.50978999111E+03  0.16657199607E+03 -0.73896145486E+03  0.10924559168E+04  0.59980316219E+03 0.  0.
        -24    2    4    4    0    0  0.25840925811E+03  0.16846926698E+03 -0.76416413955E+03  0.82796379161E+03  0.80124711861E+02 0.  0.
         24    2    4    4    0    0  0.25138073300E+03 -0.18972709076E+01  0.25202684687E+02  0.26449212514E+03  0.78262611683E+02 0.  0.
         13    1    3    3    0    0 -0.27201289351E+03 -0.12048300677E+03  0.15596901879E+03  0.33590698710E+03  0.00000000000E+00 0. -1.
        -14    1    3    3    0    0 -0.23777709760E+03 -0.46088989297E+02  0.78602785600E+02  0.25463805879E+03  0.00000000000E+00 0.  1.
         15    1    5    5    0    0  0.16747927076E+03  0.76101613085E+02 -0.51908401389E+03  0.55071964997E+03  0.17770000000E+01 0. -1.
        -16    1    5    5    0    0  0.90929987349E+02  0.92367653892E+02 -0.24508012566E+03  0.27724414165E+03  0.00000000000E+00 0.  1.
          4    1    6    6  502    0  0.12557506683E+03 -0.40027574736E+02  0.14654768647E+02  0.13261246695E+03  0.00000000000E+00 0. -1.
         -3    1    6    6    0  502  0.12580566617E+03  0.38130303829E+02  0.10547916040E+02  0.13187965819E+03  0.00000000000E+00 0.  1.
<mgrwt>
<rscale>  0 0.55827190E+03</rscale>
<asrwt>0</asrwt>
<pdfrwt beam="1">  1        1 0.90662409E-01 0.55827190E+03</pdfrwt>
<pdfrwt beam="2">  1       -2 0.16826082E+00 0.55827190E+03</pdfrwt>
<totfact> 0.70759664E+00</totfact>
</mgrwt>
</event>
<event>
12    3  0.1201947E-007  0.5931513E+03  0.7818608E-02  0.9919718E-01
         -4   -1    0    0    0  501 -0.00000000000E+00  0.00000000000E+00  0.11762957860E+04  0.11762957860E+04  0.00000000000E+00 0.  1.
          1   -1    0    0  501    0  0.00000000000E+00 -0.00000000000E+00 -0.38629565039E+03  0.38629565039E+03  0.00000000000E+00 0. -1.
        -24    2    1    2    0    0  0.53110399757E+03  0.20642727025E+02  0.22834546855E+03  0.58398473039E+03  0.79993336670E+02 0.  0.
    5000000    2    1    2    0    0 -0.53110399757E+03 -0.20642727025E+02  0.56165466708E+03  0.97860670602E+03  0.59976457182E+03 0.  0.
        -24    2    4    4    0    0 -0.89940889688E+02  0.13448142190E+03  0.45928819069E+03  0.49370401121E+03  0.81384225148E+02 0.  0.
         24    2    4    4    0    0 -0.44116310788E+03 -0.15512414893E+03  0.10236647639E+03  0.48490269481E+03  0.77222656074E+02 0.  0.
         11    1    3    3    0    0  0.18944438781E+03  0.33053554968E+02  0.51565722423E+02  0.19909981742E+03  0.00000000000E+00 0. -1.
        -12    1    3    3    0    0  0.34165960976E+03 -0.12410827943E+02  0.17677974613E+03  0.38488491297E+03  0.00000000000E+00 0.  1.
         15    1    5    5    0    0 -0.11210323129E+02  0.88934626405E+02  0.24614807659E+03  0.26196769353E+03  0.17770000000E+01 0. -1.
        -16    1    5    5    0    0 -0.78730566559E+02  0.45546795499E+02  0.21314011410E+03  0.23173631768E+03  0.00000000000E+00 0.  1.
          4    1    6    6  502    0 -0.34996421258E+02 -0.31101782367E+02  0.25530559268E+02  0.53328039752E+02  0.00000000000E+00 0. -1.
         -3    1    6    6    0  502 -0.40616668662E+03 -0.12402236656E+03  0.76835917120E+02  0.43157465506E+03  0.00000000000E+00 0.  1.
<mgrwt>
<rscale>  0 0.59315134E+03</rscale>
<asrwt>0</asrwt>
<pdfrwt beam="1">  1        1 0.59430100E-01 0.59315134E+03</pdfrwt>
<pdfrwt beam="2">  1       -4 0.18096858E+00 0.59315134E+03</pdfrwt>
<totfact> 0.54018412E+00</totfact>
</mgrwt>
</event>
<event>
12    3  0.1201947E-007  0.1206900E+04  0.7818608E-02  0.9106839E-01
         -2   -1    0    0    0  501 -0.00000000000E+00  0.00000000000E+00  0.28334329190E+04  0.28334329190E+04  0.00000000000E+00 0.  1.
          1   -1    0    0  501    0  0.00000000000E+00 -0.00000000000E+00 -0.70784839706E+03  0.70784839706E+03  0.00000000000E+00 0. -1.
        -24    2    1    2    0    0 -0.11817272097E+04  0.13668175524E+03  0.21549454728E+03  0.12124291824E+04  0.91572496699E+02 0.  0.
    5000000    2    1    2    0    0  0.11817272097E+04 -0.13668175524E+03  0.19100899747E+04  0.23288521337E+04  0.59995620581E+03 0.  0.
        -24    2    4    4    0    0  0.98250493099E+03 -0.26545145437E+02  0.18218009516E+04  0.20715647794E+04  0.80008397794E+02 0.  0.
         24    2    4    4    0    0  0.19922227868E+03 -0.11013660980E+03  0.88289023067E+02  0.25728735430E+03  0.81131017177E+02 0.  0.
         11    1    3    3    0    0 -0.96168021047E+03  0.11647933597E+03  0.21094383817E+03  0.99140988787E+03  0.00000000000E+00 0. -1.
        -12    1    3    3    0    0 -0.22004699919E+03  0.20202419267E+02  0.45507091163E+01  0.22101929452E+03  0.00000000000E+00 0.  1.
         15    1    5    5    0    0  0.26927263839E+03 -0.28312729552E+02  0.56368026994E+03  0.62533828356E+03  0.17770000000E+01 0. -1.
        -16    1    5    5    0    0  0.71323229259E+03  0.17675841147E+01  0.12581206817E+04  0.14462264958E+04  0.00000000000E+00 0.  1.
          2    1    6    6  502    0  0.13325052925E+03 -0.11208120675E+03  0.76752727126E+02  0.19028631473E+03  0.00000000000E+00 0. -1.
         -1    1    6    6    0  502  0.65971749427E+02  0.19445969432E+01  0.11536295941E+02  0.67001039572E+02  0.00000000000E+00 0.  1.
<mgrwt>
<rscale>  0 0.12068995E+04</rscale>
<asrwt>0</asrwt>
<pdfrwt beam="1">  1        1 0.10889976E+00 0.12068995E+04</pdfrwt>
<pdfrwt beam="2">  1       -2 0.43591275E+00 0.12068995E+04</pdfrwt>
<totfact> 0.10008164E-01</totfact>
</mgrwt>
</event>
<event>
12    3  0.1201947E-007  0.8640092E+03  0.7818608E-02  0.9471725E-01
          3   -1    0    0  501    0  0.00000000000E+00  0.00000000000E+00  0.11039852053E+04  0.11039852053E+04  0.00000000000E+00 0. -1.
         -2   -1    0    0    0  501 -0.00000000000E+00 -0.00000000000E+00 -0.10594619155E+04  0.10594619155E+04  0.00000000000E+00 0.  1.
        -24    2    1    2    0    0 -0.81977049776E+03  0.22668451603E+03 -0.49863413027E+03  0.98934041894E+03  0.82151870813E+02 0.  0.
    5000000    2    1    2    0    0  0.81977049776E+03 -0.22668451603E+03  0.54315742009E+03  0.11741067018E+04  0.60008084909E+03 0.  0.
        -24    2    4    4    0    0  0.59077839729E+03 -0.96672440145E+02  0.45592458756E+02  0.60562347190E+03  0.79601771538E+02 0.  0.
         24    2    4    4    0    0  0.22899210047E+03 -0.13001207588E+03  0.49756496133E+03  0.56848322991E+03  0.79131346489E+02 0.  0.
         13    1    3    3    0    0 -0.38281539210E+03  0.65531728532E+02 -0.24152885597E+03  0.45736005525E+03  0.00000000000E+00 0. -1.
        -14    1    3    3    0    0 -0.43695510566E+03  0.16115278750E+03 -0.25710527430E+03  0.53198036369E+03  0.00000000000E+00 0.  1.
         15    1    5    5    0    0  0.51492670328E+03 -0.96026177311E+02  0.63619752460E+02  0.52765629639E+03  0.17770000000E+01 0. -1.
        -16    1    5    5    0    0  0.75851694004E+02 -0.64626283345E+00 -0.18027293704E+02  0.77967175511E+02  0.00000000000E+00 0.  1.
          2    1    6    6  502    0  0.10739504902E+02 -0.34280033416E+02  0.52298436536E+02  0.63447491051E+02  0.00000000000E+00 0. -1.
         -1    1    6    6    0  502  0.21825259557E+03 -0.95732042469E+02  0.44526652479E+03  0.50503573886E+03  0.00000000000E+00 0.  1.
<mgrwt>
<rscale>  0 0.86400922E+03</rscale>
<asrwt>0</asrwt>
<pdfrwt beam="1">  1        3 0.16984388E+00 0.86400922E+03</pdfrwt>
<pdfrwt beam="2">  1       -2 0.16299414E+00 0.86400922E+03</pdfrwt>
<totfact> 0.22960799E-01</totfact>
</mgrwt>
</event>
<event>
12    3  0.1201947E-007  0.3214507E+03  0.7818608E-02  0.1074984E+00
         -2   -1    0    0    0  501 -0.00000000000E+00  0.00000000000E+00  0.19842310234E+04  0.19842310234E+04  0.00000000000E+00 0.  1.
          1   -1    0    0  501    0  0.00000000000E+00 -0.00000000000E+00 -0.19208565098E+03  0.19208565098E+03  0.00000000000E+00 0. -1.
        -24    2    1    2    0    0  0.60671000593E+02  0.11780018673E+03 -0.10234545628E+03  0.18468332710E+03  0.77945394875E+02 0.  0.
    5000000    2    1    2    0    0 -0.60671000593E+02 -0.11780018673E+03  0.18944908287E+04  0.19916333473E+04  0.59995836158E+03 0.  0.
        -24    2    4    4    0    0 -0.40622286774E+02 -0.30099873357E+03  0.16275288183E+04  0.16576155840E+04  0.81172421114E+02 0.  0.
         24    2    4    4    0    0 -0.20048713819E+02  0.18319854684E+03  0.26696201037E+03  0.33401776330E+03  0.79595808474E+02 0.  0.
         13    1    3    3    0    0 -0.48910087551E+01  0.40532118031E+02 -0.64856331285E+02  0.76636272525E+02  0.00000000000E+00 0. -1.
        -14    1    3    3    0    0  0.65562009348E+02  0.77268068698E+02 -0.37489124994E+02  0.10804705458E+03  0.00000000000E+00 0.  1.
         15    1    5    5    0    0 -0.24762176892E+02 -0.59831099182E+02  0.21455252043E+03  0.22411797694E+03  0.17770000000E+01 0. -1.
        -16    1    5    5    0    0 -0.15860109881E+02 -0.24116763439E+03  0.14129762979E+04  0.14334976070E+04  0.00000000000E+00 0.  1.
          2    1    6    6  502    0 -0.40873813433E+02  0.91071417367E+02  0.17898673531E+03  0.20494126745E+03  0.00000000000E+00 0. -1.
         -1    1    6    6    0  502  0.20825099614E+02  0.92127129476E+02  0.87975275063E+02  0.12907649585E+03  0.00000000000E+00 0.  1.
<mgrwt>
<rscale>  0 0.32145070E+03</rscale>
<asrwt>0</asrwt>
<pdfrwt beam="1">  1        1 0.29551640E-01 0.32145070E+03</pdfrwt>
<pdfrwt beam="2">  1       -2 0.30526630E+00 0.32145070E+03</pdfrwt>
<totfact> 0.45734034E+00</totfact>
</mgrwt>
</event>
<event>
12    3  0.1201947E-007  0.1246564E+04  0.7818608E-02  0.9073048E-01
          1   -1    0    0  501    0  0.00000000000E+00  0.00000000000E+00  0.19924188376E+04  0.19924188376E+04  0.00000000000E+00 0. -1.
         -2   -1    0    0    0  501 -0.00000000000E+00 -0.00000000000E+00 -0.80759756506E+03  0.80759756506E+03  0.00000000000E+00 0.  1.
        -24    2    1    2    0    0  0.11412074804E+04 -0.34866638011E+03  0.64987414078E+03  0.13611027057E+04  0.79633025212E+02 0.  0.
    5000000    2    1    2    0    0 -0.11412074804E+04  0.34866638011E+03  0.53494713174E+03  0.14389136970E+04  0.60031777895E+03 0.  0.
        -24    2    4    4    0    0  0.14556300191E+02  0.74056579157E+02  0.15345866808E+03  0.18863034000E+03  0.79596353979E+02 0.  0.
         24    2    4    4    0    0 -0.11557637805E+04  0.27460980095E+03  0.38148846366E+03  0.12502833570E+04  0.80464685475E+02 0.  0.
         13    1    3    3    0    0  0.83329873749E+03 -0.22067608469E+03  0.48546785661E+03  0.98932490116E+03  0.00000000000E+00 0. -1.
        -14    1    3    3    0    0  0.30790874286E+03 -0.12799029542E+03  0.16440628417E+03  0.37177780451E+03  0.00000000000E+00 0.  1.
         15    1    5    5    0    0  0.21124051589E+02  0.89906864128E+02  0.13297758660E+03  0.16191252589E+03  0.17770000000E+01 0. -1.
        -16    1    5    5    0    0 -0.65677513980E+01 -0.15850284971E+02  0.20481081478E+02  0.26717814106E+02  0.00000000000E+00 0.  1.
          4    1    6    6  502    0 -0.60801444457E+03  0.13371341960E+03  0.24059443355E+03  0.66741780381E+03  0.00000000000E+00 0. -1.
         -3    1    6    6    0  502 -0.54774933597E+03  0.14089638135E+03  0.14089403011E+03  0.58286555316E+03  0.00000000000E+00 0.  1.
<mgrwt>
<rscale>  0 0.12465639E+04</rscale>
<asrwt>0</asrwt>
<pdfrwt beam="1">  1        1 0.30652597E+00 0.12465639E+04</pdfrwt>
<pdfrwt beam="2">  1       -2 0.12424578E+00 0.12465639E+04</pdfrwt>
<totfact> 0.12554041E+00</totfact>
</mgrwt>
</event>
<event>
12    3  0.1201947E-007  0.4020645E+03  0.7818608E-02  0.1043067E+00
          1   -1    0    0  501    0  0.00000000000E+00  0.00000000000E+00  0.12272390650E+04  0.12272390650E+04  0.00000000000E+00 0. -1.
         -2   -1    0    0    0  501 -0.00000000000E+00 -0.00000000000E+00 -0.15481368471E+03  0.15481368471E+03  0.00000000000E+00 0.  1.
        -24    2    1    2    0    0 -0.19050584597E+03  0.11402045721E+00  0.45708748516E+03  0.50174587679E+03  0.80792731309E+02 0.  0.
    5000000    2    1    2    0    0  0.19050584597E+03 -0.11402045721E+00  0.61533789517E+03  0.88030687297E+03  0.60000581249E+03 0.  0.
        -24    2    4    4    0    0 -0.23588093658E+02 -0.25593966773E+03  0.37534612706E+03  0.46170340473E+03  0.78891109528E+02 0.  0.
         24    2    4    4    0    0  0.21409393963E+03  0.25582564727E+03  0.23999176811E+03  0.41860346824E+03  0.79685871226E+02 0.  0.
         13    1    3    3    0    0 -0.17559124756E+03  0.23261317632E+02  0.41754207509E+03  0.45355789001E+03  0.00000000000E+00 0. -1.
        -14    1    3    3    0    0 -0.14914598415E+02 -0.23147297174E+02  0.39545410075E+02  0.48187986784E+02  0.00000000000E+00 0.  1.
         15    1    5    5    0    0  0.21234264681E+02 -0.11529739967E+03  0.12738791482E+03  0.17313354077E+03  0.17770000000E+01 0. -1.
        -16    1    5    5    0    0 -0.44822358339E+02 -0.14064226806E+03  0.24795821224E+03  0.28856986397E+03  0.00000000000E+00 0.  1.
          2    1    6    6  502    0  0.15387585207E+03  0.16486004281E+03  0.11650372042E+03  0.25383011728E+03  0.00000000000E+00 0. -1.
         -1    1    6    6    0  502  0.60218087554E+02  0.90965604462E+02  0.12348804769E+03  0.16477335096E+03  0.00000000000E+00 0.  1.
<mgrwt>
<rscale>  0 0.40206451E+03</rscale>
<asrwt>0</asrwt>
<pdfrwt beam="1">  1        1 0.18880600E+00 0.40206451E+03</pdfrwt>
<pdfrwt beam="2">  1       -2 0.23817491E-01 0.40206451E+03</pdfrwt>
<totfact> 0.14743002E+02</totfact>
</mgrwt>
</event>
<event>
12    3  0.1201947E-007  0.6248969E+03  0.7818608E-02  0.9855058E-01
         -2   -1    0    0    0  501 -0.00000000000E+00  0.00000000000E+00  0.66727003266E+03  0.66727003266E+03  0.00000000000E+00 0.  1.
          1   -1    0    0  501    0  0.00000000000E+00 -0.00000000000E+00 -0.87748916427E+03  0.87748916427E+03  0.00000000000E+00 0. -1.
        -24    2    1    2    0    0  0.55646991588E+03 -0.24449504220E+03 -0.30588092116E+03  0.68522678679E+03  0.80845645900E+02 0.  0.
    5000000    2    1    2    0    0 -0.55646991588E+03  0.24449504220E+03  0.95661789556E+02  0.85953241014E+03  0.60017346922E+03 0.  0.
        -24    2    4    4    0    0 -0.48248260271E+03  0.22384891714E+03  0.30807902533E+03  0.61978181227E+03  0.79492196775E+02 0.  0.
         24    2    4    4    0    0 -0.73987313166E+02  0.20646125065E+02 -0.21241723577E+03  0.23975059787E+03  0.80367170757E+02 0.  0.
         11    1    3    3    0    0  0.28388208285E+03 -0.13106647972E+03 -0.11256415541E+03  0.33232235578E+03  0.00000000000E+00 0. -1.
        -12    1    3    3    0    0  0.27258783302E+03 -0.11342856249E+03 -0.19331676576E+03  0.35290443100E+03  0.00000000000E+00 0.  1.
         15    1    5    5    0    0 -0.91874420368E+02  0.68966763484E+02  0.41493749171E+02  0.12215650835E+03  0.17770000000E+01 0. -1.
        -16    1    5    5    0    0 -0.39060818234E+03  0.15488215365E+03  0.26658527616E+03  0.49762530392E+03  0.00000000000E+00 0.  1.
          2    1    6    6  502    0  0.15021833942E+02  0.75579689789E+01 -0.13967594802E+02  0.21860285786E+02  0.00000000000E+00 0. -1.
         -1    1    6    6    0  502 -0.89009147108E+02  0.13088156086E+02 -0.19844964097E+03  0.21789031208E+03  0.00000000000E+00 0.  1.
<mgrwt>
<rscale>  0 0.62489686E+03</rscale>
<asrwt>0</asrwt>
<pdfrwt beam="1">  1        1 0.13499833E+00 0.62489686E+03</pdfrwt>
<pdfrwt beam="2">  1       -2 0.10265693E+00 0.62489686E+03</pdfrwt>
<totfact> 0.13402553E+01</totfact>
</mgrwt>
</event>
<event>
12    3  0.1201947E-007  0.1267240E+04  0.7818608E-02  0.9055955E-01
          1   -1    0    0  501    0  0.00000000000E+00  0.00000000000E+00  0.96522686439E+03  0.96522686439E+03  0.00000000000E+00 0. -1.
         -2   -1    0    0    0  501 -0.00000000000E+00 -0.00000000000E+00 -0.18338271328E+04  0.18338271328E+04  0.00000000000E+00 0.  1.
        -24    2    1    2    0    0  0.50643781196E+03 -0.11521866450E+04 -0.32364071902E+03  0.13019556461E+04  0.79573029887E+02 0.  0.
    5000000    2    1    2    0    0 -0.50643781196E+03  0.11521866450E+04 -0.54495954943E+03  0.14970983512E+04  0.60025764493E+03 0.  0.
        -24    2    4    4    0    0 -0.11504212017E+03  0.42692374059E+03 -0.49416128587E+03  0.66803074337E+03  0.81062494075E+02 0.  0.
         24    2    4    4    0    0 -0.39139569179E+03  0.72526290438E+03 -0.50798263565E+02  0.82906760779E+03  0.74671056504E+02 0.  0.
         13    1    3    3    0    0  0.16319026490E+03 -0.39272008155E+03 -0.14737480743E+03  0.45008827898E+03  0.00000000000E+00 0. -1.
        -14    1    3    3    0    0  0.34324754706E+03 -0.75946656342E+03 -0.17626591158E+03  0.85186736708E+03  0.00000000000E+00 0.  1.
         15    1    5    5    0    0 -0.51758827497E+02  0.77429651121E+02 -0.12318634805E+03  0.15444209650E+03  0.17770000000E+01 0. -1.
        -16    1    5    5    0    0 -0.63283292674E+02  0.34949408947E+03 -0.37097493781E+03  0.51358864687E+03  0.00000000000E+00 0.  1.
          4    1    6    6  502    0 -0.14394032923E+03  0.34415117678E+03 -0.17580837746E+02  0.37345406239E+03  0.00000000000E+00 0. -1.
         -3    1    6    6    0  502 -0.24745536256E+03  0.38111172760E+03 -0.33217425819E+02  0.45561354540E+03  0.00000000000E+00 0.  1.
<mgrwt>
<rscale>  0 0.12672398E+04</rscale>
<asrwt>0</asrwt>
<pdfrwt beam="1">  1        1 0.14849644E+00 0.12672398E+04</pdfrwt>
<pdfrwt beam="2">  1       -2 0.28212725E+00 0.12672398E+04</pdfrwt>
<totfact> 0.56141036E-01</totfact>
</mgrwt>
</event>
<event>
12    3  0.1201947E-007  0.4019636E+03  0.7818608E-02  0.1043102E+00
          1   -1    0    0  501    0  0.00000000000E+00  0.00000000000E+00  0.11510812151E+04  0.11510812151E+04  0.00000000000E+00 0. -1.
         -2   -1    0    0    0  501 -0.00000000000E+00 -0.00000000000E+00 -0.15008817931E+03  0.15008817931E+03  0.00000000000E+00 0.  1.
        -24    2    1    2    0    0  0.30077408556E+02  0.17972759969E+03  0.30820305629E+03  0.36668512762E+03  0.79134052814E+02 0.  0.
    5000000    2    1    2    0    0 -0.30077408556E+02 -0.17972759969E+03  0.69278997952E+03  0.93448426680E+03  0.60008018513E+03 0.  0.
        -24    2    4    4    0    0  0.14338931411E+03 -0.33782097191E+03  0.46666592035E+03  0.59875487553E+03  0.77761271159E+02 0.  0.
         24    2    4    4    0    0 -0.17346672266E+03  0.15809337222E+03  0.22612405917E+03  0.33572939128E+03  0.80609650913E+02 0.  0.
         11    1    3    3    0    0 -0.11351121441E+01  0.15502587202E+03  0.21255699938E+03  0.26308703401E+03  0.00000000000E+00 0. -1.
        -12    1    3    3    0    0  0.31212520700E+02  0.24701727666E+02  0.95646056904E+02  0.10359809361E+03  0.00000000000E+00 0.  1.
         15    1    5    5    0    0  0.57920392313E+02 -0.58881762376E+02  0.11962538629E+03  0.14537958784E+03  0.17770000000E+01 0. -1.
        -16    1    5    5    0    0  0.85468921793E+02 -0.27893920953E+03  0.34704053406E+03  0.45337528769E+03  0.00000000000E+00 0.  1.
          4    1    6    6  502    0 -0.12973897218E+03  0.12073977768E+03  0.21235263938E+03  0.27659345304E+03  0.00000000000E+00 0. -1.
         -3    1    6    6    0  502 -0.43727750484E+02  0.37353594541E+02  0.13771419791E+02  0.59135938232E+02  0.00000000000E+00 0.  1.
<mgrwt>
<rscale>  0 0.40196361E+03</rscale>
<asrwt>0</asrwt>
<pdfrwt beam="1">  1        1 0.17708941E+00 0.40196361E+03</pdfrwt>
<pdfrwt beam="2">  1       -2 0.23090490E-01 0.40196361E+03</pdfrwt>
<totfact> 0.17647214E+02</totfact>
</mgrwt>
</event>
<event>
12    3  0.1201947E-007  0.1332274E+04  0.7818608E-02  0.9004356E-01
         -2   -1    0    0    0  501 -0.00000000000E+00  0.00000000000E+00  0.14045156806E+04  0.14045156806E+04  0.00000000000E+00 0.  1.
          1   -1    0    0  501    0  0.00000000000E+00 -0.00000000000E+00 -0.12704341089E+04  0.12704341089E+04  0.00000000000E+00 0. -1.
        -24    2    1    2    0    0  0.38270334059E+03  0.12077502987E+04  0.66929079621E+02  0.12715425648E+04  0.84960940533E+02 0.  0.
    5000000    2    1    2    0    0 -0.38270334059E+03 -0.12077502987E+04  0.67152492123E+02  0.14034072246E+04  0.59993312123E+03 0.  0.
        -24    2    4    4    0    0  0.14699720085E+03 -0.29321121820E+03 -0.31305568834E+02  0.33897267786E+03  0.79633172478E+02 0.  0.
         24    2    4    4    0    0 -0.52970054144E+03 -0.91453908054E+03  0.98458060957E+02  0.10644345468E+04  0.79765413270E+02 0.  0.
         13    1    3    3    0    0  0.35674974047E+03  0.10892512721E+04  0.37905922025E+02  0.11468110437E+04  0.00000000000E+00 0. -1.
        -14    1    3    3    0    0  0.25953600124E+02  0.11849902665E+03  0.29023157597E+02  0.12473152109E+03  0.00000000000E+00 0.  1.
         15    1    5    5    0    0  0.13082941468E+02 -0.10860043961E+03 -0.13085672507E+02  0.11017990468E+03  0.17770000000E+01 0. -1.
        -16    1    5    5    0    0  0.13391425938E+03 -0.18461077859E+03 -0.18219896327E+02  0.22879277318E+03  0.00000000000E+00 0.  1.
          2    1    6    6  502    0 -0.23405424127E+03 -0.47985665948E+03  0.61862995722E+02  0.53746705178E+03  0.00000000000E+00 0. -1.
         -1    1    6    6    0  502 -0.29564630017E+03 -0.43468242106E+03  0.36595065235E+02  0.52696749500E+03  0.00000000000E+00 0.  1.
<mgrwt>
<rscale>  0 0.13322744E+04</rscale>
<asrwt>0</asrwt>
<pdfrwt beam="1">  1        1 0.19545140E+00 0.13322744E+04</pdfrwt>
<pdfrwt beam="2">  1       -2 0.21607934E+00 0.13322744E+04</pdfrwt>
<totfact> 0.83758970E-01</totfact>
</mgrwt>
</event>
<event>
12    3  0.1201947E-007  0.6518345E+03  0.7818608E-02  0.9803343E-01
         -2   -1    0    0    0  501 -0.00000000000E+00  0.00000000000E+00  0.39449540755E+03  0.39449540755E+03  0.00000000000E+00 0.  1.
          1   -1    0    0  501    0  0.00000000000E+00 -0.00000000000E+00 -0.11237224041E+04  0.11237224041E+04  0.00000000000E+00 0. -1.
        -24    2    1    2    0    0  0.12325550441E+03  0.50124791209E+03 -0.17054823110E+03  0.54935150323E+03  0.79113754983E+02 0.  0.
    5000000    2    1    2    0    0 -0.12325550441E+03 -0.50124791209E+03 -0.55867876542E+03  0.96886630838E+03  0.60011546543E+03 0.  0.
        -24    2    4    4    0    0  0.77513931190E+01  0.12362520867E+03 -0.11156457772E+03  0.18540425914E+03  0.81146829827E+02 0.  0.
         24    2    4    4    0    0 -0.13100689752E+03 -0.62487312076E+03 -0.44711418770E+03  0.78346204925E+03  0.79198873229E+02 0.  0.
         13    1    3    3    0    0  0.10659340865E+03  0.45888818344E+03 -0.17723994536E+03  0.50334333998E+03  0.00000000000E+00 0. -1.
        -14    1    3    3    0    0  0.16662095754E+02  0.42359728653E+02  0.66917142549E+01  0.46008163255E+02  0.00000000000E+00 0.  1.
         15    1    5    5    0    0 -0.26643868266E+02  0.95828391347E+02 -0.96742238358E+02  0.13876308845E+03  0.17770000000E+01 0. -1.
        -16    1    5    5    0    0  0.34395261385E+02  0.27796817320E+02 -0.14822339359E+02  0.46641170686E+02  0.00000000000E+00 0.  1.
          4    1    6    6  502    0 -0.79889766512E+02 -0.19939146166E+03 -0.14722697903E+03  0.26041335053E+03  0.00000000000E+00 0. -1.
         -3    1    6    6    0  502 -0.51117131013E+02 -0.42548165910E+03 -0.29988720867E+03  0.52304869872E+03  0.00000000000E+00 0.  1.
<mgrwt>
<rscale>  0 0.65183453E+03</rscale>
<asrwt>0</asrwt>
<pdfrwt beam="1">  1        1 0.17288037E+00 0.65183453E+03</pdfrwt>
<pdfrwt beam="2">  1       -2 0.60691601E-01 0.65183453E+03</pdfrwt>
<totfact> 0.27937452E+01</totfact>
</mgrwt>
</event>
<event>
12    3  0.1201947E-007  0.8642165E+03  0.7818608E-02  0.9471452E-01
          1   -1    0    0  501    0  0.00000000000E+00  0.00000000000E+00  0.10116574147E+04  0.10116574147E+04  0.00000000000E+00 0. -1.
         -2   -1    0    0    0  501 -0.00000000000E+00 -0.00000000000E+00 -0.78427137729E+03  0.78427137729E+03  0.00000000000E+00 0.  1.
        -24    2    1    2    0    0 -0.58279160264E+03 -0.49868090539E+03  0.28120432363E+03  0.82057817615E+03  0.77097172648E+02 0.  0.
    5000000    2    1    2    0    0  0.58279160264E+03  0.49868090539E+03 -0.53818286223E+02  0.97535061583E+03  0.60006976124E+03 0.  0.
        -24    2    4    4    0    0  0.13587971171E+03  0.48958962297E+03 -0.82029715577E+02  0.52088526538E+03  0.80195327011E+02 0.  0.
         24    2    4    4    0    0  0.44691189094E+03  0.90912824207E+01  0.28211429354E+02  0.45446535045E+03  0.77006365584E+02 0.  0.
         13    1    3    3    0    0 -0.10742421191E+03 -0.59744333576E+02  0.60039520120E+02  0.13679945422E+03  0.00000000000E+00 0. -1.
        -14    1    3    3    0    0 -0.47536739073E+03 -0.43893657182E+03  0.22116480351E+03  0.68377872193E+03  0.00000000000E+00 0.  1.
         15    1    5    5    0    0  0.83535531475E+02  0.21550325382E+03 -0.41113537733E+01  0.23117071265E+03  0.17770000000E+01 0. -1.
        -16    1    5    5    0    0  0.52344180232E+02  0.27408636915E+03 -0.77918361804E+02  0.28971455273E+03  0.00000000000E+00 0.  1.
          4    1    6    6  502    0  0.15096603073E+03 -0.13133510881E+02  0.42371363076E+02  0.15734854290E+03  0.00000000000E+00 0. -1.
         -3    1    6    6    0  502  0.29594586021E+03  0.22224793301E+02 -0.14159933722E+02  0.29711680756E+03  0.00000000000E+00 0.  1.
<mgrwt>
<rscale>  0 0.86421655E+03</rscale>
<asrwt>0</asrwt>
<pdfrwt beam="1">  1        1 0.15563960E+00 0.86421655E+03</pdfrwt>
<pdfrwt beam="2">  1       -2 0.12065713E+00 0.86421655E+03</pdfrwt>
<totfact> 0.68796279E+00</totfact>
</mgrwt>
</event>
<event>
12    3  0.1201947E-007  0.6637175E+03  0.7818608E-02  0.9781374E-01
          1   -1    0    0  501    0  0.00000000000E+00  0.00000000000E+00  0.89161765296E+03  0.89161765296E+03  0.00000000000E+00 0. -1.
         -2   -1    0    0    0  501 -0.00000000000E+00 -0.00000000000E+00 -0.66877071113E+03  0.66877071113E+03  0.00000000000E+00 0.  1.
        -24    2    1    2    0    0  0.42790062914E+03  0.41642702337E+03 -0.17199463587E+03  0.62634636415E+03  0.78849216311E+02 0.  0.
    5000000    2    1    2    0    0 -0.42790062914E+03 -0.41642702337E+03  0.39484157770E+03  0.93404199994E+03  0.60002014296E+03 0.  0.
        -24    2    4    4    0    0 -0.40092610135E+03 -0.12792193798E+03 -0.63767488829E+01  0.42807324292E+03  0.78104272734E+02 0.  0.
         24    2    4    4    0    0 -0.26974527792E+02 -0.28850508539E+03  0.40121832658E+03  0.50596875702E+03  0.10519233836E+03 0.  0.
         11    1    3    3    0    0  0.88569369036E+02  0.11059510990E+03 -0.11484236071E+02  0.14215378695E+03  0.00000000000E+00 0. -1.
        -12    1    3    3    0    0  0.33933126010E+03  0.30583191346E+03 -0.16051039980E+03  0.48419257720E+03  0.00000000000E+00 0.  1.
         15    1    5    5    0    0 -0.15368843108E+03 -0.14501064469E+02 -0.20269801548E+02  0.15570625326E+03  0.17770000000E+01 0. -1.
        -16    1    5    5    0    0 -0.24723767026E+03 -0.11342087351E+03  0.13893052665E+02  0.27236698966E+03  0.00000000000E+00 0.  1.
          4    1    6    6  502    0  0.15769479882E+02 -0.60863236893E+01  0.52760925602E+02  0.55402482816E+02  0.00000000000E+00 0. -1.
         -3    1    6    6    0  502 -0.42744007675E+02 -0.28241876170E+03  0.34845740098E+03  0.45056627420E+03  0.00000000000E+00 0.  1.
<mgrwt>
<rscale>  0 0.66371749E+03</rscale>
<asrwt>0</asrwt>
<pdfrwt beam="1">  1        1 0.13717195E+00 0.66371749E+03</pdfrwt>
<pdfrwt beam="2">  1       -2 0.10288780E+00 0.66371749E+03</pdfrwt>
<totfact> 0.12916965E+01</totfact>
</mgrwt>
</event>
<event>
12    3  0.1201947E-007  0.4189915E+03  0.7818608E-02  0.1037395E+00
         -2   -1    0    0    0  501 -0.00000000000E+00  0.00000000000E+00  0.18176015819E+03  0.18176015819E+03  0.00000000000E+00 0.  1.
          1   -1    0    0  501    0  0.00000000000E+00 -0.00000000000E+00 -0.34823063043E+04  0.34823063043E+04  0.00000000000E+00 0. -1.
        -24    2    1    2    0    0  0.69483365826E+02 -0.31658294915E+03 -0.43511487455E+02  0.33639277361E+03  0.78829859694E+02 0.  0.
    5000000    2    1    2    0    0 -0.69483365826E+02  0.31658294915E+03 -0.32570346587E+04  0.33276736889E+04  0.60007058766E+03 0.  0.
        -24    2    4    4    0    0  0.19527011832E+02  0.38834115536E+03 -0.11623143044E+04  0.12281182787E+04  0.78165255197E+02 0.  0.
         24    2    4    4    0    0 -0.89010377658E+02 -0.71758206213E+02 -0.20947203543E+04  0.20995554102E+04  0.84896822161E+02 0.  0.
         11    1    3    3    0    0  0.78178666328E+02 -0.23962839999E+03 -0.55307256513E+02  0.25805535564E+03  0.00000000000E+00 0. -1.
        -12    1    3    3    0    0 -0.86953005023E+01 -0.76954549160E+02  0.11795769058E+02  0.78337417974E+02  0.00000000000E+00 0.  1.
         15    1    5    5    0    0  0.42770843212E+02  0.27992070940E+03 -0.89462954324E+03  0.93837632427E+03  0.17770000000E+01 0. -1.
        -16    1    5    5    0    0 -0.23243831380E+02  0.10842044596E+03 -0.26768476119E+03  0.28974195446E+03  0.00000000000E+00 0.  1.
          4    1    6    6  502    0 -0.72428591564E+02 -0.56095551158E+02 -0.20011207887E+04  0.20032166689E+04  0.00000000000E+00 0. -1.
         -3    1    6    6    0  502 -0.16581786094E+02 -0.15662655055E+02 -0.93599565609E+02  0.96338741302E+02  0.00000000000E+00 0.  1.
<mgrwt>
<rscale>  0 0.41899146E+03</rscale>
<asrwt>0</asrwt>
<pdfrwt beam="1">  1        1 0.53573938E+00 0.41899146E+03</pdfrwt>
<pdfrwt beam="2">  1       -2 0.27963104E-01 0.41899146E+03</pdfrwt>
<totfact> 0.31207137E+00</totfact>
</mgrwt>
</event>
<event>
12    3  0.1201947E-007  0.5577903E+03  0.7818608E-02  0.9997067E-01
         -2   -1    0    0    0  501 -0.00000000000E+00  0.00000000000E+00  0.10897866336E+04  0.10897866336E+04  0.00000000000E+00 0.  1.
          1   -1    0    0  501    0  0.00000000000E+00 -0.00000000000E+00 -0.43180896438E+03  0.43180896438E+03  0.00000000000E+00 0. -1.
        -24    2    1    2    0    0 -0.45026312049E+03  0.30439910749E+03  0.16407118155E+03  0.57340978976E+03  0.80521674496E+02 0.  0.
    5000000    2    1    2    0    0  0.45026312049E+03 -0.30439910749E+03  0.49390648766E+03  0.94818580822E+03  0.59976413200E+03 0.  0.
        -24    2    4    4    0    0  0.20222009219E+03 -0.96369313566E+02  0.55987114272E+03  0.60839899717E+03  0.80707081635E+02 0.  0.
         24    2    4    4    0    0  0.24804302829E+03 -0.20802979393E+03 -0.65964655055E+02  0.33978681105E+03  0.79385150994E+02 0.  0.
         13    1    3    3    0    0 -0.24473173277E+03  0.12364276511E+03  0.60685508324E+02  0.28082714490E+03  0.00000000000E+00 0. -1.
        -14    1    3    3    0    0 -0.20553138772E+03  0.18075634238E+03  0.10338567323E+03  0.29258264486E+03  0.00000000000E+00 0.  1.
         15    1    5    5    0    0  0.13290549187E+03 -0.23169526812E+02  0.36203231223E+03  0.38635637638E+03  0.17770000000E+01 0. -1.
        -16    1    5    5    0    0  0.69314600324E+02 -0.73199786754E+02  0.19783883049E+03  0.22204262079E+03  0.00000000000E+00 0.  1.
          4    1    6    6  502    0  0.76102802541E+02 -0.23315473260E+02 -0.27820128109E+01  0.79642874403E+02  0.00000000000E+00 0. -1.
         -1    1    6    6    0  502  0.17194022575E+03 -0.18471432067E+03 -0.63182642244E+02  0.26014393664E+03  0.00000000000E+00 0.  1.
<mgrwt>
<rscale>  0 0.55779026E+03</rscale>
<asrwt>0</asrwt>
<pdfrwt beam="1">  1        1 0.66432149E-01 0.55779026E+03</pdfrwt>
<pdfrwt beam="2">  1       -2 0.16765948E+00 0.55779026E+03</pdfrwt>
<totfact> 0.10938414E+01</totfact>
</mgrwt>
</event>
<event>
12    3  0.1201947E-007  0.3922400E+03  0.7818608E-02  0.1046500E+00
          1   -1    0    0  501    0  0.00000000000E+00  0.00000000000E+00  0.16522755165E+04  0.16522755165E+04  0.00000000000E+00 0. -1.
         -2   -1    0    0    0  501 -0.00000000000E+00 -0.00000000000E+00 -0.22303052530E+03  0.22303052530E+03  0.00000000000E+00 0.  1.
        -24    2    1    2    0    0  0.39820450415E+02 -0.27445490457E+03  0.10967494948E+04  0.11348092847E+04  0.89562800380E+02 0.  0.
    5000000    2    1    2    0    0 -0.39820450415E+02  0.27445490457E+03  0.33249549633E+03  0.74049675711E+03  0.60072541922E+03 0.  0.
        -24    2    4    4    0    0 -0.21380106471E+03  0.16663549608E+03  0.41795061679E+03  0.50452152161E+03  0.79880935550E+02 0.  0.
         24    2    4    4    0    0  0.17398061430E+03  0.10781940849E+03 -0.85455120465E+02  0.23597523550E+03  0.80544740100E+02 0.  0.
         13    1    3    3    0    0  0.64143156249E+02 -0.20838484319E+03  0.89324931263E+03  0.91947426384E+03  0.00000000000E+00 0. -1.
        -14    1    3    3    0    0 -0.24322705834E+02 -0.66070061381E+02  0.20350018220E+03  0.21533502081E+03  0.00000000000E+00 0.  1.
         15    1    5    5    0    0 -0.21117048840E+01 -0.35951157974E+01 -0.15154490754E+01  0.47789611856E+01  0.17770000000E+01 0. -1.
        -16    1    5    5    0    0 -0.21168935983E+03  0.17023061188E+03  0.41946606587E+03  0.49974256042E+03  0.00000000000E+00 0.  1.
          2    1    6    6  502    0 -0.51241039681E+01  0.19511180714E+02 -0.98611507778E+01  0.22454062193E+02  0.00000000000E+00 0. -1.
         -1    1    6    6    0  502  0.17910471826E+03  0.88308227781E+02 -0.75593969687E+02  0.21352117331E+03  0.00000000000E+00 0.  1.
<mgrwt>
<rscale>  0 0.39224002E+03</rscale>
<asrwt>0</asrwt>
<pdfrwt beam="1">  1        1 0.25419623E+00 0.39224002E+03</pdfrwt>
<pdfrwt beam="2">  1       -2 0.34312389E-01 0.39224002E+03</pdfrwt>
<totfact> 0.39036254E+01</totfact>
</mgrwt>
</event>
<event>
12    3  0.1201947E-007  0.1044767E+04  0.7818608E-02  0.9260763E-01
          1   -1    0    0  501    0  0.00000000000E+00  0.00000000000E+00  0.10433133093E+04  0.10433133093E+04  0.00000000000E+00 0. -1.
         -2   -1    0    0    0  501 -0.00000000000E+00 -0.00000000000E+00 -0.13873109169E+04  0.13873109169E+04  0.00000000000E+00 0.  1.
        -24    2    1    2    0    0 -0.50599427739E+03 -0.84106124030E+03  0.39752553710E+03  0.10619603971E+04  0.79492852483E+02 0.  0.
    5000000    2    1    2    0    0  0.50599427739E+03  0.84106124030E+03 -0.74152314477E+03  0.13686638292E+04  0.59997490311E+03 0.  0.
        -24    2    4    4    0    0 -0.84082236714E+02  0.11238544682E+02 -0.14788699513E+03  0.18719903528E+03  0.77309689330E+02 0.  0.
         24    2    4    4    0    0  0.59007651411E+03  0.82982269562E+03 -0.59363614964E+03  0.11814647939E+04  0.81603813483E+02 0.  0.
         11    1    3    3    0    0 -0.25023085133E+03 -0.34037955317E+03  0.17653631611E+03  0.45786328754E+03  0.00000000000E+00 0. -1.
        -12    1    3    3    0    0 -0.25576342607E+03 -0.50068168713E+03  0.22098922099E+03  0.60409710952E+03  0.00000000000E+00 0.  1.
         15    1    5    5    0    0 -0.40512737988E+02  0.43143751322E+01 -0.13531470626E+03  0.14132630056E+03  0.17770000000E+01 0. -1.
        -16    1    5    5    0    0 -0.43569498726E+02  0.69241695495E+01 -0.12572288873E+02  0.45872734720E+02  0.00000000000E+00 0.  1.
          2    1    6    6  502    0  0.92394262381E+02  0.16993996572E+03 -0.13862878239E+03  0.23797947596E+03  0.00000000000E+00 0. -1.
         -1    1    6    6    0  502  0.49768225173E+03  0.65988272989E+03 -0.45500736725E+03  0.94348531793E+03  0.00000000000E+00 0.  1.
<mgrwt>
<rscale>  0 0.10447674E+04</rscale>
<asrwt>0</asrwt>
<pdfrwt beam="1">  1        1 0.16050974E+00 0.10447674E+04</pdfrwt>
<pdfrwt beam="2">  1       -2 0.21343245E+00 0.10447674E+04</pdfrwt>
<totfact> 0.13259996E+00</totfact>
</mgrwt>
</event>
<event>
12    3  0.1201947E-007  0.7730741E+03  0.7818608E-02  0.9599830E-01
         -2   -1    0    0    0  501 -0.00000000000E+00  0.00000000000E+00  0.16240725437E+04  0.16240725437E+04  0.00000000000E+00 0.  1.
          1   -1    0    0  501    0  0.00000000000E+00 -0.00000000000E+00 -0.74679139549E+03  0.74679139549E+03  0.00000000000E+00 0. -1.
        -24    2    1    2    0    0 -0.73721983775E+03 -0.14137645642E+03 -0.33332006643E+03  0.82500418018E+03  0.77776854051E+02 0.  0.
    5000000    2    1    2    0    0  0.73721983775E+03  0.14137645642E+03  0.12106012146E+04  0.15458597590E+04  0.60053867652E+03 0.  0.
        -24    2    4    4    0    0  0.28138355735E+03  0.16169872387E+03  0.11110579837E+03  0.35272708001E+03  0.82150537976E+02 0.  0.
         24    2    4    4    0    0  0.45583628040E+03 -0.20322267444E+02  0.10994954162E+04  0.11931326790E+04  0.80471797595E+02 0.  0.
         11    1    3    3    0    0 -0.56996453550E+03 -0.14211383102E+03 -0.25912068036E+03  0.64202760041E+03  0.00000000000E+00 0. -1.
        -12    1    3    3    0    0 -0.16725530225E+03  0.73737459520E+00 -0.74199386077E+02  0.18297657977E+03  0.00000000000E+00 0.  1.
         15    1    5    5    0    0  0.12982788221E+02 -0.59469356136E+01  0.17624784645E+02  0.22753232648E+02  0.17770000000E+01 0. -1.
        -16    1    5    5    0    0  0.26840076913E+03  0.16764565948E+03  0.93481013726E+02  0.32997384736E+03  0.00000000000E+00 0.  1.
          4    1    6    6  502    0  0.10437259184E+03  0.21884021889E+02  0.20360073219E+03  0.22983865316E+03  0.00000000000E+00 0. -1.
         -3    1    6    6    0  502  0.35146368856E+03 -0.42206289333E+02  0.89589468406E+03  0.96329402581E+03  0.00000000000E+00 0.  1.
<mgrwt>
<rscale>  0 0.77307405E+03</rscale>
<asrwt>0</asrwt>
<pdfrwt beam="1">  1        1 0.11489098E+00 0.77307405E+03</pdfrwt>
<pdfrwt beam="2">  1       -2 0.24985731E+00 0.77307405E+03</pdfrwt>
<totfact> 0.14384627E+00</totfact>
</mgrwt>
</event>
<event>
12    3  0.1201947E-007  0.8644992E+03  0.7818608E-02  0.9471081E-01
          1   -1    0    0  501    0  0.00000000000E+00  0.00000000000E+00  0.21667410737E+04  0.21667410737E+04  0.00000000000E+00 0. -1.
         -2   -1    0    0    0  501 -0.00000000000E+00 -0.00000000000E+00 -0.36769630070E+03  0.36769630070E+03  0.00000000000E+00 0.  1.
        -24    2    1    2    0    0  0.25843994051E+03  0.73979941260E+03  0.93518446782E+03  0.12227756669E+04  0.80721552722E+02 0.  0.
    5000000    2    1    2    0    0 -0.25843994051E+03 -0.73979941260E+03  0.86386030514E+03  0.13116617074E+04  0.60008952179E+03 0.  0.
        -24    2    4    4    0    0 -0.81005638629E+02  0.60511809123E+02  0.26087612566E+03  0.29095308130E+03  0.79835769219E+02 0.  0.
         24    2    4    4    0    0 -0.17743430188E+03 -0.80031122173E+03  0.60298417948E+03  0.10207086261E+04  0.79216132289E+02 0.  0.
         11    1    3    3    0    0  0.11600598192E+03  0.35667432839E+03  0.38639342827E+03  0.53849219659E+03  0.00000000000E+00 0. -1.
        -12    1    3    3    0    0  0.14243395859E+03  0.38312508422E+03  0.54879103954E+03  0.68428347035E+03  0.00000000000E+00 0.  1.
         15    1    5    5    0    0 -0.47267359560E+02  0.73552556139E+02  0.14268476563E+03  0.16735077492E+03  0.17770000000E+01 0. -1.
        -16    1    5    5    0    0 -0.33738279069E+02 -0.13040747016E+02  0.11819136003E+03  0.12360230638E+03  0.00000000000E+00 0.  1.
          2    1    6    6  502    0 -0.17097375328E+03 -0.68282875976E+03  0.49065574142E+03  0.85803857492E+03  0.00000000000E+00 0. -1.
         -1    1    6    6    0  502 -0.64605486013E+01 -0.11748246197E+03  0.11232843806E+03  0.16267005119E+03  0.00000000000E+00 0.  1.
<mgrwt>
<rscale>  0 0.86449920E+03</rscale>
<asrwt>0</asrwt>
<pdfrwt beam="1">  1        1 0.33334477E+00 0.86449920E+03</pdfrwt>
<pdfrwt beam="2">  1       -2 0.56568663E-01 0.86449920E+03</pdfrwt>
<totfact> 0.60784807E+00</totfact>
</mgrwt>
</event>
<event>
12    3  0.1201947E-007  0.9633988E+03  0.7818608E-02  0.9349625E-01
          1   -1    0    0  501    0  0.00000000000E+00  0.00000000000E+00  0.63138955272E+03  0.63138955272E+03  0.00000000000E+00 0. -1.
         -2   -1    0    0    0  501 -0.00000000000E+00 -0.00000000000E+00 -0.17401411009E+04  0.17401411009E+04  0.00000000000E+00 0.  1.
        -24    2    1    2    0    0  0.14983959404E+03  0.93882031297E+03 -0.35430970106E+03  0.10176451731E+04  0.78935733729E+02 0.  0.
    5000000    2    1    2    0    0 -0.14983959404E+03 -0.93882031297E+03 -0.75444184715E+03  0.13538854806E+04  0.59998992472E+03 0.  0.
        -24    2    4    4    0    0 -0.56135650807E+02 -0.14472825411E+03  0.82310317867E+02  0.19384277376E+03  0.81869125332E+02 0.  0.
         24    2    4    4    0    0 -0.93703943235E+02 -0.79409205886E+03 -0.83675216502E+03  0.11600427068E+04  0.78627406351E+02 0.  0.
         13    1    3    3    0    0  0.10382861665E+03  0.59798747708E+03 -0.26533042108E+03  0.66239688762E+03  0.00000000000E+00 0. -1.
        -14    1    3    3    0    0  0.46010977396E+02  0.34083283589E+03 -0.88979279971E+02  0.35524828547E+03  0.00000000000E+00 0.  1.
         15    1    5    5    0    0 -0.69296074449E+02 -0.14387947075E+03  0.65847754049E+02  0.17274933423E+03  0.17770000000E+01 0. -1.
        -16    1    5    5    0    0  0.13160423642E+02 -0.84878336526E+00  0.16462563818E+02  0.21093439527E+02  0.00000000000E+00 0.  1.
          4    1    6    6  502    0 -0.75997171939E+02 -0.33096200416E+03 -0.33549401280E+03  0.47735484806E+03  0.00000000000E+00 0. -1.
         -3    1    6    6    0  502 -0.17706771296E+02 -0.46313005469E+03 -0.50125815222E+03  0.68268785875E+03  0.00000000000E+00 0.  1.
<mgrwt>
<rscale>  0 0.96339884E+03</rscale>
<asrwt>0</asrwt>
<pdfrwt beam="1">  1        1 0.97136854E-01 0.96339884E+03</pdfrwt>
<pdfrwt beam="2">  1       -2 0.26771402E+00 0.96339884E+03</pdfrwt>
<totfact> 0.14066218E+00</totfact>
</mgrwt>
</event>
<event>
12    3  0.1201947E-007  0.7740212E+03  0.7818608E-02  0.9598401E-01
          1   -1    0    0  501    0  0.00000000000E+00  0.00000000000E+00  0.32503594372E+03  0.32503594372E+03  0.00000000000E+00 0. -1.
         -2   -1    0    0    0  501 -0.00000000000E+00 -0.00000000000E+00 -0.24963747979E+04  0.24963747979E+04  0.00000000000E+00 0.  1.
        -24    2    1    2    0    0 -0.38211829504E+03 -0.58063619021E+03 -0.15836248889E+04  0.17313675810E+04  0.81321184372E+02 0.  0.
    5000000    2    1    2    0    0  0.38211829504E+03  0.58063619021E+03 -0.58771396534E+03  0.10900431607E+04  0.59969459749E+03 0.  0.
        -24    2    4    4    0    0 -0.57915044436E+02  0.33260831445E+03 -0.43178770293E+03  0.55469545841E+03  0.85229032442E+02 0.  0.
         24    2    4    4    0    0  0.44003333948E+03  0.24802787576E+03 -0.15592626241E+03  0.53534770225E+03  0.84480743297E+02 0.  0.
         13    1    3    3    0    0 -0.14787909543E+03 -0.15826948418E+03 -0.51222816087E+03  0.55614309784E+03  0.00000000000E+00 0. -1.
        -14    1    3    3    0    0 -0.23423919961E+03 -0.42236670603E+03 -0.10713967280E+04  0.11752244831E+04  0.00000000000E+00 0.  1.
         15    1    5    5    0    0 -0.35771979403E+02  0.21274305037E+03 -0.20699087724E+03  0.29897762622E+03  0.17770000000E+01 0. -1.
        -16    1    5    5    0    0 -0.22143065033E+02  0.11986526408E+03 -0.22479682569E+03  0.25571783219E+03  0.00000000000E+00 0.  1.
          2    1    6    6  502    0  0.19439067964E+03  0.15328370758E+03 -0.56518682057E+02  0.25392517158E+03  0.00000000000E+00 0. -1.
         -1    1    6    6    0  502  0.24564265984E+03  0.94744168183E+02 -0.99407580357E+02  0.28142253067E+03  0.00000000000E+00 0.  1.
<mgrwt>
<rscale>  0 0.77402120E+03</rscale>
<asrwt>0</asrwt>
<pdfrwt beam="1">  1        1 0.50005529E-01 0.77402120E+03</pdfrwt>
<pdfrwt beam="2">  1       -2 0.38405767E+00 0.77402120E+03</pdfrwt>
<totfact> 0.68922363E-01</totfact>
</mgrwt>
</event>
<event>
12    3  0.1201947E-007  0.2179072E+04  0.7818608E-02  0.8527190E-01
         -2   -1    0    0    0  501 -0.00000000000E+00  0.00000000000E+00  0.28655491636E+04  0.28655491636E+04  0.00000000000E+00 0.  1.
          1   -1    0    0  501    0  0.00000000000E+00 -0.00000000000E+00 -0.17229608178E+04  0.17229608178E+04  0.00000000000E+00 0. -1.
        -24    2    1    2    0    0 -0.21661306249E+03 -0.21674363905E+04  0.66934414395E+03  0.22801366646E+04  0.79371912944E+02 0.  0.
    5000000    2    1    2    0    0  0.21661306249E+03  0.21674363905E+04  0.47324420187E+03  0.23083733169E+04  0.59993797148E+03 0.  0.
        -24    2    4    4    0    0  0.93361536550E+02  0.68467615368E+03  0.42971450064E+03  0.81772925788E+03  0.80800836715E+02 0.  0.
         24    2    4    4    0    0  0.12325152593E+03  0.14827602368E+04  0.43529701236E+02  0.14906440590E+04  0.79724632948E+02 0.  0.
         11    1    3    3    0    0 -0.12912968589E+03 -0.12786315227E+04  0.35401202850E+03  0.13330032119E+04  0.00000000000E+00 0. -1.
        -12    1    3    3    0    0 -0.87483376593E+02 -0.88880486777E+03  0.31533211545E+03  0.94713345268E+03  0.00000000000E+00 0.  1.
         15    1    5    5    0    0  0.21658071677E+02  0.24265987131E+03  0.19555907715E+03  0.31240901971E+03  0.17770000000E+01 0. -1.
        -16    1    5    5    0    0  0.71703464873E+02  0.44201628237E+03  0.23415542348E+03  0.50532023817E+03  0.00000000000E+00 0.  1.
          4    1    6    6  502    0  0.58099404948E+02  0.94624115395E+03  0.60135954765E+02  0.94992852118E+03  0.00000000000E+00 0. -1.
         -3    1    6    6    0  502  0.65152120987E+02  0.53651908287E+03 -0.16606253529E+02  0.54071553780E+03  0.00000000000E+00 0.  1.
<mgrwt>
<rscale>  0 0.21790721E+04</rscale>
<asrwt>0</asrwt>
<pdfrwt beam="1">  1        1 0.26507090E+00 0.21790721E+04</pdfrwt>
<pdfrwt beam="2">  1       -2 0.44085372E+00 0.21790721E+04</pdfrwt>
<totfact> 0.14015732E-02</totfact>
</mgrwt>
</event>
<event>
12    3  0.1201947E-007  0.6501693E+03  0.7818608E-02  0.9806461E-01
          1   -1    0    0  501    0  0.00000000000E+00  0.00000000000E+00  0.19062078917E+04  0.19062078917E+04  0.00000000000E+00 0. -1.
         -2   -1    0    0    0  501 -0.00000000000E+00 -0.00000000000E+00 -0.27596955733E+03  0.27596955733E+03  0.00000000000E+00 0.  1.
        -24    2    1    2    0    0 -0.50397345047E+03 -0.32157350922E+03  0.66216814597E+03  0.89590299428E+03  0.82321084825E+02 0.  0.
    5000000    2    1    2    0    0  0.50397345047E+03  0.32157350922E+03  0.96807018835E+03  0.12862744547E+04  0.59995276699E+03 0.  0.
        -24    2    4    4    0    0 -0.34273678960E+02  0.33527305519E+02 -0.45974789509E+02  0.10012065087E+03  0.74911268685E+02 0.  0.
         24    2    4    4    0    0  0.53824712943E+03  0.28804620370E+03  0.10140449779E+04  0.11861538038E+04  0.77414736276E+02 0.  0.
         11    1    3    3    0    0 -0.16171814563E+03 -0.59502682109E+02  0.19588930166E+03  0.26089451184E+03  0.00000000000E+00 0. -1.
        -12    1    3    3    0    0 -0.34225530484E+03 -0.26207082711E+03  0.46627884431E+03  0.63500848244E+03  0.00000000000E+00 0.  1.
         15    1    5    5    0    0 -0.29935625965E+02  0.56005687799E+02 -0.43714673562E+02  0.77116205699E+02  0.17770000000E+01 0. -1.
        -16    1    5    5    0    0 -0.43380529959E+01 -0.22478382279E+02 -0.22601159466E+01  0.23004445175E+02  0.00000000000E+00 0.  1.
          4    1    6    6  502    0  0.41992552457E+03  0.22085563135E+03  0.72168191776E+03  0.86367786038E+03  0.00000000000E+00 0. -1.
         -3    1    6    6    0  502  0.11832160486E+03  0.67190572353E+02  0.29236306010E+03  0.32247594345E+03  0.00000000000E+00 0.  1.
<mgrwt>
<rscale>  0 0.65016934E+03</rscale>
<asrwt>0</asrwt>
<pdfrwt beam="1">  1        1 0.29326274E+00 0.65016934E+03</pdfrwt>
<pdfrwt beam="2">  1       -2 0.42456856E-01 0.65016934E+03</pdfrwt>
<totfact> 0.16770799E+01</totfact>
</mgrwt>
</event>
<event>
12    3  0.1201947E-007  0.1371903E+04  0.7818608E-02  0.8974411E-01
         -2   -1    0    0    0  501 -0.00000000000E+00  0.00000000000E+00  0.17043782796E+04  0.17043782796E+04  0.00000000000E+00 0.  1.
          1   -1    0    0  501    0  0.00000000000E+00 -0.00000000000E+00 -0.12247469027E+04  0.12247469027E+04  0.00000000000E+00 0. -1.
        -24    2    1    2    0    0  0.83490453911E+03 -0.10298835336E+04 -0.16318376590E+03  0.13382065154E+04  0.80262408467E+02 0.  0.
    5000000    2    1    2    0    0 -0.83490453911E+03  0.10298835336E+04  0.64281514281E+03  0.15909186668E+04  0.60007100788E+03 0.  0.
        -24    2    4    4    0    0 -0.51276581562E+03  0.25305538150E+03  0.42974823884E+03  0.71970433232E+03  0.79529676177E+02 0.  0.
         24    2    4    4    0    0 -0.32213872349E+03  0.77682815209E+03  0.21306690397E+03  0.87121433452E+03  0.79884767414E+02 0.  0.
         13    1    3    3    0    0  0.28289164056E+03 -0.39796679102E+03 -0.83584776654E+02  0.49537022715E+03  0.00000000000E+00 0. -1.
        -14    1    3    3    0    0  0.55201289855E+03 -0.63191674257E+03 -0.79598989248E+02  0.84283628825E+03  0.00000000000E+00 0.  1.
         15    1    5    5    0    0 -0.16774941255E+03  0.99088401534E+02  0.19061686679E+03  0.27257352102E+03  0.17770000000E+01 0. -1.
        -16    1    5    5    0    0 -0.34501640308E+03  0.15396697997E+03  0.23913137205E+03  0.44713081130E+03  0.00000000000E+00 0.  1.
          4    1    6    6  502    0 -0.27762240389E+03  0.59437433280E+03  0.18259551382E+03  0.68095239797E+03  0.00000000000E+00 0. -1.
         -3    1    6    6    0  502 -0.44516319593E+02  0.18245381929E+03  0.30471390153E+02  0.19026193655E+03  0.00000000000E+00 0.  1.
<mgrwt>
<rscale>  0 0.13719034E+04</rscale>
<asrwt>0</asrwt>
<pdfrwt beam="1">  1        1 0.18842260E+00 0.13719034E+04</pdfrwt>
<pdfrwt beam="2">  1       -2 0.26221205E+00 0.13719034E+04</pdfrwt>
<totfact> 0.46546171E-01</totfact>
</mgrwt>
</event>
<event>
12    3  0.1201947E-007  0.6556944E+03  0.7818608E-02  0.9796152E-01
          1   -1    0    0  501    0  0.00000000000E+00  0.00000000000E+00  0.17421161945E+04  0.17421161945E+04  0.00000000000E+00 0. -1.
         -2   -1    0    0    0  501 -0.00000000000E+00 -0.00000000000E+00 -0.34576899754E+03  0.34576899754E+03  0.00000000000E+00 0.  1.
        -24    2    1    2    0    0  0.24058402499E+03  0.58911899385E+03  0.81742741114E+03  0.10388372221E+04  0.77803210256E+02 0.  0.
    5000000    2    1    2    0    0 -0.24058402499E+03 -0.58911899385E+03  0.57891978582E+03  0.10490479699E+04  0.60034295435E+03 0.  0.
        -24    2    4    4    0    0  0.11547992946E+02 -0.16822362272E+03 -0.96620312128E+02  0.21028218826E+03  0.80315444333E+02 0.  0.
         24    2    4    4    0    0 -0.25213201794E+03 -0.42089537112E+03  0.67554009795E+03  0.83876578169E+03  0.80312792843E+02 0.  0.
         11    1    3    3    0    0  0.18624926256E+02  0.11959196514E+03  0.13593014431E+03  0.18200585193E+03  0.00000000000E+00 0. -1.
        -12    1    3    3    0    0  0.22195909874E+03  0.46952702871E+03  0.68149726682E+03  0.85683137016E+03  0.00000000000E+00 0.  1.
         15    1    5    5    0    0  0.23703235600E+02 -0.37978846576E+02 -0.59164169466E+02  0.74214505608E+02  0.17770000000E+01 0. -1.
        -16    1    5    5    0    0 -0.12155242654E+02 -0.13024477615E+03 -0.37456142663E+02  0.13606768265E+03  0.00000000000E+00 0.  1.
          2    1    6    6  502    0 -0.34203551456E+02 -0.21468702366E+02  0.76601266949E+02  0.86594123424E+02  0.00000000000E+00 0. -1.
         -1    1    6    6    0  502 -0.21792846648E+03 -0.39942666876E+03  0.59893883100E+03  0.75217165827E+03  0.00000000000E+00 0.  1.
<mgrwt>
<rscale>  0 0.65569443E+03</rscale>
<asrwt>0</asrwt>
<pdfrwt beam="1">  1        1 0.26801787E+00 0.65569443E+03</pdfrwt>
<pdfrwt beam="2">  1       -2 0.53195231E-01 0.65569443E+03</pdfrwt>
<totfact> 0.13699474E+01</totfact>
</mgrwt>
</event>
<event>
12    3  0.1201947E-007  0.6760462E+03  0.7818608E-02  0.9759096E-01
          1   -1    0    0  501    0  0.00000000000E+00  0.00000000000E+00  0.82837744031E+03  0.82837744031E+03  0.00000000000E+00 0. -1.
         -2   -1    0    0    0  501 -0.00000000000E+00 -0.00000000000E+00 -0.88047139589E+03  0.88047139589E+03  0.00000000000E+00 0.  1.
        -24    2    1    2    0    0 -0.56822343670E+03  0.83429378079E+02  0.45385164757E+03  0.73625187267E+03  0.79039021165E+02 0.  0.
    5000000    2    1    2    0    0  0.56822343670E+03 -0.83429378079E+02 -0.50594560315E+03  0.97259696353E+03  0.60010462835E+03 0.  0.
        -24    2    4    4    0    0  0.22461106732E+03 -0.28691341845E+03 -0.41057912951E+03  0.55429460465E+03  0.76797434235E+02 0.  0.
         24    2    4    4    0    0  0.34361236938E+03  0.20348404037E+03 -0.95366473642E+02  0.41830235888E+03  0.80043013873E+02 0.  0.
         13    1    3    3    0    0 -0.30979024173E+03  0.56471311089E+01  0.24152500642E+03  0.39285647848E+03  0.00000000000E+00 0. -1.
        -14    1    3    3    0    0 -0.25843319497E+03  0.77782246970E+02  0.21232664115E+03  0.34339539418E+03  0.00000000000E+00 0.  1.
         15    1    5    5    0    0  0.12083293123E+03 -0.19531834558E+03 -0.21439104986E+03  0.31419187351E+03  0.17770000000E+01 0. -1.
        -16    1    5    5    0    0  0.10377813609E+03 -0.91595072871E+02 -0.19618807965E+03  0.24010273114E+03  0.00000000000E+00 0.  1.
          2    1    6    6  502    0  0.29018445449E+03  0.14280665051E+03 -0.55455100242E+02  0.32814025233E+03  0.00000000000E+00 0. -1.
         -1    1    6    6    0  502  0.53427914888E+02  0.60677389859E+02 -0.39911373400E+02  0.90162106542E+02  0.00000000000E+00 0.  1.
<mgrwt>
<rscale>  0 0.67604625E+03</rscale>
<asrwt>0</asrwt>
<pdfrwt beam="1">  1        1 0.12744268E+00 0.67604625E+03</pdfrwt>
<pdfrwt beam="2">  1       -2 0.13545714E+00 0.67604625E+03</pdfrwt>
<totfact> 0.73919576E+00</totfact>
</mgrwt>
</event>
<event>
12    3  0.1201947E-007  0.5662798E+03  0.7818608E-02  0.9977945E-01
          1   -1    0    0  501    0  0.00000000000E+00  0.00000000000E+00  0.17073275937E+04  0.17073275937E+04  0.00000000000E+00 0. -1.
         -2   -1    0    0    0  501 -0.00000000000E+00 -0.00000000000E+00 -0.21274430929E+03  0.21274430929E+03  0.00000000000E+00 0.  1.
        -24    2    1    2    0    0  0.39791249674E+03 -0.15609819367E+03  0.34492346125E+03  0.55467881997E+03  0.77429955949E+02 0.  0.
    5000000    2    1    2    0    0 -0.39791249674E+03  0.15609819367E+03  0.11496598231E+04  0.13653930830E+04  0.59989962578E+03 0.  0.
        -24    2    4    4    0    0 -0.13010974614E+03 -0.20805805720E+03  0.26988306118E+03  0.37287475898E+03  0.77343506293E+02 0.  0.
         24    2    4    4    0    0 -0.26780275060E+03  0.36415625088E+03  0.87977676196E+03  0.99251832401E+03  0.82203310948E+02 0.  0.
         13    1    3    3    0    0  0.22838789429E+03 -0.60826501526E+02  0.15358073872E+03  0.28186510400E+03  0.00000000000E+00 0. -1.
        -14    1    3    3    0    0  0.16952460245E+03 -0.95271692148E+02  0.19134272252E+03  0.27281371597E+03  0.00000000000E+00 0.  1.
         15    1    5    5    0    0 -0.44982533217E+02 -0.41885969709E+02  0.28672653350E+02  0.67846455561E+02  0.17770000000E+01 0. -1.
        -16    1    5    5    0    0 -0.85127212926E+02 -0.16617208749E+03  0.24121040783E+03  0.30502830342E+03  0.00000000000E+00 0.  1.
          2    1    6    6  502    0 -0.14789920085E+03  0.23175058097E+03  0.45345913279E+03  0.53029019461E+03  0.00000000000E+00 0. -1.
         -1    1    6    6    0  502 -0.11990354975E+03  0.13240566991E+03  0.42631762917E+03  0.46222812940E+03  0.00000000000E+00 0.  1.
<mgrwt>
<rscale>  0 0.56627980E+03</rscale>
<asrwt>0</asrwt>
<pdfrwt beam="1">  1        1 0.26266577E+00 0.56627980E+03</pdfrwt>
<pdfrwt beam="2">  1       -2 0.32729895E-01 0.56627980E+03</pdfrwt>
<totfact> 0.37987187E+01</totfact>
</mgrwt>
</event>
<event>
12    3  0.1201947E-007  0.8329175E+03  0.7818608E-02  0.9513556E-01
          1   -1    0    0  501    0  0.00000000000E+00  0.00000000000E+00  0.49188934579E+03  0.49188934579E+03  0.00000000000E+00 0. -1.
         -2   -1    0    0    0  501 -0.00000000000E+00 -0.00000000000E+00 -0.15337998746E+04  0.15337998746E+04  0.00000000000E+00 0.  1.
        -24    2    1    2    0    0 -0.72702531724E+03  0.73800596862E+02 -0.20866956715E+03  0.76536651360E+03  0.90722499285E+02 0.  0.
    5000000    2    1    2    0    0  0.72702531724E+03 -0.73800596862E+02 -0.83324096165E+03  0.12603227068E+04  0.60009206380E+03 0.  0.
        -24    2    4    4    0    0  0.15842977817E+03  0.23513095472E+03 -0.26843453705E+03  0.39850735322E+03  0.79777499423E+02 0.  0.
         24    2    4    4    0    0  0.56859553907E+03 -0.30893155158E+03 -0.56480642460E+03  0.86181535356E+03  0.70567809529E+02 0.  0.
         11    1    3    3    0    0 -0.56650843307E+03  0.86130417173E+02 -0.13713721507E+03  0.58920019455E+03  0.00000000000E+00 0. -1.
        -12    1    3    3    0    0 -0.16051688418E+03 -0.12329820311E+02 -0.71532352076E+02  0.17616631905E+03  0.00000000000E+00 0.  1.
         15    1    5    5    0    0  0.76020764258E+02  0.96277976759E+02 -0.16915098588E+03  0.20895889347E+03  0.17770000000E+01 0. -1.
        -16    1    5    5    0    0  0.82409013912E+02  0.13885297796E+03 -0.99283551170E+02  0.18954845975E+03  0.00000000000E+00 0.  1.
          2    1    6    6  502    0  0.44890692118E+03 -0.23104686150E+03 -0.40289212873E+03  0.64592735155E+03  0.00000000000E+00 0. -1.
         -1    1    6    6    0  502  0.11968861789E+03 -0.77884690081E+02 -0.16191429587E+03  0.21588800201E+03  0.00000000000E+00 0.  1.
<mgrwt>
<rscale>  0 0.83291751E+03</rscale>
<asrwt>0</asrwt>
<pdfrwt beam="1">  1        1 0.75675285E-01 0.83291751E+03</pdfrwt>
<pdfrwt beam="2">  1       -2 0.23596921E+00 0.83291751E+03</pdfrwt>
<totfact> 0.31775964E+00</totfact>
</mgrwt>
</event>
<event>
12    3  0.1201947E-007  0.5511229E+03  0.7818608E-02  0.1001234E+00
          1   -1    0    0  501    0  0.00000000000E+00  0.00000000000E+00  0.12210152357E+04  0.12210152357E+04  0.00000000000E+00 0. -1.
         -2   -1    0    0    0  501 -0.00000000000E+00 -0.00000000000E+00 -0.48240922732E+03  0.48240922732E+03  0.00000000000E+00 0.  1.
        -24    2    1    2    0    0 -0.25585053543E+03  0.29188440679E+03 -0.26340526127E+03  0.47242925335E+03  0.56134341999E+02 0.  0.
    5000000    2    1    2    0    0  0.25585053543E+03 -0.29188440679E+03  0.10020112696E+04  0.12309952097E+04  0.60055525834E+03 0.  0.
        -24    2    4    4    0    0  0.41199108268E+03 -0.59740704338E+02  0.57084532836E+03  0.71097798680E+03  0.79496571250E+02 0.  0.
         24    2    4    4    0    0 -0.15614054725E+03 -0.23214370245E+03  0.43116594128E+03  0.52001722286E+03  0.79014391534E+02 0.  0.
         11    1    3    3    0    0 -0.74974284460E+02  0.11839898487E+03 -0.75494116482E+02  0.15918173442E+03  0.00000000000E+00 0. -1.
        -12    1    3    3    0    0 -0.18087625097E+03  0.17348542192E+03 -0.18791114479E+03  0.31324751893E+03  0.00000000000E+00 0.  1.
         15    1    5    5    0    0  0.18388599679E+03  0.39576044290E+01  0.20779764404E+03  0.27751169534E+03  0.17770000000E+01 0. -1.
        -16    1    5    5    0    0  0.22810508588E+03 -0.63698308767E+02  0.36304768432E+03  0.43346629146E+03  0.00000000000E+00 0.  1.
          2    1    6    6  502    0 -0.57857170678E+02 -0.28296459967E+02  0.94549314596E+02  0.11440155041E+03  0.00000000000E+00 0. -1.
         -1    1    6    6    0  502 -0.98283376574E+02 -0.20384724248E+03  0.33661662668E+03  0.40561567245E+03  0.00000000000E+00 0.  1.
<mgrwt>
<rscale>  0 0.55112288E+03</rscale>
<asrwt>0</asrwt>
<pdfrwt beam="1">  1        1 0.18784850E+00 0.55112288E+03</pdfrwt>
<pdfrwt beam="2">  1       -2 0.74216805E-01 0.55112288E+03</pdfrwt>
<totfact> 0.15607208E+01</totfact>
</mgrwt>
</event>
<event>
12    3  0.1201947E-007  0.1213864E+04  0.7818608E-02  0.9100808E-01
         -2   -1    0    0    0  501 -0.00000000000E+00  0.00000000000E+00  0.50517540966E+03  0.50517540966E+03  0.00000000000E+00 0.  1.
          1   -1    0    0  501    0  0.00000000000E+00 -0.00000000000E+00 -0.35181690912E+04  0.35181690912E+04  0.00000000000E+00 0. -1.
        -24    2    1    2    0    0  0.66189549194E+03 -0.93448962218E+03 -0.22400123146E+04  0.25170332878E+04  0.80155512501E+02 0.  0.
    5000000    2    1    2    0    0 -0.66189549194E+03  0.93448962218E+03 -0.77298136689E+03  0.15063112130E+04  0.60008064512E+03 0.  0.
        -24    2    4    4    0    0 -0.18476936779E+03  0.73113581097E+03 -0.37751795474E+03  0.84679110114E+03  0.76394171607E+02 0.  0.
         24    2    4    4    0    0 -0.47712612415E+03  0.20335381121E+03 -0.39546341215E+03  0.65952011186E+03  0.97843531879E+02 0.  0.
         13    1    3    3    0    0  0.30787309568E+03 -0.46068723293E+03 -0.11650317286E+04  0.12900842989E+04  0.00000000000E+00 0. -1.
        -14    1    3    3    0    0  0.35402239625E+03 -0.47380238925E+03 -0.10749805860E+04  0.12269489889E+04  0.00000000000E+00 0.  1.
         15    1    5    5    0    0 -0.11164462225E+03  0.29311867130E+03 -0.16670423968E+03  0.35521337024E+03  0.17770000000E+01 0. -1.
        -16    1    5    5    0    0 -0.73124745547E+02  0.43801713967E+03 -0.21081371506E+03  0.49157773090E+03  0.00000000000E+00 0.  1.
          4    1    6    6  502    0 -0.27237553699E+02  0.34372934574E+02 -0.14276454318E+02  0.46121579663E+02  0.00000000000E+00 0. -1.
         -3    1    6    6    0  502 -0.44988857045E+03  0.16898087663E+03 -0.38118695783E+03  0.61339853220E+03  0.00000000000E+00 0.  1.
<mgrwt>
<rscale>  0 0.12138636E+04</rscale>
<asrwt>0</asrwt>
<pdfrwt beam="1">  1        1 0.54125678E+00 0.12138636E+04</pdfrwt>
<pdfrwt beam="2">  1       -2 0.77719295E-01 0.12138636E+04</pdfrwt>
<totfact> 0.31369338E-01</totfact>
</mgrwt>
</event>
<event>
12    3  0.1201947E-007  0.7249296E+03  0.7818608E-02  0.9675524E-01
          1   -1    0    0  501    0  0.00000000000E+00  0.00000000000E+00  0.15958142626E+04  0.15958142626E+04  0.00000000000E+00 0. -1.
         -2   -1    0    0    0  501 -0.00000000000E+00 -0.00000000000E+00 -0.37753409452E+03  0.37753409452E+03  0.00000000000E+00 0.  1.
        -24    2    1    2    0    0 -0.51358996544E+03 -0.31799173126E+03  0.84974154099E+03  0.10456610043E+04  0.80329669027E+02 0.  0.
    5000000    2    1    2    0    0  0.51358996544E+03  0.31799173126E+03  0.36853862704E+03  0.92768735275E+03  0.59990808553E+03 0.  0.
        -24    2    4    4    0    0  0.61793648415E+03  0.34993651305E+03  0.30270612038E+03  0.77586911436E+03  0.77722748818E+02 0.  0.
         24    2    4    4    0    0 -0.10434651871E+03 -0.31944781786E+02  0.65832506657E+02  0.15181823840E+03  0.82499657737E+02 0.  0.
         11    1    3    3    0    0 -0.34719463387E+03 -0.25771097133E+03  0.60641742878E+03  0.74478262363E+03  0.00000000000E+00 0. -1.
        -12    1    3    3    0    0 -0.16639533157E+03 -0.60280759934E+02  0.24332411221E+03  0.30087838069E+03  0.00000000000E+00 0.  1.
         15    1    5    5    0    0  0.24925005853E+03  0.12537925214E+03  0.80761075121E+02  0.29046696461E+03  0.17770000000E+01 0. -1.
        -16    1    5    5    0    0  0.36868642562E+03  0.22455726091E+03  0.22194504526E+03  0.48540214975E+03  0.00000000000E+00 0.  1.
          4    1    6    6  502    0 -0.54723862335E+02 -0.52726572668E+02  0.61654934586E+02  0.97857669771E+02  0.00000000000E+00 0. -1.
         -3    1    6    6    0  502 -0.49622656375E+02  0.20781790882E+02  0.41775720713E+01  0.53960568625E+02  0.00000000000E+00 0.  1.
<mgrwt>
<rscale>  0 0.72492965E+03</rscale>
<asrwt>0</asrwt>
<pdfrwt beam="1">  1        1 0.24550988E+00 0.72492965E+03</pdfrwt>
<pdfrwt beam="2">  1       -2 0.58082169E-01 0.72492965E+03</pdfrwt>
<totfact> 0.14174325E+01</totfact>
</mgrwt>
</event>
<event>
12    3  0.1201947E-007  0.1310320E+04  0.7818608E-02  0.9021421E-01
          1   -1    0    0  501    0  0.00000000000E+00  0.00000000000E+00  0.38318748855E+04  0.38318748855E+04  0.00000000000E+00 0. -1.
         -2   -1    0    0    0  501 -0.00000000000E+00 -0.00000000000E+00 -0.86629175447E+03  0.86629175447E+03  0.00000000000E+00 0.  1.
        -24    2    1    2    0    0  0.68544098334E+03 -0.10920896451E+04  0.30098442251E+04  0.32753284123E+04  0.78261194421E+02 0.  0.
    5000000    2    1    2    0    0 -0.68544098334E+03  0.10920896451E+04 -0.44261094011E+02  0.14228382277E+04  0.60001703575E+03 0.  0.
        -24    2    4    4    0    0 -0.49788710098E+03  0.51216682552E+03  0.22381075247E+03  0.75237524586E+03  0.75966013307E+02 0.  0.
         24    2    4    4    0    0 -0.18755388237E+03  0.57992281959E+03 -0.26807184648E+03  0.67046298185E+03  0.78556729065E+02 0.  0.
         11    1    3    3    0    0  0.43662291058E+03 -0.76258162080E+03  0.20681152433E+04  0.22470582890E+04  0.00000000000E+00 0. -1.
        -12    1    3    3    0    0  0.24881807277E+03 -0.32950802432E+03  0.94172898172E+03  0.10282701233E+04  0.00000000000E+00 0.  1.
         15    1    5    5    0    0 -0.22094144876E+03  0.24111441607E+03  0.64223651168E+02  0.33328534399E+03  0.17770000000E+01 0. -1.
        -16    1    5    5    0    0 -0.27694565222E+03  0.27105240945E+03  0.15958710130E+03  0.41908990188E+03  0.00000000000E+00 0.  1.
          2    1    6    6  502    0 -0.68112898033E+02  0.33627724029E+03 -0.15524403155E+03  0.37659322690E+03  0.00000000000E+00 0. -1.
         -1    1    6    6    0  502 -0.11944098433E+03  0.24364557930E+03 -0.11282781493E+03  0.29386975495E+03  0.00000000000E+00 0.  1.
<mgrwt>
<rscale>  0 0.13103197E+04</rscale>
<asrwt>0</asrwt>
<pdfrwt beam="1">  1        1 0.58951920E+00 0.13103197E+04</pdfrwt>
<pdfrwt beam="2">  1       -2 0.13327566E+00 0.13103197E+04</pdfrwt>
<totfact> 0.47240650E-02</totfact>
</mgrwt>
</event>
<event>
12    3  0.1201947E-007  0.8789828E+03  0.7818608E-02  0.9452242E-01
          1   -1    0    0  501    0  0.00000000000E+00  0.00000000000E+00  0.11911438020E+04  0.11911438020E+04  0.00000000000E+00 0. -1.
         -4   -1    0    0    0  501 -0.00000000000E+00 -0.00000000000E+00 -0.87059018549E+03  0.87059018549E+03  0.00000000000E+00 0.  1.
        -24    2    1    2    0    0 -0.39954056822E+03 -0.72738998427E+03 -0.27366927116E+03  0.87749533166E+03  0.79839415305E+02 0.  0.
    5000000    2    1    2    0    0  0.39954056822E+03  0.72738998427E+03  0.59422288769E+03  0.11842386558E+04  0.60049271341E+03 0.  0.
        -24    2    4    4    0    0  0.15053255339E+03  0.64036345748E+03  0.62643577063E+03  0.91194708066E+03  0.80624412484E+02 0.  0.
         24    2    4    4    0    0  0.24900801484E+03  0.87026526788E+02 -0.32212882940E+02  0.27229157518E+03  0.59383703747E+02 0.  0.
         11    1    3    3    0    0 -0.39939767867E+02 -0.51057125061E+02 -0.23207362325E+01  0.64864480985E+02  0.00000000000E+00 0. -1.
        -12    1    3    3    0    0 -0.35960080036E+03 -0.67633285921E+03 -0.27134853493E+03  0.81263085068E+03  0.00000000000E+00 0.  1.
         15    1    5    5    0    0  0.10524378005E+03  0.51756753096E+03  0.46143181430E+03  0.70133792092E+03  0.17770000000E+01 0. -1.
        -16    1    5    5    0    0  0.45288773340E+02  0.12279592652E+03  0.16500395633E+03  0.21060915974E+03  0.00000000000E+00 0.  1.
          2    1    6    6  502    0  0.25695125840E+02  0.26120716991E+02 -0.16802756822E+02  0.40309601647E+02  0.00000000000E+00 0. -1.
         -1    1    6    6    0  502  0.22331288900E+03  0.60905809797E+02 -0.15410126118E+02  0.23198197354E+03  0.00000000000E+00 0.  1.
<mgrwt>
<rscale>  0 0.87898282E+03</rscale>
<asrwt>0</asrwt>
<pdfrwt beam="1">  1        1 0.18325289E+00 0.87898282E+03</pdfrwt>
<pdfrwt beam="2">  1       -4 0.13393695E+00 0.87898282E+03</pdfrwt>
<totfact> 0.20895729E+00</totfact>
</mgrwt>
</event>
<event>
12    3  0.1201947E-007  0.1912753E+04  0.7818608E-02  0.8648534E-01
         -4   -1    0    0    0  501 -0.00000000000E+00  0.00000000000E+00  0.12873745220E+04  0.12873745220E+04  0.00000000000E+00 0.  1.
          1   -1    0    0  501    0  0.00000000000E+00 -0.00000000000E+00 -0.28885309578E+04  0.28885309578E+04  0.00000000000E+00 0. -1.
        -24    2    1    2    0    0  0.72038185828E+03  0.17323426448E+04 -0.92652295418E+03  0.20938035100E+04  0.74881859922E+02 0.  0.
    5000000    2    1    2    0    0 -0.72038185828E+03 -0.17323426448E+04 -0.67463348159E+03  0.20821019698E+04  0.60004767925E+03 0.  0.
        -24    2    4    4    0    0  0.64460459683E+02 -0.29305125554E+03 -0.21358288594E+03  0.37692690582E+03  0.80137718508E+02 0.  0.
         24    2    4    4    0    0 -0.78484231796E+03 -0.14392913893E+04 -0.46105059565E+03  0.17051750640E+04  0.86701671024E+02 0.  0.
         11    1    3    3    0    0  0.66658391153E+03  0.16468264062E+04 -0.87622568357E+03  0.19809449189E+04  0.00000000000E+00 0. -1.
        -12    1    3    3    0    0  0.53797946749E+02  0.85516238626E+02 -0.50297270602E+02  0.11285859105E+03  0.00000000000E+00 0.  1.
         15    1    5    5    0    0  0.69697690657E+02 -0.17541812250E+03 -0.10132650516E+03  0.21424169566E+03  0.17770000000E+01 0. -1.
        -16    1    5    5    0    0 -0.52372309736E+01 -0.11763313305E+03 -0.11225638078E+03  0.16268521016E+03  0.00000000000E+00 0.  1.
          2    1    6    6  502    0 -0.76378259785E+03 -0.13653903848E+04 -0.43225808458E+03  0.16231148485E+04  0.00000000000E+00 0. -1.
         -1    1    6    6    0  502 -0.21059720114E+02 -0.73901004454E+02 -0.28792511069E+02  0.82060215478E+02  0.00000000000E+00 0.  1.
<mgrwt>
<rscale>  0 0.19127527E+04</rscale>
<asrwt>0</asrwt>
<pdfrwt beam="1">  1        1 0.44438938E+00 0.19127527E+04</pdfrwt>
<pdfrwt beam="2">  1       -4 0.19805762E+00 0.19127527E+04</pdfrwt>
<totfact> 0.42381960E-02</totfact>
</mgrwt>
</event>
<event>
12    3  0.1201947E-007  0.1220812E+04  0.7818608E-02  0.9094832E-01
          1   -1    0    0  501    0  0.00000000000E+00  0.00000000000E+00  0.20365679174E+04  0.20365679174E+04  0.00000000000E+00 0. -1.
         -2   -1    0    0    0  501 -0.00000000000E+00 -0.00000000000E+00 -0.17185652055E+04  0.17185652055E+04  0.00000000000E+00 0.  1.
        -24    2    1    2    0    0  0.10070529394E+04  0.56694650123E+03  0.15682936497E+04  0.19498118625E+04  0.81470052473E+02 0.  0.
    5000000    2    1    2    0    0 -0.10070529394E+04 -0.56694650123E+03 -0.12502909378E+04  0.18053212604E+04  0.60031114096E+03 0.  0.
        -24    2    4    4    0    0 -0.99411051947E+03 -0.64200726039E+03 -0.11880996053E+04  0.16781275952E+04  0.64050808890E+02 0.  0.
         24    2    4    4    0    0 -0.12942419911E+02  0.75060759161E+02 -0.62191332486E+02  0.12719366521E+03  0.80677399773E+02 0.  0.
         11    1    3    3    0    0  0.36517716578E+03  0.19655174271E+03  0.62820629335E+03  0.75274836232E+03  0.00000000000E+00 0. -1.
        -12    1    3    3    0    0  0.64187577360E+03  0.37039475852E+03  0.94008735635E+03  0.11970635002E+04  0.00000000000E+00 0.  1.
         15    1    5    5    0    0 -0.27131219106E+03 -0.18774800094E+03 -0.29406378068E+03  0.44196864336E+03  0.17770000000E+01 0. -1.
        -16    1    5    5    0    0 -0.72279832841E+03 -0.45425925944E+03 -0.89403582467E+03  0.12361589518E+04  0.00000000000E+00 0.  1.
          2    1    6    6  502    0  0.24672258305E+02  0.91602754408E+01 -0.40454701349E+02  0.48261929481E+02  0.00000000000E+00 0. -1.
         -1    1    6    6    0  502 -0.37614678216E+02  0.65900483720E+02 -0.21736631137E+02  0.78931735728E+02  0.00000000000E+00 0.  1.
<mgrwt>
<rscale>  0 0.12208119E+04</rscale>
<asrwt>0</asrwt>
<pdfrwt beam="1">  1        1 0.31331814E+00 0.12208119E+04</pdfrwt>
<pdfrwt beam="2">  1       -2 0.26439465E+00 0.12208119E+04</pdfrwt>
<totfact> 0.12627476E-01</totfact>
</mgrwt>
</event>
<event>
12    3  0.1201947E-007  0.3736134E+03  0.7818608E-02  0.1053320E+00
         -2   -1    0    0    0  501 -0.00000000000E+00  0.00000000000E+00  0.49778688282E+03  0.49778688282E+03  0.00000000000E+00 0.  1.
          1   -1    0    0  501    0  0.00000000000E+00 -0.00000000000E+00 -0.37726166122E+03  0.37726166122E+03  0.00000000000E+00 0. -1.
        -24    2    1    2    0    0 -0.13071862399E+03  0.17189199417E+03  0.23391689549E+02  0.23011063096E+03  0.75957323714E+02 0.  0.
    5000000    2    1    2    0    0  0.13071862399E+03 -0.17189199417E+03  0.97133532047E+02  0.64493791308E+03  0.59989646803E+03 0.  0.
        -24    2    4    4    0    0 -0.17177265345E+03  0.16962279244E+02  0.18822806002E+03  0.26792683982E+03  0.81002626655E+02 0.  0.
         24    2    4    4    0    0  0.30249127744E+03 -0.18885427341E+03 -0.91094527975E+02  0.37701107326E+03  0.81683699820E+02 0.  0.
         11    1    3    3    0    0 -0.52474468635E+02  0.90637343694E+02 -0.24505351956E+02  0.10756026313E+03  0.00000000000E+00 0. -1.
        -12    1    3    3    0    0 -0.78244155358E+02  0.81254650473E+02  0.47897041505E+02  0.12255036783E+03  0.00000000000E+00 0.  1.
         15    1    5    5    0    0 -0.17261526633E+02  0.25198330279E+01 -0.66987960052E+01  0.18770760696E+02  0.17770000000E+01 0. -1.
        -16    1    5    5    0    0 -0.15451112682E+03  0.14442446217E+02  0.19492685603E+03  0.24915607912E+03  0.00000000000E+00 0.  1.
          2    1    6    6  502    0  0.25659509108E+02 -0.10903911303E+02 -0.32366968440E+02  0.42719156538E+02  0.00000000000E+00 0. -1.
         -1    1    6    6    0  502  0.27683176834E+03 -0.17795036211E+03 -0.58727559535E+02  0.33429191672E+03  0.00000000000E+00 0.  1.
<mgrwt>
<rscale>  0 0.37361343E+03</rscale>
<asrwt>0</asrwt>
<pdfrwt beam="1">  1        1 0.58040255E-01 0.37361343E+03</pdfrwt>
<pdfrwt beam="2">  1       -2 0.76582598E-01 0.37361343E+03</pdfrwt>
<totfact> 0.90023928E+01</totfact>
</mgrwt>
</event>
<event>
12    3  0.1201947E-007  0.4530174E+03  0.7818608E-02  0.1026826E+00
         -2   -1    0    0    0  501 -0.00000000000E+00  0.00000000000E+00  0.55190990110E+03  0.55190990110E+03  0.00000000000E+00 0.  1.
          1   -1    0    0  501    0  0.00000000000E+00 -0.00000000000E+00 -0.43194637352E+03  0.43194637352E+03  0.00000000000E+00 0. -1.
        -24    2    1    2    0    0  0.19569083402E+03 -0.18220059458E+03 -0.92557533401E+02  0.29336669005E+03  0.77492958757E+02 0.  0.
    5000000    2    1    2    0    0 -0.19569083402E+03  0.18220059458E+03  0.21252106098E+03  0.69048958458E+03  0.60009891340E+03 0.  0.
        -24    2    4    4    0    0 -0.26246342098E+03  0.35902077382E+03  0.14289407340E+03  0.47379949789E+03  0.79273479810E+02 0.  0.
         24    2    4    4    0    0  0.66772586957E+02 -0.17682017924E+03  0.69626987576E+02  0.21669008668E+03  0.79891940216E+02 0.  0.
         13    1    3    3    0    0  0.15477160020E+03 -0.15937231153E+03 -0.45126111218E+02  0.22669395189E+03  0.00000000000E+00 0. -1.
        -14    1    3    3    0    0  0.40919233827E+02 -0.22828283055E+02 -0.47431422183E+02  0.66672738166E+02  0.00000000000E+00 0.  1.
         15    1    5    5    0    0 -0.25046622536E+03  0.33030579495E+03  0.11078155129E+03  0.42908152845E+03  0.17770000000E+01 0. -1.
        -16    1    5    5    0    0 -0.11997195622E+02  0.28714978876E+02  0.32112522117E+02  0.44717969446E+02  0.00000000000E+00 0.  1.
          2    1    6    6  502    0  0.23198802621E+02 -0.10356980956E+03 -0.78067464484E+00  0.10613905666E+03  0.00000000000E+00 0. -1.
         -1    1    6    6    0  502  0.43573784336E+02 -0.73250369679E+02  0.70407662221E+02  0.11055103002E+03  0.00000000000E+00 0.  1.
<mgrwt>
<rscale>  0 0.45301742E+03</rscale>
<asrwt>0</asrwt>
<pdfrwt beam="1">  1        1 0.66453288E-01 0.45301742E+03</pdfrwt>
<pdfrwt beam="2">  1       -2 0.84909215E-01 0.45301742E+03</pdfrwt>
<totfact> 0.59448554E+01</totfact>
</mgrwt>
</event>
<event>
12    3  0.1201947E-007  0.7905739E+03  0.7818608E-02  0.9573762E-01
         -2   -1    0    0    0  501 -0.00000000000E+00  0.00000000000E+00  0.95446234008E+03  0.95446234008E+03  0.00000000000E+00 0.  1.
          1   -1    0    0  501    0  0.00000000000E+00 -0.00000000000E+00 -0.82634919475E+03  0.82634919475E+03  0.00000000000E+00 0. -1.
        -24    2    1    2    0    0  0.17005731032E+03  0.69097532837E+03 -0.27441484868E+03  0.76673393661E+03  0.78810070249E+02 0.  0.
    5000000    2    1    2    0    0 -0.17005731032E+03 -0.69097532837E+03  0.40252799401E+03  0.10140775982E+04  0.59996516235E+03 0.  0.
        -24    2    4    4    0    0 -0.49591552137E+02 -0.71388505251E+03  0.46210221666E+03  0.85558911759E+03  0.80019305610E+02 0.  0.
         24    2    4    4    0    0 -0.12046575818E+03  0.22909724135E+02 -0.59574222648E+02  0.15848848063E+03  0.80824848485E+02 0.  0.
         13    1    3    3    0    0  0.14843261895E+03  0.44698145495E+03 -0.18264748883E+03  0.50515816198E+03  0.00000000000E+00 0. -1.
        -14    1    3    3    0    0  0.21624691371E+02  0.24399387342E+03 -0.91767359849E+02  0.26157577463E+03  0.00000000000E+00 0.  1.
         15    1    5    5    0    0 -0.68517720571E+02 -0.59183679794E+03  0.36754307153E+03  0.70004038497E+03  0.17770000000E+01 0. -1.
        -16    1    5    5    0    0  0.18926168434E+02 -0.12204825457E+03  0.94559145125E+02  0.15554873263E+03  0.00000000000E+00 0.  1.
          2    1    6    6  502    0 -0.12521647417E+03  0.37386828592E+02 -0.58612821668E+02  0.14322151800E+03  0.00000000000E+00 0. -1.
         -1    1    6    6    0  502  0.47507159869E+01 -0.14477104457E+02 -0.96140097962E+00  0.15266962622E+02  0.00000000000E+00 0.  1.
<mgrwt>
<rscale>  0 0.79057390E+03</rscale>
<asrwt>0</asrwt>
<pdfrwt beam="1">  1        1 0.12713064E+00 0.79057390E+03</pdfrwt>
<pdfrwt beam="2">  1       -2 0.14684036E+00 0.79057390E+03</pdfrwt>
<totfact> 0.59333208E+00</totfact>
</mgrwt>
</event>
<event>
12    3  0.1201947E-007  0.1330283E+04  0.7818608E-02  0.9005889E-01
         -2   -1    0    0    0  501 -0.00000000000E+00  0.00000000000E+00  0.13717008153E+04  0.13717008153E+04  0.00000000000E+00 0.  1.
          1   -1    0    0  501    0  0.00000000000E+00 -0.00000000000E+00 -0.13188086385E+04  0.13188086385E+04  0.00000000000E+00 0. -1.
        -24    2    1    2    0    0  0.12419759680E+04 -0.29202977714E+03 -0.21428429191E+02  0.12786075737E+04  0.81193929298E+02 0.  0.
    5000000    2    1    2    0    0 -0.12419759680E+04  0.29202977714E+03  0.74320606018E+02  0.14119018801E+04  0.60013137772E+03 0.  0.
        -24    2    4    4    0    0 -0.31129250786E+03  0.31571933609E+03 -0.92393796271E+02  0.46286491391E+03  0.95527955670E+02 0.  0.
         24    2    4    4    0    0 -0.93068346017E+03 -0.23689558947E+02  0.16671440229E+03  0.94903696614E+03  0.78387326351E+02 0.  0.
         13    1    3    3    0    0  0.85836242871E+03 -0.20903880703E+03 -0.51646639669E+02  0.88495799746E+03  0.00000000000E+00 0. -1.
        -14    1    3    3    0    0  0.38361353931E+03 -0.82990970104E+02  0.30218210478E+02  0.39364957628E+03  0.00000000000E+00 0.  1.
         15    1    5    5    0    0 -0.25313778091E+03  0.29695121170E+03 -0.63766234598E+02  0.39538341980E+03  0.17770000000E+01 0. -1.
        -16    1    5    5    0    0 -0.58154726955E+02  0.18768124388E+02 -0.28627561672E+02  0.67481494112E+02  0.00000000000E+00 0.  1.
          2    1    6    6  502    0 -0.85768481126E+03 -0.39541916184E+01  0.14126170704E+03  0.86924895224E+03  0.00000000000E+00 0. -1.
         -1    1    6    6    0  502 -0.72998648908E+02 -0.19735367329E+02  0.25452695251E+02  0.79788013896E+02  0.00000000000E+00 0.  1.
<mgrwt>
<rscale>  0 0.13302834E+04</rscale>
<asrwt>0</asrwt>
<pdfrwt beam="1">  1        1 0.20289364E+00 0.13302834E+04</pdfrwt>
<pdfrwt beam="2">  1       -2 0.21103089E+00 0.13302834E+04</pdfrwt>
<totfact> 0.83312635E-01</totfact>
</mgrwt>
</event>
<event>
12    3  0.1201947E-007  0.9791512E+03  0.7818608E-02  0.9331712E-01
         -2   -1    0    0    0  501 -0.00000000000E+00  0.00000000000E+00  0.17867480562E+04  0.17867480562E+04  0.00000000000E+00 0.  1.
          1   -1    0    0  501    0  0.00000000000E+00 -0.00000000000E+00 -0.65806872861E+03  0.65806872861E+03  0.00000000000E+00 0. -1.
        -24    2    1    2    0    0 -0.48562980904E+03  0.81693891672E+03  0.17273363714E+03  0.96933595251E+03  0.80930676166E+02 0.  0.
    5000000    2    1    2    0    0  0.48562980904E+03 -0.81693891672E+03  0.95594569049E+03  0.14754808323E+04  0.59998834854E+03 0.  0.
        -24    2    4    4    0    0  0.52098278356E+03 -0.65144427702E+03  0.97664107484E+03  0.12869671832E+04  0.81572266778E+02 0.  0.
         24    2    4    4    0    0 -0.35352974521E+02 -0.16549463971E+03 -0.20695384357E+02  0.18851364916E+03  0.80441210877E+02 0.  0.
         11    1    3    3    0    0 -0.68759356442E+02  0.14141124076E+03  0.13606128048E+01  0.15724770071E+03  0.00000000000E+00 0. -1.
        -12    1    3    3    0    0 -0.41687045259E+03  0.67552767596E+03  0.17137302434E+03  0.81208825180E+03  0.00000000000E+00 0.  1.
         15    1    5    5    0    0  0.39554684473E+03 -0.52133665668E+03  0.71851702067E+03  0.97186371611E+03  0.17770000000E+01 0. -1.
        -16    1    5    5    0    0  0.12543593883E+03 -0.13010762033E+03  0.25812405417E+03  0.31510346707E+03  0.00000000000E+00 0.  1.
          2    1    6    6  502    0 -0.10319931632E+02 -0.11786831722E+03 -0.48590276649E+02  0.12790799888E+03  0.00000000000E+00 0. -1.
         -1    1    6    6    0  502 -0.25033042889E+02 -0.47626322490E+02  0.27894892292E+02  0.60605650283E+02  0.00000000000E+00 0.  1.
<mgrwt>
<rscale>  0 0.97915117E+03</rscale>
<asrwt>0</asrwt>
<pdfrwt beam="1">  1        1 0.10124134E+00 0.97915117E+03</pdfrwt>
<pdfrwt beam="2">  1       -2 0.27488431E+00 0.97915117E+03</pdfrwt>
<totfact> 0.11950008E+00</totfact>
</mgrwt>
</event>
<event>
12    3  0.1201947E-007  0.7233066E+03  0.7818608E-02  0.9678185E-01
          1   -1    0    0  501    0  0.00000000000E+00  0.00000000000E+00  0.17100636166E+04  0.17100636166E+04  0.00000000000E+00 0. -1.
         -4   -1    0    0    0  501 -0.00000000000E+00 -0.00000000000E+00 -0.40082610596E+03  0.40082610596E+03  0.00000000000E+00 0.  1.
        -24    2    1    2    0    0  0.34721030877E+03 -0.58545269524E+03  0.28441441344E+03  0.74207220350E+03  0.80434692551E+02 0.  0.
    5000000    2    1    2    0    0 -0.34721030877E+03  0.58545269524E+03  0.10248230972E+04  0.13688175190E+04  0.60007429792E+03 0.  0.
        -24    2    4    4    0    0 -0.32660420245E+03  0.60124098442E+03  0.10682948100E+04  0.12711400899E+04  0.79889301806E+02 0.  0.
         24    2    4    4    0    0 -0.20606106319E+02 -0.15788289180E+02 -0.43471712862E+02  0.97677429154E+02  0.83529687262E+02 0.  0.
         11    1    3    3    0    0  0.75497260373E+02 -0.95247566767E+02  0.23269781253E+02  0.12374739601E+03  0.00000000000E+00 0. -1.
        -12    1    3    3    0    0  0.27171304839E+03 -0.49020512847E+03  0.26114463219E+03  0.61832480750E+03  0.00000000000E+00 0.  1.
         15    1    5    5    0    0 -0.78648989856E+02  0.21474612662E+03  0.38751204906E+03  0.44996700812E+03  0.17770000000E+01 0. -1.
        -16    1    5    5    0    0 -0.24795521259E+03  0.38649485779E+03  0.68078276098E+03  0.82117308175E+03  0.00000000000E+00 0.  1.
          4    1    6    6  502    0 -0.45353974867E+02  0.32647544641E+01 -0.16772920941E+01  0.45502252326E+02  0.00000000000E+00 0. -1.
         -3    1    6    6    0  502  0.24747868548E+02 -0.19053043644E+02 -0.41794420768E+02  0.52175176828E+02  0.00000000000E+00 0.  1.
<mgrwt>
<rscale>  0 0.72330661E+03</rscale>
<asrwt>0</asrwt>
<pdfrwt beam="1">  1        1 0.26308671E+00 0.72330661E+03</pdfrwt>
<pdfrwt beam="2">  1       -4 0.61665556E-01 0.72330661E+03</pdfrwt>
<totfact> 0.57659463E+00</totfact>
</mgrwt>
</event>
<event>
12    3  0.1452752E-007  0.7845282E+03  0.7818608E-02  0.9582686E-01
          1   -1    0    0  501    0  0.00000000000E+00  0.00000000000E+00  0.19882928627E+04  0.19882928627E+04  0.00000000000E+00 0. -1.
         -2   -1    0    0    0  501 -0.00000000000E+00 -0.00000000000E+00 -0.34986858798E+03  0.34986858798E+03  0.00000000000E+00 0.  1.
        -24    2    1    2    0    0 -0.29867352995E+03  0.65819689128E+03  0.66837141146E+03  0.98778353119E+03  0.81036631527E+02 0.  0.
    5000000    2    1    2    0    0  0.29867352995E+03 -0.65819689128E+03  0.97005286325E+03  0.13503779195E+04  0.60007411435E+03 0.  0.
        -24    2    4    4    0    0 -0.82617082512E+02 -0.28168326889E+03  0.90623620832E+02  0.31747399628E+03  0.80037812103E+02 0.  0.
         24    2    4    4    0    0  0.38129061246E+03 -0.37651362239E+03  0.87942924242E+03  0.10329039232E+04  0.79684898981E+02 0.  0.
         11    1    3    3    0    0 -0.92460986608E+02  0.29729767379E+03  0.27180237842E+03  0.41329344757E+03  0.00000000000E+00 0. -1.
        -12    1    3    3    0    0 -0.20621254334E+03  0.36089921749E+03  0.39656903304E+03  0.57449008363E+03  0.00000000000E+00 0.  1.
         15    1    5    5    0    0 -0.22212313098E+02 -0.19516288354E+03  0.77393765594E+02  0.21112766433E+03  0.17770000000E+01 0. -1.
        -16    1    5    5    0    0 -0.60404769414E+02 -0.86520385349E+02  0.13229855239E+02  0.10634633195E+03  0.00000000000E+00 0.  1.
          4    1    6    6  502    0  0.15194171656E+03 -0.19737744201E+03  0.44592062330E+03  0.51077327860E+03  0.00000000000E+00 0. -1.
         -3    1    6    6    0  502  0.22934889590E+03 -0.17913618038E+03  0.43350861912E+03  0.52213064459E+03  0.00000000000E+00 0.  1.
<mgrwt>
<rscale>  0 0.78452823E+03</rscale>
<asrwt>0</asrwt>
<pdfrwt beam="1">  1        1 0.30589120E+00 0.78452823E+03</pdfrwt>
<pdfrwt beam="2">  1       -2 0.53825938E-01 0.78452823E+03</pdfrwt>
<totfact> 0.89798284E+00</totfact>
</mgrwt>
</event>
<event>
12    3  0.1201947E-007  0.3827226E+03  0.7818608E-02  0.1049932E+00
         -2   -1    0    0    0  501 -0.00000000000E+00  0.00000000000E+00  0.20421124738E+04  0.20421124738E+04  0.00000000000E+00 0.  1.
          1   -1    0    0  501    0  0.00000000000E+00 -0.00000000000E+00 -0.13001782523E+03  0.13001782523E+03  0.00000000000E+00 0. -1.
        -24    2    1    2    0    0  0.19462794781E+03 -0.26101606943E+03  0.47870703905E+03  0.58444753835E+03  0.80056662889E+02 0.  0.
    5000000    2    1    2    0    0 -0.19462794781E+03  0.26101606943E+03  0.14333876095E+04  0.15876827606E+04  0.60010589307E+03 0.  0.
        -24    2    4    4    0    0 -0.26061960408E+03  0.17505803860E+03  0.28412307193E+03  0.43063522114E+03  0.78440287986E+02 0.  0.
         24    2    4    4    0    0  0.65991656270E+02  0.85958030835E+02  0.11492645375E+04  0.11570475395E+04  0.78780388821E+02 0.  0.
         13    1    3    3    0    0  0.81519381055E+02 -0.11183300170E+03  0.27448738769E+03  0.30740096902E+03  0.00000000000E+00 0. -1.
        -14    1    3    3    0    0  0.11310856675E+03 -0.14918306773E+03  0.20421965136E+03  0.27704656932E+03  0.00000000000E+00 0.  1.
         15    1    5    5    0    0 -0.18829950034E+03  0.98019136556E+02  0.22587229032E+03  0.30997726082E+03  0.17770000000E+01 0. -1.
        -16    1    5    5    0    0 -0.72320103735E+02  0.77038902039E+02  0.58250781609E+02  0.12065796032E+03  0.00000000000E+00 0.  1.
          2    1    6    6  502    0 -0.58694109167E+00  0.42218177542E+02  0.65918867108E+03  0.66053949397E+03  0.00000000000E+00 0. -1.
         -1    1    6    6    0  502  0.66578597361E+02  0.43739853293E+02  0.49007586645E+03  0.49650804553E+03  0.00000000000E+00 0.  1.
<mgrwt>
<rscale>  0 0.38272256E+03</rscale>
<asrwt>0</asrwt>
<pdfrwt beam="1">  1        1 0.20002744E-01 0.38272256E+03</pdfrwt>
<pdfrwt beam="2">  1       -2 0.31417113E+00 0.38272256E+03</pdfrwt>
<totfact> 0.65919057E+00</totfact>
</mgrwt>
</event>
<event>
12    3  0.1201947E-007  0.9379864E+03  0.7818608E-02  0.9379304E-01
         -2   -1    0    0    0  501 -0.00000000000E+00  0.00000000000E+00  0.17494295315E+04  0.17494295315E+04  0.00000000000E+00 0.  1.
          1   -1    0    0  501    0  0.00000000000E+00 -0.00000000000E+00 -0.21554410985E+04  0.21554410985E+04  0.00000000000E+00 0. -1.
        -24    2    1    2    0    0  0.24598062420E+03 -0.86966555237E+03  0.14760378917E+04  0.17325956054E+04  0.79843808013E+02 0.  0.
    5000000    2    1    2    0    0 -0.24598062420E+03  0.86966555237E+03 -0.18820494586E+04  0.21722750247E+04  0.59986996725E+03 0.  0.
        -24    2    4    4    0    0 -0.15149034206E+03  0.82715091153E+03 -0.11411041508E+04  0.14199366877E+04  0.83507842409E+02 0.  0.
         24    2    4    4    0    0 -0.94490282133E+02  0.42514640847E+02 -0.74094530782E+03  0.75233833703E+03  0.79228253009E+02 0.  0.
         11    1    3    3    0    0  0.12573705788E+03 -0.41105865100E+03  0.77628712878E+03  0.88735603260E+03  0.00000000000E+00 0. -1.
        -12    1    3    3    0    0  0.12024356632E+03 -0.45860690137E+03  0.69975076289E+03  0.84523957278E+03  0.00000000000E+00 0.  1.
         15    1    5    5    0    0 -0.13866103388E+03  0.68684238481E+03 -0.89896761025E+03  0.11397917643E+04  0.17770000000E+01 0. -1.
        -16    1    5    5    0    0 -0.12829308178E+02  0.14030852672E+03 -0.24213654057E+03  0.28014492339E+03  0.00000000000E+00 0.  1.
          2    1    6    6  502    0 -0.10106838191E+03  0.55898667093E+02 -0.65150210347E+03  0.66166038844E+03  0.00000000000E+00 0. -1.
         -1    1    6    6    0  502  0.65780997807E+01 -0.13384026247E+02 -0.89443204354E+02  0.90677948589E+02  0.00000000000E+00 0.  1.
<mgrwt>
<rscale>  0 0.93798644E+03</rscale>
<asrwt>0</asrwt>
<pdfrwt beam="1">  1        1 0.33160632E+00 0.93798644E+03</pdfrwt>
<pdfrwt beam="2">  1       -2 0.26914301E+00 0.93798644E+03</pdfrwt>
<totfact> 0.10320801E-01</totfact>
</mgrwt>
</event>
<event>
12    3  0.1201947E-007  0.5910505E+03  0.7818608E-02  0.9924149E-01
         -2   -1    0    0    0  501 -0.00000000000E+00  0.00000000000E+00  0.38089073863E+03  0.38089073863E+03  0.00000000000E+00 0.  1.
          1   -1    0    0  501    0  0.00000000000E+00 -0.00000000000E+00 -0.13579343795E+04  0.13579343795E+04  0.00000000000E+00 0. -1.
        -24    2    1    2    0    0 -0.38774619833E+03 -0.35831384074E+03 -0.85237566944E+02  0.54135119662E+03  0.84022333220E+02 0.  0.
    5000000    2    1    2    0    0  0.38774619833E+03  0.35831384074E+03 -0.89180607397E+03  0.11974739216E+04  0.59990815668E+03 0.  0.
        -24    2    4    4    0    0 -0.52910728354E+02  0.99703757907E+02  0.29278378995E+02  0.14117161049E+03  0.79572706478E+02 0.  0.
         24    2    4    4    0    0  0.44065692668E+03  0.25861008284E+03 -0.92108445297E+03  0.10563023111E+04  0.79500320048E+02 0.  0.
         11    1    3    3    0    0 -0.35743558093E+03 -0.29232652684E+03 -0.79079534428E+02  0.46847472245E+03  0.00000000000E+00 0. -1.
        -12    1    3    3    0    0 -0.30310617394E+02 -0.65987313901E+02 -0.61580325166E+01  0.72876474168E+02  0.00000000000E+00 0.  1.
         15    1    5    5    0    0 -0.61507545632E+02  0.39713795767E+02 -0.13930644488E+01  0.73249314683E+02  0.17770000000E+01 0. -1.
        -16    1    5    5    0    0  0.85968172787E+01  0.59989962141E+02  0.30671443443E+02  0.67922295808E+02  0.00000000000E+00 0.  1.
          2    1    6    6  502    0  0.19321033847E+03  0.14524300302E+03 -0.49206687416E+03  0.54822948978E+03  0.00000000000E+00 0. -1.
         -1    1    6    6    0  502  0.24744658822E+03  0.11336707981E+03 -0.42901757880E+03  0.50807282128E+03  0.00000000000E+00 0.  1.
<mgrwt>
<rscale>  0 0.59105047E+03</rscale>
<asrwt>0</asrwt>
<pdfrwt beam="1">  1        1 0.20891298E+00 0.59105047E+03</pdfrwt>
<pdfrwt beam="2">  1       -2 0.58598575E-01 0.59105047E+03</pdfrwt>
<totfact> 0.20634612E+01</totfact>
</mgrwt>
</event>
<event>
12    3  0.1201947E-007  0.8829722E+03  0.7818608E-02  0.9447121E-01
         -2   -1    0    0    0  501 -0.00000000000E+00  0.00000000000E+00  0.99797886230E+03  0.99797886230E+03  0.00000000000E+00 0.  1.
          1   -1    0    0  501    0  0.00000000000E+00 -0.00000000000E+00 -0.90332877479E+03  0.90332877479E+03  0.00000000000E+00 0. -1.
        -24    2    1    2    0    0 -0.81192695677E+03 -0.20133840159E+03 -0.12233927016E+03  0.84925158421E+03  0.80615266389E+02 0.  0.
    5000000    2    1    2    0    0  0.81192695677E+03  0.20133840159E+03  0.21698935767E+03  0.10520560529E+04  0.59997918461E+03 0.  0.
        -24    2    4    4    0    0  0.54399139657E+03 -0.66893613309E+02  0.33437950404E+03  0.64726944694E+03  0.82138232141E+02 0.  0.
         24    2    4    4    0    0  0.26793556020E+03  0.26823201490E+03 -0.11739014637E+03  0.40478660594E+03  0.79585624580E+02 0.  0.
         13    1    3    3    0    0 -0.23735301428E+03 -0.33960964329E+02 -0.75731186753E+01  0.23988987601E+03  0.00000000000E+00 0. -1.
        -14    1    3    3    0    0 -0.57457394249E+03 -0.16737743726E+03 -0.11476615149E+03  0.60936170820E+03  0.00000000000E+00 0.  1.
         15    1    5    5    0    0  0.49915885972E+03 -0.55551824487E+02  0.27697185072E+03  0.57355220883E+03  0.17770000000E+01 0. -1.
        -16    1    5    5    0    0  0.44832536852E+02 -0.11341788821E+02  0.57407653327E+02  0.73717238111E+02  0.00000000000E+00 0.  1.
          4    1    6    6  502    0  0.74653936218E+02  0.80352472737E+02  0.26609999567E+01  0.10971240125E+03  0.00000000000E+00 0. -1.
         -3    1    6    6    0  502  0.19328162399E+03  0.18787954216E+03 -0.12005114633E+03  0.29507420468E+03  0.00000000000E+00 0.  1.
<mgrwt>
<rscale>  0 0.88297223E+03</rscale>
<asrwt>0</asrwt>
<pdfrwt beam="1">  1        1 0.13897366E+00 0.88297223E+03</pdfrwt>
<pdfrwt beam="2">  1       -2 0.15353521E+00 0.88297223E+03</pdfrwt>
<totfact> 0.44998280E+00</totfact>
</mgrwt>
</event>
<event>
12    3  0.1201947E-007  0.1045191E+04  0.7818608E-02  0.9260323E-01
          1   -1    0    0  501    0  0.00000000000E+00  0.00000000000E+00  0.10393260100E+04  0.10393260100E+04  0.00000000000E+00 0. -1.
         -2   -1    0    0    0  501 -0.00000000000E+00 -0.00000000000E+00 -0.11357753331E+04  0.11357753331E+04  0.00000000000E+00 0.  1.
        -24    2    1    2    0    0 -0.27621707545E+03  0.92582876091E+03 -0.30852756463E+03  0.10179977853E+04  0.87609734218E+02 0.  0.
    5000000    2    1    2    0    0  0.27621707545E+03 -0.92582876091E+03  0.21207824156E+03  0.11571035578E+04  0.60038045904E+03 0.  0.
        -24    2    4    4    0    0  0.42609035527E+03 -0.83839960507E+03  0.14871487491E+03  0.95560457893E+03  0.81222586907E+02 0.  0.
         24    2    4    4    0    0 -0.14987327982E+03 -0.87429155835E+02  0.63363366650E+02  0.20149897885E+03  0.80505061640E+02 0.  0.
         11    1    3    3    0    0 -0.11797391987E+03  0.54156572368E+03 -0.18844874708E+03  0.58542651896E+03  0.00000000000E+00 0. -1.
        -12    1    3    3    0    0 -0.15824315559E+03  0.38426303723E+03 -0.12007881755E+03  0.43257126638E+03  0.00000000000E+00 0.  1.
         15    1    5    5    0    0  0.55949966370E+02 -0.80422287134E+02 -0.53236415471E+01  0.98130738778E+02  0.17770000000E+01 0. -1.
        -16    1    5    5    0    0  0.37014038890E+03 -0.75797731794E+03  0.15403851645E+03  0.85747384016E+03  0.00000000000E+00 0.  1.
          4    1    6    6  502    0 -0.76243456185E+02 -0.69698398721E+02  0.86084682897E+00  0.10330378721E+03  0.00000000000E+00 0. -1.
         -3    1    6    6    0  502 -0.73629823633E+02 -0.17730757115E+02  0.62502519821E+02  0.98195191634E+02  0.00000000000E+00 0.  1.
<mgrwt>
<rscale>  0 0.10451913E+04</rscale>
<asrwt>0</asrwt>
<pdfrwt beam="1">  1        1 0.15989631E+00 0.10451913E+04</pdfrwt>
<pdfrwt beam="2">  1       -2 0.17473467E+00 0.10451913E+04</pdfrwt>
<totfact> 0.24178256E+00</totfact>
</mgrwt>
</event>
<event>
12    3  0.1201947E-007  0.5550678E+03  0.7818608E-02  0.1000328E+00
          1   -1    0    0  501    0  0.00000000000E+00  0.00000000000E+00  0.12602360560E+04  0.12602360560E+04  0.00000000000E+00 0. -1.
         -2   -1    0    0    0  501 -0.00000000000E+00 -0.00000000000E+00 -0.28870350912E+03  0.28870350912E+03  0.00000000000E+00 0.  1.
        -24    2    1    2    0    0 -0.15293960068E+03  0.37934502993E+03  0.12702987024E+03  0.43516233149E+03  0.77048644520E+02 0.  0.
    5000000    2    1    2    0    0  0.15293960068E+03 -0.37934502993E+03  0.84450267668E+03  0.11137772337E+04  0.60001815149E+03 0.  0.
        -24    2    4    4    0    0  0.21840351828E+03  0.79663004594E+02  0.20021965082E+03  0.31593501582E+03  0.75370647785E+02 0.  0.
         24    2    4    4    0    0 -0.65463917595E+02 -0.45900803453E+03  0.64428302585E+03  0.79784221784E+03  0.80484078590E+02 0.  0.
         11    1    3    3    0    0 -0.30426776962E+02  0.61837637033E+02  0.52846237961E+02  0.86847032055E+02  0.00000000000E+00 0. -1.
        -12    1    3    3    0    0 -0.12251282372E+03  0.31750739290E+03  0.74183632280E+02  0.34831529944E+03  0.00000000000E+00 0.  1.
         15    1    5    5    0    0  0.15872022231E+03  0.64053738510E+02  0.18571262048E+03  0.25256152819E+03  0.17770000000E+01 0. -1.
        -16    1    5    5    0    0  0.59683295963E+02  0.15609266083E+02  0.14507030347E+02  0.63373487628E+02  0.00000000000E+00 0.  1.
          2    1    6    6  502    0 -0.70711779887E+02 -0.27475964062E+03  0.34926995007E+03  0.44998057064E+03  0.00000000000E+00 0. -1.
         -1    1    6    6    0  502  0.52478622912E+01 -0.18424839391E+03  0.29501307578E+03  0.34786164721E+03  0.00000000000E+00 0.  1.
<mgrwt>
<rscale>  0 0.55506779E+03</rscale>
<asrwt>0</asrwt>
<pdfrwt beam="1">  1        1 0.19388247E+00 0.55506779E+03</pdfrwt>
<pdfrwt beam="2">  1       -2 0.44415925E-01 0.55506779E+03</pdfrwt>
<totfact> 0.42686974E+01</totfact>
</mgrwt>
</event>
<event>
12    3  0.1201947E-007  0.4423283E+03  0.7818608E-02  0.1030035E+00
          3   -1    0    0  501    0  0.00000000000E+00  0.00000000000E+00  0.79653243210E+03  0.79653243210E+03  0.00000000000E+00 0. -1.
         -4   -1    0    0    0  501 -0.00000000000E+00 -0.00000000000E+00 -0.34622815361E+03  0.34622815361E+03  0.00000000000E+00 0.  1.
        -24    2    1    2    0    0 -0.17958986147E+03  0.20769365597E+03  0.38560214954E+03  0.47991179592E+03  0.78975572535E+02 0.  0.
    5000000    2    1    2    0    0  0.17958986147E+03 -0.20769365597E+03  0.64702128948E+02  0.66284878979E+03  0.59982745817E+03 0.  0.
        -24    2    4    4    0    0  0.35767674465E+03 -0.17335505350E+03 -0.81625839583E+02  0.41635101319E+03  0.93277865858E+02 0.  0.
         24    2    4    4    0    0 -0.17808688319E+03 -0.34338602472E+02  0.14632796853E+03  0.24649777660E+03  0.80344271187E+02 0.  0.
         13    1    3    3    0    0 -0.58124646959E+02  0.11818478496E+03  0.21526138095E+03  0.25235605820E+03  0.00000000000E+00 0. -1.
        -14    1    3    3    0    0 -0.12146521451E+03  0.89508871009E+02  0.17034076859E+03  0.22755573772E+03  0.00000000000E+00 0.  1.
         15    1    5    5    0    0  0.16118708451E+02 -0.30003337545E+02  0.84479248796E+01  0.35135995642E+02  0.17770000000E+01 0. -1.
        -16    1    5    5    0    0  0.34155803620E+03 -0.14335171596E+03 -0.90073764462E+02  0.38121501755E+03  0.00000000000E+00 0.  1.
          2    1    6    6  502    0 -0.90456856359E+01  0.18368757726E+02  0.87604835336E+01  0.22270647965E+02  0.00000000000E+00 0. -1.
         -1    1    6    6    0  502 -0.16904119755E+03 -0.52707360198E+02  0.13756748500E+03  0.22422712864E+03  0.00000000000E+00 0.  1.
<mgrwt>
<rscale>  0 0.44232833E+03</rscale>
<asrwt>0</asrwt>
<pdfrwt beam="1">  1        3 0.12254345E+00 0.44232833E+03</pdfrwt>
<pdfrwt beam="2">  1       -4 0.53265870E-01 0.44232833E+03</pdfrwt>
<totfact> 0.41014075E+00</totfact>
</mgrwt>
</event>
<event>
12    3  0.1201947E-007  0.5817735E+03  0.7818608E-02  0.9943959E-01
          1   -1    0    0  501    0  0.00000000000E+00  0.00000000000E+00  0.17262336647E+04  0.17262336647E+04  0.00000000000E+00 0. -1.
         -2   -1    0    0    0  501 -0.00000000000E+00 -0.00000000000E+00 -0.51173914102E+03  0.51173914102E+03  0.00000000000E+00 0.  1.
        -24    2    1    2    0    0  0.19644749637E+03  0.53989359886E+03 -0.18640939809E+03  0.60930389093E+03  0.80162652766E+02 0.  0.
    5000000    2    1    2    0    0 -0.19644749637E+03 -0.53989359886E+03  0.14009039217E+04  0.16286689148E+04  0.59996159797E+03 0.  0.
        -24    2    4    4    0    0 -0.52593269518E+02 -0.12142930333E+03  0.10418395242E+04  0.10532262444E+04  0.79654253426E+02 0.  0.
         24    2    4    4    0    0 -0.14385422685E+03 -0.41846429553E+03  0.35906439756E+03  0.57544267034E+03  0.80003875114E+02 0.  0.
         11    1    3    3    0    0  0.36457639820E+02  0.21340157024E+03 -0.67794993442E+02  0.22686020104E+03  0.00000000000E+00 0. -1.
        -12    1    3    3    0    0  0.15998985655E+03  0.32649202862E+03 -0.11861440465E+03  0.38244368989E+03  0.00000000000E+00 0.  1.
         15    1    5    5    0    0 -0.61294022182E+02 -0.10761672095E+03  0.69141254563E+03  0.70241923505E+03  0.17770000000E+01 0. -1.
        -16    1    5    5    0    0  0.87007526636E+01 -0.13812582375E+02  0.35042697855E+03  0.35080700937E+03  0.00000000000E+00 0.  1.
          4    1    6    6  502    0 -0.87739551287E+02 -0.21475658332E+03  0.23596047201E+03  0.33090174265E+03  0.00000000000E+00 0. -1.
         -3    1    6    6    0  502 -0.56114675562E+02 -0.20370771221E+03  0.12310392555E+03  0.24454092768E+03  0.00000000000E+00 0.  1.
<mgrwt>
<rscale>  0 0.58177348E+03</rscale>
<asrwt>0</asrwt>
<pdfrwt beam="1">  1        1 0.26557441E+00 0.58177348E+03</pdfrwt>
<pdfrwt beam="2">  1       -2 0.78729100E-01 0.58177348E+03</pdfrwt>
<totfact> 0.61415415E+00</totfact>
</mgrwt>
</event>
<event>
12    3  0.1201947E-007  0.6418647E+03  0.7818608E-02  0.9822165E-01
          1   -1    0    0  501    0  0.00000000000E+00  0.00000000000E+00  0.16734929115E+03  0.16734929115E+03  0.00000000000E+00 0. -1.
         -2   -1    0    0    0  501 -0.00000000000E+00 -0.00000000000E+00 -0.31744392651E+04  0.31744392651E+04  0.00000000000E+00 0.  1.
        -24    2    1    2    0    0 -0.11637654033E+03  0.54044695691E+03 -0.18015764589E+04  0.18861495992E+04  0.79095897871E+02 0.  0.
    5000000    2    1    2    0    0  0.11637654033E+03 -0.54044695691E+03 -0.12055135151E+04  0.14556389570E+04  0.59999627152E+03 0.  0.
        -24    2    4    4    0    0  0.28416676308E+03 -0.27497643702E+03 -0.98311544033E+03  0.10627410473E+04  0.80868872509E+02 0.  0.
         24    2    4    4    0    0 -0.16779022276E+03 -0.26547051988E+03 -0.22239807473E+03  0.39289790968E+03  0.79244608668E+02 0.  0.
         13    1    3    3    0    0 -0.11711817408E+03  0.37189718824E+03 -0.12525599048E+04  0.13118424069E+04  0.00000000000E+00 0. -1.
        -14    1    3    3    0    0  0.74163375269E+00  0.16854976866E+03 -0.54901655405E+03  0.57430719232E+03  0.00000000000E+00 0.  1.
         15    1    5    5    0    0  0.19316680785E+03 -0.13653110634E+03 -0.62087129744E+03  0.66440837169E+03  0.17770000000E+01 0. -1.
        -16    1    5    5    0    0  0.90999955231E+02 -0.13844533068E+03 -0.36224414289E+03  0.39833267565E+03  0.00000000000E+00 0.  1.
          4    1    6    6  502    0 -0.54901742634E+02 -0.15767076686E+03 -0.12911156259E+03  0.21105465562E+03  0.00000000000E+00 0. -1.
         -3    1    6    6    0  502 -0.11288848012E+03 -0.10779975303E+03 -0.93286512143E+02  0.18184325405E+03  0.00000000000E+00 0.  1.
<mgrwt>
<rscale>  0 0.64186469E+03</rscale>
<asrwt>0</asrwt>
<pdfrwt beam="1">  1        1 0.25746046E-01 0.64186469E+03</pdfrwt>
<pdfrwt beam="2">  1       -2 0.48837525E+00 0.64186469E+03</pdfrwt>
<totfact> 0.34623107E-01</totfact>
</mgrwt>
</event>
<event>
12    3  0.1201947E-007  0.8126732E+03  0.7818608E-02  0.9541852E-01
          1   -1    0    0  501    0  0.00000000000E+00  0.00000000000E+00  0.15998190575E+04  0.15998190575E+04  0.00000000000E+00 0. -1.
         -2   -1    0    0    0  501 -0.00000000000E+00 -0.00000000000E+00 -0.48198651888E+03  0.48198651888E+03  0.00000000000E+00 0.  1.
        -24    2    1    2    0    0 -0.44342206013E+02 -0.76995813026E+03  0.42513312787E+03  0.88402613045E+03  0.77215732326E+02 0.  0.
    5000000    2    1    2    0    0  0.44342206013E+02  0.76995813026E+03  0.69269941077E+03  0.11977794459E+04  0.60003447722E+03 0.  0.
        -24    2    4    4    0    0  0.92821715844E+02  0.58014650821E+02 -0.65285651162E+02  0.15383011014E+03  0.86138933678E+02 0.  0.
         24    2    4    4    0    0 -0.48479509832E+02  0.71194347944E+03  0.75798506194E+03  0.10439493358E+04  0.77942804808E+02 0.  0.
         13    1    3    3    0    0 -0.23215913799E+02 -0.28915578781E+03  0.20240233315E+03  0.35371846537E+03  0.00000000000E+00 0. -1.
        -14    1    3    3    0    0 -0.21126292214E+02 -0.48080234245E+03  0.22273079472E+03  0.53030766508E+03  0.00000000000E+00 0.  1.
         15    1    5    5    0    0  0.10305247659E+03  0.26885387104E+02 -0.50490637198E+02  0.11787747514E+03  0.17770000000E+01 0. -1.
        -16    1    5    5    0    0 -0.10230760749E+02  0.31129263717E+02 -0.14795013963E+02  0.35952634997E+02  0.00000000000E+00 0.  1.
          4    1    6    6  502    0 -0.50164741521E+02  0.45436664091E+03  0.53063170889E+03  0.70038243563E+03  0.00000000000E+00 0. -1.
         -3    1    6    6    0  502  0.16852316887E+01  0.25757683854E+03  0.22735335305E+03  0.34356690018E+03  0.00000000000E+00 0.  1.
<mgrwt>
<rscale>  0 0.81267319E+03</rscale>
<asrwt>0</asrwt>
<pdfrwt beam="1">  1        1 0.24612601E+00 0.81267319E+03</pdfrwt>
<pdfrwt beam="2">  1       -2 0.74151773E-01 0.81267319E+03</pdfrwt>
<totfact> 0.82277681E+00</totfact>
</mgrwt>
</event>
<event>
12    3  0.1201947E-007  0.7348717E+03  0.7818608E-02  0.9659388E-01
         -2   -1    0    0    0  501 -0.00000000000E+00  0.00000000000E+00  0.24889633144E+04  0.24889633144E+04  0.00000000000E+00 0.  1.
          1   -1    0    0  501    0  0.00000000000E+00 -0.00000000000E+00 -0.24708697704E+03  0.24708697704E+03  0.00000000000E+00 0. -1.
        -24    2    1    2    0    0 -0.53826296457E+03  0.39334843981E+03  0.94249392303E+03  0.11571161548E+04  0.78568356821E+02 0.  0.
    5000000    2    1    2    0    0  0.53826296457E+03 -0.39334843981E+03  0.12993824143E+04  0.15789341366E+04  0.60015692525E+03 0.  0.
        -24    2    4    4    0    0  0.52236848317E+03 -0.15729816083E+03  0.11789362225E+04  0.13014945680E+04  0.79912140022E+02 0.  0.
         24    2    4    4    0    0  0.15894481407E+02 -0.23605027898E+03  0.12044619180E+03  0.27743956861E+03  0.80579528213E+02 0.  0.
         13    1    3    3    0    0 -0.17869227546E+03  0.90780394849E+02  0.25457254329E+03  0.32400492156E+03  0.00000000000E+00 0. -1.
        -14    1    3    3    0    0 -0.35957068911E+03  0.30256804496E+03  0.68792137974E+03  0.83311123327E+03  0.00000000000E+00 0.  1.
         15    1    5    5    0    0  0.14345418248E+03 -0.78359109784E+02  0.38362471380E+03  0.41700159631E+03  0.17770000000E+01 0. -1.
        -16    1    5    5    0    0  0.37891430068E+03 -0.78939051046E+02  0.79531150868E+03  0.88449297164E+03  0.00000000000E+00 0.  1.
          2    1    6    6  502    0  0.47350129945E+02 -0.14022660865E+03  0.58936915292E+02  0.15930818109E+03  0.00000000000E+00 0. -1.
         -1    1    6    6    0  502 -0.31455648538E+02 -0.95823670334E+02  0.61509276512E+02  0.11813138752E+03  0.00000000000E+00 0.  1.
<mgrwt>
<rscale>  0 0.73487169E+03</rscale>
<asrwt>0</asrwt>
<pdfrwt beam="1">  1        1 0.38013383E-01 0.73487169E+03</pdfrwt>
<pdfrwt beam="2">  1       -2 0.38291742E+00 0.73487169E+03</pdfrwt>
<totfact> 0.10069118E+00</totfact>
</mgrwt>
</event>
<event>
12    3  0.1628907E-007  0.1665001E+04  0.7818608E-02  0.8781581E-01
         -2   -1    0    0    0  501 -0.00000000000E+00  0.00000000000E+00  0.12939163876E+04  0.12939163876E+04  0.00000000000E+00 0.  1.
          1   -1    0    0  501    0  0.00000000000E+00 -0.00000000000E+00 -0.22373622514E+04  0.22373622514E+04  0.00000000000E+00 0. -1.
        -24    2    1    2    0    0  0.15204655125E+04 -0.63228957255E+03 -0.40253909982E+03  0.16971133123E+04  0.80934477275E+02 0.  0.
    5000000    2    1    2    0    0 -0.15204655125E+04  0.63228957255E+03 -0.54090676404E+03  0.18341653267E+04  0.59998069966E+03 0.  0.
        -24    2    4    4    0    0 -0.73723152590E+03  0.48564691450E+03 -0.53110510243E+03  0.10332028762E+04  0.77924997655E+02 0.  0.
         24    2    4    4    0    0 -0.78323398660E+03  0.14664265805E+03 -0.98016616118E+01  0.80096245046E+03  0.80530910572E+02 0.  0.
         11    1    3    3    0    0  0.11380231371E+04 -0.49056022537E+03 -0.33465340108E+03  0.12836428219E+04  0.00000000000E+00 0. -1.
        -12    1    3    3    0    0  0.38244237538E+03 -0.14172934718E+03 -0.67885698738E+02  0.41347049040E+03  0.00000000000E+00 0.  1.
         15    1    5    5    0    0 -0.14740092796E+03  0.13474072754E+03 -0.11027289523E+03  0.22813453569E+03  0.17770000000E+01 0. -1.
        -16    1    5    5    0    0 -0.58983059794E+03  0.35090618695E+03 -0.42083220720E+03  0.80506834053E+03  0.00000000000E+00 0.  1.
          4    1    6    6  502    0 -0.38713924304E+03  0.70142248849E+02  0.35359437083E+02  0.39502787037E+03  0.00000000000E+00 0. -1.
         -3    1    6    6    0  502 -0.39609474355E+03  0.76500409204E+02 -0.45161098695E+02  0.40593458009E+03  0.00000000000E+00 0.  1.
<mgrwt>
<rscale>  0 0.16650008E+04</rscale>
<asrwt>0</asrwt>
<pdfrwt beam="1">  1        1 0.34420958E+00 0.16650008E+04</pdfrwt>
<pdfrwt beam="2">  1       -2 0.19906406E+00 0.16650008E+04</pdfrwt>
<totfact> 0.22492905E-01</totfact>
</mgrwt>
</event>
<event>
12    3  0.1201947E-007  0.1545468E+04  0.7818608E-02  0.8854768E-01
          1   -1    0    0  501    0  0.00000000000E+00  0.00000000000E+00  0.13661538186E+04  0.13661538186E+04  0.00000000000E+00 0. -1.
         -2   -1    0    0    0  501 -0.00000000000E+00 -0.00000000000E+00 -0.18979606258E+04  0.18979606258E+04  0.00000000000E+00 0.  1.
        -24    2    1    2    0    0 -0.10714544564E+04 -0.10492370617E+04  0.15350469729E+03  0.15095941102E+04  0.79985134449E+02 0.  0.
    5000000    2    1    2    0    0  0.10714544564E+04  0.10492370617E+04 -0.68531150447E+03  0.17545203342E+04  0.59981387221E+03 0.  0.
        -24    2    4    4    0    0  0.10929938519E+04  0.83916410069E+03 -0.65167996349E+03  0.15263073015E+04  0.78072117735E+02 0.  0.
         24    2    4    4    0    0 -0.21539395554E+02  0.21007296100E+03 -0.33631540984E+02  0.22821303271E+03  0.79721472925E+02 0.  0.
         11    1    3    3    0    0 -0.76459127935E+03 -0.76335390224E+03  0.75956187188E+02  0.10830874142E+04  0.00000000000E+00 0. -1.
        -12    1    3    3    0    0 -0.30686317703E+03 -0.28588315946E+03  0.77548510098E+02  0.42650669596E+03  0.00000000000E+00 0.  1.
         15    1    5    5    0    0  0.51414514494E+03  0.34962402749E+03 -0.27702115962E+03  0.68068059416E+03  0.17770000000E+01 0. -1.
        -16    1    5    5    0    0  0.57884870700E+03  0.48954007320E+03 -0.37465880387E+03  0.84562670735E+03  0.00000000000E+00 0.  1.
          2    1    6    6  502    0 -0.11222060209E+02  0.81037928689E+02  0.25788868264E+02  0.85779637723E+02  0.00000000000E+00 0. -1.
         -1    1    6    6    0  502 -0.10317335345E+02  0.12903503231E+03 -0.59420409248E+02  0.14243339499E+03  0.00000000000E+00 0.  1.
<mgrwt>
<rscale>  0 0.15454680E+04</rscale>
<asrwt>0</asrwt>
<pdfrwt beam="1">  1        1 0.21017751E+00 0.15454680E+04</pdfrwt>
<pdfrwt beam="2">  1       -2 0.29199394E+00 0.15454680E+04</pdfrwt>
<totfact> 0.23782884E-01</totfact>
</mgrwt>
</event>
<event>
12    3  0.1201947E-007  0.9666100E+03  0.7818608E-02  0.9345944E-01
          1   -1    0    0  501    0  0.00000000000E+00  0.00000000000E+00  0.18520611608E+04  0.18520611608E+04  0.00000000000E+00 0. -1.
         -2   -1    0    0    0  501 -0.00000000000E+00 -0.00000000000E+00 -0.52206331502E+03  0.52206331502E+03  0.00000000000E+00 0.  1.
        -24    2    1    2    0    0 -0.87132402068E+03 -0.33551814749E+02  0.81851856862E+03  0.11985655676E+04  0.79091714329E+02 0.  0.
    5000000    2    1    2    0    0  0.87132402068E+03  0.33551814749E+02  0.51147927719E+03  0.11755589083E+04  0.59999701880E+03 0.  0.
        -24    2    4    4    0    0  0.25413438161E+03 -0.25871623518E+03  0.18235683759E+03  0.41360252248E+03  0.79338868898E+02 0.  0.
         24    2    4    4    0    0  0.61718963907E+03  0.29226804993E+03  0.32912243960E+03  0.76195638581E+03  0.76891417267E+02 0.  0.
         13    1    3    3    0    0 -0.57376323398E+03 -0.57296892331E+02  0.52147583687E+03  0.77744725286E+03  0.00000000000E+00 0. -1.
        -14    1    3    3    0    0 -0.29756078671E+03  0.23745077582E+02  0.29704273175E+03  0.42111831471E+03  0.00000000000E+00 0.  1.
         15    1    5    5    0    0  0.31810357579E+02 -0.78568380569E+02  0.48749354530E+02  0.97798499839E+02  0.17770000000E+01 0. -1.
        -16    1    5    5    0    0  0.22232402403E+03 -0.18014785461E+03  0.13360748306E+03  0.31580402264E+03  0.00000000000E+00 0.  1.
          4    1    6    6  502    0  0.35836497420E+03  0.21106394842E+03  0.20339733983E+03  0.46297291811E+03  0.00000000000E+00 0. -1.
         -3    1    6    6    0  502  0.25882466487E+03  0.81204101514E+02  0.12572509977E+03  0.29898346770E+03  0.00000000000E+00 0.  1.
<mgrwt>
<rscale>  0 0.96661003E+03</rscale>
<asrwt>0</asrwt>
<pdfrwt beam="1">  1        1 0.28493248E+00 0.96661003E+03</pdfrwt>
<pdfrwt beam="2">  1       -2 0.80317434E-01 0.96661003E+03</pdfrwt>
<totfact> 0.45597247E+00</totfact>
</mgrwt>
</event>
<event>
12    3  0.1201947E-007  0.8053380E+03  0.7818608E-02  0.9552323E-01
          1   -1    0    0  501    0  0.00000000000E+00  0.00000000000E+00  0.27982404004E+04  0.27982404004E+04  0.00000000000E+00 0. -1.
         -2   -1    0    0    0  501 -0.00000000000E+00 -0.00000000000E+00 -0.24726986565E+03  0.24726986565E+03  0.00000000000E+00 0.  1.
        -24    2    1    2    0    0  0.70544617797E+03 -0.80858631796E+02  0.88219481426E+03  0.11352650474E+04  0.79791035213E+02 0.  0.
    5000000    2    1    2    0    0 -0.70544617797E+03  0.80858631796E+02  0.16687757205E+04  0.19102452186E+04  0.60002663402E+03 0.  0.
        -24    2    4    4    0    0 -0.57648787603E+03  0.28187269628E+03  0.13995710796E+04  0.15415421502E+04  0.75911171226E+02 0.  0.
         24    2    4    4    0    0 -0.12895830194E+03 -0.20101406448E+03  0.26920464087E+03  0.36870306837E+03  0.80211696159E+02 0.  0.
         11    1    3    3    0    0  0.35560263054E+03 -0.75751404534E+02  0.41846907495E+03  0.55435356302E+03  0.00000000000E+00 0. -1.
        -12    1    3    3    0    0  0.34984354742E+03 -0.51072272617E+01  0.46372573932E+03  0.58091148443E+03  0.00000000000E+00 0.  1.
         15    1    5    5    0    0 -0.39729591358E+03  0.22954750845E+03  0.96258360330E+03  0.10663519366E+04  0.17770000000E+01 0. -1.
        -16    1    5    5    0    0 -0.17919196245E+03  0.52325187828E+02  0.43698747629E+03  0.47519021362E+03  0.00000000000E+00 0.  1.
          2    1    6    6  502    0 -0.54592337509E+02 -0.15478202669E+03  0.18315454482E+03  0.24593370324E+03  0.00000000000E+00 0. -1.
         -1    1    6    6    0  502 -0.74365964428E+02 -0.46232037785E+02  0.86050096055E+02  0.12276936513E+03  0.00000000000E+00 0.  1.
<mgrwt>
<rscale>  0 0.80533801E+03</rscale>
<asrwt>0</asrwt>
<pdfrwt beam="1">  1        1 0.43049850E+00 0.80533801E+03</pdfrwt>
<pdfrwt beam="2">  1       -2 0.38041520E-01 0.80533801E+03</pdfrwt>
<totfact> 0.50307337E+00</totfact>
</mgrwt>
</event>
<event>
12    3  0.1201947E-007  0.1213545E+04  0.7818608E-02  0.9101083E-01
          1   -1    0    0  501    0  0.00000000000E+00  0.00000000000E+00  0.15033604196E+04  0.15033604196E+04  0.00000000000E+00 0. -1.
         -2   -1    0    0    0  501 -0.00000000000E+00 -0.00000000000E+00 -0.11228633951E+04  0.11228633951E+04  0.00000000000E+00 0.  1.
        -24    2    1    2    0    0  0.11300137830E+04 -0.29364163238E+03  0.56693251420E+03  0.13003653875E+04  0.79881833580E+02 0.  0.
    5000000    2    1    2    0    0 -0.11300137830E+04  0.29364163238E+03 -0.18643548968E+03  0.13258584272E+04  0.59998818247E+03 0.  0.
        -24    2    4    4    0    0 -0.24200219127E+03  0.26991853477E+03 -0.22389162321E+03  0.43352421179E+03  0.79966913608E+02 0.  0.
         24    2    4    4    0    0 -0.88801159175E+03  0.23723097610E+02  0.37456133531E+02  0.89233421541E+03  0.75696879904E+02 0.  0.
         11    1    3    3    0    0  0.51657822432E+03 -0.16887579204E+03  0.23957545091E+03  0.59394317208E+03  0.00000000000E+00 0. -1.
        -12    1    3    3    0    0  0.61343555869E+03 -0.12476584034E+03  0.32735706330E+03  0.70642221544E+03  0.00000000000E+00 0.  1.
         15    1    5    5    0    0 -0.10634675335E+02  0.42988289423E+02 -0.10652755463E+02  0.45582104767E+02  0.17770000000E+01 0. -1.
        -16    1    5    5    0    0 -0.23136751593E+03  0.22693024535E+03 -0.21323886775E+03  0.38794210702E+03  0.00000000000E+00 0.  1.
          2    1    6    6  502    0 -0.64868693835E+03 -0.28251537913E+00 -0.14110584838E+01  0.64868853457E+03  0.00000000000E+00 0. -1.
         -1    1    6    6    0  502 -0.23932465340E+03  0.24005612989E+02  0.38867192015E+02  0.24364568085E+03  0.00000000000E+00 0.  1.
<mgrwt>
<rscale>  0 0.12135447E+04</rscale>
<asrwt>0</asrwt>
<pdfrwt beam="1">  1        1 0.23128622E+00 0.12135447E+04</pdfrwt>
<pdfrwt beam="2">  1       -2 0.17274822E+00 0.12135447E+04</pdfrwt>
<totfact> 0.11316209E+00</totfact>
</mgrwt>
</event>
<event>
12    3  0.1201947E-007  0.9560843E+03  0.7818608E-02  0.9358067E-01
         -2   -1    0    0    0  501 -0.00000000000E+00  0.00000000000E+00  0.63707546130E+03  0.63707546130E+03  0.00000000000E+00 0.  1.
          1   -1    0    0  501    0  0.00000000000E+00 -0.00000000000E+00 -0.15228311060E+04  0.15228311060E+04  0.00000000000E+00 0. -1.
        -24    2    1    2    0    0  0.56437703020E+03  0.65716294235E+03 -0.63479213547E+03  0.10766804916E+04  0.76780600779E+02 0.  0.
    5000000    2    1    2    0    0 -0.56437703020E+03 -0.65716294235E+03 -0.25096350919E+03  0.10832260757E+04  0.60000956918E+03 0.  0.
        -24    2    4    4    0    0 -0.31900180739E+02 -0.47757518923E+03 -0.13983534324E+03  0.50508801136E+03  0.80400827744E+02 0.  0.
         24    2    4    4    0    0 -0.53247684946E+03 -0.17958775312E+03 -0.11112816595E+03  0.57813806433E+03  0.78171579784E+02 0.  0.
         11    1    3    3    0    0  0.41995676100E+03  0.50705882715E+03 -0.44314423990E+03  0.79363036274E+03  0.00000000000E+00 0. -1.
        -12    1    3    3    0    0  0.14442026919E+03  0.15010411520E+03 -0.19164789557E+03  0.28305012883E+03  0.00000000000E+00 0.  1.
         15    1    5    5    0    0  0.10979316534E+02 -0.30763322287E+03 -0.65597977779E+02  0.31474592551E+03  0.17770000000E+01 0. -1.
        -16    1    5    5    0    0 -0.42879497273E+02 -0.16994196636E+03 -0.74237365464E+02  0.19034208585E+03  0.00000000000E+00 0.  1.
          4    1    6    6  502    0 -0.34746971185E+03 -0.12825818500E+03 -0.36617930403E+02  0.37219112765E+03  0.00000000000E+00 0. -1.
         -3    1    6    6    0  502 -0.18500713761E+03 -0.51329568118E+02 -0.74510235549E+02  0.20594693669E+03  0.00000000000E+00 0.  1.
<mgrwt>
<rscale>  0 0.95608433E+03</rscale>
<asrwt>0</asrwt>
<pdfrwt beam="1">  1        1 0.23428170E+00 0.95608433E+03</pdfrwt>
<pdfrwt beam="2">  1       -2 0.98011611E-01 0.95608433E+03</pdfrwt>
<totfact> 0.48230669E+00</totfact>
</mgrwt>
</event>
<event>
12    3  0.1201947E-007  0.1133374E+04  0.7818608E-02  0.9173261E-01
          1   -1    0    0  501    0  0.00000000000E+00  0.00000000000E+00  0.80996567135E+03  0.80996567135E+03  0.00000000000E+00 0. -1.
         -2   -1    0    0    0  501 -0.00000000000E+00 -0.00000000000E+00 -0.22090941068E+04  0.22090941068E+04  0.00000000000E+00 0.  1.
        -24    2    1    2    0    0  0.59745267756E+03 -0.87969275999E+03 -0.14465371766E+04  0.17971295098E+04  0.79972606462E+02 0.  0.
    5000000    2    1    2    0    0 -0.59745267756E+03  0.87969275999E+03  0.47408741176E+02  0.12219302683E+04  0.60004744647E+03 0.  0.
        -24    2    4    4    0    0  0.29509789492E+02  0.40754134051E+03  0.10950964601E+03  0.43056373684E+03  0.80199731987E+02 0.  0.
         24    2    4    4    0    0 -0.62696246705E+03  0.47215141948E+03 -0.62100904831E+02  0.79136653149E+03  0.79972287552E+02 0.  0.
         11    1    3    3    0    0  0.13158489901E+03 -0.16444183769E+03 -0.24205595074E+03  0.32085321709E+03  0.00000000000E+00 0. -1.
        -12    1    3    3    0    0  0.46586777855E+03 -0.71525092230E+03 -0.12044812259E+04  0.14762762927E+04  0.00000000000E+00 0.  1.
         15    1    5    5    0    0  0.55770614880E+02  0.29378685962E+03  0.68136662735E+02  0.30670318372E+03  0.17770000000E+01 0. -1.
        -16    1    5    5    0    0 -0.26260825388E+02  0.11375448089E+03  0.41372983272E+02  0.12386055312E+03  0.00000000000E+00 0.  1.
          2    1    6    6  502    0 -0.60910730367E+03  0.44531964057E+03 -0.47625396401E+02  0.75603536164E+03  0.00000000000E+00 0. -1.
         -1    1    6    6    0  502 -0.17855163374E+02  0.26831778916E+02 -0.14475508430E+02  0.35331169853E+02  0.00000000000E+00 0.  1.
<mgrwt>
<rscale>  0 0.11333736E+04</rscale>
<asrwt>0</asrwt>
<pdfrwt beam="1">  1        1 0.12461011E+00 0.11333736E+04</pdfrwt>
<pdfrwt beam="2">  1       -2 0.33986062E+00 0.11333736E+04</pdfrwt>
<totfact> 0.34061943E-01</totfact>
</mgrwt>
</event>
<event>
12    3  0.1201947E-007  0.1386810E+04  0.7818608E-02  0.8963422E-01
         -2   -1    0    0    0  501 -0.00000000000E+00  0.00000000000E+00  0.66366753339E+03  0.66366753339E+03  0.00000000000E+00 0.  1.
          1   -1    0    0  501    0  0.00000000000E+00 -0.00000000000E+00 -0.30825491330E+04  0.30825491330E+04  0.00000000000E+00 0. -1.
        -24    2    1    2    0    0  0.12416345595E+04  0.51290086590E+03 -0.14822730851E+04  0.20020683530E+04  0.80128108206E+02 0.  0.
    5000000    2    1    2    0    0 -0.12416345595E+04 -0.51290086590E+03 -0.93660851449E+03  0.17441483134E+04  0.60007845498E+03 0.  0.
        -24    2    4    4    0    0 -0.82692580895E+03 -0.94903319353E+02 -0.74267553910E+03  0.11190974903E+04  0.89438821916E+02 0.  0.
         24    2    4    4    0    0 -0.41470875053E+03 -0.41799754655E+03 -0.19393297539E+03  0.62505082310E+03  0.79832548634E+02 0.  0.
         13    1    3    3    0    0  0.16776144795E+03  0.60914857296E+02 -0.15981951016E+03  0.23957629075E+03  0.00000000000E+00 0. -1.
        -14    1    3    3    0    0  0.10738731115E+04  0.45198600861E+03 -0.13224535750E+04  0.17624920623E+04  0.00000000000E+00 0.  1.
         15    1    5    5    0    0 -0.14747438297E+03  0.13801115590E+02 -0.15216834534E+03  0.21236178441E+03  0.17770000000E+01 0. -1.
        -16    1    5    5    0    0 -0.67945142598E+03 -0.10870443494E+03 -0.59050719376E+03  0.90673570588E+03  0.00000000000E+00 0.  1.
          2    1    6    6  502    0 -0.81285556534E+02 -0.12948548724E+03 -0.60014346718E+02  0.16424236640E+03  0.00000000000E+00 0. -1.
         -1    1    6    6    0  502 -0.33342319400E+03 -0.28851205931E+03 -0.13391862868E+03  0.46080845670E+03  0.00000000000E+00 0.  1.
<mgrwt>
<rscale>  0 0.13868103E+04</rscale>
<asrwt>0</asrwt>
<pdfrwt beam="1">  1        1 0.47423832E+00 0.13868103E+04</pdfrwt>
<pdfrwt beam="2">  1       -2 0.10210270E+00 0.13868103E+04</pdfrwt>
<totfact> 0.34783869E-01</totfact>
</mgrwt>
</event>
<event>
12    3  0.1201947E-007  0.1738444E+04  0.7818608E-02  0.8739737E-01
          1   -1    0    0  501    0  0.00000000000E+00  0.00000000000E+00  0.31246833503E+04  0.31246833503E+04  0.00000000000E+00 0. -1.
         -2   -1    0    0    0  501 -0.00000000000E+00 -0.00000000000E+00 -0.10584803352E+04  0.10584803352E+04  0.00000000000E+00 0.  1.
        -24    2    1    2    0    0 -0.12324847877E+04 -0.11859192483E+04  0.48950921469E+03  0.17807957002E+04  0.78681886432E+02 0.  0.
    5000000    2    1    2    0    0  0.12324847877E+04  0.11859192483E+04  0.15766938005E+04  0.24023679853E+04  0.59998781718E+03 0.  0.
        -24    2    4    4    0    0  0.83884698519E+03  0.10396309076E+04  0.14094240841E+04  0.19435249672E+04  0.79475533968E+02 0.  0.
         24    2    4    4    0    0  0.39363780249E+03  0.14628834070E+03  0.16726971632E+03  0.45884301806E+03  0.78782987075E+02 0.  0.
         11    1    3    3    0    0 -0.67409627924E+03 -0.69401953303E+03  0.25457354358E+03  0.10004382015E+04  0.00000000000E+00 0. -1.
        -12    1    3    3    0    0 -0.55838850844E+03 -0.49189971529E+03  0.23493567111E+03  0.78035749873E+03  0.00000000000E+00 0.  1.
         15    1    5    5    0    0  0.40462088026E+03  0.44148184868E+03  0.61360383975E+03  0.85740137003E+03  0.17770000000E+01 0. -1.
        -16    1    5    5    0    0  0.43422610493E+03  0.59814905894E+03  0.79582024440E+03  0.10861235972E+04  0.00000000000E+00 0.  1.
          4    1    6    6  502    0  0.36029901906E+03  0.10731473511E+03  0.14516452687E+03  0.40299451034E+03  0.00000000000E+00 0. -1.
         -3    1    6    6    0  502  0.33338783435E+02  0.38973605598E+02  0.22105189455E+02  0.55848507725E+02  0.00000000000E+00 0.  1.
<mgrwt>
<rscale>  0 0.17384438E+04</rscale>
<asrwt>0</asrwt>
<pdfrwt beam="1">  1        1 0.48072051E+00 0.17384438E+04</pdfrwt>
<pdfrwt beam="2">  1       -2 0.16284313E+00 0.17384438E+04</pdfrwt>
<totfact> 0.94008800E-02</totfact>
</mgrwt>
</event>
<event>
12    3  0.1201947E-007  0.6693963E+03  0.7818608E-02  0.9771049E-01
         -2   -1    0    0    0  501 -0.00000000000E+00  0.00000000000E+00  0.62891872349E+03  0.62891872349E+03  0.00000000000E+00 0.  1.
          1   -1    0    0  501    0  0.00000000000E+00 -0.00000000000E+00 -0.78189705843E+03  0.78189705843E+03  0.00000000000E+00 0. -1.
        -24    2    1    2    0    0  0.41688246906E+03 -0.37873986250E+03 -0.14842611638E+03  0.58784148867E+03  0.79324821645E+02 0.  0.
    5000000    2    1    2    0    0 -0.41688246906E+03  0.37873986250E+03 -0.45522185591E+01  0.82297429324E+03  0.60002590627E+03 0.  0.
        -24    2    4    4    0    0  0.92588100687E+02  0.21158063242E+03 -0.11342390190E+03  0.26997483798E+03  0.81746628170E+02 0.  0.
         24    2    4    4    0    0 -0.50947056974E+03  0.16715923008E+03  0.10887168334E+03  0.55299945526E+03  0.80329847814E+02 0.  0.
         11    1    3    3    0    0  0.28532251734E+03 -0.23082004131E+03 -0.12866269971E+03  0.38889705665E+03  0.00000000000E+00 0. -1.
        -12    1    3    3    0    0  0.13155995171E+03 -0.14791982119E+03 -0.19763416675E+02  0.19894443202E+03  0.00000000000E+00 0.  1.
         15    1    5    5    0    0  0.18772248369E+02  0.80618892117E+02 -0.81728176664E+02  0.11633767947E+03  0.17770000000E+01 0. -1.
        -16    1    5    5    0    0  0.73815852318E+02  0.13096174031E+03 -0.31695725232E+02  0.15363715851E+03  0.00000000000E+00 0.  1.
          2    1    6    6  502    0 -0.21413297756E+03  0.34299093972E+02  0.63658098398E+02  0.22601263995E+03  0.00000000000E+00 0. -1.
         -1    1    6    6    0  502 -0.29533759219E+03  0.13286013610E+03  0.45213584940E+02  0.32698681531E+03  0.00000000000E+00 0.  1.
<mgrwt>
<rscale>  0 0.66939629E+03</rscale>
<asrwt>0</asrwt>
<pdfrwt beam="1">  1        1 0.12029185E+00 0.66939629E+03</pdfrwt>
<pdfrwt beam="2">  1       -2 0.96756727E-01 0.66939629E+03</pdfrwt>
<totfact> 0.18469524E+01</totfact>
</mgrwt>
</event>
<event>
12    3  0.1201947E-007  0.7948247E+03  0.7818608E-02  0.9567538E-01
         -4   -1    0    0    0  501 -0.00000000000E+00  0.00000000000E+00  0.19202105479E+04  0.19202105479E+04  0.00000000000E+00 0.  1.
          3   -1    0    0  501    0  0.00000000000E+00 -0.00000000000E+00 -0.38098011570E+03  0.38098011570E+03  0.00000000000E+00 0. -1.
        -24    2    1    2    0    0  0.63073502871E+03 -0.29298771703E+03  0.30767532856E+03  0.76483207083E+03  0.81458639755E+02 0.  0.
    5000000    2    1    2    0    0 -0.63073502871E+03  0.29298771703E+03  0.12315551036E+04  0.15363585928E+04  0.60000106128E+03 0.  0.
        -24    2    4    4    0    0  0.76501115838E+02  0.12977216587E+03  0.13610919036E+03  0.21987652972E+03  0.84420026424E+02 0.  0.
         24    2    4    4    0    0 -0.70723614455E+03  0.16321555117E+03  0.10954459133E+04  0.13164820631E+04  0.79378795373E+02 0.  0.
         13    1    3    3    0    0  0.21176986021E+02  0.41451096069E+01  0.14807666650E+02  0.26170855205E+02  0.00000000000E+00 0. -1.
        -14    1    3    3    0    0  0.60955804269E+03 -0.29713282664E+03  0.29286766191E+03  0.73866121562E+03  0.00000000000E+00 0.  1.
         15    1    5    5    0    0  0.53632050244E+02  0.39163569098E+02  0.17168026804E+02  0.68615456212E+02  0.17770000000E+01 0. -1.
        -16    1    5    5    0    0  0.22869065594E+02  0.90608596769E+02  0.11894116356E+03  0.15126107350E+03  0.00000000000E+00 0.  1.
          2    1    6    6  502    0 -0.54236021845E+03  0.90465889927E+02  0.83373670751E+03  0.99872698033E+03  0.00000000000E+00 0. -1.
         -1    1    6    6    0  502 -0.16487592610E+03  0.72749661241E+02  0.26170920577E+03  0.31775508273E+03  0.00000000000E+00 0.  1.
<mgrwt>
<rscale>  0 0.79482471E+03</rscale>
<asrwt>0</asrwt>
<pdfrwt beam="1">  1        3 0.58612326E-01 0.79482471E+03</pdfrwt>
<pdfrwt beam="2">  1       -4 0.29541700E+00 0.79482471E+03</pdfrwt>
<totfact> 0.21705704E-01</totfact>
</mgrwt>
</event>
<event>
12    3  0.1201947E-007  0.5066513E+03  0.7818608E-02  0.1012057E+00
          1   -1    0    0  501    0  0.00000000000E+00  0.00000000000E+00  0.27994608417E+04  0.27994608417E+04  0.00000000000E+00 0. -1.
         -2   -1    0    0    0  501 -0.00000000000E+00 -0.00000000000E+00 -0.96503548637E+02  0.96503548637E+02  0.00000000000E+00 0.  1.
        -24    2    1    2    0    0  0.18228565604E+03 -0.27419922706E+03  0.66977166778E+03  0.75069583027E+03  0.80850888017E+02 0.  0.
    5000000    2    1    2    0    0 -0.18228565604E+03  0.27419922706E+03  0.20331856253E+04  0.21452685601E+04  0.59993343919E+03 0.  0.
        -24    2    4    4    0    0 -0.35689874492E+03  0.18792128970E+02  0.10563805664E+04  0.11179818803E+04  0.78827187369E+02 0.  0.
         24    2    4    4    0    0  0.17461308888E+03  0.25540709809E+03  0.97680505886E+03  0.10272866797E+04  0.73805709310E+02 0.  0.
         13    1    3    3    0    0  0.18024404051E+03 -0.23274024538E+03  0.61638009609E+03  0.68306687726E+03  0.00000000000E+00 0. -1.
        -14    1    3    3    0    0  0.20416155328E+01 -0.41458981688E+02  0.53391571694E+02  0.67628953005E+02  0.00000000000E+00 0.  1.
         15    1    5    5    0    0 -0.25204092892E+03  0.46269901791E+02  0.78429493166E+03  0.82509831609E+03  0.17770000000E+01 0. -1.
        -16    1    5    5    0    0 -0.10485781600E+03 -0.27477772821E+02  0.27208563475E+03  0.29288356426E+03  0.00000000000E+00 0.  1.
          2    1    6    6  502    0  0.56368621396E+02  0.12263605523E+03  0.51635843285E+03  0.53370689962E+03  0.00000000000E+00 0. -1.
         -1    1    6    6    0  502  0.11824446748E+03  0.13277104287E+03  0.46044662601E+03  0.49357978009E+03  0.00000000000E+00 0.  1.
<mgrwt>
<rscale>  0 0.50665127E+03</rscale>
<asrwt>0</asrwt>
<pdfrwt beam="1">  1        1 0.43068622E+00 0.50665127E+03</pdfrwt>
<pdfrwt beam="2">  1       -2 0.14846702E-01 0.50665127E+03</pdfrwt>
<totfact> 0.28659471E+01</totfact>
</mgrwt>
</event>
<event>
12    3  0.1201947E-007  0.7148289E+03  0.7818608E-02  0.9692204E-01
         -2   -1    0    0    0  501 -0.00000000000E+00  0.00000000000E+00  0.12633105934E+04  0.12633105934E+04  0.00000000000E+00 0.  1.
          1   -1    0    0  501    0  0.00000000000E+00 -0.00000000000E+00 -0.45748426842E+03  0.45748426842E+03  0.00000000000E+00 0. -1.
        -24    2    1    2    0    0  0.23004965002E+03  0.58499587566E+03  0.21105226206E+03  0.66809994345E+03  0.81679012605E+02 0.  0.
    5000000    2    1    2    0    0 -0.23004965002E+03 -0.58499587566E+03  0.59477406290E+03  0.10526949184E+04  0.59938918009E+03 0.  0.
        -24    2    4    4    0    0  0.11248862048E+03 -0.35852121458E+03  0.48641974912E+03  0.62001194397E+03  0.81360231570E+02 0.  0.
         24    2    4    4    0    0 -0.34253827050E+03 -0.22647466108E+03  0.10835431378E+03  0.43268297439E+03  0.82768714745E+02 0.  0.
         11    1    3    3    0    0  0.11637067129E+03  0.40157536967E+03  0.13906804563E+03  0.44061869227E+03  0.00000000000E+00 0. -1.
        -12    1    3    3    0    0  0.11367897873E+03  0.18342050599E+03  0.71984216430E+02  0.22748125118E+03  0.00000000000E+00 0.  1.
         15    1    5    5    0    0  0.88840689628E+02 -0.31792061593E+03  0.37800545228E+03  0.50185402842E+03  0.17770000000E+01 0. -1.
        -16    1    5    5    0    0  0.23647930855E+02 -0.40600598656E+02  0.10841429685E+03  0.11815791555E+03  0.00000000000E+00 0.  1.
          2    1    6    6  502    0 -0.22354597824E+03 -0.19229999084E+03  0.69934342811E+02  0.30305594066E+03  0.00000000000E+00 0. -1.
         -1    1    6    6    0  502 -0.11899229226E+03 -0.34174670237E+02  0.38419970969E+02  0.12962703373E+03  0.00000000000E+00 0.  1.
<mgrwt>
<rscale>  0 0.71482889E+03</rscale>
<asrwt>0</asrwt>
<pdfrwt beam="1">  1        1 0.70382196E-01 0.71482889E+03</pdfrwt>
<pdfrwt beam="2">  1       -2 0.19435547E+00 0.71482889E+03</pdfrwt>
<totfact> 0.65260024E+00</totfact>
</mgrwt>
</event>
<event>
12    3  0.1201947E-007  0.9341737E+03  0.7818608E-02  0.9383843E-01
         -2   -1    0    0    0  501 -0.00000000000E+00  0.00000000000E+00  0.17388746718E+04  0.17388746718E+04  0.00000000000E+00 0.  1.
          1   -1    0    0  501    0  0.00000000000E+00 -0.00000000000E+00 -0.60850551899E+03  0.60850551899E+03  0.00000000000E+00 0. -1.
        -24    2    1    2    0    0  0.18103301048E+03 -0.86360338401E+03  0.15036634396E+03  0.89859369191E+03  0.79226447518E+02 0.  0.
    5000000    2    1    2    0    0 -0.18103301048E+03  0.86360338401E+03  0.98000280881E+03  0.14487864988E+04  0.59999421511E+03 0.  0.
        -24    2    4    4    0    0 -0.29765336206E+03  0.78628435589E+03  0.97395765471E+03  0.12891386900E+04  0.80277248859E+02 0.  0.
         24    2    4    4    0    0  0.11662035158E+03  0.77319028125E+02  0.60451541061E+01  0.15964780882E+03  0.76631197689E+02 0.  0.
         11    1    3    3    0    0  0.12516506445E+03 -0.70468316551E+03  0.14377218415E+03  0.73001034105E+03  0.00000000000E+00 0. -1.
        -12    1    3    3    0    0  0.55867946029E+02 -0.15892021850E+03  0.65941598090E+01  0.16858335086E+03  0.00000000000E+00 0.  1.
         15    1    5    5    0    0 -0.31321976917E+02  0.14781163344E+03  0.20688750046E+03  0.25619317086E+03  0.17770000000E+01 0. -1.
        -16    1    5    5    0    0 -0.26633138514E+03  0.63847272245E+03  0.76707015425E+03  0.10329455192E+04  0.00000000000E+00 0.  1.
          4    1    6    6  502    0  0.47288597415E+01 -0.82952960126E+00  0.21743764612E+02  0.22267499485E+02  0.00000000000E+00 0. -1.
         -3    1    6    6    0  502  0.11189149184E+03  0.78148557727E+02 -0.15698610506E+02  0.13738030933E+03  0.00000000000E+00 0.  1.
<mgrwt>
<rscale>  0 0.93417371E+03</rscale>
<asrwt>0</asrwt>
<pdfrwt beam="1">  1        1 0.93616234E-01 0.93417371E+03</pdfrwt>
<pdfrwt beam="2">  1       -2 0.26751918E+00 0.93417371E+03</pdfrwt>
<totfact> 0.14941812E+00</totfact>
</mgrwt>
</event>
<event>
12    3  0.1201947E-007  0.6410113E+03  0.7818608E-02  0.9823793E-01
         -2   -1    0    0    0  501 -0.00000000000E+00  0.00000000000E+00  0.12444581762E+04  0.12444581762E+04  0.00000000000E+00 0.  1.
          1   -1    0    0  501    0  0.00000000000E+00 -0.00000000000E+00 -0.37827986378E+03  0.37827986378E+03  0.00000000000E+00 0. -1.
        -24    2    1    2    0    0 -0.36127156076E+03 -0.40289664454E+03  0.47726322131E+03  0.72602942857E+03  0.80595917570E+02 0.  0.
    5000000    2    1    2    0    0  0.36127156076E+03  0.40289664454E+03  0.38891509114E+03  0.89670861144E+03  0.59999044902E+03 0.  0.
        -24    2    4    4    0    0 -0.88370064953E+02 -0.18323258406E+02 -0.54873880334E+02  0.13361597819E+03  0.81835668905E+02 0.  0.
         24    2    4    4    0    0  0.44964162571E+03  0.42121990295E+03  0.44378897148E+03  0.76309263325E+03  0.75880942993E+02 0.  0.
         11    1    3    3    0    0 -0.11353282857E+03 -0.16344739033E+03  0.13568514178E+03  0.24086346810E+03  0.00000000000E+00 0. -1.
        -12    1    3    3    0    0 -0.24773873219E+03 -0.23944925421E+03  0.34157807954E+03  0.48516596046E+03  0.00000000000E+00 0.  1.
         15    1    5    5    0    0 -0.87352654849E+02  0.12338216300E+02 -0.52887182624E+02  0.10287336733E+03  0.17770000000E+01 0. -1.
        -16    1    5    5    0    0 -0.10174101042E+01 -0.30661474706E+02 -0.19866977096E+01  0.30742610856E+02  0.00000000000E+00 0.  1.
          4    1    6    6  502    0  0.12702772629E+03  0.16096708391E+03  0.16969638569E+03  0.26616406344E+03  0.00000000000E+00 0. -1.
         -3    1    6    6    0  502  0.32261389942E+03  0.26025281904E+03  0.27409258578E+03  0.49692856981E+03  0.00000000000E+00 0.  1.
<mgrwt>
<rscale>  0 0.64101135E+03</rscale>
<asrwt>0</asrwt>
<pdfrwt beam="1">  1        1 0.58196903E-01 0.64101135E+03</pdfrwt>
<pdfrwt beam="2">  1       -2 0.19145510E+00 0.64101135E+03</pdfrwt>
<totfact> 0.88607117E+00</totfact>
</mgrwt>
</event>
<event>
12    3  0.1201947E-007  0.8792029E+03  0.7818608E-02  0.9451959E-01
         -2   -1    0    0    0  501 -0.00000000000E+00  0.00000000000E+00  0.34810734888E+03  0.34810734888E+03  0.00000000000E+00 0.  1.
          1   -1    0    0  501    0  0.00000000000E+00 -0.00000000000E+00 -0.29755569359E+04  0.29755569359E+04  0.00000000000E+00 0. -1.
        -24    2    1    2    0    0 -0.44096422057E+03 -0.65174601892E+03 -0.20037070375E+04  0.21540174481E+04  0.75676666915E+02 0.  0.
    5000000    2    1    2    0    0  0.44096422057E+03  0.65174601892E+03 -0.62374254960E+03  0.11696468367E+04  0.59983050722E+03 0.  0.
        -24    2    4    4    0    0  0.17397657987E+03  0.67356764348E+03 -0.36926608471E+03  0.79157425758E+03  0.79190550239E+02 0.  0.
         24    2    4    4    0    0  0.26698764070E+03 -0.21821624560E+02 -0.25447646489E+03  0.37807257912E+03  0.80137508781E+02 0.  0.
         11    1    3    3    0    0 -0.31847913484E+03 -0.52665762388E+03 -0.15580958427E+04  0.16752491955E+04  0.00000000000E+00 0. -1.
        -12    1    3    3    0    0 -0.12248508573E+03 -0.12508839504E+03 -0.44561119478E+03  0.47876825262E+03  0.00000000000E+00 0.  1.
         15    1    5    5    0    0  0.24481487519E+02  0.48818037870E+02 -0.99998450590E+01  0.55549065544E+02  0.17770000000E+01 0. -1.
        -16    1    5    5    0    0  0.14949509235E+03  0.62474960561E+03 -0.35926623965E+03  0.73602519203E+03  0.00000000000E+00 0.  1.
          2    1    6    6  502    0  0.16964534158E+03  0.55114535433E+01 -0.20301560610E+03  0.26462285305E+03  0.00000000000E+00 0. -1.
         -1    1    6    6    0  502  0.97342299116E+02 -0.27333078103E+02 -0.51460858795E+02  0.11344972606E+03  0.00000000000E+00 0.  1.
<mgrwt>
<rscale>  0 0.87920292E+03</rscale>
<asrwt>0</asrwt>
<pdfrwt beam="1">  1        1 0.45777796E+00 0.87920292E+03</pdfrwt>
<pdfrwt beam="2">  1       -2 0.53554980E-01 0.87920292E+03</pdfrwt>
<totfact> 0.18770211E+00</totfact>
</mgrwt>
</event>
<event>
12    3  0.1201947E-007  0.6808277E+03  0.7818608E-02  0.9750593E-01
         -2   -1    0    0    0  501 -0.00000000000E+00  0.00000000000E+00  0.83209269295E+03  0.83209269295E+03  0.00000000000E+00 0.  1.
          1   -1    0    0  501    0  0.00000000000E+00 -0.00000000000E+00 -0.10571953661E+04  0.10571953661E+04  0.00000000000E+00 0. -1.
        -24    2    1    2    0    0  0.30539875109E+03  0.59906019166E+03 -0.60792600533E+03  0.91015206857E+03  0.81616478505E+02 0.  0.
    5000000    2    1    2    0    0 -0.30539875109E+03 -0.59906019166E+03  0.38282333219E+03  0.97913599048E+03  0.60001006141E+03 0.  0.
        -24    2    4    4    0    0 -0.10116877288E+03 -0.20112432089E+03  0.45952088870E+03  0.51836267074E+03  0.82790689123E+02 0.  0.
         24    2    4    4    0    0 -0.20422997820E+03 -0.39793587077E+03 -0.76697556508E+02  0.46077331974E+03  0.79791577071E+02 0.  0.
         11    1    3    3    0    0  0.70277033321E+02  0.20015689063E+03 -0.22556895959E+03  0.30964979866E+03  0.00000000000E+00 0. -1.
        -12    1    3    3    0    0  0.23512171776E+03  0.39890330103E+03 -0.38235704574E+03  0.60050226991E+03  0.00000000000E+00 0.  1.
         15    1    5    5    0    0 -0.92823360992E+02 -0.95418689765E+02  0.27543071137E+03  0.30591851399E+03  0.17770000000E+01 0. -1.
        -16    1    5    5    0    0 -0.83454118893E+01 -0.10570563113E+03  0.18409017732E+03  0.21244415675E+03  0.00000000000E+00 0.  1.
          2    1    6    6  502    0 -0.80047777446E+02 -0.16147513542E+03 -0.70763005582E+02  0.19362145798E+03  0.00000000000E+00 0. -1.
         -1    1    6    6    0  502 -0.12418220076E+03 -0.23646073535E+03 -0.59345509261E+01  0.26715186176E+03  0.00000000000E+00 0.  1.
<mgrwt>
<rscale>  0 0.68082771E+03</rscale>
<asrwt>0</asrwt>
<pdfrwt beam="1">  1        1 0.16264544E+00 0.68082771E+03</pdfrwt>
<pdfrwt beam="2">  1       -2 0.12801426E+00 0.68082771E+03</pdfrwt>
<totfact> 0.56031414E+00</totfact>
</mgrwt>
</event>
<event>
12    3  0.1201947E-007  0.4103217E+03  0.7818608E-02  0.1040263E+00
          1   -1    0    0  501    0  0.00000000000E+00  0.00000000000E+00  0.67094852044E+03  0.67094852044E+03  0.00000000000E+00 0. -1.
         -2   -1    0    0    0  501 -0.00000000000E+00 -0.00000000000E+00 -0.33687875604E+03  0.33687875604E+03  0.00000000000E+00 0.  1.
        -24    2    1    2    0    0  0.14875660573E+03  0.18853257898E+03 -0.48004149937E+02  0.25699505008E+03  0.77903762851E+02 0.  0.
    5000000    2    1    2    0    0 -0.14875660573E+03 -0.18853257898E+03  0.38207391434E+03  0.75083222640E+03  0.60007957397E+03 0.  0.
        -24    2    4    4    0    0 -0.24093408711E+03 -0.33080544518E+03  0.38010700501E+03  0.56383800346E+03  0.77139367347E+02 0.  0.
         24    2    4    4    0    0  0.92177481380E+02  0.14227286620E+03  0.19669093328E+01  0.18699422294E+03  0.78896857678E+02 0.  0.
         13    1    3    3    0    0  0.86954922902E+02  0.95918935330E+02  0.12861549934E+02  0.13010388249E+03  0.00000000000E+00 0. -1.
        -14    1    3    3    0    0  0.61801682825E+02  0.92613643655E+02 -0.60865699872E+02  0.12689116759E+03  0.00000000000E+00 0.  1.
         15    1    5    5    0    0 -0.13888261546E+03 -0.16905814520E+03  0.25157425858E+03  0.33340936197E+03  0.17770000000E+01 0. -1.
        -16    1    5    5    0    0 -0.10205147165E+03 -0.16174729998E+03  0.12853274643E+03  0.23042864149E+03  0.00000000000E+00 0.  1.
          2    1    6    6  502    0  0.82337013816E+02  0.13191061437E+03  0.27330405295E+02  0.15788206067E+03  0.00000000000E+00 0. -1.
         -1    1    6    6    0  502  0.98404675637E+01  0.10362251831E+02 -0.25363495962E+02  0.29112162275E+02  0.00000000000E+00 0.  1.
<mgrwt>
<rscale>  0 0.41032175E+03</rscale>
<asrwt>0</asrwt>
<pdfrwt beam="1">  1        1 0.10322285E+00 0.41032175E+03</pdfrwt>
<pdfrwt beam="2">  1       -2 0.51827501E-01 0.41032175E+03</pdfrwt>
<totfact> 0.93562901E+01</totfact>
</mgrwt>
</event>
<event>
12    3  0.1201947E-007  0.8757356E+03  0.7818608E-02  0.9456432E-01
         -2   -1    0    0    0  501 -0.00000000000E+00  0.00000000000E+00  0.10452294443E+04  0.10452294443E+04  0.00000000000E+00 0.  1.
          1   -1    0    0  501    0  0.00000000000E+00 -0.00000000000E+00 -0.89795277352E+03  0.89795277352E+03  0.00000000000E+00 0. -1.
        -24    2    1    2    0    0 -0.10493901983E+03  0.85467657155E+03 -0.83211455454E+02  0.86861423292E+03  0.77989098419E+02 0.  0.
    5000000    2    1    2    0    0  0.10493901983E+03 -0.85467657155E+03  0.23048812623E+03  0.10745679849E+04  0.60007277725E+03 0.  0.
        -24    2    4    4    0    0  0.12713266727E+03 -0.69457903895E+03  0.41002176398E+03  0.82042265237E+03  0.79829350149E+02 0.  0.
         24    2    4    4    0    0 -0.22193647437E+02 -0.16009753259E+03 -0.17953363775E+03  0.25414533252E+03  0.78954069121E+02 0.  0.
         11    1    3    3    0    0 -0.10908203259E+03  0.79629506340E+03 -0.93625892277E+02  0.80916656230E+03  0.00000000000E+00 0. -1.
        -12    1    3    3    0    0  0.41430127576E+01  0.58381508143E+02  0.10414436822E+02  0.59447670619E+02  0.00000000000E+00 0.  1.
         15    1    5    5    0    0  0.91291208234E+02 -0.28127685920E+03  0.16652694659E+03  0.33938936031E+03  0.17770000000E+01 0. -1.
        -16    1    5    5    0    0  0.35841459038E+02 -0.41330217975E+03  0.24349481739E+03  0.48103329206E+03  0.00000000000E+00 0.  1.
          4    1    6    6  502    0  0.27449755802E+02 -0.38434948922E+02 -0.61272481913E+02  0.77363114156E+02  0.00000000000E+00 0. -1.
         -3    1    6    6    0  502 -0.49643403240E+02 -0.12166258367E+03 -0.11826115584E+03  0.17678221837E+03  0.00000000000E+00 0.  1.
<mgrwt>
<rscale>  0 0.87573563E+03</rscale>
<asrwt>0</asrwt>
<pdfrwt beam="1">  1        1 0.13814658E+00 0.87573563E+03</pdfrwt>
<pdfrwt beam="2">  1       -2 0.16080453E+00 0.87573563E+03</pdfrwt>
<totfact> 0.40150918E+00</totfact>
</mgrwt>
</event>
<event>
12    3  0.1326576E-007  0.1158985E+04  0.7818608E-02  0.9149535E-01
         -2   -1    0    0    0  501 -0.00000000000E+00  0.00000000000E+00  0.20331507324E+04  0.20331507324E+04  0.00000000000E+00 0.  1.
          1   -1    0    0  501    0  0.00000000000E+00 -0.00000000000E+00 -0.84476862055E+03  0.84476862055E+03  0.00000000000E+00 0. -1.
        -24    2    1    2    0    0 -0.11303153580E+04  0.40947912351E+02  0.21565668120E+01  0.11325420533E+04  0.57942311748E+02 0.  0.
    5000000    2    1    2    0    0  0.11303153580E+04 -0.40947912351E+02  0.11862255451E+04  0.17453772997E+04  0.59993444181E+03 0.  0.
        -24    2    4    4    0    0  0.74578265010E+03  0.13159603127E+03  0.42693933346E+03  0.87336001285E+03  0.83493957591E+02 0.  0.
         24    2    4    4    0    0  0.38453270793E+03 -0.17254394363E+03  0.75928621163E+03  0.87201728688E+03  0.79131419142E+02 0.  0.
         13    1    3    3    0    0 -0.91119576171E+03  0.55915475740E+02  0.16465225432E+01  0.91291125945E+03  0.00000000000E+00 0. -1.
        -14    1    3    3    0    0 -0.21911959632E+03 -0.14967563388E+02  0.51004426880E+00  0.21963079381E+03  0.00000000000E+00 0.  1.
         15    1    5    5    0    0  0.36027227601E+03  0.93837473223E+02  0.24272510071E+03  0.44443246561E+03  0.17770000000E+01 0. -1.
        -16    1    5    5    0    0  0.38551037409E+03  0.37758558051E+02  0.18421423275E+03  0.42892754724E+03  0.00000000000E+00 0.  1.
          2    1    6    6  502    0  0.11006346799E+03 -0.80225441011E+02  0.29334826342E+03  0.32342432194E+03  0.00000000000E+00 0. -1.
         -1    1    6    6    0  502  0.27446923994E+03 -0.92318502615E+02  0.46593794821E+03  0.54859296494E+03  0.00000000000E+00 0.  1.
<mgrwt>
<rscale>  0 0.11589847E+04</rscale>
<asrwt>0</asrwt>
<pdfrwt beam="1">  1        1 0.12996440E+00 0.11589847E+04</pdfrwt>
<pdfrwt beam="2">  1       -2 0.31279242E+00 0.11589847E+04</pdfrwt>
<totfact> 0.46510866E-01</totfact>
</mgrwt>
</event>
<event>
12    3  0.1201947E-007  0.8699548E+03  0.7818608E-02  0.9463939E-01
         -2   -1    0    0    0  501 -0.00000000000E+00  0.00000000000E+00  0.24657624649E+03  0.24657624649E+03  0.00000000000E+00 0.  1.
          1   -1    0    0  501    0  0.00000000000E+00 -0.00000000000E+00 -0.37476440025E+04  0.37476440025E+04  0.00000000000E+00 0. -1.
        -24    2    1    2    0    0 -0.50044089976E+03 -0.70557432781E+03 -0.16535371909E+04  0.18678099886E+04  0.79073925633E+02 0.  0.
    5000000    2    1    2    0    0  0.50044089976E+03  0.70557432781E+03 -0.18475305651E+04  0.21264102603E+04  0.59997931637E+03 0.  0.
        -24    2    4    4    0    0  0.13474679625E+03  0.23559991639E+03 -0.13946807800E+03  0.31544959299E+03  0.79956746001E+02 0.  0.
         24    2    4    4    0    0  0.36569410351E+03  0.46997441142E+03 -0.17080624871E+04  0.18109606673E+04  0.86561851532E+02 0.  0.
         13    1    3    3    0    0 -0.19870944370E+03 -0.23664262965E+03 -0.52983837130E+03  0.61336276125E+03  0.00000000000E+00 0. -1.
        -14    1    3    3    0    0 -0.30173145607E+03 -0.46893169816E+03 -0.11236988196E+04  0.12544472274E+04  0.00000000000E+00 0.  1.
         15    1    5    5    0    0  0.11059297916E+03  0.14687390655E+03 -0.12508047785E+03  0.22237588703E+03  0.17770000000E+01 0. -1.
        -16    1    5    5    0    0  0.24153817094E+02  0.88726009839E+02 -0.14387600152E+02  0.93073705956E+02  0.00000000000E+00 0.  1.
          4    1    6    6  502    0  0.24233732278E+03  0.34732767928E+03 -0.11075699737E+04  0.11857803935E+04  0.00000000000E+00 0. -1.
         -3    1    6    6    0  502  0.12335678073E+03  0.12264673215E+03 -0.60049251333E+03  0.62518027386E+03  0.00000000000E+00 0.  1.
<mgrwt>
<rscale>  0 0.86995482E+03</rscale>
<asrwt>0</asrwt>
<pdfrwt beam="1">  1        1 0.57656059E+00 0.86995482E+03</pdfrwt>
<pdfrwt beam="2">  1       -2 0.37934809E-01 0.86995482E+03</pdfrwt>
<totfact> 0.96947497E-01</totfact>
</mgrwt>
</event>
<event>
12    3  0.1201947E-007  0.1057045E+04  0.7818608E-02  0.9248100E-01
         -2   -1    0    0    0  501 -0.00000000000E+00  0.00000000000E+00  0.13741254341E+04  0.13741254341E+04  0.00000000000E+00 0.  1.
          1   -1    0    0  501    0  0.00000000000E+00 -0.00000000000E+00 -0.12362223923E+04  0.12362223923E+04  0.00000000000E+00 0. -1.
        -24    2    1    2    0    0 -0.94971110714E+03  0.34545314749E+03 -0.64183236946E+03  0.11999557925E+04  0.81584614315E+02 0.  0.
    5000000    2    1    2    0    0  0.94971110714E+03 -0.34545314749E+03  0.77973541124E+03  0.14103920340E+04  0.59994109193E+03 0.  0.
        -24    2    4    4    0    0  0.41997321843E+03  0.71162123660E+02  0.53623037251E+03  0.68941489175E+03  0.79424986767E+02 0.  0.
         24    2    4    4    0    0  0.52973788871E+03 -0.41661527115E+03  0.24350503872E+03  0.72097714221E+03  0.79516166973E+02 0.  0.
         11    1    3    3    0    0 -0.84735788880E+03  0.32584946768E+03 -0.55297364826E+03  0.10630019393E+04  0.00000000000E+00 0. -1.
        -12    1    3    3    0    0 -0.10235321834E+03  0.19603679808E+02 -0.88858721202E+02  0.13695385317E+03  0.00000000000E+00 0.  1.
         15    1    5    5    0    0  0.22531046262E+03  0.42165464644E+02  0.35050625588E+03  0.41880845754E+03  0.17770000000E+01 0. -1.
        -16    1    5    5    0    0  0.19466275581E+03  0.28996659017E+02  0.18572411664E+03  0.27060643421E+03  0.00000000000E+00 0.  1.
          4    1    6    6  502    0  0.33122080657E+03 -0.29232527279E+03  0.18900500445E+03  0.48050408897E+03  0.00000000000E+00 0. -1.
         -3    1    6    6    0  502  0.19851708214E+03 -0.12428999836E+03  0.54500034276E+02  0.24047305323E+03  0.00000000000E+00 0.  1.
<mgrwt>
<rscale>  0 0.10570452E+04</rscale>
<asrwt>0</asrwt>
<pdfrwt beam="1">  1        1 0.19018806E+00 0.10570452E+04</pdfrwt>
<pdfrwt beam="2">  1       -2 0.21140391E+00 0.10570452E+04</pdfrwt>
<totfact> 0.97991263E-01</totfact>
</mgrwt>
</event>
<event>
12    3  0.1201947E-007  0.1217486E+04  0.7818608E-02  0.9097688E-01
          1   -1    0    0  501    0  0.00000000000E+00  0.00000000000E+00  0.25313076527E+04  0.25313076527E+04  0.00000000000E+00 0. -1.
         -2   -1    0    0    0  501 -0.00000000000E+00 -0.00000000000E+00 -0.59079606158E+03  0.59079606158E+03  0.00000000000E+00 0.  1.
        -24    2    1    2    0    0  0.46392761319E+03 -0.10487270485E+04  0.84896300687E+03  0.14289616058E+04  0.78331547047E+02 0.  0.
    5000000    2    1    2    0    0 -0.46392761319E+03  0.10487270485E+04  0.10915485843E+04  0.16931421085E+04  0.60016217403E+03 0.  0.
        -24    2    4    4    0    0 -0.33331791184E+03  0.13517862178E+03  0.32485949193E+03  0.49074358092E+03  0.76951170073E+02 0.  0.
         24    2    4    4    0    0 -0.13060970135E+03  0.91354842675E+03  0.76668909234E+03  0.12023985276E+04  0.79501149011E+02 0.  0.
         11    1    3    3    0    0  0.25190929983E+03 -0.61844730667E+03  0.45259834972E+03  0.80670975737E+03  0.00000000000E+00 0. -1.
        -12    1    3    3    0    0  0.21201831336E+03 -0.43027974186E+03  0.39636465715E+03  0.62225184844E+03  0.00000000000E+00 0.  1.
         15    1    5    5    0    0 -0.27142962586E+03  0.94810833680E+02  0.29227173967E+03  0.40998666261E+03  0.17770000000E+01 0. -1.
        -16    1    5    5    0    0 -0.61888285984E+02  0.40367788098E+02  0.32587752260E+02  0.80756918312E+02  0.00000000000E+00 0.  1.
          4    1    6    6  502    0 -0.48524080682E+02  0.60090031385E+03  0.50954063231E+03  0.78934620387E+03  0.00000000000E+00 0. -1.
         -3    1    6    6    0  502 -0.82085620664E+02  0.31264811290E+03  0.25714846003E+03  0.41305232370E+03  0.00000000000E+00 0.  1.
<mgrwt>
<rscale>  0 0.12174857E+04</rscale>
<asrwt>0</asrwt>
<pdfrwt beam="1">  1        1 0.38943194E+00 0.12174857E+04</pdfrwt>
<pdfrwt beam="2">  1       -2 0.90891703E-01 0.12174857E+04</pdfrwt>
<totfact> 0.11520272E+00</totfact>
</mgrwt>
</event>
<event>
12    3  0.1201947E-007  0.5910068E+03  0.7818608E-02  0.9924242E-01
          1   -1    0    0  501    0  0.00000000000E+00  0.00000000000E+00  0.34490938481E+04  0.34490938481E+04  0.00000000000E+00 0. -1.
         -4   -1    0    0    0  501 -0.00000000000E+00 -0.00000000000E+00 -0.18794643911E+03  0.18794643911E+03  0.00000000000E+00 0.  1.
        -24    2    1    2    0    0 -0.41283413291E+03  0.32420304724E+03  0.39394593370E+03  0.66106107878E+03  0.79175211158E+02 0.  0.
    5000000    2    1    2    0    0  0.41283413291E+03 -0.32420304724E+03  0.28672014752E+04  0.29759792084E+04  0.60005692396E+03 0.  0.
        -24    2    4    4    0    0  0.48115621552E+03 -0.25827368864E+03  0.14199566052E+04  0.15234249598E+04  0.79562840207E+02 0.  0.
         24    2    4    4    0    0 -0.68322082605E+02 -0.65929358598E+02  0.14472448701E+04  0.14525542486E+04  0.79884566144E+02 0.  0.
         11    1    3    3    0    0 -0.10118850847E+03  0.65269004461E+02  0.53169191467E+02  0.13162872069E+03  0.00000000000E+00 0. -1.
        -12    1    3    3    0    0 -0.31164562444E+03  0.25893404278E+03  0.34077674224E+03  0.52943235809E+03  0.00000000000E+00 0.  1.
         15    1    5    5    0    0  0.20722689274E+02 -0.12389317218E+02  0.29136008836E+02  0.37881258846E+02  0.17770000000E+01 0. -1.
        -16    1    5    5    0    0  0.46043352624E+03 -0.24588437143E+03  0.13908205964E+04  0.14855437010E+04  0.00000000000E+00 0.  1.
          4    1    6    6  502    0 -0.34646971647E+02  0.16996978102E+01  0.82668403018E+03  0.82741149822E+03  0.00000000000E+00 0. -1.
         -3    1    6    6    0  502 -0.33675110958E+02 -0.67629056408E+02  0.62056083987E+03  0.62514275038E+03  0.00000000000E+00 0.  1.
<mgrwt>
<rscale>  0 0.59100679E+03</rscale>
<asrwt>0</asrwt>
<pdfrwt beam="1">  1        1 0.53062977E+00 0.59100679E+03</pdfrwt>
<pdfrwt beam="2">  1       -4 0.28914839E-01 0.59100679E+03</pdfrwt>
<totfact> 0.17092397E+00</totfact>
</mgrwt>
</event>
<event>
12    3  0.1201947E-007  0.1095963E+04  0.7818608E-02  0.9209135E-01
          1   -1    0    0  501    0  0.00000000000E+00  0.00000000000E+00  0.34809766724E+04  0.34809766724E+04  0.00000000000E+00 0. -1.
         -2   -1    0    0    0  501 -0.00000000000E+00 -0.00000000000E+00 -0.11633515981E+04  0.11633515981E+04  0.00000000000E+00 0.  1.
        -24    2    1    2    0    0 -0.84743865948E+03 -0.56100113734E+03  0.30765488143E+04  0.32410706837E+04  0.80697038889E+02 0.  0.
    5000000    2    1    2    0    0  0.84743865948E+03  0.56100113734E+03 -0.75892374007E+03  0.14032575868E+04  0.60024332899E+03 0.  0.
        -24    2    4    4    0    0  0.53837595888E+03  0.11783786888E+02 -0.32539569085E+03  0.63415023354E+03  0.79225200197E+02 0.  0.
         24    2    4    4    0    0  0.30906270060E+03  0.54921735045E+03 -0.43352804923E+03  0.76910735327E+03  0.80125529248E+02 0.  0.
         13    1    3    3    0    0 -0.26411242661E+03 -0.15830103320E+03  0.82552713096E+03  0.88108435178E+03  0.00000000000E+00 0. -1.
        -14    1    3    3    0    0 -0.58332623287E+03 -0.40270010415E+03  0.22510216834E+04  0.23599863319E+04  0.00000000000E+00 0.  1.
         15    1    5    5    0    0  0.30993486333E+03  0.26623031191E+02 -0.22637288886E+03  0.38472879778E+03  0.17770000000E+01 0. -1.
        -16    1    5    5    0    0  0.22844109554E+03 -0.14839244303E+02 -0.99022801991E+02  0.24942143577E+03  0.00000000000E+00 0.  1.
          4    1    6    6  502    0  0.29996010747E+03  0.48463122586E+03 -0.38472283119E+03  0.68764463787E+03  0.00000000000E+00 0. -1.
         -3    1    6    6    0  502  0.91025931284E+01  0.64586124595E+02 -0.48805218039E+02  0.81462715396E+02  0.00000000000E+00 0.  1.
<mgrwt>
<rscale>  0 0.10959631E+04</rscale>
<asrwt>0</asrwt>
<pdfrwt beam="1">  1        1 0.53553487E+00 0.10959631E+04</pdfrwt>
<pdfrwt beam="2">  1       -2 0.17897717E+00 0.10959631E+04</pdfrwt>
<totfact> 0.42329441E-02</totfact>
</mgrwt>
</event>
<event>
12    3  0.1201947E-007  0.7305305E+03  0.7818608E-02  0.9666400E-01
         -2   -1    0    0    0  501 -0.00000000000E+00  0.00000000000E+00  0.88416582877E+03  0.88416582877E+03  0.00000000000E+00 0.  1.
          1   -1    0    0  501    0  0.00000000000E+00 -0.00000000000E+00 -0.62005503587E+03  0.62005503587E+03  0.00000000000E+00 0. -1.
        -24    2    1    2    0    0  0.60765091629E+03  0.98900157572E+02  0.12627598133E+03  0.63360770824E+03  0.80574358429E+02 0.  0.
    5000000    2    1    2    0    0 -0.60765091629E+03 -0.98900157572E+02  0.13783481156E+03  0.87061315641E+03  0.59995662809E+03 0.  0.
        -24    2    4    4    0    0 -0.69402429928E+03 -0.16214164693E+03  0.73465567954E+02  0.72098275008E+03  0.80369736710E+02 0.  0.
         24    2    4    4    0    0  0.86373382983E+02  0.63241489362E+02  0.64369243610E+02  0.14963040633E+03  0.82377252385E+02 0.  0.
         13    1    3    3    0    0  0.12971668952E+03 -0.10641346851E+02  0.36000838202E+02  0.13503969103E+03  0.00000000000E+00 0. -1.
        -14    1    3    3    0    0  0.47793422678E+03  0.10954150442E+03  0.90275143132E+02  0.49856801721E+03  0.00000000000E+00 0.  1.
         15    1    5    5    0    0 -0.34188735680E+03 -0.11887176203E+03  0.50243549459E+02  0.36543813777E+03  0.17770000000E+01 0. -1.
        -16    1    5    5    0    0 -0.35213694248E+03 -0.43269884906E+02  0.23222018495E+02  0.35554461231E+03  0.00000000000E+00 0.  1.
          4    1    6    6  502    0 -0.68330231230E+01 -0.48671310302E+01  0.27031007143E+02  0.28302906505E+02  0.00000000000E+00 0. -1.
         -3    1    6    6    0  502  0.93206406106E+02  0.68108620393E+02  0.37338236467E+02  0.12132749982E+03  0.00000000000E+00 0.  1.
<mgrwt>
<rscale>  0 0.73053048E+03</rscale>
<asrwt>0</asrwt>
<pdfrwt beam="1">  1        1 0.95393083E-01 0.73053048E+03</pdfrwt>
<pdfrwt beam="2">  1       -2 0.13602551E+00 0.73053048E+03</pdfrwt>
<totfact> 0.11305592E+01</totfact>
</mgrwt>
</event>
<event>
12    3  0.1214082E-007  0.1812130E+04  0.7818608E-02  0.8699875E-01
         -2   -1    0    0    0  501 -0.00000000000E+00  0.00000000000E+00  0.16328373962E+04  0.16328373962E+04  0.00000000000E+00 0.  1.
          1   -1    0    0  501    0  0.00000000000E+00 -0.00000000000E+00 -0.20568527677E+04  0.20568527677E+04  0.00000000000E+00 0. -1.
        -24    2    1    2    0    0 -0.17302705835E+04  0.35685610190E+03  0.33255792308E+02  0.17687546701E+04  0.78769065152E+02 0.  0.
    5000000    2    1    2    0    0  0.17302705835E+04 -0.35685610190E+03 -0.45727116381E+03  0.19209354937E+04  0.59976135593E+03 0.  0.
        -24    2    4    4    0    0  0.19893228655E+03  0.13626323047E+03 -0.77008260503E+02  0.26589841140E+03  0.81424630133E+02 0.  0.
         24    2    4    4    0    0  0.15313382970E+04 -0.49311933237E+03 -0.38026290331E+03  0.16550370823E+04  0.79901266786E+02 0.  0.
         13    1    3    3    0    0 -0.64559734412E+03  0.11497055804E+03 -0.21290859555E+02  0.65610019101E+03  0.00000000000E+00 0. -1.
        -14    1    3    3    0    0 -0.10846732394E+04  0.24188554386E+03  0.54546651864E+02  0.11126544791E+04  0.00000000000E+00 0.  1.
         15    1    5    5    0    0  0.78918093441E+02  0.84782254083E+02 -0.69504846291E+02  0.13509321769E+03  0.17770000000E+01 0. -1.
        -16    1    5    5    0    0  0.12001419311E+03  0.51480976384E+02 -0.75034142117E+01  0.13080519371E+03  0.00000000000E+00 0.  1.
          4    1    6    6  502    0  0.79179702845E+03 -0.29686973464E+03 -0.19830498141E+03  0.86856147696E+03  0.00000000000E+00 0. -1.
         -3    1    6    6    0  502  0.73954126854E+03 -0.19624959773E+03 -0.18195792190E+03  0.78647560536E+03  0.00000000000E+00 0.  1.
<mgrwt>
<rscale>  0 0.18121303E+04</rscale>
<asrwt>0</asrwt>
<pdfrwt beam="1">  1        1 0.31643889E+00 0.18121303E+04</pdfrwt>
<pdfrwt beam="2">  1       -2 0.25120575E+00 0.18121303E+04</pdfrwt>
<totfact> 0.13733499E-01</totfact>
</mgrwt>
</event>
<event>
12    3  0.1201947E-007  0.1700866E+04  0.7818608E-02  0.8760871E-01
          1   -1    0    0  501    0  0.00000000000E+00  0.00000000000E+00  0.35098030022E+04  0.35098030022E+04  0.00000000000E+00 0. -1.
         -2   -1    0    0    0  501 -0.00000000000E+00 -0.00000000000E+00 -0.87031261359E+03  0.87031261359E+03  0.00000000000E+00 0.  1.
        -24    2    1    2    0    0  0.15491569379E+04  0.57581164405E+03  0.80818621409E+03  0.18413993894E+04  0.78361259089E+02 0.  0.
    5000000    2    1    2    0    0 -0.15491569379E+04 -0.57581164405E+03  0.18313041745E+04  0.25387162263E+04  0.59996569116E+03 0.  0.
        -24    2    4    4    0    0 -0.15611583247E+04 -0.56213663208E+03  0.17475188308E+04  0.24109821005E+04  0.76155871420E+02 0.  0.
         24    2    4    4    0    0  0.12001386772E+02 -0.13675011974E+02  0.83785343654E+02  0.12773412586E+03  0.94683598692E+02 0.  0.
         13    1    3    3    0    0  0.49751335444E+03  0.20860424789E+03  0.23131592714E+03  0.58697728085E+03  0.00000000000E+00 0. -1.
        -14    1    3    3    0    0  0.10516435835E+04  0.36720739617E+03  0.57687028695E+03  0.12544221086E+04  0.00000000000E+00 0.  1.
         15    1    5    5    0    0 -0.67370695251E+03 -0.21560058947E+03  0.78509874724E+03  0.10567629217E+04  0.17770000000E+01 0. -1.
        -16    1    5    5    0    0 -0.88745137220E+03 -0.34653604260E+03  0.96242008360E+03  0.13542191788E+04  0.00000000000E+00 0.  1.
          4    1    6    6  502    0 -0.13024555062E+01  0.36416187360E+02  0.10403852475E+02  0.37895583364E+02  0.00000000000E+00 0. -1.
         -3    1    6    6    0  502  0.13303842278E+02 -0.50091199335E+02  0.73381491179E+02  0.89838542496E+02  0.00000000000E+00 0.  1.
<mgrwt>
<rscale>  0 0.17008657E+04</rscale>
<asrwt>0</asrwt>
<pdfrwt beam="1">  1        1 0.53996968E+00 0.17008657E+04</pdfrwt>
<pdfrwt beam="2">  1       -2 0.13389425E+00 0.17008657E+04</pdfrwt>
<totfact> 0.80970237E-02</totfact>
</mgrwt>
</event>
<event>
12    3  0.1201947E-007  0.6262775E+03  0.7818608E-02  0.9852340E-01
          1   -1    0    0  501    0  0.00000000000E+00  0.00000000000E+00  0.96417265666E+03  0.96417265666E+03  0.00000000000E+00 0. -1.
         -2   -1    0    0    0  501 -0.00000000000E+00 -0.00000000000E+00 -0.78421679080E+03  0.78421679080E+03  0.00000000000E+00 0.  1.
        -24    2    1    2    0    0 -0.11433014438E+03 -0.53722615216E+03  0.61303634828E+03  0.82695557797E+03  0.79741100765E+02 0.  0.
    5000000    2    1    2    0    0  0.11433014438E+03  0.53722615216E+03 -0.43308048242E+03  0.92143386949E+03  0.59983193572E+03 0.  0.
        -24    2    4    4    0    0  0.26425942652E+03  0.37289228061E+03 -0.49434460300E+03  0.67804952792E+03  0.80578398845E+02 0.  0.
         24    2    4    4    0    0 -0.14992928214E+03  0.16433387155E+03  0.61264120582E+02  0.24338434156E+03  0.77448268326E+02 0.  0.
         13    1    3    3    0    0  0.42555271528E+01 -0.14857839444E+03  0.16855649908E+03  0.22473304650E+03  0.00000000000E+00 0. -1.
        -14    1    3    3    0    0 -0.11858567153E+03 -0.38864775771E+03  0.44447984920E+03  0.60222253147E+03  0.00000000000E+00 0.  1.
         15    1    5    5    0    0  0.15545143059E+03  0.15107063138E+03 -0.22015359712E+03  0.30896318064E+03  0.17770000000E+01 0. -1.
        -16    1    5    5    0    0  0.10880799593E+03  0.22182164923E+03 -0.27419100589E+03  0.36908634728E+03  0.00000000000E+00 0.  1.
          4    1    6    6  502    0 -0.66280683219E+01 -0.74867667755E+01 -0.32826169210E+01  0.10524188343E+02  0.00000000000E+00 0. -1.
         -3    1    6    6    0  502 -0.14330121382E+03  0.17182063832E+03  0.64546737503E+02  0.23286015322E+03  0.00000000000E+00 0.  1.
<mgrwt>
<rscale>  0 0.62627748E+03</rscale>
<asrwt>0</asrwt>
<pdfrwt beam="1">  1        1 0.14833426E+00 0.62627748E+03</pdfrwt>
<pdfrwt beam="2">  1       -2 0.12064874E+00 0.62627748E+03</pdfrwt>
<totfact> 0.77226270E+00</totfact>
</mgrwt>
</event>
<event>
12    3  0.1201947E-007  0.4847473E+03  0.7818608E-02  0.1017839E+00
         -2   -1    0    0    0  501 -0.00000000000E+00  0.00000000000E+00  0.14831664481E+03  0.14831664481E+03  0.00000000000E+00 0.  1.
          1   -1    0    0  501    0  0.00000000000E+00 -0.00000000000E+00 -0.16870057324E+04  0.16870057324E+04  0.00000000000E+00 0. -1.
        -24    2    1    2    0    0 -0.20153504940E+03 -0.23445815018E+03 -0.39536989633E+03  0.50765559747E+03  0.76222374643E+02 0.  0.
    5000000    2    1    2    0    0  0.20153504940E+03  0.23445815018E+03 -0.11433191913E+04  0.13276667798E+04  0.59994441794E+03 0.  0.
        -24    2    4    4    0    0  0.28762623677E+03  0.37403301634E+03 -0.69740106582E+03  0.84589455084E+03  0.80868999997E+02 0.  0.
         24    2    4    4    0    0 -0.86091187369E+02 -0.13957486616E+03 -0.44591812546E+03  0.48177222891E+03  0.79803948110E+02 0.  0.
         13    1    3    3    0    0 -0.58043672438E+02 -0.39705995037E+02 -0.13522289663E+03  0.15241675015E+03  0.00000000000E+00 0. -1.
        -14    1    3    3    0    0 -0.14349137696E+03 -0.19475215514E+03 -0.26014699970E+03  0.35523884732E+03  0.00000000000E+00 0.  1.
         15    1    5    5    0    0  0.13474315166E+03  0.23593955259E+03 -0.36953412751E+03  0.45867397846E+03  0.17770000000E+01 0. -1.
        -16    1    5    5    0    0  0.15288308511E+03  0.13809346375E+03 -0.32786693830E+03  0.38722057238E+03  0.00000000000E+00 0.  1.
          2    1    6    6  502    0 -0.80669795147E+02 -0.61922802223E+02 -0.20968330597E+03  0.23304321077E+03  0.00000000000E+00 0. -1.
         -1    1    6    6    0  502 -0.54213922220E+01 -0.77652063936E+02 -0.23623481949E+03  0.24872901814E+03  0.00000000000E+00 0.  1.
<mgrwt>
<rscale>  0 0.48474730E+03</rscale>
<asrwt>0</asrwt>
<pdfrwt beam="1">  1        1 0.25953936E+00 0.48474730E+03</pdfrwt>
<pdfrwt beam="2">  1       -2 0.22817944E-01 0.48474730E+03</pdfrwt>
<totfact> 0.76476573E+01</totfact>
</mgrwt>
</event>
<event>
12    3  0.1201947E-007  0.1370189E+04  0.7818608E-02  0.8975684E-01
          1   -1    0    0  501    0  0.00000000000E+00  0.00000000000E+00  0.59170694812E+03  0.59170694812E+03  0.00000000000E+00 0. -1.
         -2   -1    0    0    0  501 -0.00000000000E+00 -0.00000000000E+00 -0.32481905940E+04  0.32481905940E+04  0.00000000000E+00 0.  1.
        -24    2    1    2    0    0 -0.77759841125E+03 -0.10514201761E+04 -0.10164015865E+04  0.16581416759E+04  0.78854019195E+02 0.  0.
    5000000    2    1    2    0    0  0.77759841125E+03  0.10514201761E+04 -0.16400820593E+04  0.21817558662E+04  0.60003818427E+03 0.  0.
        -24    2    4    4    0    0  0.39673846226E+02  0.50173198017E+03 -0.50765263962E+03  0.72032490930E+03  0.88587687819E+02 0.  0.
         24    2    4    4    0    0  0.73792456503E+03  0.54968819590E+03 -0.11324294197E+04  0.14614309569E+04  0.81818548249E+02 0.  0.
         11    1    3    3    0    0 -0.47575185413E+03 -0.62247206249E+03 -0.56214669837E+03  0.96427185263E+03  0.00000000000E+00 0. -1.
        -12    1    3    3    0    0 -0.30184655712E+03 -0.42894811359E+03 -0.45425488817E+03  0.69386982325E+03  0.00000000000E+00 0.  1.
         15    1    5    5    0    0 -0.74597782884E+01  0.38589260611E+03 -0.38206390970E+03  0.54308815174E+03  0.17770000000E+01 0. -1.
        -16    1    5    5    0    0  0.47133624514E+02  0.11583937407E+03 -0.12558872993E+03  0.17723675756E+03  0.00000000000E+00 0.  1.
          4    1    6    6  502    0  0.43914331311E+03  0.29787916493E+03 -0.70385163761E+03  0.88146807889E+03  0.00000000000E+00 0. -1.
         -3    1    6    6    0  502  0.29878125192E+03  0.25180903097E+03 -0.42857778210E+03  0.57996287802E+03  0.00000000000E+00 0.  1.
<mgrwt>
<rscale>  0 0.13701894E+04</rscale>
<asrwt>0</asrwt>
<pdfrwt beam="1">  1        1 0.91031838E-01 0.13701894E+04</pdfrwt>
<pdfrwt beam="2">  1       -2 0.49972163E+00 0.13701894E+04</pdfrwt>
<totfact> 0.48913213E-02</totfact>
</mgrwt>
</event>
<event>
12    3  0.1201947E-007  0.8172094E+03  0.7818608E-02  0.9535436E-01
          1   -1    0    0  501    0  0.00000000000E+00  0.00000000000E+00  0.29433857552E+04  0.29433857552E+04  0.00000000000E+00 0. -1.
         -2   -1    0    0    0  501 -0.00000000000E+00 -0.00000000000E+00 -0.24765676254E+03  0.24765676254E+03  0.00000000000E+00 0.  1.
        -24    2    1    2    0    0  0.54014360470E+03  0.51416385414E+03  0.12123314830E+04  0.14256417553E+04  0.81161610714E+02 0.  0.
    5000000    2    1    2    0    0 -0.54014360470E+03 -0.51416385414E+03  0.14833975096E+04  0.17654007625E+04  0.60004341334E+03 0.  0.
        -24    2    4    4    0    0 -0.47226076453E+03 -0.13574981250E+03  0.11419426911E+04  0.12457885836E+04  0.80609205035E+02 0.  0.
         24    2    4    4    0    0 -0.67882840167E+02 -0.37841404164E+03  0.34145481851E+03  0.51961217885E+03  0.74834192866E+02 0.  0.
         11    1    3    3    0    0  0.11768018919E+03  0.77528856385E+02  0.19284183241E+03  0.23884581392E+03  0.00000000000E+00 0. -1.
        -12    1    3    3    0    0  0.42246341551E+03  0.43663499776E+03  0.10194896506E+04  0.11867959414E+04  0.00000000000E+00 0.  1.
         15    1    5    5    0    0 -0.42057089005E+02  0.10708717540E+02  0.10547039846E+03  0.11406418390E+03  0.17770000000E+01 0. -1.
        -16    1    5    5    0    0 -0.43020367553E+03 -0.14645853004E+03  0.10364722927E+04  0.11317243997E+04  0.00000000000E+00 0.  1.
          2    1    6    6  502    0 -0.25987744979E+02 -0.27850825277E+03  0.27642017786E+03  0.39325605460E+03  0.00000000000E+00 0. -1.
         -1    1    6    6    0  502 -0.41895095188E+02 -0.99905788869E+02  0.65034640654E+02  0.12635612425E+03  0.00000000000E+00 0.  1.
<mgrwt>
<rscale>  0 0.81720935E+03</rscale>
<asrwt>0</asrwt>
<pdfrwt beam="1">  1        1 0.45282855E+00 0.81720935E+03</pdfrwt>
<pdfrwt beam="2">  1       -2 0.38101042E-01 0.81720935E+03</pdfrwt>
<totfact> 0.39514316E+00</totfact>
</mgrwt>
</event>
<event>
12    3  0.1201947E-007  0.3330328E+03  0.7818608E-02  0.1069803E+00
          1   -1    0    0  501    0  0.00000000000E+00  0.00000000000E+00  0.19425485542E+04  0.19425485542E+04  0.00000000000E+00 0. -1.
         -2   -1    0    0    0  501 -0.00000000000E+00 -0.00000000000E+00 -0.11565445817E+03  0.11565445817E+03  0.00000000000E+00 0.  1.
        -24    2    1    2    0    0  0.25732503071E+02  0.21834878976E+03  0.19084352198E+03  0.30177400766E+03  0.79422579368E+02 0.  0.
    5000000    2    1    2    0    0 -0.25732503071E+02 -0.21834878976E+03  0.16360505740E+04  0.17564290047E+04  0.60003584232E+03 0.  0.
        -24    2    4    4    0    0  0.14506949419E+03 -0.19533096384E+03  0.24975803107E+03  0.35722874066E+03  0.77678539489E+02 0.  0.
         24    2    4    4    0    0 -0.17080199726E+03 -0.23017825919E+02  0.13862925430E+04  0.13992002640E+04  0.79064667342E+02 0.  0.
         13    1    3    3    0    0  0.53570146306E+02  0.16590129208E+03  0.13955999088E+03  0.22331589810E+03  0.00000000000E+00 0. -1.
        -14    1    3    3    0    0 -0.27837643235E+02  0.52447497673E+02  0.51283531102E+02  0.78458109558E+02  0.00000000000E+00 0.  1.
         15    1    5    5    0    0  0.26176824055E+02 -0.27899958011E+02  0.64362823877E+01  0.38835772615E+02  0.17770000000E+01 0. -1.
        -16    1    5    5    0    0  0.11889267013E+03 -0.16743100583E+03  0.24332174868E+03  0.31839296805E+03  0.00000000000E+00 0.  1.
          2    1    6    6  502    0 -0.10007214696E+02  0.19904561167E+02  0.21329550771E+03  0.21445584513E+03  0.00000000000E+00 0. -1.
         -3    1    6    6    0  502 -0.16079478256E+03 -0.42922387086E+02  0.11729970353E+04  0.11847444189E+04  0.00000000000E+00 0.  1.
<mgrwt>
<rscale>  0 0.33303279E+03</rscale>
<asrwt>0</asrwt>
<pdfrwt beam="1">  1        1 0.29885360E+00 0.33303279E+03</pdfrwt>
<pdfrwt beam="2">  1       -2 0.17792995E-01 0.33303279E+03</pdfrwt>
<totfact> 0.82167380E+01</totfact>
</mgrwt>
</event>
<event>
12    3  0.1201947E-007  0.7594330E+03  0.7818608E-02  0.9620667E-01
         -2   -1    0    0    0  501 -0.00000000000E+00  0.00000000000E+00  0.48663207269E+03  0.48663207269E+03  0.00000000000E+00 0.  1.
          1   -1    0    0  501    0  0.00000000000E+00 -0.00000000000E+00 -0.12021697036E+04  0.12021697036E+04  0.00000000000E+00 0. -1.
        -24    2    1    2    0    0 -0.61370833430E+03  0.18121105065E+03 -0.22018767520E+03  0.68147722751E+03  0.80332028664E+02 0.  0.
    5000000    2    1    2    0    0  0.61370833430E+03 -0.18121105065E+03 -0.49534995575E+03  0.10073245488E+04  0.59987982425E+03 0.  0.
        -24    2    4    4    0    0 -0.79971649293E+02 -0.13776987316E+03 -0.91728874024E+02  0.19986739468E+03  0.78465192820E+02 0.  0.
         24    2    4    4    0    0  0.69367998360E+03 -0.43441177485E+02 -0.40362108172E+03  0.80745715415E+03  0.77446902006E+02 0.  0.
         11    1    3    3    0    0 -0.12952213780E+03  0.69560224536E+02 -0.34419284919E+02  0.15099435814E+03  0.00000000000E+00 0. -1.
        -12    1    3    3    0    0 -0.48418619651E+03  0.11165082611E+03 -0.18576839029E+03  0.53048286936E+03  0.00000000000E+00 0.  1.
         15    1    5    5    0    0 -0.43231953208E+02 -0.97200721589E+01 -0.23907062287E+02  0.50380422161E+02  0.17770000000E+01 0. -1.
        -16    1    5    5    0    0 -0.36739696086E+02 -0.12804980100E+03 -0.67821811737E+02  0.14948697252E+03  0.00000000000E+00 0.  1.
          4    1    6    6  502    0  0.10101285944E+03  0.13866321576E+02 -0.81148019730E+02  0.13031068165E+03  0.00000000000E+00 0. -1.
         -3    1    6    6    0  502  0.59266712415E+03 -0.57307499061E+02 -0.32247306199E+03  0.67714647250E+03  0.00000000000E+00 0.  1.
<mgrwt>
<rscale>  0 0.75943305E+03</rscale>
<asrwt>0</asrwt>
<pdfrwt beam="1">  1        1 0.18494918E+00 0.75943305E+03</pdfrwt>
<pdfrwt beam="2">  1       -2 0.74866474E-01 0.75943305E+03</pdfrwt>
<totfact> 0.15352288E+01</totfact>
</mgrwt>
</event>
<event>
12    3  0.1201947E-007  0.3772279E+03  0.7818608E-02  0.1051963E+00
          1   -1    0    0  501    0  0.00000000000E+00  0.00000000000E+00  0.95751180934E+03  0.95751180934E+03  0.00000000000E+00 0. -1.
         -4   -1    0    0    0  501 -0.00000000000E+00 -0.00000000000E+00 -0.19831152591E+03  0.19831152591E+03  0.00000000000E+00 0.  1.
        -24    2    1    2    0    0 -0.18666224792E+03 -0.14806776393E+02  0.52865927031E+02  0.21030136134E+03  0.79811157857E+02 0.  0.
    5000000    2    1    2    0    0  0.18666224792E+03  0.14806776393E+02  0.70633435640E+03  0.94552197391E+03  0.60003461958E+03 0.  0.
        -24    2    4    4    0    0 -0.71704376289E+02  0.21049199222E+03  0.10727252637E+03  0.25959413559E+03  0.80208004266E+02 0.  0.
         24    2    4    4    0    0  0.25836662420E+03 -0.19568521583E+03  0.59906183002E+03  0.68592783832E+03  0.81091966294E+02 0.  0.
         13    1    3    3    0    0 -0.12108588923E+03  0.77782474400E+01 -0.28012777738E+01  0.12136779169E+03  0.00000000000E+00 0. -1.
        -14    1    3    3    0    0 -0.65576358691E+02 -0.22585023833E+02  0.55667204805E+02  0.88933569654E+02  0.00000000000E+00 0.  1.
         15    1    5    5    0    0 -0.31278103974E+01  0.13235807980E+03  0.62012985664E+02  0.14620948193E+03  0.17770000000E+01 0. -1.
        -16    1    5    5    0    0 -0.68576565891E+02  0.78133912422E+02  0.45259540710E+02  0.11338465366E+03  0.00000000000E+00 0.  1.
          4    1    6    6  502    0  0.16121932175E+03 -0.14934754436E+03  0.33366000426E+03  0.39953142199E+03  0.00000000000E+00 0. -1.
         -3    1    6    6    0  502  0.97147302459E+02 -0.46337671468E+02  0.26540182576E+03  0.28639641633E+03  0.00000000000E+00 0.  1.
<mgrwt>
<rscale>  0 0.37722792E+03</rscale>
<asrwt>0</asrwt>
<pdfrwt beam="1">  1        1 0.14730951E+00 0.37722792E+03</pdfrwt>
<pdfrwt beam="2">  1       -4 0.30509466E-01 0.37722792E+03</pdfrwt>
<totfact> 0.84250318E+01</totfact>
</mgrwt>
</event>
<event>
12    3  0.1201947E-007  0.2252265E+03  0.7818608E-02  0.1130045E+00
          1   -1    0    0  501    0  0.00000000000E+00  0.00000000000E+00  0.18281429808E+04  0.18281429808E+04  0.00000000000E+00 0. -1.
         -2   -1    0    0    0  501 -0.00000000000E+00 -0.00000000000E+00 -0.12776993845E+03  0.12776993845E+03  0.00000000000E+00 0.  1.
        -24    2    1    2    0    0 -0.15442664057E+03  0.81763475656E+01  0.40975222988E+02  0.18458016555E+03  0.92067522180E+02 0.  0.
    5000000    2    1    2    0    0  0.15442664057E+03 -0.81763475656E+01  0.16593978193E+04  0.17713327537E+04  0.60008679492E+03 0.  0.
        -24    2    4    4    0    0 -0.22549714826E+02  0.76553869153E+02  0.17156895330E+02  0.11544935609E+03  0.81640738876E+02 0.  0.
         24    2    4    4    0    0  0.17697635539E+03 -0.84730216719E+02  0.16422409240E+04  0.16558833976E+04  0.80589911897E+02 0.  0.
         13    1    3    3    0    0 -0.76122755108E+02  0.41595435962E+01 -0.26932837441E+02  0.80853901457E+02  0.00000000000E+00 0. -1.
        -14    1    3    3    0    0 -0.78303885459E+02  0.40168039694E+01  0.67908060429E+02  0.10372626410E+03  0.00000000000E+00 0.  1.
         15    1    5    5    0    0 -0.44790800801E+01 -0.10028070955E+02  0.24287774312E+02  0.26714753891E+02  0.17770000000E+01 0. -1.
        -16    1    5    5    0    0 -0.18070634746E+02  0.86581940109E+02 -0.71308789818E+01  0.88734602203E+02  0.00000000000E+00 0.  1.
          4    1    6    6  502    0  0.55485426671E+02 -0.28106521309E+02  0.26808299069E+03  0.27520374091E+03  0.00000000000E+00 0. -1.
         -3    1    6    6    0  502  0.12149092872E+03 -0.56623695410E+02  0.13741579333E+04  0.13806796567E+04  0.00000000000E+00 0.  1.
<mgrwt>
<rscale>  0 0.22522652E+03</rscale>
<asrwt>0</asrwt>
<pdfrwt beam="1">  1        1 0.28125275E+00 0.22522652E+03</pdfrwt>
<pdfrwt beam="2">  1       -2 0.19656915E-01 0.22522652E+03</pdfrwt>
<totfact> 0.84787241E+01</totfact>
</mgrwt>
</event>
<event>
12    3  0.1201947E-007  0.5351198E+03  0.7818608E-02  0.1004998E+00
          1   -1    0    0  501    0  0.00000000000E+00  0.00000000000E+00  0.13834921646E+04  0.13834921646E+04  0.00000000000E+00 0. -1.
         -4   -1    0    0    0  501 -0.00000000000E+00 -0.00000000000E+00 -0.21874085220E+03  0.21874085220E+03  0.00000000000E+00 0.  1.
        -24    2    1    2    0    0 -0.29200021054E+03  0.21703496680E+03  0.57675517556E+03  0.68646656112E+03  0.78876531617E+02 0.  0.
    5000000    2    1    2    0    0  0.29200021054E+03 -0.21703496680E+03  0.58799613682E+03  0.91576645565E+03  0.60043354721E+03 0.  0.
        -24    2    4    4    0    0 -0.11824955344E+03  0.10046169305E+03  0.11374803588E+03  0.20843698353E+03  0.80198826526E+02 0.  0.
         24    2    4    4    0    0  0.41024976399E+03 -0.31749665985E+03  0.47424810094E+03  0.70732947212E+03  0.79339290519E+02 0.  0.
         13    1    3    3    0    0 -0.20785388892E+03  0.19506329529E+03  0.45256941748E+03  0.53485699579E+03  0.00000000000E+00 0. -1.
        -14    1    3    3    0    0 -0.84146321623E+02  0.21971671511E+02  0.12418575807E+03  0.15160956533E+03  0.00000000000E+00 0.  1.
         15    1    5    5    0    0 -0.58617968013E+01  0.51843846043E+02  0.33191949419E+02  0.61862818150E+02  0.17770000000E+01 0. -1.
        -16    1    5    5    0    0 -0.11238775664E+03  0.48617847009E+02  0.80556086460E+02  0.14657416538E+03  0.00000000000E+00 0.  1.
          4    1    6    6  502    0  0.13712615812E+03 -0.65570389358E+02  0.11622054627E+03  0.19133811584E+03  0.00000000000E+00 0. -1.
         -3    1    6    6    0  502  0.27312360587E+03 -0.25192627049E+03  0.35802755468E+03  0.51599135628E+03  0.00000000000E+00 0.  1.
<mgrwt>
<rscale>  0 0.53511976E+03</rscale>
<asrwt>0</asrwt>
<pdfrwt beam="1">  1        1 0.21284494E+00 0.53511976E+03</pdfrwt>
<pdfrwt beam="2">  1       -4 0.33652440E-01 0.53511976E+03</pdfrwt>
<totfact> 0.34077401E+01</totfact>
</mgrwt>
</event>
<event>
12    3  0.1201947E-007  0.4452501E+03  0.7818608E-02  0.1029148E+00
          1   -1    0    0  501    0  0.00000000000E+00  0.00000000000E+00  0.20789675396E+04  0.20789675396E+04  0.00000000000E+00 0. -1.
         -2   -1    0    0    0  501 -0.00000000000E+00 -0.00000000000E+00 -0.15653547483E+03  0.15653547483E+03  0.00000000000E+00 0.  1.
        -24    2    1    2    0    0  0.28465214404E+03 -0.17276048960E+03  0.23829751679E+03  0.41703905148E+03  0.79138069714E+02 0.  0.
    5000000    2    1    2    0    0 -0.28465214404E+03  0.17276048960E+03  0.16841345479E+04  0.18184639629E+04  0.59969073610E+03 0.  0.
        -24    2    4    4    0    0 -0.35951036023E+03  0.22674562059E+03  0.67241136031E+03  0.79943878049E+03  0.79398052340E+02 0.  0.
         24    2    4    4    0    0  0.74858216190E+02 -0.53985130991E+02  0.10117231876E+04  0.10190251824E+04  0.79437819139E+02 0.  0.
         13    1    3    3    0    0  0.15972470488E+03 -0.58633689711E+02  0.92407496186E+02  0.19362085701E+03  0.00000000000E+00 0. -1.
        -14    1    3    3    0    0  0.12492743916E+03 -0.11412679989E+03  0.14589002060E+03  0.22341819447E+03  0.00000000000E+00 0.  1.
         15    1    5    5    0    0 -0.18019298086E+03  0.77576647612E+02  0.35405033172E+03  0.40477455667E+03  0.17770000000E+01 0. -1.
        -16    1    5    5    0    0 -0.17931737936E+03  0.14916897298E+03  0.31836102859E+03  0.39466422382E+03  0.00000000000E+00 0.  1.
          2    1    6    6  502    0  0.76114753465E-01 -0.46551636559E+02  0.40392084592E+03  0.40659452828E+03  0.00000000000E+00 0. -1.
         -1    1    6    6    0  502  0.74782101437E+02 -0.74334944315E+01  0.60780234172E+03  0.61243065415E+03  0.00000000000E+00 0.  1.
<mgrwt>
<rscale>  0 0.44525011E+03</rscale>
<asrwt>0</asrwt>
<pdfrwt beam="1">  1        1 0.31984114E+00 0.44525011E+03</pdfrwt>
<pdfrwt beam="2">  1       -2 0.24082382E-01 0.44525011E+03</pdfrwt>
<totfact> 0.38548699E+01</totfact>
</mgrwt>
</event>
<event>
12    3  0.1201947E-007  0.1470516E+04  0.7818608E-02  0.8904299E-01
          1   -1    0    0  501    0  0.00000000000E+00  0.00000000000E+00  0.13819635081E+04  0.13819635081E+04  0.00000000000E+00 0. -1.
         -2   -1    0    0    0  501 -0.00000000000E+00 -0.00000000000E+00 -0.17333948770E+04  0.17333948770E+04  0.00000000000E+00 0.  1.
        -24    2    1    2    0    0 -0.77145898335E+03  0.12425639779E+04 -0.44729729113E+03  0.15315866730E+04  0.81047319820E+02 0.  0.
    5000000    2    1    2    0    0  0.77145898335E+03 -0.12425639779E+04  0.95865922257E+02  0.15837717121E+04  0.60002363182E+03 0.  0.
        -24    2    4    4    0    0  0.61671633966E+03 -0.10921279750E+04 -0.12699563259E+03  0.12632592112E+04  0.81322732090E+02 0.  0.
         24    2    4    4    0    0  0.15474264369E+03 -0.15043600289E+03  0.22286155484E+03  0.32051250081E+03  0.80527720719E+02 0.  0.
         11    1    3    3    0    0 -0.36410004088E+03  0.63231956860E+03 -0.25701665818E+03  0.77359837072E+03  0.00000000000E+00 0. -1.
        -12    1    3    3    0    0 -0.40735894247E+03  0.61024440929E+03 -0.19028063296E+03  0.75798830225E+03  0.00000000000E+00 0.  1.
         15    1    5    5    0    0  0.61977954296E+02 -0.88614375882E+02 -0.31536443078E+02  0.11265646632E+03  0.17770000000E+01 0. -1.
        -16    1    5    5    0    0  0.55473838536E+03 -0.10035135991E+04 -0.95459189508E+02  0.11506027449E+04  0.00000000000E+00 0.  1.
          2    1    6    6  502    0  0.42208478029E+02 -0.79032168614E+02  0.13075111992E+03  0.15850392631E+03  0.00000000000E+00 0. -1.
         -1    1    6    6    0  502  0.11253416566E+03 -0.71403834280E+02  0.92110434918E+02  0.16200857450E+03  0.00000000000E+00 0.  1.
<mgrwt>
<rscale>  0 0.14705164E+04</rscale>
<asrwt>0</asrwt>
<pdfrwt beam="1">  1        1 0.21260977E+00 0.14705164E+04</pdfrwt>
<pdfrwt beam="2">  1       -2 0.26667613E+00 0.14705164E+04</pdfrwt>
<totfact> 0.33337111E-01</totfact>
</mgrwt>
</event>
<event>
12    3  0.1636144E-007  0.9836096E+03  0.7818608E-02  0.9326706E-01
         -2   -1    0    0    0  501 -0.00000000000E+00  0.00000000000E+00  0.47995275681E+03  0.47995275681E+03  0.00000000000E+00 0.  1.
          1   -1    0    0  501    0  0.00000000000E+00 -0.00000000000E+00 -0.21276242759E+04  0.21276242759E+04  0.00000000000E+00 0. -1.
        -24    2    1    2    0    0 -0.86202317175E+03 -0.22510045756E+03 -0.10461914653E+04  0.13764937590E+04  0.80401005690E+02 0.  0.
    5000000    2    1    2    0    0  0.86202317175E+03  0.22510045756E+03 -0.60148005372E+03  0.12310832737E+04  0.60002800530E+03 0.  0.
        -24    2    4    4    0    0 -0.58432557773E+02 -0.62968699238E+02 -0.57961318769E+02  0.12111263671E+03  0.62684411190E+02 0.  0.
         24    2    4    4    0    0  0.92045572952E+03  0.28806915680E+03 -0.54351873495E+03  0.11099706370E+04  0.79997566434E+02 0.  0.
         13    1    3    3    0    0 -0.34685540133E+03 -0.12723617855E+03 -0.45962361046E+03  0.58970465307E+03  0.00000000000E+00 0. -1.
        -14    1    3    3    0    0 -0.51516777042E+03 -0.97864279010E+02 -0.58656785488E+03  0.78678910590E+03  0.00000000000E+00 0.  1.
         15    1    5    5    0    0 -0.29046981841E+02 -0.69654515270E+02 -0.47605636702E+02  0.89246473467E+02  0.17770000000E+01 0. -1.
        -16    1    5    5    0    0 -0.29385575932E+02  0.66858160319E+01 -0.10355682067E+02  0.31866163244E+02  0.00000000000E+00 0.  1.
          2    1    6    6  502    0  0.40446780690E+03  0.85347286133E+02 -0.23688850257E+03  0.47643942817E+03  0.00000000000E+00 0. -1.
         -1    1    6    6    0  502  0.51598792262E+03  0.20272187066E+03 -0.30663023239E+03  0.63353120882E+03  0.00000000000E+00 0.  1.
<mgrwt>
<rscale>  0 0.98360965E+03</rscale>
<asrwt>0</asrwt>
<pdfrwt beam="1">  1        1 0.32732681E+00 0.98360965E+03</pdfrwt>
<pdfrwt beam="2">  1       -2 0.73838886E-01 0.98360965E+03</pdfrwt>
<totfact> 0.35831245E+00</totfact>
</mgrwt>
</event>
<event>
12    3  0.1201947E-007  0.4104224E+03  0.7818608E-02  0.1040229E+00
         -2   -1    0    0    0  501 -0.00000000000E+00  0.00000000000E+00  0.11492273991E+04  0.11492273991E+04  0.00000000000E+00 0.  1.
          1   -1    0    0  501    0  0.00000000000E+00 -0.00000000000E+00 -0.22927553444E+03  0.22927553444E+03  0.00000000000E+00 0. -1.
        -24    2    1    2    0    0 -0.25115310525E+03  0.17892917135E+03  0.14223083484E+03  0.34893537911E+03  0.80204474763E+02 0.  0.
    5000000    2    1    2    0    0  0.25115310525E+03 -0.17892917135E+03  0.77772102982E+03  0.10295675544E+04  0.60005484608E+03 0.  0.
        -24    2    4    4    0    0 -0.14788531562E+02  0.10799173359E+03 -0.20229195812E+02  0.13737424250E+03  0.81126733881E+02 0.  0.
         24    2    4    4    0    0  0.26594163682E+03 -0.28692090494E+03  0.79795022563E+03  0.89219331194E+03  0.78966976687E+02 0.  0.
         13    1    3    3    0    0 -0.68323258993E+02  0.78254916616E+02  0.80068757598E+02  0.13115984766E+03  0.00000000000E+00 0. -1.
        -14    1    3    3    0    0 -0.18282984626E+03  0.10067425474E+03  0.62162077244E+02  0.21777553145E+03  0.00000000000E+00 0.  1.
         15    1    5    5    0    0 -0.43484913712E+01  0.91612844077E+02  0.18926903016E+02  0.93665404306E+02  0.17770000000E+01 0. -1.
        -16    1    5    5    0    0 -0.10440040191E+02  0.16378889512E+02 -0.39156098829E+02  0.43708838194E+02  0.00000000000E+00 0.  1.
          2    1    6    6  502    0  0.10346461055E+03 -0.16165214024E+03  0.34106260968E+03  0.39135667083E+03  0.00000000000E+00 0. -1.
         -1    1    6    6    0  502  0.16247702627E+03 -0.12526876470E+03  0.45688761595E+03  0.50083664111E+03  0.00000000000E+00 0.  1.
<mgrwt>
<rscale>  0 0.41042238E+03</rscale>
<asrwt>0</asrwt>
<pdfrwt beam="1">  1        1 0.35273160E-01 0.41042238E+03</pdfrwt>
<pdfrwt beam="2">  1       -2 0.17680421E+00 0.41042238E+03</pdfrwt>
<totfact> 0.21828036E+01</totfact>
</mgrwt>
</event>
<event>
12    3  0.1201947E-007  0.1889446E+04  0.7818608E-02  0.8660128E-01
         -4   -1    0    0    0  501 -0.00000000000E+00  0.00000000000E+00  0.22479844503E+04  0.22479844503E+04  0.00000000000E+00 0.  1.
          1   -1    0    0  501    0  0.00000000000E+00 -0.00000000000E+00 -0.16835163722E+04  0.16835163722E+04  0.00000000000E+00 0. -1.
        -24    2    1    2    0    0 -0.17583565214E+04 -0.59917888902E+03  0.67007008899E+03  0.19764642819E+04  0.81142690067E+02 0.  0.
    5000000    2    1    2    0    0  0.17583565214E+04  0.59917888902E+03 -0.10560201090E+03  0.19550365406E+04  0.60015255813E+03 0.  0.
        -24    2    4    4    0    0  0.68746781681E+03  0.80997200018E+01 -0.20976868830E+03  0.72343100642E+03  0.81681784045E+02 0.  0.
         24    2    4    4    0    0  0.10708887046E+04  0.59107916902E+03  0.10416667740E+03  0.12316055342E+04  0.99117574153E+02 0.  0.
         13    1    3    3    0    0 -0.12936117765E+04 -0.47816889442E+03  0.49359876228E+03  0.14648264941E+04  0.00000000000E+00 0. -1.
        -14    1    3    3    0    0 -0.46474474493E+03 -0.12100999460E+03  0.17647132671E+03  0.51163778777E+03  0.00000000000E+00 0.  1.
         15    1    5    5    0    0  0.62119264591E+03  0.31683434325E+02 -0.18896013062E+03  0.65007171300E+03  0.17770000000E+01 0. -1.
        -16    1    5    5    0    0  0.66275170905E+02 -0.23583714323E+02 -0.20808557672E+02  0.73359293427E+02  0.00000000000E+00 0.  1.
          4    1    6    6  502    0  0.95004779563E+03  0.48666802980E+03  0.94280108359E+02  0.10715994233E+04  0.00000000000E+00 0. -1.
         -3    1    6    6    0  502  0.12084090895E+03  0.10441113922E+03  0.98865690416E+01  0.16000611087E+03  0.00000000000E+00 0.  1.
<mgrwt>
<rscale>  0 0.18894460E+04</rscale>
<asrwt>0</asrwt>
<pdfrwt beam="1">  1        1 0.25900252E+00 0.18894460E+04</pdfrwt>
<pdfrwt beam="2">  1       -4 0.34584376E+00 0.18894460E+04</pdfrwt>
<totfact> 0.33156273E-02</totfact>
</mgrwt>
</event>
<event>
12    3  0.1201947E-007  0.6313703E+03  0.7818608E-02  0.9842378E-01
          1   -1    0    0  501    0  0.00000000000E+00  0.00000000000E+00  0.22639659276E+04  0.22639659276E+04  0.00000000000E+00 0. -1.
         -2   -1    0    0    0  501 -0.00000000000E+00 -0.00000000000E+00 -0.23378176687E+03  0.23378176687E+03  0.00000000000E+00 0.  1.
        -24    2    1    2    0    0  0.60018292957E+03  0.14382219385E+02  0.87785779289E+03  0.10666131306E+04  0.81258037360E+02 0.  0.
    5000000    2    1    2    0    0 -0.60018292957E+03 -0.14382219385E+02  0.11523263679E+04  0.14311345639E+04  0.59988639318E+03 0.  0.
        -24    2    4    4    0    0 -0.41866465616E+03  0.10359969937E+03  0.11151624428E+04  0.11974137397E+04  0.64802763264E+02 0.  0.
         24    2    4    4    0    0 -0.18151827341E+03 -0.11798191876E+03  0.37163925045E+02  0.23372082419E+03  0.79847664960E+02 0.  0.
         13    1    3    3    0    0  0.89479079937E+02  0.30809858003E+02  0.14799922485E+03  0.17566878963E+03  0.00000000000E+00 0. -1.
        -14    1    3    3    0    0  0.51070384964E+03 -0.16427638617E+02  0.72985856805E+03  0.89094434097E+03  0.00000000000E+00 0.  1.
         15    1    5    5    0    0 -0.14355020740E+03  0.48564990361E+01  0.38431576465E+03  0.41028284429E+03  0.17770000000E+01 0. -1.
        -16    1    5    5    0    0 -0.27511444877E+03  0.98743200338E+02  0.73084667817E+03  0.78713089542E+03  0.00000000000E+00 0.  1.
          4    1    6    6  502    0 -0.11053412651E+03 -0.97305229404E+02  0.55791092885E+02  0.15747617864E+03  0.00000000000E+00 0. -1.
         -3    1    6    6    0  502 -0.70984146902E+02 -0.20676689356E+02 -0.18627167841E+02  0.76244645555E+02  0.00000000000E+00 0.  1.
<mgrwt>
<rscale>  0 0.63137027E+03</rscale>
<asrwt>0</asrwt>
<pdfrwt beam="1">  1        1 0.34830244E+00 0.63137027E+03</pdfrwt>
<pdfrwt beam="2">  1       -2 0.35966427E-01 0.63137027E+03</pdfrwt>
<totfact> 0.13392399E+01</totfact>
</mgrwt>
</event>
<event>
12    3  0.1201947E-007  0.1028218E+04  0.7818608E-02  0.9278126E-01
         -2   -1    0    0    0  501 -0.00000000000E+00  0.00000000000E+00  0.56762583522E+03  0.56762583522E+03  0.00000000000E+00 0.  1.
          1   -1    0    0  501    0  0.00000000000E+00 -0.00000000000E+00 -0.41140549441E+04  0.41140549441E+04  0.00000000000E+00 0. -1.
        -24    2    1    2    0    0  0.82442749568E+03 -0.47498716394E+03 -0.34186874224E+04  0.35495294265E+04  0.80261795485E+02 0.  0.
    5000000    2    1    2    0    0 -0.82442749568E+03  0.47498716394E+03 -0.12774168645E+03  0.11321513528E+04  0.60012935744E+03 0.  0.
        -24    2    4    4    0    0  0.59448568076E+02  0.12006141795E+03 -0.79854578375E+02  0.17508318787E+03  0.79551823742E+02 0.  0.
         24    2    4    4    0    0 -0.88387606376E+03  0.35492574600E+03 -0.47887108079E+02  0.95706816495E+03  0.80480531640E+02 0.  0.
         11    1    3    3    0    0  0.75994605671E+03 -0.45362573205E+03 -0.32268494459E+04  0.33460202719E+04  0.00000000000E+00 0. -1.
        -12    1    3    3    0    0  0.64481438974E+02 -0.21361431899E+02 -0.19183797658E+03  0.20350915459E+03  0.00000000000E+00 0.  1.
         15    1    5    5    0    0  0.56612407735E+02  0.39249194684E+02 -0.61049510826E+02  0.92063372163E+02  0.17770000000E+01 0. -1.
        -16    1    5    5    0    0  0.28361603408E+01  0.80812223262E+02 -0.18805067549E+02  0.83019815704E+02  0.00000000000E+00 0.  1.
          2    1    6    6  502    0 -0.38253628997E+03  0.12792728396E+03  0.11595621634E+02  0.40352677924E+03  0.00000000000E+00 0. -1.
         -1    1    6    6    0  502 -0.50133977379E+03  0.22699846204E+03 -0.59482729713E+02  0.55354138570E+03  0.00000000000E+00 0.  1.
<mgrwt>
<rscale>  0 0.10282177E+04</rscale>
<asrwt>0</asrwt>
<pdfrwt beam="1">  1        1 0.63293153E+00 0.10282177E+04</pdfrwt>
<pdfrwt beam="2">  1       -2 0.87327051E-01 0.10282177E+04</pdfrwt>
<totfact> 0.79046943E-02</totfact>
</mgrwt>
</event>
<event>
12    3  0.1201947E-007  0.6263838E+03  0.7818608E-02  0.9852131E-01
         -2   -1    0    0    0  501 -0.00000000000E+00  0.00000000000E+00  0.63902871391E+03  0.63902871391E+03  0.00000000000E+00 0.  1.
          1   -1    0    0  501    0  0.00000000000E+00 -0.00000000000E+00 -0.10760875279E+04  0.10760875279E+04  0.00000000000E+00 0. -1.
        -24    2    1    2    0    0  0.22664746608E+03 -0.43631107172E+03  0.35075825659E+03  0.60946066741E+03  0.81697768360E+02 0.  0.
    5000000    2    1    2    0    0 -0.22664746608E+03  0.43631107172E+03 -0.78781707062E+03  0.11056555744E+04  0.60006840220E+03 0.  0.
        -24    2    4    4    0    0  0.17359528472E+03  0.22697847195E+02 -0.23722683001E+03  0.30516398259E+03  0.78727201463E+02 0.  0.
         24    2    4    4    0    0 -0.40024275080E+03  0.41361322453E+03 -0.55059024060E+03  0.80049159184E+03  0.79793586712E+02 0.  0.
         13    1    3    3    0    0  0.13808336262E+03 -0.19283771649E+03  0.13946111323E+03  0.27514142188E+03  0.00000000000E+00 0. -1.
        -14    1    3    3    0    0  0.88564103462E+02 -0.24347335524E+03  0.21129714337E+03  0.33431924552E+03  0.00000000000E+00 0.  1.
         15    1    5    5    0    0  0.95695060143E+02  0.68840925188E+01 -0.66232781955E+02  0.11659706000E+03  0.17770000000E+01 0. -1.
        -16    1    5    5    0    0  0.77900224575E+02  0.15813754676E+02 -0.17099404806E+03  0.18856692260E+03  0.00000000000E+00 0.  1.
          4    1    6    6  502    0 -0.22491972311E+03  0.28781301534E+03 -0.34768862139E+03  0.50429415135E+03  0.00000000000E+00 0. -1.
         -3    1    6    6    0  502 -0.17532302770E+03  0.12580020919E+03 -0.20290161921E+03  0.29619744049E+03  0.00000000000E+00 0.  1.
<mgrwt>
<rscale>  0 0.62638375E+03</rscale>
<asrwt>0</asrwt>
<pdfrwt beam="1">  1        1 0.16555192E+00 0.62638375E+03</pdfrwt>
<pdfrwt beam="2">  1       -2 0.98312111E-01 0.62638375E+03</pdfrwt>
<totfact> 0.10386885E+01</totfact>
</mgrwt>
</event>
<event>
12    3  0.1201947E-007  0.9333338E+03  0.7818608E-02  0.9384846E-01
         -2   -1    0    0    0  501 -0.00000000000E+00  0.00000000000E+00  0.17670638510E+04  0.17670638510E+04  0.00000000000E+00 0.  1.
          1   -1    0    0  501    0  0.00000000000E+00 -0.00000000000E+00 -0.52940785281E+03  0.52940785281E+03  0.00000000000E+00 0. -1.
        -24    2    1    2    0    0  0.87176974270E+03  0.34419383632E+01  0.54425360550E+03  0.10309753420E+04  0.81876965436E+02 0.  0.
    5000000    2    1    2    0    0 -0.87176974270E+03 -0.34419383632E+01  0.69340239266E+03  0.12654963618E+04  0.60056625976E+03 0.  0.
        -24    2    4    4    0    0  0.46950317590E+02 -0.57080612688E+02 -0.66646519118E+01  0.10643722450E+03  0.76301615362E+02 0.  0.
         24    2    4    4    0    0 -0.91872006029E+03  0.53638674325E+02  0.70006704457E+03  0.11590591373E+04  0.80003501891E+02 0.  0.
         11    1    3    3    0    0  0.23499304150E+03 -0.51896694392E+01  0.10557328335E+03  0.25767107013E+03  0.00000000000E+00 0. -1.
        -12    1    3    3    0    0  0.63677670119E+03  0.86316078024E+01  0.43868032215E+03  0.77330427186E+03  0.00000000000E+00 0.  1.
         15    1    5    5    0    0  0.26785924123E+02 -0.27088136085E+02 -0.41415502004E+02  0.56299683684E+02  0.17770000000E+01 0. -1.
        -16    1    5    5    0    0  0.20164393468E+02 -0.29992476603E+02  0.34750850092E+02  0.50137540813E+02  0.00000000000E+00 0.  1.
          4    1    6    6  502    0 -0.62300024206E+03  0.45787543726E+02  0.42881203018E+03  0.75769753728E+03  0.00000000000E+00 0. -1.
         -3    1    6    6    0  502 -0.29571981822E+03  0.78511305995E+01  0.27125501439E+03  0.40136160003E+03  0.00000000000E+00 0.  1.
<mgrwt>
<rscale>  0 0.93333379E+03</rscale>
<asrwt>0</asrwt>
<pdfrwt beam="1">  1        1 0.81447363E-01 0.93333379E+03</pdfrwt>
<pdfrwt beam="2">  1       -2 0.27185597E+00 0.93333379E+03</pdfrwt>
<totfact> 0.17158784E+00</totfact>
</mgrwt>
</event>
<event>
12    3  0.1201947E-007  0.1103636E+04  0.7818608E-02  0.9201655E-01
         -2   -1    0    0    0  501 -0.00000000000E+00  0.00000000000E+00  0.11770121891E+04  0.11770121891E+04  0.00000000000E+00 0.  1.
          1   -1    0    0  501    0  0.00000000000E+00 -0.00000000000E+00 -0.11151058414E+04  0.11151058414E+04  0.00000000000E+00 0. -1.
        -24    2    1    2    0    0  0.86970628902E+03 -0.61380392599E+03 -0.15563390767E+02  0.10676947067E+04  0.81150962893E+02 0.  0.
    5000000    2    1    2    0    0 -0.86970628902E+03  0.61380392599E+03  0.77469738451E+02  0.12244233238E+04  0.60005551975E+03 0.  0.
        -24    2    4    4    0    0 -0.34647127993E+03  0.49245175926E+03 -0.16552087984E+03  0.62944859102E+03  0.79102996545E+02 0.  0.
         24    2    4    4    0    0 -0.52323500909E+03  0.12135216673E+03  0.24299061829E+03  0.59497473279E+03  0.80307340689E+02 0.  0.
         11    1    3    3    0    0  0.45547659309E+03 -0.27789384660E+03  0.11701585955E+02  0.53368609120E+03  0.00000000000E+00 0. -1.
        -12    1    3    3    0    0  0.41422969593E+03 -0.33591007940E+03 -0.27264976723E+02  0.53400861547E+03  0.00000000000E+00 0.  1.
         15    1    5    5    0    0 -0.15469633212E+03  0.18902803471E+03 -0.10301253864E+03  0.26509864942E+03  0.17770000000E+01 0. -1.
        -16    1    5    5    0    0 -0.19177494781E+03  0.30342372455E+03 -0.62508341200E+02  0.36434994161E+03  0.00000000000E+00 0.  1.
          2    1    6    6  502    0 -0.15641475752E+03  0.40219307717E+02  0.11430519003E+03  0.19786067207E+03  0.00000000000E+00 0. -1.
         -1    1    6    6    0  502 -0.36682025157E+03  0.81132859013E+02  0.12868542826E+03  0.39711406072E+03  0.00000000000E+00 0.  1.
<mgrwt>
<rscale>  0 0.11036359E+04</rscale>
<asrwt>0</asrwt>
<pdfrwt beam="1">  1        1 0.17155475E+00 0.11036359E+04</pdfrwt>
<pdfrwt beam="2">  1       -2 0.18107880E+00 0.11036359E+04</pdfrwt>
<totfact> 0.19008772E+00</totfact>
</mgrwt>
</event>
<event>
12    3  0.1201947E-007  0.9410376E+03  0.7818608E-02  0.9375688E-01
         -2   -1    0    0    0  501 -0.00000000000E+00  0.00000000000E+00  0.46835974029E+03  0.46835974029E+03  0.00000000000E+00 0.  1.
          1   -1    0    0  501    0  0.00000000000E+00 -0.00000000000E+00 -0.20160176709E+04  0.20160176709E+04  0.00000000000E+00 0. -1.
        -24    2    1    2    0    0 -0.16108060195E+03 -0.86175185857E+03 -0.71019190819E+03  0.11316310055E+04  0.87481198547E+02 0.  0.
    5000000    2    1    2    0    0  0.16108060195E+03  0.86175185857E+03 -0.83746602244E+03  0.13527464057E+04  0.60000856104E+03 0.  0.
        -24    2    4    4    0    0 -0.14696892293E+03  0.49582847683E+03 -0.22013349706E+03  0.56766016393E+03  0.79583681993E+02 0.  0.
         24    2    4    4    0    0  0.30804952488E+03  0.36592338174E+03 -0.61733252538E+03  0.78508624177E+03  0.80414731515E+02 0.  0.
         11    1    3    3    0    0 -0.10295892351E+03 -0.32336583023E+03 -0.28399462819E+03  0.44251434884E+03  0.00000000000E+00 0. -1.
        -12    1    3    3    0    0 -0.58121678436E+02 -0.53838602834E+03 -0.42619728000E+03  0.68911665667E+03  0.00000000000E+00 0.  1.
         15    1    5    5    0    0 -0.20658097854E+02  0.20098954731E+03 -0.96283542414E+02  0.22382411265E+03  0.17770000000E+01 0. -1.
        -16    1    5    5    0    0 -0.12631082508E+03  0.29483892952E+03 -0.12384995464E+03  0.34383605127E+03  0.00000000000E+00 0.  1.
          4    1    6    6  502    0  0.27854370242E+03  0.32722910233E+03 -0.50776845276E+03  0.66520243625E+03  0.00000000000E+00 0. -1.
         -3    1    6    6    0  502  0.29505822458E+02  0.38694279411E+02 -0.10956407262E+03  0.11988380553E+03  0.00000000000E+00 0.  1.
<mgrwt>
<rscale>  0 0.94103764E+03</rscale>
<asrwt>0</asrwt>
<pdfrwt beam="1">  1        1 0.31015657E+00 0.94103764E+03</pdfrwt>
<pdfrwt beam="2">  1       -2 0.72055344E-01 0.94103764E+03</pdfrwt>
<totfact> 0.45209258E+00</totfact>
</mgrwt>
</event>
<event>
12    3  0.1201947E-007  0.1509066E+04  0.7818608E-02  0.8878447E-01
         -2   -1    0    0    0  501 -0.00000000000E+00  0.00000000000E+00  0.16103988685E+04  0.16103988685E+04  0.00000000000E+00 0.  1.
          1   -1    0    0  501    0  0.00000000000E+00 -0.00000000000E+00 -0.15031113241E+04  0.15031113241E+04  0.00000000000E+00 0. -1.
        -24    2    1    2    0    0 -0.71100041444E+03  0.13141359309E+04  0.14236280481E+03  0.15030360472E+04  0.79845831972E+02 0.  0.
    5000000    2    1    2    0    0  0.71100041444E+03 -0.13141359309E+04 -0.35075260415E+02  0.16104741453E+04  0.59993488359E+03 0.  0.
        -24    2    4    4    0    0 -0.93857747065E+01 -0.13171060343E+03 -0.15345975695E+03  0.21840570587E+03  0.81947419306E+02 0.  0.
         24    2    4    4    0    0  0.72038618914E+03 -0.11824253275E+04  0.11838449653E+03  0.13920684394E+04  0.82181107702E+02 0.  0.
         11    1    3    3    0    0 -0.43069160352E+03  0.82962194694E+03  0.53650554115E+02  0.93629387168E+03  0.00000000000E+00 0. -1.
        -12    1    3    3    0    0 -0.28030881092E+03  0.48451398397E+03  0.88712250698E+02  0.56674217557E+03  0.00000000000E+00 0.  1.
         15    1    5    5    0    0 -0.19534022259E+02 -0.35389482007E+02 -0.99777483002E+02  0.10766938890E+03  0.17770000000E+01 0. -1.
        -16    1    5    5    0    0  0.10148247553E+02 -0.96321121420E+02 -0.53682273946E+02  0.11073631697E+03  0.00000000000E+00 0.  1.
          2    1    6    6  502    0  0.47940984053E+03 -0.84746027760E+03  0.10365242463E+03  0.97916624862E+03  0.00000000000E+00 0. -1.
         -1    1    6    6    0  502  0.24097634862E+03 -0.33496504988E+03  0.14732071903E+02  0.41290219081E+03  0.00000000000E+00 0.  1.
<mgrwt>
<rscale>  0 0.15090657E+04</rscale>
<asrwt>0</asrwt>
<pdfrwt beam="1">  1        1 0.23124790E+00 0.15090657E+04</pdfrwt>
<pdfrwt beam="2">  1       -2 0.24775367E+00 0.15090657E+04</pdfrwt>
<totfact> 0.35650027E-01</totfact>
</mgrwt>
</event>
<event>
12    3  0.1201947E-007  0.4249537E+03  0.7818608E-02  0.1035466E+00
          1   -1    0    0  501    0  0.00000000000E+00  0.00000000000E+00  0.20858703973E+04  0.20858703973E+04  0.00000000000E+00 0. -1.
         -2   -1    0    0    0  501 -0.00000000000E+00 -0.00000000000E+00 -0.22394903505E+03  0.22394903505E+03  0.00000000000E+00 0.  1.
        -24    2    1    2    0    0 -0.41125997455E+03 -0.34173780955E+02  0.13646604747E+04  0.14280452993E+04  0.81930163898E+02 0.  0.
    5000000    2    1    2    0    0  0.41125997455E+03  0.34173780955E+02  0.49726088758E+03  0.88177413306E+03  0.59996218001E+03 0.  0.
        -24    2    4    4    0    0  0.32214825184E+03  0.63665578766E+02 -0.31608726073E+02  0.33977420348E+03  0.81330164796E+02 0.  0.
         24    2    4    4    0    0  0.89111722706E+02 -0.29491797811E+02  0.52886961366E+03  0.54199992957E+03  0.72458195853E+02 0.  0.
         11    1    3    3    0    0 -0.36571158729E+03 -0.44896361770E+02  0.12712477239E+04  0.13235676877E+04  0.00000000000E+00 0. -1.
        -12    1    3    3    0    0 -0.45548387258E+02  0.10722580814E+02  0.93412750770E+02  0.10447761161E+03  0.00000000000E+00 0.  1.
         15    1    5    5    0    0  0.47005056875E+02  0.39716004431E+02  0.17198020294E+01  0.61586945271E+02  0.17770000000E+01 0. -1.
        -16    1    5    5    0    0  0.27514319496E+03  0.23949574335E+02 -0.33328528102E+02  0.27818725821E+03  0.00000000000E+00 0.  1.
          4    1    6    6  502    0  0.66931146454E+01 -0.10305175420E+02  0.25634678650E+03  0.25664112954E+03  0.00000000000E+00 0. -1.
         -3    1    6    6    0  502  0.82418608061E+02 -0.19186622391E+02  0.27252282716E+03  0.28535880003E+03  0.00000000000E+00 0.  1.
<mgrwt>
<rscale>  0 0.42495374E+03</rscale>
<asrwt>0</asrwt>
<pdfrwt beam="1">  1        1 0.32090313E+00 0.42495374E+03</pdfrwt>
<pdfrwt beam="2">  1       -2 0.34453699E-01 0.42495374E+03</pdfrwt>
<totfact> 0.19912090E+01</totfact>
</mgrwt>
</event>
<event>
12    3  0.1201947E-007  0.1850867E+04  0.7818608E-02  0.8679707E-01
         -2   -1    0    0    0  501 -0.00000000000E+00  0.00000000000E+00  0.12467841532E+04  0.12467841532E+04  0.00000000000E+00 0.  1.
          1   -1    0    0  501    0  0.00000000000E+00 -0.00000000000E+00 -0.29834580944E+04  0.29834580944E+04  0.00000000000E+00 0. -1.
        -24    2    1    2    0    0 -0.12755633025E+04  0.13348702501E+04 -0.45383791229E+03  0.19033364177E+04  0.88206265728E+02 0.  0.
    5000000    2    1    2    0    0  0.12755633025E+04 -0.13348702501E+04 -0.12828360289E+04  0.23269058298E+04  0.59990177600E+03 0.  0.
        -24    2    4    4    0    0  0.74819815100E+03 -0.88806581212E+03 -0.11133405066E+04  0.16107003324E+04  0.79794218409E+02 0.  0.
         24    2    4    4    0    0  0.52736515148E+03 -0.44680443793E+03 -0.16949552229E+03  0.71620549746E+03  0.80457279129E+02 0.  0.
         11    1    3    3    0    0 -0.45740482946E+03  0.43751035320E+03 -0.18722356962E+03  0.66006602108E+03  0.00000000000E+00 0. -1.
        -12    1    3    3    0    0 -0.81815847302E+03  0.89735989685E+03 -0.26661434267E+03  0.12432703966E+04  0.00000000000E+00 0.  1.
         15    1    5    5    0    0  0.33796112700E+03 -0.42504885497E+03 -0.57136825733E+03  0.78825699850E+03  0.17770000000E+01 0. -1.
        -16    1    5    5    0    0  0.41023702400E+03 -0.46301695715E+03 -0.54197224927E+03  0.82244333388E+03  0.00000000000E+00 0.  1.
          2    1    6    6  502    0  0.14370933688E+03 -0.14992725990E+03 -0.20267938190E+02  0.20866563226E+03  0.00000000000E+00 0. -1.
         -1    1    6    6    0  502  0.38365581460E+03 -0.29687717803E+03 -0.14922758410E+03  0.50753986520E+03  0.00000000000E+00 0.  1.
<mgrwt>
<rscale>  0 0.18508673E+04</rscale>
<asrwt>0</asrwt>
<pdfrwt beam="1">  1        1 0.45899355E+00 0.18508673E+04</pdfrwt>
<pdfrwt beam="2">  1       -2 0.19181295E+00 0.18508673E+04</pdfrwt>
<totfact> 0.73752403E-02</totfact>
</mgrwt>
</event>
<event>
12    3  0.1201947E-007  0.4729910E+03  0.7818608E-02  0.1021079E+00
          1   -1    0    0  501    0  0.00000000000E+00  0.00000000000E+00  0.20918604921E+04  0.20918604921E+04  0.00000000000E+00 0. -1.
         -2   -1    0    0    0  501 -0.00000000000E+00 -0.00000000000E+00 -0.43098315289E+03  0.43098315289E+03  0.00000000000E+00 0.  1.
        -24    2    1    2    0    0 -0.36328689805E+03  0.25191258591E+03  0.17177040871E+04  0.17754342577E+04  0.78880613710E+02 0.  0.
    5000000    2    1    2    0    0  0.36328689805E+03 -0.25191258591E+03 -0.56826747888E+02  0.74740938733E+03  0.59996182525E+03 0.  0.
        -24    2    4    4    0    0  0.34935516696E+03 -0.20538833620E+03  0.21107150740E+03  0.46363106181E+03  0.78544120785E+02 0.  0.
         24    2    4    4    0    0  0.13931731085E+02 -0.46524249710E+02 -0.26789825529E+03  0.28377832551E+03  0.80012898347E+02 0.  0.
         11    1    3    3    0    0 -0.15294844526E+03  0.59968504573E+02  0.61916811265E+03  0.64059238223E+03  0.00000000000E+00 0. -1.
        -12    1    3    3    0    0 -0.21033845279E+03  0.19194408134E+03  0.10985359745E+04  0.11348418755E+04  0.00000000000E+00 0.  1.
         15    1    5    5    0    0  0.16480309997E+03 -0.86959847310E+02  0.14014000495E+03  0.23316186550E+03  0.17770000000E+01 0. -1.
        -16    1    5    5    0    0  0.18455206699E+03 -0.11842848889E+03  0.70931502452E+02  0.23046919632E+03  0.00000000000E+00 0.  1.
          2    1    6    6  502    0 -0.32196067944E+02 -0.15575242001E+02 -0.13678262925E+03  0.14138126686E+03  0.00000000000E+00 0. -1.
         -1    1    6    6    0  502  0.46127799029E+02 -0.30949007709E+02 -0.13111562605E+03  0.14239705866E+03  0.00000000000E+00 0.  1.
<mgrwt>
<rscale>  0 0.47299096E+03</rscale>
<asrwt>0</asrwt>
<pdfrwt beam="1">  1        1 0.32182469E+00 0.47299096E+03</pdfrwt>
<pdfrwt beam="2">  1       -2 0.66305102E-01 0.47299096E+03</pdfrwt>
<totfact> 0.52458860E+00</totfact>
</mgrwt>
</event>
<event>
12    3  0.1201947E-007  0.4475506E+03  0.7818608E-02  0.1028455E+00
         -2   -1    0    0    0  501 -0.00000000000E+00  0.00000000000E+00  0.12975813064E+04  0.12975813064E+04  0.00000000000E+00 0.  1.
          1   -1    0    0  501    0  0.00000000000E+00 -0.00000000000E+00 -0.34597769880E+03  0.34597769880E+03  0.00000000000E+00 0. -1.
        -24    2    1    2    0    0 -0.36994399810E+03 -0.21805442611E+03  0.76766798551E+03  0.88315624194E+03  0.79022257719E+02 0.  0.
    5000000    2    1    2    0    0  0.36994399810E+03  0.21805442611E+03  0.18393562211E+03  0.76040276329E+03  0.59997812865E+03 0.  0.
        -24    2    4    4    0    0  0.77884670364E+02  0.27502723442E+02 -0.20282947999E+03  0.23329257194E+03  0.80394057578E+02 0.  0.
         24    2    4    4    0    0  0.29205932774E+03  0.19055170267E+03  0.38676510210E+03  0.52711019135E+03  0.81543284883E+02 0.  0.
         13    1    3    3    0    0 -0.21705311600E+03 -0.97218990362E+02  0.48006791708E+03  0.53575068107E+03  0.00000000000E+00 0. -1.
        -14    1    3    3    0    0 -0.15289088211E+03 -0.12083543575E+03  0.28760006843E+03  0.34740556087E+03  0.00000000000E+00 0.  1.
         15    1    5    5    0    0  0.82467572174E+02  0.64317976835E+01 -0.10803896633E+03  0.13608028681E+03  0.17770000000E+01 0. -1.
        -16    1    5    5    0    0 -0.45829018095E+01  0.21070925759E+02 -0.94790513658E+02  0.97212285134E+02  0.00000000000E+00 0.  1.
          4    1    6    6  502    0  0.27447367047E+03  0.14751717919E+03  0.33394042688E+03  0.45674207452E+03  0.00000000000E+00 0. -1.
         -3    1    6    6    0  502  0.17585657272E+02  0.43034523485E+02  0.52824675221E+02  0.70368116825E+02  0.00000000000E+00 0.  1.
<mgrwt>
<rscale>  0 0.44755058E+03</rscale>
<asrwt>0</asrwt>
<pdfrwt beam="1">  1        1 0.53227339E-01 0.44755058E+03</pdfrwt>
<pdfrwt beam="2">  1       -2 0.19962789E+00 0.44755058E+03</pdfrwt>
<totfact> 0.90513111E+00</totfact>
</mgrwt>
</event>
<event>
12    3  0.1201947E-007  0.7582367E+03  0.7818608E-02  0.9622516E-01
         -2   -1    0    0    0  501 -0.00000000000E+00  0.00000000000E+00  0.56413172791E+03  0.56413172791E+03  0.00000000000E+00 0.  1.
          1   -1    0    0  501    0  0.00000000000E+00 -0.00000000000E+00 -0.14577418390E+04  0.14577418390E+04  0.00000000000E+00 0. -1.
        -24    2    1    2    0    0  0.64658820988E+03  0.23357310961E+03  0.69062729674E+02  0.69542326185E+03  0.78810797523E+02 0.  0.
    5000000    2    1    2    0    0 -0.64658820988E+03 -0.23357310961E+03 -0.96267284078E+03  0.13264503051E+04  0.60008224666E+03 0.  0.
        -24    2    4    4    0    0  0.15277200500E+02  0.80355458042E+02 -0.42335606823E+01  0.11757398213E+03  0.84352390272E+02 0.  0.
         24    2    4    4    0    0 -0.66186541038E+03 -0.31392856766E+03 -0.95843928009E+03  0.12088763229E+04  0.78480210853E+02 0.  0.
         13    1    3    3    0    0  0.57822216896E+03  0.19397374593E+03  0.39857856754E+02  0.61119173713E+03  0.00000000000E+00 0. -1.
        -14    1    3    3    0    0  0.68366040913E+02  0.39599363689E+02  0.29204872920E+02  0.84231524722E+02  0.00000000000E+00 0.  1.
         15    1    5    5    0    0  0.14886465848E+02  0.45643204972E+00 -0.30067804917E+02  0.33601277017E+02  0.17770000000E+01 0. -1.
        -16    1    5    5    0    0  0.39073465241E+00  0.79899025992E+02  0.25834244235E+02  0.83972705108E+02  0.00000000000E+00 0.  1.
          4    1    6    6  502    0 -0.50307914255E+03 -0.24524316859E+03 -0.67543377286E+03  0.87717935277E+03  0.00000000000E+00 0. -1.
         -1    1    6    6    0  502 -0.15878626783E+03 -0.68685399068E+02 -0.28300550723E+03  0.33169697017E+03  0.00000000000E+00 0.  1.
<mgrwt>
<rscale>  0 0.75823673E+03</rscale>
<asrwt>0</asrwt>
<pdfrwt beam="1">  1        1 0.22426797E+00 0.75823673E+03</pdfrwt>
<pdfrwt beam="2">  1       -2 0.86789498E-01 0.75823673E+03</pdfrwt>
<totfact> 0.72729784E+00</totfact>
</mgrwt>
</event>
<event>
12    3  0.1201947E-007  0.1766957E+04  0.7818608E-02  0.8724071E-01
          1   -1    0    0  501    0  0.00000000000E+00  0.00000000000E+00  0.40009297387E+04  0.40009297387E+04  0.00000000000E+00 0. -1.
         -2   -1    0    0    0  501 -0.00000000000E+00 -0.00000000000E+00 -0.82461533254E+03  0.82461533254E+03  0.00000000000E+00 0.  1.
        -24    2    1    2    0    0  0.51173657214E+03 -0.16786567294E+04  0.12841630443E+04  0.21760299128E+04  0.79175266742E+02 0.  0.
    5000000    2    1    2    0    0 -0.51173657214E+03  0.16786567294E+04  0.18921513619E+04  0.26495151584E+04  0.59994255042E+03 0.  0.
        -24    2    4    4    0    0 -0.50736449881E+03  0.14981530671E+04  0.18693369213E+04  0.24501369305E+04  0.82880067627E+02 0.  0.
         24    2    4    4    0    0 -0.43720733296E+01  0.18050366232E+03  0.22814440572E+02  0.19937822792E+03  0.81427832658E+02 0.  0.
         11    1    3    3    0    0  0.45530151186E+03 -0.14696240994E+04  0.11559399030E+04  0.19243938058E+04  0.00000000000E+00 0. -1.
        -12    1    3    3    0    0  0.56435060285E+02 -0.20903262999E+03  0.12822314123E+03  0.25163610706E+03  0.00000000000E+00 0.  1.
         15    1    5    5    0    0 -0.46045111686E+03  0.14195404230E+04  0.17598312489E+04  0.23074053449E+04  0.17770000000E+01 0. -1.
        -16    1    5    5    0    0 -0.46913381948E+02  0.78612644070E+02  0.10950567247E+03  0.14273158556E+03  0.00000000000E+00 0.  1.
          2    1    6    6  502    0  0.32605823403E+02  0.53196427140E+02 -0.90150837064E+01  0.63041821948E+02  0.00000000000E+00 0. -1.
         -1    1    6    6    0  502 -0.36977896733E+02  0.12730723518E+03  0.31829524278E+02  0.13633640597E+03  0.00000000000E+00 0.  1.
<mgrwt>
<rscale>  0 0.17669573E+04</rscale>
<asrwt>0</asrwt>
<pdfrwt beam="1">  1        1 0.61552764E+00 0.17669573E+04</pdfrwt>
<pdfrwt beam="2">  1       -2 0.12686390E+00 0.17669573E+04</pdfrwt>
<totfact> 0.36148558E-02</totfact>
</mgrwt>
</event>
<event>
12    3  0.1201947E-007  0.7328525E+03  0.7818608E-02  0.9662643E-01
         -2   -1    0    0    0  501 -0.00000000000E+00  0.00000000000E+00  0.22374684548E+04  0.22374684548E+04  0.00000000000E+00 0.  1.
          1   -1    0    0  501    0  0.00000000000E+00 -0.00000000000E+00 -0.29093961973E+03  0.29093961973E+03  0.00000000000E+00 0. -1.
        -24    2    1    2    0    0  0.59789854833E+03 -0.17563019200E+03  0.13133886177E+04  0.14560508636E+04  0.82254591504E+02 0.  0.
    5000000    2    1    2    0    0 -0.59789854833E+03  0.17563019200E+03  0.63314021741E+03  0.10723572110E+04  0.60062868282E+03 0.  0.
        -24    2    4    4    0    0 -0.61060619984E+03  0.31900194202E+03  0.56574539784E+03  0.89486895974E+03  0.78233174836E+02 0.  0.
         24    2    4    4    0    0  0.12707651508E+02 -0.14337175003E+03  0.67394819573E+02  0.17748825125E+03  0.79013128737E+02 0.  0.
         11    1    3    3    0    0  0.59823636455E+02  0.92577703126E+00  0.16751417785E+03  0.17787839757E+03  0.00000000000E+00 0. -1.
        -12    1    3    3    0    0  0.53807491187E+03 -0.17655596903E+03  0.11458744399E+04  0.12781724660E+04  0.00000000000E+00 0.  1.
         15    1    5    5    0    0 -0.18956266681E+03  0.10012083807E+03  0.13066853698E+03  0.25106893705E+03  0.17770000000E+01 0. -1.
        -16    1    5    5    0    0 -0.42104353302E+03  0.21888110396E+03  0.43507686086E+03  0.64380002270E+03  0.00000000000E+00 0.  1.
          4    1    6    6  502    0 -0.20618774127E+01  0.29416014022E+01 -0.10484160779E+02  0.11082508042E+02  0.00000000000E+00 0. -1.
         -1    1    6    6    0  502  0.14769528920E+02 -0.14631335143E+03  0.77878980352E+02  0.16640574320E+03  0.00000000000E+00 0.  1.
<mgrwt>
<rscale>  0 0.73285253E+03</rscale>
<asrwt>0</asrwt>
<pdfrwt beam="1">  1        1 0.44759943E-01 0.73285253E+03</pdfrwt>
<pdfrwt beam="2">  1       -2 0.34422591E+00 0.73285253E+03</pdfrwt>
<totfact> 0.14270662E+00</totfact>
</mgrwt>
</event>
<event>
12    3  0.1201947E-007  0.3183467E+03  0.7818608E-02  0.1076413E+00
         -2   -1    0    0    0  501 -0.00000000000E+00  0.00000000000E+00  0.14261682048E+03  0.14261682048E+03  0.00000000000E+00 0.  1.
          1   -1    0    0  501    0  0.00000000000E+00 -0.00000000000E+00 -0.14157943766E+04  0.14157943766E+04  0.00000000000E+00 0. -1.
        -24    2    1    2    0    0 -0.33197284594E+01 -0.23159806676E+03 -0.46185776670E+03  0.52306822963E+03  0.81480617737E+02 0.  0.
    5000000    2    1    2    0    0  0.33197284594E+01  0.23159806676E+03 -0.81131978941E+03  0.10353429674E+04  0.60003881076E+03 0.  0.
        -24    2    4    4    0    0  0.12293847279E+03  0.21284052489E+03 -0.84532607720E+03  0.88412136691E+03  0.81727948132E+02 0.  0.
         24    2    4    4    0    0 -0.11961874433E+03  0.18757541868E+02  0.34006287793E+02  0.15122160053E+03  0.83970563198E+02 0.  0.
         11    1    3    3    0    0  0.35335207032E+02 -0.62387199423E+02 -0.12413186434E+03  0.14335082578E+03  0.00000000000E+00 0. -1.
        -12    1    3    3    0    0 -0.38654935492E+02 -0.16921086734E+03 -0.33772590236E+03  0.37971740385E+03  0.00000000000E+00 0.  1.
         15    1    5    5    0    0  0.39795843956E+02  0.10225644516E+03 -0.25165888490E+03  0.27454588296E+03  0.17770000000E+01 0. -1.
        -16    1    5    5    0    0  0.83142628837E+02  0.11058407974E+03 -0.59366719230E+03  0.60957548395E+03  0.00000000000E+00 0.  1.
          4    1    6    6  502    0 -0.10399238200E+03  0.44581871058E+02  0.40809360366E+02  0.12028035016E+03  0.00000000000E+00 0. -1.
         -1    1    6    6    0  502 -0.15626362333E+02 -0.25824329190E+02 -0.68030725726E+01  0.30941250367E+02  0.00000000000E+00 0.  1.
<mgrwt>
<rscale>  0 0.31834669E+03</rscale>
<asrwt>0</asrwt>
<pdfrwt beam="1">  1        1 0.21781454E+00 0.31834669E+03</pdfrwt>
<pdfrwt beam="2">  1       -2 0.21941048E-01 0.31834669E+03</pdfrwt>
<totfact> 0.12794858E+02</totfact>
</mgrwt>
</event>
<event>
12    3  0.1201947E-007  0.2508998E+03  0.7818608E-02  0.1112738E+00
         -2   -1    0    0    0  501 -0.00000000000E+00  0.00000000000E+00  0.17939859229E+03  0.17939859229E+03  0.00000000000E+00 0.  1.
          1   -1    0    0  501    0  0.00000000000E+00 -0.00000000000E+00 -0.97929446257E+03  0.97929446257E+03  0.00000000000E+00 0. -1.
        -24    2    1    2    0    0 -0.17702105376E+03 -0.17719062716E+02 -0.29859470203E+03  0.35646001091E+03  0.79085552664E+02 0.  0.
    5000000    2    1    2    0    0  0.17702105376E+03  0.17719062716E+02 -0.50130116826E+03  0.80223304395E+03  0.60052025516E+03 0.  0.
        -24    2    4    4    0    0 -0.24606407195E+02 -0.71445394261E+02  0.11018155323E+03  0.14740148500E+03  0.62267997187E+02 0.  0.
         24    2    4    4    0    0  0.20162746096E+03  0.89164456977E+02 -0.61148272148E+03  0.65483155895E+03  0.79305223817E+02 0.  0.
         13    1    3    3    0    0 -0.74831885060E+02 -0.19799542442E+02 -0.19995516885E+03  0.21441525704E+03  0.00000000000E+00 0. -1.
        -14    1    3    3    0    0 -0.10218916870E+03  0.20804797259E+01 -0.98639533181E+02  0.14204475387E+03  0.00000000000E+00 0.  1.
         15    1    5    5    0    0  0.89651508442E+01 -0.60269470519E+02  0.56548978653E+02  0.83148828748E+02  0.17770000000E+01 0. -1.
        -16    1    5    5    0    0 -0.33571558039E+02 -0.11175923742E+02  0.53632574572E+02  0.64252656255E+02  0.00000000000E+00 0.  1.
          2    1    6    6  502    0  0.12908457618E+03  0.30734777437E+02 -0.26958447686E+03  0.30047170336E+03  0.00000000000E+00 0. -1.
         -1    1    6    6    0  502  0.72542884778E+02  0.58429679541E+02 -0.34189824462E+03  0.35435985559E+03  0.00000000000E+00 0.  1.
<mgrwt>
<rscale>  0 0.25089976E+03</rscale>
<asrwt>0</asrwt>
<pdfrwt beam="1">  1        1 0.15066068E+00 0.25089976E+03</pdfrwt>
<pdfrwt beam="2">  1       -2 0.27599784E-01 0.25089976E+03</pdfrwt>
<totfact> 0.17561877E+02</totfact>
</mgrwt>
</event>
<event>
12    3  0.1201947E-007  0.1190108E+04  0.7818608E-02  0.9121560E-01
         -2   -1    0    0    0  501 -0.00000000000E+00  0.00000000000E+00  0.95882923271E+03  0.95882923271E+03  0.00000000000E+00 0.  1.
          1   -1    0    0  501    0  0.00000000000E+00 -0.00000000000E+00 -0.24845729499E+04  0.24845729499E+04  0.00000000000E+00 0. -1.
        -24    2    1    2    0    0  0.83809271310E+03 -0.77633759457E+03 -0.17912396964E+04  0.21259772754E+04  0.78359869006E+02 0.  0.
    5000000    2    1    2    0    0 -0.83809271310E+03  0.77633759457E+03  0.26549597912E+03  0.13174249073E+04  0.60001734553E+03 0.  0.
        -24    2    4    4    0    0 -0.60233867404E+03  0.78410868895E+03  0.58315325190E+02  0.99371966744E+03  0.80248277099E+02 0.  0.
         24    2    4    4    0    0 -0.23575403906E+03 -0.77710943725E+01  0.20718065393E+03  0.32370523986E+03  0.78872695573E+02 0.  0.
         11    1    3    3    0    0  0.19654598633E+03 -0.14742076712E+03 -0.42217699354E+03  0.48846353108E+03  0.00000000000E+00 0. -1.
        -12    1    3    3    0    0  0.64154672677E+03 -0.62891682745E+03 -0.13690627028E+04  0.16375137443E+04  0.00000000000E+00 0.  1.
         15    1    5    5    0    0 -0.19834017117E+03  0.22617901795E+03 -0.13588936127E+02  0.30113715907E+03  0.17770000000E+01 0. -1.
        -16    1    5    5    0    0 -0.40399850287E+03  0.55792967099E+03  0.71904261317E+02  0.69258250837E+03  0.00000000000E+00 0.  1.
          2    1    6    6  502    0 -0.17387708877E+03  0.26246323038E+02  0.12729204641E+03  0.21708380075E+03  0.00000000000E+00 0. -1.
         -1    1    6    6    0  502 -0.61876950296E+02 -0.34017417410E+02  0.79888607517E+02  0.10662143910E+03  0.00000000000E+00 0.  1.
<mgrwt>
<rscale>  0 0.11901077E+04</rscale>
<asrwt>0</asrwt>
<pdfrwt beam="1">  1        1 0.38224199E+00 0.11901077E+04</pdfrwt>
<pdfrwt beam="2">  1       -2 0.14751219E+00 0.11901077E+04</pdfrwt>
<totfact> 0.37493190E-01</totfact>
</mgrwt>
</event>
<event>
12    3  0.1201947E-007  0.4336624E+03  0.7818608E-02  0.1032709E+00
         -2   -1    0    0    0  501 -0.00000000000E+00  0.00000000000E+00  0.21850198991E+03  0.21850198991E+03  0.00000000000E+00 0.  1.
          1   -1    0    0  501    0  0.00000000000E+00 -0.00000000000E+00 -0.16632589763E+04  0.16632589763E+04  0.00000000000E+00 0. -1.
        -24    2    1    2    0    0  0.54543478867E+02  0.22674776387E+03  0.52403742885E+02  0.25207136457E+03  0.80026752154E+02 0.  0.
    5000000    2    1    2    0    0 -0.54543478867E+02 -0.22674776387E+03 -0.14971607293E+04  0.16296896016E+04  0.60000700738E+03 0.  0.
        -24    2    4    4    0    0 -0.75867511849E+02  0.18654545470E+03 -0.61821766679E+03  0.65494374286E+03  0.78759994613E+02 0.  0.
         24    2    4    4    0    0  0.21324032982E+02 -0.41329321857E+03 -0.87894306249E+03  0.97474585879E+03  0.79514673046E+02 0.  0.
         11    1    3    3    0    0  0.97591950305E+01  0.92842640268E+02 -0.16758759801E+02  0.94846474735E+02  0.00000000000E+00 0. -1.
        -12    1    3    3    0    0  0.44784283837E+02  0.13390512360E+03  0.69162502685E+02  0.15722488983E+03  0.00000000000E+00 0.  1.
         15    1    5    5    0    0 -0.30014182648E+02  0.16080880937E+03 -0.47430444675E+03  0.50172521391E+03  0.17770000000E+01 0. -1.
        -16    1    5    5    0    0 -0.45853329201E+02  0.25736645323E+02 -0.14391322004E+03  0.15321852895E+03  0.00000000000E+00 0.  1.
          4    1    6    6  502    0  0.36637906195E+02 -0.31393506656E+03 -0.59854216204E+03  0.67686799446E+03  0.00000000000E+00 0. -1.
         -3    1    6    6    0  502 -0.15313873214E+02 -0.99358152010E+02 -0.28040090045E+03  0.29787786433E+03  0.00000000000E+00 0.  1.
<mgrwt>
<rscale>  0 0.43366238E+03</rscale>
<asrwt>0</asrwt>
<pdfrwt beam="1">  1        1 0.25588600E+00 0.43366238E+03</pdfrwt>
<pdfrwt beam="2">  1       -2 0.33615690E-01 0.43366238E+03</pdfrwt>
<totfact> 0.39551936E+01</totfact>
</mgrwt>
</event>
<event>
12    3  0.1201947E-007  0.7458723E+03  0.7818608E-02  0.9641848E-01
         -2   -1    0    0    0  501 -0.00000000000E+00  0.00000000000E+00  0.49022768241E+03  0.49022768241E+03  0.00000000000E+00 0.  1.
          1   -1    0    0  501    0  0.00000000000E+00 -0.00000000000E+00 -0.21365267441E+04  0.21365267441E+04  0.00000000000E+00 0. -1.
        -24    2    1    2    0    0  0.55521213713E+03 -0.32671016755E+03 -0.16209318644E+04  0.17460069849E+04  0.78231909078E+02 0.  0.
    5000000    2    1    2    0    0 -0.55521213713E+03  0.32671016755E+03 -0.25367197288E+02  0.88074744157E+03  0.60006042224E+03 0.  0.
        -24    2    4    4    0    0 -0.58941222585E+03  0.42547606998E+03  0.45321452331E+02  0.73274482161E+03  0.80151615461E+02 0.  0.
         24    2    4    4    0    0  0.34200088717E+02 -0.98765902430E+02 -0.70688649619E+02  0.14800261996E+03  0.77353350144E+02 0.  0.
         11    1    3    3    0    0  0.27352092940E+03 -0.20492359928E+03 -0.87943903342E+03  0.94351491449E+03  0.00000000000E+00 0. -1.
        -12    1    3    3    0    0  0.28169120773E+03 -0.12178656826E+03 -0.74149283095E+03  0.80249207041E+03  0.00000000000E+00 0.  1.
         15    1    5    5    0    0 -0.55583108524E+03  0.40361109436E+03  0.61210554508E+02  0.68963758636E+03  0.17770000000E+01 0. -1.
        -16    1    5    5    0    0 -0.33581140604E+02  0.21864975613E+02 -0.15889102178E+02  0.43107235249E+02  0.00000000000E+00 0.  1.
          4    1    6    6  502    0  0.41418459243E+02 -0.10047502270E+03 -0.39009030332E+02  0.11546611364E+03  0.00000000000E+00 0. -1.
         -3    1    6    6    0  502 -0.72183705259E+01  0.17091202671E+01 -0.31679619287E+02  0.32536506317E+02  0.00000000000E+00 0.  1.
<mgrwt>
<rscale>  0 0.74587228E+03</rscale>
<asrwt>0</asrwt>
<pdfrwt beam="1">  1        1 0.32869642E+00 0.74587228E+03</pdfrwt>
<pdfrwt beam="2">  1       -2 0.75419645E-01 0.74587228E+03</pdfrwt>
<totfact> 0.34917947E+00</totfact>
</mgrwt>
</event>
<event>
12    3  0.1201947E-007  0.2068812E+04  0.7818608E-02  0.8575108E-01
         -2   -1    0    0    0  501 -0.00000000000E+00  0.00000000000E+00  0.26374997421E+04  0.26374997421E+04  0.00000000000E+00 0.  1.
          1   -1    0    0  501    0  0.00000000000E+00 -0.00000000000E+00 -0.23880176786E+04  0.23880176786E+04  0.00000000000E+00 0. -1.
        -24    2    1    2    0    0  0.19867307290E+04  0.41864141676E+03 -0.12908875074E+04  0.24073122761E+04  0.80013825190E+02 0.  0.
    5000000    2    1    2    0    0 -0.19867307290E+04 -0.41864141676E+03  0.15403695710E+04  0.26182051447E+04  0.59991677654E+03 0.  0.
        -24    2    4    4    0    0 -0.15286919920E+04 -0.68253154165E+02  0.10575417392E+04  0.18618238017E+04  0.80222434195E+02 0.  0.
         24    2    4    4    0    0 -0.45803873702E+03 -0.35038826259E+03  0.48282783185E+03  0.75638134299E+03  0.80116175883E+02 0.  0.
         13    1    3    3    0    0  0.14209940322E+04  0.28230722858E+03 -0.95861914365E+03  0.17372023697E+04  0.00000000000E+00 0. -1.
        -14    1    3    3    0    0  0.56573669680E+03  0.13633418818E+03 -0.33226836380E+03  0.67010990633E+03  0.00000000000E+00 0.  1.
         15    1    5    5    0    0 -0.11630343266E+03 -0.38915177680E+01  0.55851751612E+02  0.12908992310E+03  0.17770000000E+01 0. -1.
        -16    1    5    5    0    0 -0.14123885593E+04 -0.64361636397E+02  0.10016899876E+04  0.17327338786E+04  0.00000000000E+00 0.  1.
          2    1    6    6  502    0 -0.88661161060E+02 -0.68225917965E+02  0.55075607526E+02  0.12469522808E+03  0.00000000000E+00 0. -1.
         -1    1    6    6    0  502 -0.36937757596E+03 -0.28216234463E+03  0.42775222433E+03  0.63168611490E+03  0.00000000000E+00 0.  1.
<mgrwt>
<rscale>  0 0.20688123E+04</rscale>
<asrwt>0</asrwt>
<pdfrwt beam="1">  1        1 0.36738733E+00 0.20688123E+04</pdfrwt>
<pdfrwt beam="2">  1       -2 0.40576919E+00 0.20688123E+04</pdfrwt>
<totfact> 0.84596432E-03</totfact>
</mgrwt>
</event>
<event>
12    3  0.1201947E-007  0.4801058E+03  0.7818608E-02  0.1019106E+00
          1   -1    0    0  501    0  0.00000000000E+00  0.00000000000E+00  0.50463989797E+03  0.50463989797E+03  0.00000000000E+00 0. -1.
         -2   -1    0    0    0  501 -0.00000000000E+00 -0.00000000000E+00 -0.56275601757E+03  0.56275601757E+03  0.00000000000E+00 0.  1.
        -24    2    1    2    0    0 -0.29981475558E+03 -0.16287568087E+02  0.17488893216E+03  0.35706682228E+03  0.82197350573E+02 0.  0.
    5000000    2    1    2    0    0  0.29981475558E+03  0.16287568087E+02 -0.23300505176E+03  0.71032909326E+03  0.60010156977E+03 0.  0.
        -24    2    4    4    0    0  0.13852288076E+03  0.29668851486E+03 -0.13349137419E+03  0.36261266893E+03  0.80345113969E+02 0.  0.
         24    2    4    4    0    0  0.16129187482E+03 -0.28040094678E+03 -0.99513677569E+02  0.34771642433E+03  0.79774556647E+02 0.  0.
         11    1    3    3    0    0 -0.12298917831E+03 -0.10514822104E+01  0.26710301034E+02  0.12586057277E+03  0.00000000000E+00 0. -1.
        -12    1    3    3    0    0 -0.17682557727E+03 -0.15236085876E+02  0.14817863113E+03  0.23120624951E+03  0.00000000000E+00 0.  1.
         15    1    5    5    0    0  0.41851018249E+02  0.10998398327E+03 -0.84546564878E+01  0.11799416617E+03  0.17770000000E+01 0. -1.
        -16    1    5    5    0    0  0.96671862510E+02  0.18670453159E+03 -0.12503671770E+03  0.24461850276E+03  0.00000000000E+00 0.  1.
          4    1    6    6  502    0  0.15176422408E+03 -0.20116234764E+03 -0.61863620952E+02  0.25947211298E+03  0.00000000000E+00 0. -1.
         -3    1    6    6    0  502  0.95276507434E+01 -0.79238599141E+02 -0.37650056617E+02  0.88244311350E+02  0.00000000000E+00 0.  1.
<mgrwt>
<rscale>  0 0.48010582E+03</rscale>
<asrwt>0</asrwt>
<pdfrwt beam="1">  1        1 0.77636907E-01 0.48010582E+03</pdfrwt>
<pdfrwt beam="2">  1       -2 0.86577849E-01 0.48010582E+03</pdfrwt>
<totfact> 0.46054576E+01</totfact>
</mgrwt>
</event>
<event>
12    3  0.1201947E-007  0.3847990E+03  0.7818608E-02  0.1049174E+00
         -2   -1    0    0    0  501 -0.00000000000E+00  0.00000000000E+00  0.32457757910E+03  0.32457757910E+03  0.00000000000E+00 0.  1.
          1   -1    0    0  501    0  0.00000000000E+00 -0.00000000000E+00 -0.11415475027E+04  0.11415475027E+04  0.00000000000E+00 0. -1.
        -24    2    1    2    0    0  0.57081350650E+02  0.12538284896E+03  0.21255477047E+03  0.26660113161E+03  0.83171470609E+02 0.  0.
    5000000    2    1    2    0    0 -0.57081350650E+02 -0.12538284896E+03 -0.10295246940E+04  0.11995239502E+04  0.59996455893E+03 0.  0.
        -24    2    4    4    0    0 -0.22952869799E+03  0.14440531607E+03 -0.42635683012E+03  0.51205005467E+03  0.82938491624E+02 0.  0.
         24    2    4    4    0    0  0.17244734734E+03 -0.26978816502E+03 -0.60316786393E+03  0.68747389550E+03  0.79278895819E+02 0.  0.
         13    1    3    3    0    0  0.66998952445E+02  0.53050095753E+02  0.91242089928E+02  0.12501316436E+03  0.00000000000E+00 0. -1.
        -14    1    3    3    0    0 -0.99176017954E+01  0.72332753204E+02  0.12131268054E+03  0.14158796725E+03  0.00000000000E+00 0.  1.
         15    1    5    5    0    0 -0.18687755415E+03  0.15104591522E+03 -0.36658459535E+03  0.43832124296E+03  0.17770000000E+01 0. -1.
        -16    1    5    5    0    0 -0.42651143836E+02 -0.66405991550E+01 -0.59772234769E+02  0.73728811715E+02  0.00000000000E+00 0.  1.
          4    1    6    6  502    0  0.16249383110E+03 -0.20242758458E+03 -0.44328586154E+03  0.51369594818E+03  0.00000000000E+00 0. -1.
         -3    1    6    6    0  502  0.99535162456E+01 -0.67360580445E+02 -0.15988200239E+03  0.17377794731E+03  0.00000000000E+00 0.  1.
<mgrwt>
<rscale>  0 0.38479901E+03</rscale>
<asrwt>0</asrwt>
<pdfrwt beam="1">  1        1 0.17562269E+00 0.38479901E+03</pdfrwt>
<pdfrwt beam="2">  1       -2 0.49935014E-01 0.38479901E+03</pdfrwt>
<totfact> 0.42189377E+01</totfact>
</mgrwt>
</event>
<event>
12    3  0.1201947E-007  0.6824824E+03  0.7818608E-02  0.9747668E-01
         -2   -1    0    0    0  501 -0.00000000000E+00  0.00000000000E+00  0.12070356503E+04  0.12070356503E+04  0.00000000000E+00 0.  1.
          1   -1    0    0  501    0  0.00000000000E+00 -0.00000000000E+00 -0.41668647556E+03  0.41668647556E+03  0.00000000000E+00 0. -1.
        -24    2    1    2    0    0 -0.49619046209E+03  0.29491394996E+03  0.37549208415E+03  0.69325200212E+03  0.80154978805E+02 0.  0.
    5000000    2    1    2    0    0  0.49619046209E+03 -0.29491394996E+03  0.41485709058E+03  0.93047012372E+03  0.60040738918E+03 0.  0.
        -24    2    4    4    0    0 -0.79846523740E+02  0.55469069134E+02 -0.14693494747E+02  0.12710904058E+03  0.80551377551E+02 0.  0.
         24    2    4    4    0    0  0.57603698583E+03 -0.35038301910E+03  0.42955058533E+03  0.80336108314E+03  0.79299782073E+02 0.  0.
         11    1    3    3    0    0 -0.45044112191E+03  0.23741501487E+03  0.32387165248E+03  0.60345334606E+03  0.00000000000E+00 0. -1.
        -12    1    3    3    0    0 -0.45749340186E+02  0.57498935091E+02  0.51620431670E+02  0.89798656059E+02  0.00000000000E+00 0.  1.
         15    1    5    5    0    0 -0.15832089294E+02 -0.37685763886E+01  0.26110405823E+02  0.30818310153E+02  0.17770000000E+01 0. -1.
        -16    1    5    5    0    0 -0.64014434445E+02  0.59237645523E+02 -0.40803900570E+02  0.96290730427E+02  0.00000000000E+00 0.  1.
          2    1    6    6  502    0  0.29035947136E+03 -0.22207846544E+03  0.24003477230E+03  0.43731471429E+03  0.00000000000E+00 0. -1.
         -1    1    6    6    0  502  0.28567751447E+03 -0.12830455366E+03  0.18951581303E+03  0.36604636885E+03  0.00000000000E+00 0.  1.
<mgrwt>
<rscale>  0 0.68248235E+03</rscale>
<asrwt>0</asrwt>
<pdfrwt beam="1">  1        1 0.64105612E-01 0.68248235E+03</pdfrwt>
<pdfrwt beam="2">  1       -2 0.18569779E+00 0.68248235E+03</pdfrwt>
<totfact> 0.84771018E+00</totfact>
</mgrwt>
</event>
<event>
12    3  0.1201947E-007  0.2329093E+04  0.7818608E-02  0.8466538E-01
          1   -1    0    0  501    0  0.00000000000E+00  0.00000000000E+00  0.35143529292E+04  0.35143529292E+04  0.00000000000E+00 0. -1.
         -2   -1    0    0    0  501 -0.00000000000E+00 -0.00000000000E+00 -0.16035145145E+04  0.16035145145E+04  0.00000000000E+00 0.  1.
        -24    2    1    2    0    0  0.84894833871E+03 -0.21495918942E+04  0.13017486652E+04  0.26536357061E+04  0.75988683320E+02 0.  0.
    5000000    2    1    2    0    0 -0.84894833871E+03  0.21495918942E+04  0.60908974953E+03  0.24642317375E+04  0.59999094969E+03 0.  0.
        -24    2    4    4    0    0 -0.12281616821E+03  0.80873444073E+03  0.42763902735E+03  0.92651961189E+03  0.80176347609E+02 0.  0.
         24    2    4    4    0    0 -0.72613217051E+03  0.13408574535E+04  0.18145072218E+03  0.15377121256E+04  0.80421247711E+02 0.  0.
         13    1    3    3    0    0  0.48188617085E+03 -0.12430937982E+04  0.70882525493E+03  0.15099436131E+04  0.00000000000E+00 0. -1.
        -14    1    3    3    0    0  0.36706216787E+03 -0.90649809602E+03  0.59292341024E+03  0.11436920930E+04  0.00000000000E+00 0.  1.
         15    1    5    5    0    0 -0.13287706982E+03  0.70245203452E+03  0.36417423705E+03  0.80232238479E+03  0.17770000000E+01 0. -1.
        -16    1    5    5    0    0  0.10060901611E+02  0.10628240621E+03  0.63464790306E+02  0.12419722710E+03  0.00000000000E+00 0.  1.
          4    1    6    6  502    0 -0.21355972316E+03  0.35984109283E+03  0.17738146619E+02  0.41881739373E+03  0.00000000000E+00 0. -1.
         -3    1    6    6    0  502 -0.51257244735E+03  0.98101636065E+03  0.16371257556E+03  0.11188947319E+04  0.00000000000E+00 0.  1.
<mgrwt>
<rscale>  0 0.23290930E+04</rscale>
<asrwt>0</asrwt>
<pdfrwt beam="1">  1        1 0.54066968E+00 0.23290930E+04</pdfrwt>
<pdfrwt beam="2">  1       -2 0.24669454E+00 0.23290930E+04</pdfrwt>
<totfact> 0.12348293E-02</totfact>
</mgrwt>
</event>
<event>
12    3  0.1201947E-007  0.6425215E+03  0.7818608E-02  0.9820914E-01
          1   -1    0    0  501    0  0.00000000000E+00  0.00000000000E+00  0.26676141900E+04  0.26676141900E+04  0.00000000000E+00 0. -1.
         -4   -1    0    0    0  501 -0.00000000000E+00 -0.00000000000E+00 -0.56713953239E+03  0.56713953239E+03  0.00000000000E+00 0.  1.
        -24    2    1    2    0    0  0.16177251776E+03  0.49163840934E+03  0.23472553445E+04  0.24047413305E+04  0.72763599419E+02 0.  0.
    5000000    2    1    2    0    0 -0.16177251776E+03 -0.49163840934E+03 -0.24678068692E+03  0.83001239184E+03  0.60011764691E+03 0.  0.
        -24    2    4    4    0    0 -0.34906271339E+03 -0.45312294518E+03 -0.12999594640E+03  0.59226513586E+03  0.81938170256E+02 0.  0.
         24    2    4    4    0    0  0.18729019564E+03 -0.38515464160E+02 -0.11678474052E+03  0.23774725598E+03  0.79523730712E+02 0.  0.
         11    1    3    3    0    0  0.69773839207E+02  0.27954685687E+03  0.11655216303E+04  0.12006063071E+04  0.00000000000E+00 0. -1.
        -12    1    3    3    0    0  0.91998678548E+02  0.21209155247E+03  0.11817337142E+04  0.12041350235E+04  0.00000000000E+00 0.  1.
         15    1    5    5    0    0 -0.19385296894E+03 -0.25013346253E+03 -0.30052699450E+02  0.31788684326E+03  0.17770000000E+01 0. -1.
        -16    1    5    5    0    0 -0.15520974445E+03 -0.20298948266E+03 -0.99943246950E+02  0.27437829260E+03  0.00000000000E+00 0.  1.
          4    1    6    6  502    0  0.18626703843E+03 -0.34291625929E+02 -0.88364555724E+02  0.20899669835E+03  0.00000000000E+00 0. -1.
         -3    1    6    6    0  502  0.10231572080E+01 -0.42238382313E+01 -0.28420184795E+02  0.28750557627E+02  0.00000000000E+00 0.  1.
<mgrwt>
<rscale>  0 0.64252146E+03</rscale>
<asrwt>0</asrwt>
<pdfrwt beam="1">  1        1 0.41040218E+00 0.64252146E+03</pdfrwt>
<pdfrwt beam="2">  1       -4 0.87252237E-01 0.64252146E+03</pdfrwt>
<totfact> 0.60590414E-01</totfact>
</mgrwt>
</event>
<event>
12    3  0.1201947E-007  0.5348698E+03  0.7818608E-02  0.1005058E+00
          1   -1    0    0  501    0  0.00000000000E+00  0.00000000000E+00  0.71848451242E+03  0.71848451242E+03  0.00000000000E+00 0. -1.
         -2   -1    0    0    0  501 -0.00000000000E+00 -0.00000000000E+00 -0.67829462016E+03  0.67829462016E+03  0.00000000000E+00 0.  1.
        -24    2    1    2    0    0 -0.38348105718E+03  0.29628914896E+03 -0.27616214559E+03  0.56314206304E+03  0.77578808312E+02 0.  0.
    5000000    2    1    2    0    0  0.38348105718E+03 -0.29628914896E+03  0.31635203785E+03  0.83363706954E+03  0.60002264195E+03 0.  0.
        -24    2    4    4    0    0  0.12720517641E+03 -0.28831675251E+03  0.43243780770E+03  0.54112152550E+03  0.80637095360E+02 0.  0.
         24    2    4    4    0    0  0.25627588077E+03 -0.79723964490E+01 -0.11608576985E+03  0.29251554404E+03  0.79677797267E+02 0.  0.
         13    1    3    3    0    0 -0.20877710831E+03  0.14493657121E+03 -0.10258084527E+03  0.27407539190E+03  0.00000000000E+00 0. -1.
        -14    1    3    3    0    0 -0.17470394887E+03  0.15135257775E+03 -0.17358130032E+03  0.28906667114E+03  0.00000000000E+00 0.  1.
         15    1    5    5    0    0  0.19397965859E+02 -0.14049255704E+03  0.17422923254E+03  0.22466290941E+03  0.17770000000E+01 0. -1.
        -16    1    5    5    0    0  0.10780721055E+03 -0.14782419547E+03  0.25820857515E+03  0.31645861609E+03  0.00000000000E+00 0.  1.
          4    1    6    6  502    0  0.89570651814E+02 -0.22350611609E+02 -0.78128523286E+02  0.12094014080E+03  0.00000000000E+00 0. -1.
         -3    1    6    6    0  502  0.16670522895E+03  0.14378215160E+02 -0.37957246561E+02  0.17157540324E+03  0.00000000000E+00 0.  1.
<mgrwt>
<rscale>  0 0.53486980E+03</rscale>
<asrwt>0</asrwt>
<pdfrwt beam="1">  1        1 0.11053608E+00 0.53486980E+03</pdfrwt>
<pdfrwt beam="2">  1       -2 0.10435302E+00 0.53486980E+03</pdfrwt>
<totfact> 0.17891317E+01</totfact>
</mgrwt>
</event>
<event>
12    3  0.1201947E-007  0.4025514E+03  0.7818608E-02  0.1042900E+00
          1   -1    0    0  501    0  0.00000000000E+00  0.00000000000E+00  0.13343911192E+04  0.13343911192E+04  0.00000000000E+00 0. -1.
         -2   -1    0    0    0  501 -0.00000000000E+00 -0.00000000000E+00 -0.24581585437E+03  0.24581585437E+03  0.00000000000E+00 0.  1.
        -24    2    1    2    0    0 -0.12513807114E+03 -0.25673819243E+03 -0.85577261863E+01  0.29742251642E+03  0.82540185946E+02 0.  0.
    5000000    2    1    2    0    0  0.12513807114E+03  0.25673819243E+03  0.10971329911E+04  0.12827844572E+04  0.60021756656E+03 0.  0.
        -24    2    4    4    0    0 -0.11175578572E+03  0.23665946444E+03  0.16982927807E+03  0.32178523667E+03  0.78782593865E+02 0.  0.
         24    2    4    4    0    0  0.23689385686E+03  0.20078727989E+02  0.92730371298E+03  0.96099922050E+03  0.84293955673E+02 0.  0.
         11    1    3    3    0    0 -0.31525546290E+02 -0.58073813502E+02 -0.37388160897E+02  0.75923003489E+02  0.00000000000E+00 0. -1.
        -12    1    3    3    0    0 -0.93612524853E+02 -0.19866437893E+03  0.28830434710E+02  0.22149951294E+03  0.00000000000E+00 0.  1.
         15    1    5    5    0    0 -0.28307013853E+02  0.91530899023E+01  0.28600543542E+02  0.41306354328E+02  0.17770000000E+01 0. -1.
        -16    1    5    5    0    0 -0.83448771868E+02  0.22750637454E+03  0.14122873453E+03  0.28047888234E+03  0.00000000000E+00 0.  1.
          4    1    6    6  502    0  0.15931664177E+03 -0.18943421263E+02  0.50551717904E+03  0.53036616017E+03  0.00000000000E+00 0. -1.
         -3    1    6    6    0  502  0.77577215091E+02  0.39022149252E+02  0.42178653394E+03  0.43063306033E+03  0.00000000000E+00 0.  1.
<mgrwt>
<rscale>  0 0.40255140E+03</rscale>
<asrwt>0</asrwt>
<pdfrwt beam="1">  1        1 0.20529094E+00 0.40255140E+03</pdfrwt>
<pdfrwt beam="2">  1       -2 0.37817825E-01 0.40255140E+03</pdfrwt>
<totfact> 0.53055853E+01</totfact>
</mgrwt>
</event>
<event>
12    3  0.1201947E-007  0.7428486E+03  0.7818608E-02  0.9646637E-01
         -2   -1    0    0    0  501 -0.00000000000E+00  0.00000000000E+00  0.30811188575E+03  0.30811188575E+03  0.00000000000E+00 0.  1.
          1   -1    0    0  501    0  0.00000000000E+00 -0.00000000000E+00 -0.18678440615E+04  0.18678440615E+04  0.00000000000E+00 0. -1.
        -24    2    1    2    0    0 -0.58973663261E+03 -0.21628388739E+03 -0.81505458919E+03  0.10318333987E+04  0.76145673382E+02 0.  0.
    5000000    2    1    2    0    0  0.58973663261E+03  0.21628388739E+03 -0.74467758661E+03  0.11441225486E+04  0.59991972994E+03 0.  0.
        -24    2    4    4    0    0  0.51867531383E+03 -0.10055987982E+03 -0.45528480826E+03  0.70189881830E+03  0.79002049933E+02 0.  0.
         24    2    4    4    0    0  0.71061318775E+02  0.31684376721E+03 -0.28939277834E+03  0.44222373027E+03  0.79837106709E+02 0.  0.
         11    1    3    3    0    0 -0.23581063307E+03 -0.58173057543E+02 -0.35672838665E+03  0.43156216370E+03  0.00000000000E+00 0. -1.
        -12    1    3    3    0    0 -0.35392599954E+03 -0.15811082985E+03 -0.45832620254E+03  0.60027123502E+03  0.00000000000E+00 0.  1.
         15    1    5    5    0    0  0.36398364766E+03 -0.50281664298E+02 -0.35434720007E+03  0.51046786134E+03  0.17770000000E+01 0. -1.
        -16    1    5    5    0    0  0.15469166617E+03 -0.50278215524E+02 -0.10093760820E+03  0.19143095697E+03  0.00000000000E+00 0.  1.
          2    1    6    6  502    0  0.46494448338E+01  0.44996322256E+02 -0.82917636393E+02  0.94454331710E+02  0.00000000000E+00 0. -1.
         -1    1    6    6    0  502  0.66411873941E+02  0.27184744496E+03 -0.20647514195E+03  0.34776939856E+03  0.00000000000E+00 0.  1.
<mgrwt>
<rscale>  0 0.74284862E+03</rscale>
<asrwt>0</asrwt>
<pdfrwt beam="1">  1        1 0.28736062E+00 0.74284862E+03</pdfrwt>
<pdfrwt beam="2">  1       -2 0.47401829E-01 0.74284862E+03</pdfrwt>
<totfact> 0.14092022E+01</totfact>
</mgrwt>
</event>
<event>
12    3  0.1201947E-007  0.6384082E+03  0.7818608E-02  0.9828777E-01
         -2   -1    0    0    0  501 -0.00000000000E+00  0.00000000000E+00  0.10586853857E+04  0.10586853857E+04  0.00000000000E+00 0.  1.
          1   -1    0    0  501    0  0.00000000000E+00 -0.00000000000E+00 -0.45389165577E+03  0.45389165577E+03  0.00000000000E+00 0. -1.
        -24    2    1    2    0    0 -0.75295017952E+01  0.55966668027E+03  0.26667202465E+03  0.62506408135E+03  0.79420719359E+02 0.  0.
    5000000    2    1    2    0    0  0.75295017952E+01 -0.55966668027E+03  0.33812170529E+03  0.88751296013E+03  0.60005789754E+03 0.  0.
        -24    2    4    4    0    0  0.21440448649E+02  0.51928102115E+02 -0.93443275468E+02  0.13456851370E+03  0.78872165701E+02 0.  0.
         24    2    4    4    0    0 -0.13910946854E+02 -0.61159478238E+03  0.43156498076E+03  0.75294444642E+03  0.80220412012E+02 0.  0.
         11    1    3    3    0    0  0.25069079493E+02  0.36494558765E+03  0.19851660499E+03  0.41620017197E+03  0.00000000000E+00 0. -1.
        -12    1    3    3    0    0 -0.32598581289E+02  0.19472109262E+03  0.68155419666E+02  0.20886390938E+03  0.00000000000E+00 0.  1.
         15    1    5    5    0    0 -0.28861369528E+02  0.30545200441E+02 -0.37388674665E+02  0.56276626083E+02  0.17770000000E+01 0. -1.
        -16    1    5    5    0    0  0.50301818177E+02  0.21382901673E+02 -0.56054600803E+02  0.78291887620E+02  0.00000000000E+00 0.  1.
          4    1    6    6  502    0 -0.31407583916E+02 -0.96784122972E+02  0.65517356647E+02  0.12102118331E+03  0.00000000000E+00 0. -1.
         -1    1    6    6    0  502  0.17496637062E+02 -0.51481065941E+03  0.36604762411E+03  0.63192326312E+03  0.00000000000E+00 0.  1.
<mgrwt>
<rscale>  0 0.63840817E+03</rscale>
<asrwt>0</asrwt>
<pdfrwt beam="1">  1        1 0.69829486E-01 0.63840817E+03</pdfrwt>
<pdfrwt beam="2">  1       -2 0.16287467E+00 0.63840817E+03</pdfrwt>
<totfact> 0.10963874E+01</totfact>
</mgrwt>
</event>
<event>
12    3  0.1201947E-007  0.5639488E+03  0.7818608E-02  0.9983159E-01
          1   -1    0    0  501    0  0.00000000000E+00  0.00000000000E+00  0.16096839792E+04  0.16096839792E+04  0.00000000000E+00 0. -1.
         -2   -1    0    0    0  501 -0.00000000000E+00 -0.00000000000E+00 -0.27497658133E+03  0.27497658133E+03  0.00000000000E+00 0.  1.
        -24    2    1    2    0    0 -0.58149058926E+02 -0.41114248278E+03  0.75780819819E+02  0.42936865417E+03  0.78709937933E+02 0.  0.
    5000000    2    1    2    0    0  0.58149058926E+02  0.41114248278E+03  0.12589265781E+04  0.14552919064E+04  0.60046561066E+03 0.  0.
        -24    2    4    4    0    0  0.30757008351E+03  0.30589454039E+03  0.85741136330E+03  0.96419833936E+03  0.79708002010E+02 0.  0.
         24    2    4    4    0    0 -0.24942102459E+03  0.10524794239E+03  0.40151521476E+03  0.49109356701E+03  0.81672804484E+02 0.  0.
         11    1    3    3    0    0  0.71146118912E+01 -0.11401982709E+03 -0.58804032430E+01  0.11439282238E+03  0.00000000000E+00 0. -1.
        -12    1    3    3    0    0 -0.65263670817E+02 -0.29712265570E+03  0.81661223062E+02  0.31497583179E+03  0.00000000000E+00 0.  1.
         15    1    5    5    0    0  0.22556889551E+03  0.26015872047E+03  0.62577927954E+03  0.71425958229E+03  0.17770000000E+01 0. -1.
        -16    1    5    5    0    0  0.82001188003E+02  0.45735819926E+02  0.23163208376E+03  0.24993875707E+03  0.00000000000E+00 0.  1.
          2    1    6    6  502    0 -0.16476375745E+03  0.77940959312E+02  0.32986847991E+03  0.37687544752E+03  0.00000000000E+00 0. -1.
         -1    1    6    6    0  502 -0.84657267142E+02  0.27306983079E+02  0.71646734842E+02  0.11421811948E+03  0.00000000000E+00 0.  1.
<mgrwt>
<rscale>  0 0.56394878E+03</rscale>
<asrwt>0</asrwt>
<pdfrwt beam="1">  1        1 0.24764368E+00 0.56394878E+03</pdfrwt>
<pdfrwt beam="2">  1       -2 0.42304090E-01 0.56394878E+03</pdfrwt>
<totfact> 0.27012641E+01</totfact>
</mgrwt>
</event>
<event>
12    3  0.1201947E-007  0.1075550E+04  0.7818608E-02  0.9229356E-01
         -2   -1    0    0    0  501 -0.00000000000E+00  0.00000000000E+00  0.31405770088E+04  0.31405770088E+04  0.00000000000E+00 0.  1.
          1   -1    0    0  501    0  0.00000000000E+00 -0.00000000000E+00 -0.37947098443E+03  0.37947098443E+03  0.00000000000E+00 0. -1.
        -24    2    1    2    0    0 -0.99693541369E+03 -0.42446226590E+02  0.10539289059E+04  0.14536026219E+04  0.80700325406E+02 0.  0.
    5000000    2    1    2    0    0  0.99693541369E+03  0.42446226590E+02  0.17071771185E+04  0.20664453713E+04  0.60005071253E+03 0.  0.
        -24    2    4    4    0    0  0.83670253851E+01  0.14626721832E+03  0.25175470382E+03  0.30214863562E+03  0.80307290087E+02 0.  0.
         24    2    4    4    0    0  0.98856838831E+03 -0.10382099173E+03  0.14554224146E+04  0.17642967357E+04  0.80264001145E+02 0.  0.
         13    1    3    3    0    0 -0.45753542620E+03  0.18573665142E+02  0.46329488251E+03  0.65140294398E+03  0.00000000000E+00 0. -1.
        -14    1    3    3    0    0 -0.53939998749E+03 -0.61019891731E+02  0.59063402343E+03  0.80219967797E+03  0.00000000000E+00 0.  1.
         15    1    5    5    0    0 -0.13430991468E+02  0.12767209281E+02  0.87044337372E+02  0.89012738202E+02  0.17770000000E+01 0. -1.
        -16    1    5    5    0    0  0.21798016853E+02  0.13350000903E+03  0.16471036645E+03  0.21313589742E+03  0.00000000000E+00 0.  1.
          4    1    6    6  502    0  0.11283172359E+03 -0.34494288403E+02  0.19572229768E+03  0.22853461792E+03  0.00000000000E+00 0. -1.
         -3    1    6    6    0  502  0.87573666472E+03 -0.69326703322E+02  0.12597001170E+04  0.15357621178E+04  0.00000000000E+00 0.  1.
<mgrwt>
<rscale>  0 0.10755498E+04</rscale>
<asrwt>0</asrwt>
<pdfrwt beam="1">  1        1 0.58380153E-01 0.10755498E+04</pdfrwt>
<pdfrwt beam="2">  1       -2 0.48316568E+00 0.10755498E+04</pdfrwt>
<totfact> 0.11978629E-01</totfact>
</mgrwt>
</event>
<event>
12    3  0.1201947E-007  0.7991562E+03  0.7818608E-02  0.9561239E-01
          1   -1    0    0  501    0  0.00000000000E+00  0.00000000000E+00  0.96589441039E+03  0.96589441039E+03  0.00000000000E+00 0. -1.
         -2   -1    0    0    0  501 -0.00000000000E+00 -0.00000000000E+00 -0.15982103892E+04  0.15982103892E+04  0.00000000000E+00 0.  1.
        -24    2    1    2    0    0 -0.74008486576E+03  0.28065482572E+03 -0.11851933978E+04  0.14273133810E+04  0.77764759133E+02 0.  0.
    5000000    2    1    2    0    0  0.74008486576E+03 -0.28065482572E+03  0.55287741894E+03  0.11367914186E+04  0.60010711486E+03 0.  0.
        -24    2    4    4    0    0  0.52877331036E+03 -0.18588670845E+03  0.38980987395E+02  0.56740613242E+03  0.79215652508E+02 0.  0.
         24    2    4    4    0    0  0.21131155540E+03 -0.94768117271E+02  0.51389643154E+03  0.56938528618E+03  0.80476656678E+02 0.  0.
         11    1    3    3    0    0 -0.31667831815E+03  0.10947685892E+03 -0.43575497791E+03  0.54968421898E+03  0.00000000000E+00 0. -1.
        -12    1    3    3    0    0 -0.42340654761E+03  0.17117796680E+03 -0.74943841985E+03  0.87762916202E+03  0.00000000000E+00 0.  1.
         15    1    5    5    0    0  0.40778793324E+03 -0.11413248096E+03  0.49523671287E+02  0.42634841791E+03  0.17770000000E+01 0. -1.
        -16    1    5    5    0    0  0.12098537712E+03 -0.71754227490E+02 -0.10542683892E+02  0.14105771451E+03  0.00000000000E+00 0.  1.
          4    1    6    6  502    0  0.10114858217E+03 -0.66816198585E+01  0.17383477983E+03  0.20123173308E+03  0.00000000000E+00 0. -1.
         -3    1    6    6    0  502  0.11016297323E+03 -0.88086497412E+02  0.34006165171E+03  0.36815355310E+03  0.00000000000E+00 0.  1.
<mgrwt>
<rscale>  0 0.79915620E+03</rscale>
<asrwt>0</asrwt>
<pdfrwt beam="1">  1        1 0.14859914E+00 0.79915620E+03</pdfrwt>
<pdfrwt beam="2">  1       -2 0.24587852E+00 0.79915620E+03</pdfrwt>
<totfact> 0.99165762E-01</totfact>
</mgrwt>
</event>
<event>
12    3  0.1201947E-007  0.7892313E+03  0.7818608E-02  0.9575737E-01
          1   -1    0    0  501    0  0.00000000000E+00  0.00000000000E+00  0.56290605844E+03  0.56290605844E+03  0.00000000000E+00 0. -1.
         -2   -1    0    0    0  501 -0.00000000000E+00 -0.00000000000E+00 -0.15591007848E+04  0.15591007848E+04  0.00000000000E+00 0.  1.
        -24    2    1    2    0    0 -0.58454309342E+03  0.47818111685E+03 -0.86045292001E+03  0.11479509289E+04  0.84049384305E+02 0.  0.
    5000000    2    1    2    0    0  0.58454309342E+03 -0.47818111685E+03 -0.13574180639E+03  0.97405591439E+03  0.60000939808E+03 0.  0.
        -24    2    4    4    0    0  0.23997552774E+03 -0.38944168602E+03  0.17138319502E+03  0.49552223798E+03  0.83168552161E+02 0.  0.
         24    2    4    4    0    0  0.34456756568E+03 -0.88739430832E+02 -0.30712500141E+03  0.47853367642E+03  0.89817699100E+02 0.  0.
         11    1    3    3    0    0 -0.21218461002E+03  0.19321252531E+03 -0.27057133245E+03  0.39441378603E+03  0.00000000000E+00 0. -1.
        -12    1    3    3    0    0 -0.37235848340E+03  0.28496859154E+03 -0.58988158756E+03  0.75353714286E+03  0.00000000000E+00 0.  1.
         15    1    5    5    0    0  0.16253692813E+03 -0.23249568844E+03  0.66091707600E+02  0.29127953875E+03  0.17770000000E+01 0. -1.
        -16    1    5    5    0    0  0.77438599617E+02 -0.15694599757E+03  0.10529148742E+03  0.20424269923E+03  0.00000000000E+00 0.  1.
          4    1    6    6  502    0  0.54523347249E+02  0.13847819576E+02 -0.26758085983E+02  0.62294082124E+02  0.00000000000E+00 0. -1.
         -3    1    6    6    0  502  0.29004421843E+03 -0.10258725041E+03 -0.28036691543E+03  0.41623959429E+03  0.00000000000E+00 0.  1.
<mgrwt>
<rscale>  0 0.78923125E+03</rscale>
<asrwt>0</asrwt>
<pdfrwt beam="1">  1        1 0.86600934E-01 0.78923125E+03</pdfrwt>
<pdfrwt beam="2">  1       -2 0.23986165E+00 0.78923125E+03</pdfrwt>
<totfact> 0.25065139E+00</totfact>
</mgrwt>
</event>
<event>
12    3  0.1201947E-007  0.5174408E+03  0.7818608E-02  0.1009324E+00
         -2   -1    0    0    0  501 -0.00000000000E+00  0.00000000000E+00  0.38137067807E+03  0.38137067807E+03  0.00000000000E+00 0.  1.
          1   -1    0    0  501    0  0.00000000000E+00 -0.00000000000E+00 -0.76825770686E+03  0.76825770686E+03  0.00000000000E+00 0. -1.
        -24    2    1    2    0    0 -0.25917295874E+03  0.25305814959E+03 -0.58790789631E+02  0.37574818974E+03  0.80754538752E+02 0.  0.
    5000000    2    1    2    0    0  0.25917295874E+03 -0.25305814959E+03 -0.32809623916E+03  0.77388019519E+03  0.60002863660E+03 0.  0.
        -24    2    4    4    0    0 -0.10527496745E+03 -0.26313892511E+03 -0.26346034065E+03  0.39537768468E+03  0.81161873868E+02 0.  0.
         24    2    4    4    0    0  0.36444792620E+03  0.10080775520E+02 -0.64635898512E+02  0.37850251051E+03  0.78501198324E+02 0.  0.
         13    1    3    3    0    0 -0.10444439788E+03  0.15528196310E+03 -0.43138938784E+02  0.19204709931E+03  0.00000000000E+00 0. -1.
        -14    1    3    3    0    0 -0.15472856086E+03  0.97776186490E+02 -0.15651850847E+02  0.18370109043E+03  0.00000000000E+00 0.  1.
         15    1    5    5    0    0 -0.10060462397E+03 -0.16116262047E+03 -0.14502234296E+03  0.23901740164E+03  0.17770000000E+01 0. -1.
        -16    1    5    5    0    0 -0.46703434857E+01 -0.10197630464E+03 -0.11843799769E+03  0.15636028304E+03  0.00000000000E+00 0.  1.
          2    1    6    6  502    0  0.15067697532E+03  0.42167266929E+02 -0.19519257133E+02  0.15767888473E+03  0.00000000000E+00 0. -1.
         -1    1    6    6    0  502  0.21377095088E+03 -0.32086491409E+02 -0.45116641379E+02  0.22082362577E+03  0.00000000000E+00 0.  1.
<mgrwt>
<rscale>  0 0.51744078E+03</rscale>
<asrwt>0</asrwt>
<pdfrwt beam="1">  1        1 0.11819349E+00 0.51744078E+03</pdfrwt>
<pdfrwt beam="2">  1       -2 0.58672412E-01 0.51744078E+03</pdfrwt>
<totfact> 0.58394060E+01</totfact>
</mgrwt>
</event>
<event>
12    3  0.1201947E-007  0.1019189E+04  0.7818608E-02  0.9287745E-01
         -2   -1    0    0    0  501 -0.00000000000E+00  0.00000000000E+00  0.12079679124E+04  0.12079679124E+04  0.00000000000E+00 0.  1.
          1   -1    0    0  501    0  0.00000000000E+00 -0.00000000000E+00 -0.93675118441E+03  0.93675118441E+03  0.00000000000E+00 0. -1.
        -24    2    1    2    0    0  0.88025810332E+03  0.40121765056E+03  0.26426404332E+03  0.10063045706E+04  0.83567174327E+02 0.  0.
    5000000    2    1    2    0    0 -0.88025810332E+03 -0.40121765056E+03  0.69526846472E+01  0.11384145262E+04  0.60009112810E+03 0.  0.
        -24    2    4    4    0    0 -0.52596890345E+03  0.32597483841E+01 -0.18505516200E+03  0.56275747757E+03  0.76135748646E+02 0.  0.
         24    2    4    4    0    0 -0.35428919988E+03 -0.40447739895E+03  0.19200784665E+03  0.57565704862E+03  0.73424934763E+02 0.  0.
         13    1    3    3    0    0  0.46714005543E+03  0.21768172752E+03  0.18369378009E+03  0.54712756349E+03  0.00000000000E+00 0. -1.
        -14    1    3    3    0    0  0.41311804789E+03  0.18353592304E+03  0.80570263228E+02  0.45917700711E+03  0.00000000000E+00 0.  1.
         15    1    5    5    0    0 -0.35920204172E+03 -0.26218459560E+02 -0.14808276784E+03  0.38941645863E+03  0.17770000000E+01 0. -1.
        -16    1    5    5    0    0 -0.16676686173E+03  0.29478207944E+02 -0.36972394166E+02  0.17334101893E+03  0.00000000000E+00 0.  1.
          2    1    6    6  502    0 -0.82815137740E+02 -0.13859856015E+03  0.39566950772E+02  0.16623312398E+03  0.00000000000E+00 0. -1.
         -1    1    6    6    0  502 -0.27147406214E+03 -0.26587883879E+03  0.15244089588E+03  0.40942392464E+03  0.00000000000E+00 0.  1.
<mgrwt>
<rscale>  0 0.10191891E+04</rscale>
<asrwt>0</asrwt>
<pdfrwt beam="1">  1        1 0.14411557E+00 0.10191891E+04</pdfrwt>
<pdfrwt beam="2">  1       -2 0.18584122E+00 0.10191891E+04</pdfrwt>
<totfact> 0.24474406E+00</totfact>
</mgrwt>
</event>
<event>
12    3  0.1201947E-007  0.8272962E+03  0.7818608E-02  0.9521326E-01
          1   -1    0    0  501    0  0.00000000000E+00  0.00000000000E+00  0.14055239702E+04  0.14055239702E+04  0.00000000000E+00 0. -1.
         -2   -1    0    0    0  501 -0.00000000000E+00 -0.00000000000E+00 -0.55011623168E+03  0.55011623168E+03  0.00000000000E+00 0.  1.
        -24    2    1    2    0    0  0.66472994985E+03 -0.28269837252E+03  0.67934816339E+02  0.72993407989E+03  0.80027155739E+02 0.  0.
    5000000    2    1    2    0    0 -0.66472994985E+03  0.28269837252E+03  0.78747292220E+03  0.12257061220E+04  0.60038122745E+03 0.  0.
        -24    2    4    4    0    0 -0.75857339816E+03  0.27706182730E+03  0.64182976443E+03  0.10346501759E+04  0.79741353540E+02 0.  0.
         24    2    4    4    0    0  0.93843448312E+02  0.56365452176E+01  0.14564315777E+03  0.19105594609E+03  0.80324851062E+02 0.  0.
         13    1    3    3    0    0  0.43615877087E+03 -0.15131655915E+03  0.65487001216E+02  0.46628287746E+03  0.00000000000E+00 0. -1.
        -14    1    3    3    0    0  0.22857117898E+03 -0.13138181337E+03  0.24478151231E+01  0.26365120243E+03  0.00000000000E+00 0.  1.
         15    1    5    5    0    0 -0.44112862317E+03  0.11921697721E+03  0.35670894012E+03  0.57969955625E+03  0.17770000000E+01 0. -1.
        -16    1    5    5    0    0 -0.31744477499E+03  0.15784485010E+03  0.28512082431E+03  0.45495061966E+03  0.00000000000E+00 0.  1.
          4    1    6    6  502    0  0.26272889206E+02 -0.31250956440E+02  0.24784260697E+02  0.47761350106E+02  0.00000000000E+00 0. -1.
         -3    1    6    6    0  502  0.67570559107E+02  0.36887501658E+02  0.12085889708E+03  0.14329459599E+03  0.00000000000E+00 0.  1.
<mgrwt>
<rscale>  0 0.82729619E+03</rscale>
<asrwt>0</asrwt>
<pdfrwt beam="1">  1        1 0.21623446E+00 0.82729619E+03</pdfrwt>
<pdfrwt beam="2">  1       -2 0.84633267E-01 0.82729619E+03</pdfrwt>
<totfact> 0.82968205E+00</totfact>
</mgrwt>
</event>
<event>
12    3  0.1201947E-007  0.1113489E+04  0.7818608E-02  0.9192144E-01
         -2   -1    0    0    0  501 -0.00000000000E+00  0.00000000000E+00  0.11538485854E+04  0.11538485854E+04  0.00000000000E+00 0.  1.
          1   -1    0    0  501    0  0.00000000000E+00 -0.00000000000E+00 -0.23029419779E+04  0.23029419779E+04  0.00000000000E+00 0. -1.
        -24    2    1    2    0    0  0.90355387632E+03  0.64476902392E+03  0.62753278574E+03  0.12776140719E+04  0.79772287168E+02 0.  0.
    5000000    2    1    2    0    0 -0.90355387632E+03 -0.64476902392E+03 -0.17766261782E+04  0.21791764915E+04  0.60022737548E+03 0.  0.
        -24    2    4    4    0    0 -0.18690952554E+03 -0.94766403111E+02 -0.85356823297E+03  0.88521364425E+03  0.10539746557E+03 0.  0.
         24    2    4    4    0    0 -0.71664435078E+03 -0.55000262080E+03 -0.92305794522E+03  0.12939628472E+04  0.78878839443E+02 0.  0.
         13    1    3    3    0    0  0.35502952122E+03  0.23952856518E+03  0.19973161230E+03  0.47255963796E+03  0.00000000000E+00 0. -1.
        -14    1    3    3    0    0  0.54852435509E+03  0.40524045873E+03  0.42780117344E+03  0.80505443389E+03  0.00000000000E+00 0.  1.
         15    1    5    5    0    0 -0.12597082423E+03 -0.83061596755E+02 -0.40176698729E+03  0.42917099997E+03  0.17770000000E+01 0. -1.
        -16    1    5    5    0    0 -0.60938701317E+02 -0.11704806356E+02 -0.45180124567E+03  0.45604264428E+03  0.00000000000E+00 0.  1.
          4    1    6    6  502    0 -0.20121914093E+03 -0.16972236265E+03 -0.31830207514E+03  0.41305088560E+03  0.00000000000E+00 0. -1.
         -3    1    6    6    0  502 -0.51542520985E+03 -0.38028025815E+03 -0.60475587008E+03  0.88091196160E+03  0.00000000000E+00 0.  1.
<mgrwt>
<rscale>  0 0.11134888E+04</rscale>
<asrwt>0</asrwt>
<pdfrwt beam="1">  1        1 0.35429876E+00 0.11134888E+04</pdfrwt>
<pdfrwt beam="2">  1       -2 0.17751517E+00 0.11134888E+04</pdfrwt>
<totfact> 0.30362061E-01</totfact>
</mgrwt>
</event>
<event>
12    3  0.1201947E-007  0.3251439E+03  0.7818608E-02  0.1073306E+00
          1   -1    0    0  501    0  0.00000000000E+00  0.00000000000E+00  0.30512291462E+04  0.30512291462E+04  0.00000000000E+00 0. -1.
         -2   -1    0    0    0  501 -0.00000000000E+00 -0.00000000000E+00 -0.70823467425E+02  0.70823467425E+02  0.00000000000E+00 0.  1.
        -24    2    1    2    0    0 -0.23798704757E+03  0.69524621098E+02  0.11738313548E+04  0.12023518026E+04  0.79361829074E+02 0.  0.
    5000000    2    1    2    0    0  0.23798704757E+03 -0.69524621098E+02  0.18065743239E+04  0.19197008110E+04  0.60005742068E+03 0.  0.
        -24    2    4    4    0    0 -0.50847812617E+02  0.11088246540E+02  0.80179064719E+01  0.94568032814E+02  0.78551745664E+02 0.  0.
         24    2    4    4    0    0  0.28883486018E+03 -0.80612867638E+02  0.17985564174E+04  0.18251327782E+04  0.79877783720E+02 0.  0.
         13    1    3    3    0    0 -0.69440475625E+02  0.46631150598E+02  0.52370164810E+03  0.53033938198E+03  0.00000000000E+00 0. -1.
        -14    1    3    3    0    0 -0.16854657194E+03  0.22893470500E+02  0.65012970674E+03  0.67201242063E+03  0.00000000000E+00 0.  1.
         15    1    5    5    0    0  0.20451068257E+02 -0.40862644493E+01 -0.18269449589E+01  0.21010454705E+02  0.17770000000E+01 0. -1.
        -16    1    5    5    0    0 -0.71298880874E+02  0.15174510990E+02  0.98448514307E+01  0.73557578109E+02  0.00000000000E+00 0.  1.
          2    1    6    6  502    0  0.41536802613E+02  0.30672635541E+01  0.13700843534E+03  0.14319925080E+03  0.00000000000E+00 0. -1.
         -1    1    6    6    0  502  0.24729805757E+03 -0.83680131193E+02  0.16615479821E+04  0.16819335274E+04  0.00000000000E+00 0.  1.
<mgrwt>
<rscale>  0 0.32514389E+03</rscale>
<asrwt>0</asrwt>
<pdfrwt beam="1">  1        1 0.46941977E+00 0.32514389E+03</pdfrwt>
<pdfrwt beam="2">  1       -2 0.10895920E-01 0.32514389E+03</pdfrwt>
<totfact> 0.33280188E+01</totfact>
</mgrwt>
</event>
<event>
12    3  0.1201947E-007  0.7593164E+03  0.7818608E-02  0.9620847E-01
          1   -1    0    0  501    0  0.00000000000E+00  0.00000000000E+00  0.21084112459E+04  0.21084112459E+04  0.00000000000E+00 0. -1.
         -2   -1    0    0    0  501 -0.00000000000E+00 -0.00000000000E+00 -0.43278318638E+03  0.43278318638E+03  0.00000000000E+00 0.  1.
        -24    2    1    2    0    0 -0.56254998578E+03 -0.32286980407E+03  0.77149911803E+01  0.65367585923E+03  0.80778777976E+02 0.  0.
    5000000    2    1    2    0    0  0.56254998578E+03  0.32286980407E+03  0.16679130684E+04  0.18875185731E+04  0.60007079850E+03 0.  0.
        -24    2    4    4    0    0  0.54603392932E+03  0.12232296908E+02  0.89948692764E+03  0.10555327813E+04  0.82280243304E+02 0.  0.
         24    2    4    4    0    0  0.16516056464E+02  0.31063750716E+03  0.76842614074E+03  0.83198579175E+03  0.70378852846E+02 0.  0.
         13    1    3    3    0    0 -0.10050945720E+03 -0.94746831345E+02 -0.52191885535E+01  0.13822573192E+03  0.00000000000E+00 0. -1.
        -14    1    3    3    0    0 -0.46204052859E+03 -0.22812297272E+03  0.12934179734E+02  0.51545012731E+03  0.00000000000E+00 0.  1.
         15    1    5    5    0    0  0.36489444110E+03  0.26550012086E+02  0.53317907492E+03  0.64663431702E+03  0.17770000000E+01 0. -1.
        -16    1    5    5    0    0  0.18113948822E+03 -0.14317715178E+02  0.36630785272E+03  0.40889846432E+03  0.00000000000E+00 0.  1.
          4    1    6    6  502    0 -0.24532089963E+02  0.14088640106E+03  0.38342385693E+03  0.40922445614E+03  0.00000000000E+00 0. -1.
         -3    1    6    6    0  502  0.41048146427E+02  0.16975110610E+03  0.38500228380E+03  0.42276133560E+03  0.00000000000E+00 0.  1.
<mgrwt>
<rscale>  0 0.75931637E+03</rscale>
<asrwt>0</asrwt>
<pdfrwt beam="1">  1        1 0.32437096E+00 0.75931637E+03</pdfrwt>
<pdfrwt beam="2">  1       -2 0.66582030E-01 0.75931637E+03</pdfrwt>
<totfact> 0.47797837E+00</totfact>
</mgrwt>
</event>
<event>
12    3  0.1201947E-007  0.6800005E+03  0.7818608E-02  0.9752059E-01
          1   -1    0    0  501    0  0.00000000000E+00  0.00000000000E+00  0.96144792426E+03  0.96144792426E+03  0.00000000000E+00 0. -1.
         -2   -1    0    0    0  501 -0.00000000000E+00 -0.00000000000E+00 -0.52168875871E+03  0.52168875871E+03  0.00000000000E+00 0.  1.
        -24    2    1    2    0    0  0.35125350340E+03  0.44917458714E+03  0.28037562243E+03  0.64015992009E+03  0.77829302075E+02 0.  0.
    5000000    2    1    2    0    0 -0.35125350340E+03 -0.44917458714E+03  0.15938354312E+03  0.84297676288E+03  0.60005822680E+03 0.  0.
        -24    2    4    4    0    0 -0.11889725887E+03 -0.51603182229E+03 -0.99131556925E+01  0.53582140815E+03  0.81122814317E+02 0.  0.
         24    2    4    4    0    0 -0.23235624453E+03  0.66857235146E+02  0.16929669881E+03  0.30715535472E+03  0.84992502257E+02 0.  0.
         13    1    3    3    0    0  0.20729635758E+03  0.20351060247E+03  0.13192837413E+03  0.31905084404E+03  0.00000000000E+00 0. -1.
        -14    1    3    3    0    0  0.14395714582E+03  0.24566398467E+03  0.14844724830E+03  0.32110907605E+03  0.00000000000E+00 0.  1.
         15    1    5    5    0    0 -0.87046738234E+02 -0.29332978111E+03 -0.41010032097E+02  0.30871422964E+03  0.17770000000E+01 0. -1.
        -16    1    5    5    0    0 -0.31850520632E+02 -0.22270204118E+03  0.31096876405E+02  0.22710717851E+03  0.00000000000E+00 0.  1.
          2    1    6    6  502    0 -0.12520263776E+03 -0.41593243965E+01  0.62329438124E+02  0.13992126121E+03  0.00000000000E+00 0. -1.
         -1    1    6    6    0  502 -0.10715360678E+03  0.71016559542E+02  0.10696726069E+03  0.16723409352E+03  0.00000000000E+00 0.  1.
<mgrwt>
<rscale>  0 0.68000053E+03</rscale>
<asrwt>0</asrwt>
<pdfrwt beam="1">  1        1 0.14791507E+00 0.68000053E+03</pdfrwt>
<pdfrwt beam="2">  1       -2 0.80259809E-01 0.68000053E+03</pdfrwt>
<totfact> 0.20123728E+01</totfact>
</mgrwt>
</event>
<event>
12    3  0.1201947E-007  0.5610600E+03  0.7818608E-02  0.9989659E-01
         -2   -1    0    0    0  501 -0.00000000000E+00  0.00000000000E+00  0.23912296034E+03  0.23912296034E+03  0.00000000000E+00 0.  1.
          1   -1    0    0  501    0  0.00000000000E+00 -0.00000000000E+00 -0.15676864186E+04  0.15676864186E+04  0.00000000000E+00 0. -1.
        -24    2    1    2    0    0  0.33358363644E+03 -0.27125140959E+03 -0.26659967615E+03  0.51356834023E+03  0.88440279644E+02 0.  0.
    5000000    2    1    2    0    0 -0.33358363644E+03  0.27125140959E+03 -0.10619637821E+04  0.12932410387E+04  0.59987493695E+03 0.  0.
        -24    2    4    4    0    0 -0.27375563487E+03 -0.10963687981E+03 -0.26232043806E+03  0.40196266554E+03  0.76154968495E+02 0.  0.
         24    2    4    4    0    0 -0.59828001562E+02  0.38088828939E+03 -0.79964334401E+03  0.89127837313E+03  0.79324536106E+02 0.  0.
         13    1    3    3    0    0  0.15328191343E+03 -0.10772209610E+03 -0.16555103254E+03  0.25001307835E+03  0.00000000000E+00 0. -1.
        -14    1    3    3    0    0  0.18030172301E+03 -0.16352931348E+03 -0.10104864361E+03  0.26355526188E+03  0.00000000000E+00 0.  1.
         15    1    5    5    0    0 -0.18000276433E+03 -0.10971107738E+03 -0.18040076754E+03  0.27746190787E+03  0.17770000000E+01 0. -1.
        -16    1    5    5    0    0 -0.93752870548E+02  0.74197570363E-01 -0.81919670523E+02  0.12450075767E+03  0.00000000000E+00 0.  1.
          2    1    6    6  502    0 -0.12387816000E+02  0.17814497727E+03 -0.45270926266E+03  0.48665672441E+03  0.00000000000E+00 0. -1.
         -1    1    6    6    0  502 -0.47440185562E+02  0.20274331212E+03 -0.34693408134E+03  0.40462164872E+03  0.00000000000E+00 0.  1.
<mgrwt>
<rscale>  0 0.56105998E+03</rscale>
<asrwt>0</asrwt>
<pdfrwt beam="1">  1        1 0.24118253E+00 0.56105998E+03</pdfrwt>
<pdfrwt beam="2">  1       -2 0.36788148E-01 0.56105998E+03</pdfrwt>
<totfact> 0.37803641E+01</totfact>
</mgrwt>
</event>
<event>
12    3  0.1201947E-007  0.3165678E+03  0.7818608E-02  0.1077240E+00
          1   -1    0    0  501    0  0.00000000000E+00  0.00000000000E+00  0.46375706637E+03  0.46375706637E+03  0.00000000000E+00 0. -1.
         -2   -1    0    0    0  501 -0.00000000000E+00 -0.00000000000E+00 -0.10538318589E+04  0.10538318589E+04  0.00000000000E+00 0.  1.
        -24    2    1    2    0    0  0.11822460583E+03 -0.27494155966E+03  0.28083206360E+03  0.41847559584E+03  0.81763425343E+02 0.  0.
    5000000    2    1    2    0    0 -0.11822460583E+03  0.27494155966E+03 -0.87090685617E+03  0.10991133295E+04  0.60000120021E+03 0.  0.
        -24    2    4    4    0    0 -0.65601992877E+02  0.10159690133E+03 -0.88854390572E+03  0.90010683596E+03  0.77823466360E+02 0.  0.
         24    2    4    4    0    0 -0.52622612957E+02  0.17334465833E+03  0.17637049551E+02  0.19900649351E+03  0.80467440485E+02 0.  0.
         11    1    3    3    0    0  0.15561339411E+02 -0.11888625718E+03  0.79652911307E+02  0.14394680861E+03  0.00000000000E+00 0. -1.
        -12    1    3    3    0    0  0.10266326642E+03 -0.15605530248E+03  0.20117915229E+03  0.27452878723E+03  0.00000000000E+00 0.  1.
         15    1    5    5    0    0 -0.18800335414E+02  0.90637818762E+02 -0.48954313874E+03  0.49822114490E+03  0.17770000000E+01 0. -1.
        -16    1    5    5    0    0 -0.46801657463E+02  0.10959082564E+02 -0.39900076698E+03  0.40188569106E+03  0.00000000000E+00 0.  1.
          2    1    6    6  502    0 -0.50776001135E+02  0.97585508013E+02 -0.23923552636E+02  0.11257650748E+03  0.00000000000E+00 0. -1.
         -1    1    6    6    0  502 -0.18466118215E+01  0.75759150316E+02  0.41560602187E+02  0.86429986035E+02  0.00000000000E+00 0.  1.
<mgrwt>
<rscale>  0 0.31656782E+03</rscale>
<asrwt>0</asrwt>
<pdfrwt beam="1">  1        1 0.71347242E-01 0.31656782E+03</pdfrwt>
<pdfrwt beam="2">  1       -2 0.16212798E+00 0.31656782E+03</pdfrwt>
<totfact> 0.11365899E+01</totfact>
</mgrwt>
</event>
<event>
12    3  0.1201947E-007  0.8059228E+03  0.7818608E-02  0.9551484E-01
         -2   -1    0    0    0  501 -0.00000000000E+00  0.00000000000E+00  0.47874656479E+03  0.47874656479E+03  0.00000000000E+00 0.  1.
          1   -1    0    0  501    0  0.00000000000E+00 -0.00000000000E+00 -0.19042421661E+04  0.19042421661E+04  0.00000000000E+00 0. -1.
        -24    2    1    2    0    0  0.10895079165E+01  0.74111354638E+03 -0.11841867504E+04  0.13992992912E+04  0.80559114903E+02 0.  0.
    5000000    2    1    2    0    0 -0.10895079165E+01 -0.74111354638E+03 -0.24130885093E+03  0.98368943966E+03  0.60013704811E+03 0.  0.
        -24    2    4    4    0    0  0.14574332993E+03 -0.66925133033E+03 -0.12290593539E+02  0.69020423235E+03  0.84216164129E+02 0.  0.
         24    2    4    4    0    0 -0.14683283785E+03 -0.71862216048E+02 -0.22901825739E+03  0.29348520731E+03  0.83427479437E+02 0.  0.
         13    1    3    3    0    0  0.71806065394E+01  0.70328905460E+03 -0.11496153956E+04  0.13476952969E+04  0.00000000000E+00 0. -1.
        -14    1    3    3    0    0 -0.60910986230E+01  0.37824491774E+02 -0.34571354758E+02  0.51603994324E+02  0.00000000000E+00 0.  1.
         15    1    5    5    0    0  0.31134772580E+02 -0.33822466095E+03  0.65234802467E+00  0.33965994557E+03  0.17770000000E+01 0. -1.
        -16    1    5    5    0    0  0.11460855735E+03 -0.33102666938E+03 -0.12942941563E+02  0.35054428678E+03  0.00000000000E+00 0.  1.
          4    1    6    6  502    0 -0.41114836324E+02 -0.61556169085E+02 -0.12201009513E+03  0.14270968794E+03  0.00000000000E+00 0. -1.
         -3    1    6    6    0  502 -0.10571800153E+03 -0.10306046963E+02 -0.10700816225E+03  0.15077551937E+03  0.00000000000E+00 0.  1.
<mgrwt>
<rscale>  0 0.80592276E+03</rscale>
<asrwt>0</asrwt>
<pdfrwt beam="1">  1        1 0.29296032E+00 0.80592276E+03</pdfrwt>
<pdfrwt beam="2">  1       -2 0.73653320E-01 0.80592276E+03</pdfrwt>
<totfact> 0.52143549E+00</totfact>
</mgrwt>
</event>
<event>
12    3  0.1201947E-007  0.6559005E+03  0.7818608E-02  0.9795770E-01
         -2   -1    0    0    0  501 -0.00000000000E+00  0.00000000000E+00  0.43828618195E+03  0.43828618195E+03  0.00000000000E+00 0.  1.
          1   -1    0    0  501    0  0.00000000000E+00 -0.00000000000E+00 -0.13941628500E+04  0.13941628500E+04  0.00000000000E+00 0. -1.
        -24    2    1    2    0    0  0.58524987055E+03 -0.21689469031E+03 -0.14369727878E+03  0.64542060408E+03  0.79737886723E+02 0.  0.
    5000000    2    1    2    0    0 -0.58524987055E+03  0.21689469031E+03 -0.81217938928E+03  0.11870284279E+04  0.59986699406E+03 0.  0.
        -24    2    4    4    0    0 -0.12705743272E+02  0.21764035074E+02 -0.49009870068E+03  0.49728631609E+03  0.80385537471E+02 0.  0.
         24    2    4    4    0    0 -0.57254412728E+03  0.19513065524E+03 -0.32208068861E+03  0.68974211179E+03  0.78265321220E+02 0.  0.
         13    1    3    3    0    0  0.56705709018E+03 -0.20946695390E+03 -0.15316189725E+03  0.62360942509E+03  0.00000000000E+00 0. -1.
        -14    1    3    3    0    0  0.18192780375E+02 -0.74277364170E+01  0.94646184749E+01  0.21811178990E+02  0.00000000000E+00 0.  1.
         15    1    5    5    0    0  0.31991781578E+01 -0.29169438444E+02 -0.22115927587E+03  0.22310462549E+03  0.17770000000E+01 0. -1.
        -16    1    5    5    0    0 -0.15904921430E+02  0.50933473519E+02 -0.26893942480E+03  0.27418169061E+03  0.00000000000E+00 0.  1.
          4    1    6    6  502    0 -0.26353334239E+03  0.88899924734E+02 -0.19240666169E+03  0.33819128113E+03  0.00000000000E+00 0. -1.
         -3    1    6    6    0  502 -0.30901078489E+03  0.10623073050E+03 -0.12967402692E+03  0.35155083066E+03  0.00000000000E+00 0.  1.
<mgrwt>
<rscale>  0 0.65590045E+03</rscale>
<asrwt>0</asrwt>
<pdfrwt beam="1">  1        1 0.21448659E+00 0.65590045E+03</pdfrwt>
<pdfrwt beam="2">  1       -2 0.67428644E-01 0.65590045E+03</pdfrwt>
<totfact> 0.14312174E+01</totfact>
</mgrwt>
</event>
<event>
12    3  0.1201947E-007  0.4822523E+03  0.7818608E-02  0.1018518E+00
         -2   -1    0    0    0  501 -0.00000000000E+00  0.00000000000E+00  0.45829538750E+03  0.45829538750E+03  0.00000000000E+00 0.  1.
          1   -1    0    0  501    0  0.00000000000E+00 -0.00000000000E+00 -0.10132231709E+04  0.10132231709E+04  0.00000000000E+00 0. -1.
        -24    2    1    2    0    0 -0.16472305809E+03  0.29634668213E+03  0.23726162615E+03  0.42180218510E+03  0.81663714311E+02 0.  0.
    5000000    2    1    2    0    0  0.16472305809E+03 -0.29634668213E+03 -0.79218940956E+03  0.10497163733E+04  0.59948758278E+03 0.  0.
        -24    2    4    4    0    0  0.18935556370E+03 -0.43480314241E+03 -0.73476838300E+03  0.87829759178E+03  0.81319007025E+02 0.  0.
         24    2    4    4    0    0 -0.24632505610E+02  0.13845646028E+03 -0.57421026551E+02  0.17141878154E+03  0.79437224565E+02 0.  0.
         11    1    3    3    0    0 -0.58885372329E+02  0.18915461842E+03  0.13490150508E+03  0.23967764355E+03  0.00000000000E+00 0. -1.
        -12    1    3    3    0    0 -0.10583768576E+03  0.10719206371E+03  0.10236012107E+03  0.18212454155E+03  0.00000000000E+00 0.  1.
         15    1    5    5    0    0  0.96419141868E+02 -0.23211638959E+03 -0.31509866914E+03  0.40306947076E+03  0.17770000000E+01 0. -1.
        -16    1    5    5    0    0  0.92936421832E+02 -0.20268675283E+03 -0.41966971386E+03  0.47522812102E+03  0.00000000000E+00 0.  1.
          4    1    6    6  502    0 -0.10492428333E+02  0.98240184159E+02  0.13582142029E+01  0.98808246527E+02  0.00000000000E+00 0. -1.
         -3    1    6    6    0  502 -0.14140077277E+02  0.40216276123E+02 -0.58779240754E+02  0.72610535008E+02  0.00000000000E+00 0.  1.
<mgrwt>
<rscale>  0 0.48225234E+03</rscale>
<asrwt>0</asrwt>
<pdfrwt beam="1">  1        1 0.15588049E+00 0.48225234E+03</pdfrwt>
<pdfrwt beam="2">  1       -2 0.70506983E-01 0.48225234E+03</pdfrwt>
<totfact> 0.25092842E+01</totfact>
</mgrwt>
</event>
<event>
12    3  0.1201947E-007  0.1173534E+04  0.7818608E-02  0.9136343E-01
          1   -1    0    0  501    0  0.00000000000E+00  0.00000000000E+00  0.27094869949E+04  0.27094869949E+04  0.00000000000E+00 0. -1.
         -2   -1    0    0    0  501 -0.00000000000E+00 -0.00000000000E+00 -0.53929147556E+03  0.53929147556E+03  0.00000000000E+00 0.  1.
        -24    2    1    2    0    0  0.43166592046E+03 -0.10431757841E+04  0.89354160792E+03  0.14420066523E+04  0.80096170845E+02 0.  0.
    5000000    2    1    2    0    0 -0.43166592046E+03  0.10431757841E+04  0.12766539114E+04  0.18067718182E+04  0.60002334117E+03 0.  0.
        -24    2    4    4    0    0 -0.52403831374E+03  0.91418209788E+03  0.89168491979E+03  0.13827592849E+04  0.81093658410E+02 0.  0.
         24    2    4    4    0    0  0.92372393277E+02  0.12899368626E+03  0.38496899158E+03  0.42401253325E+03  0.80084166634E+02 0.  0.
         11    1    3    3    0    0  0.39553500575E+03 -0.89967647514E+03  0.75518586609E+03  0.12394238149E+04  0.00000000000E+00 0. -1.
        -12    1    3    3    0    0  0.36130914711E+02 -0.14349930900E+03  0.13835574183E+03  0.20258283733E+03  0.00000000000E+00 0.  1.
         15    1    5    5    0    0 -0.14307813477E+03  0.27752128605E+03  0.22014093257E+03  0.38204005652E+03  0.17770000000E+01 0. -1.
        -16    1    5    5    0    0 -0.38096017897E+03  0.63666081183E+03  0.67154398722E+03  0.10007192284E+04  0.00000000000E+00 0.  1.
          2    1    6    6  502    0  0.25663203585E+02  0.14116019453E+02  0.19597404195E+02  0.35240889243E+02  0.00000000000E+00 0. -1.
         -1    1    6    6    0  502  0.66709189692E+02  0.11487766680E+03  0.36537158738E+03  0.38877164401E+03  0.00000000000E+00 0.  1.
<mgrwt>
<rscale>  0 0.11735335E+04</rscale>
<asrwt>0</asrwt>
<pdfrwt beam="1">  1        1 0.41684414E+00 0.11735335E+04</pdfrwt>
<pdfrwt beam="2">  1       -2 0.82967921E-01 0.11735335E+04</pdfrwt>
<totfact> 0.10739118E+00</totfact>
</mgrwt>
</event>
<event>
12    3  0.1201947E-007  0.9029061E+03  0.7818608E-02  0.9421956E-01
          1   -1    0    0  501    0  0.00000000000E+00  0.00000000000E+00  0.56515700036E+03  0.56515700036E+03  0.00000000000E+00 0. -1.
         -2   -1    0    0    0  501 -0.00000000000E+00 -0.00000000000E+00 -0.16344000383E+04  0.16344000383E+04  0.00000000000E+00 0.  1.
        -24    2    1    2    0    0 -0.80263652351E+03 -0.11148668109E+03 -0.82874886850E+03  0.11629052470E+04  0.94176735185E+02 0.  0.
    5000000    2    1    2    0    0  0.80263652351E+03  0.11148668109E+03 -0.24049416946E+03  0.10366517917E+04  0.60012900512E+03 0.  0.
        -24    2    4    4    0    0  0.33819393084E+02  0.19749667446E+03 -0.12354469551E+03  0.25003328025E+03  0.84289155127E+02 0.  0.
         24    2    4    4    0    0  0.76881713043E+03 -0.86009993366E+02 -0.11694947395E+03  0.78661851146E+03  0.81326527813E+02 0.  0.
         13    1    3    3    0    0 -0.63013562213E+03 -0.73903140325E+02 -0.59350211651E+03  0.86877922324E+03  0.00000000000E+00 0. -1.
        -14    1    3    3    0    0 -0.17250090138E+03 -0.37583540770E+02 -0.23524675199E+03  0.29412602373E+03  0.00000000000E+00 0.  1.
         15    1    5    5    0    0  0.52316360944E+02  0.19029799558E+03 -0.11497834052E+03  0.22841520366E+03  0.17770000000E+01 0. -1.
        -16    1    5    5    0    0 -0.18496967860E+02  0.71986788758E+01 -0.85663549985E+01  0.21618076592E+02  0.00000000000E+00 0.  1.
          2    1    6    6  502    0  0.42572133161E+03 -0.82671113109E+01 -0.53510227598E+02  0.42915072151E+03  0.00000000000E+00 0. -1.
         -1    1    6    6    0  502  0.34309579882E+03 -0.77742882055E+02 -0.63439246348E+02  0.35746778995E+03  0.00000000000E+00 0.  1.
<mgrwt>
<rscale>  0 0.90290606E+03</rscale>
<asrwt>0</asrwt>
<pdfrwt beam="1">  1        1 0.86947234E-01 0.90290606E+03</pdfrwt>
<pdfrwt beam="2">  1       -2 0.25144615E+00 0.90290606E+03</pdfrwt>
<totfact> 0.20872658E+00</totfact>
</mgrwt>
</event>
<event>
12    3  0.1201947E-007  0.4463959E+03  0.7818608E-02  0.1028802E+00
          1   -1    0    0  501    0  0.00000000000E+00  0.00000000000E+00  0.12677470153E+04  0.12677470153E+04  0.00000000000E+00 0. -1.
         -2   -1    0    0    0  501 -0.00000000000E+00 -0.00000000000E+00 -0.24744404438E+03  0.24744404438E+03  0.00000000000E+00 0.  1.
        -24    2    1    2    0    0  0.14400834080E+03 -0.18382932427E+03  0.79108118757E+03  0.83171726890E+03  0.10682952484E+03 0.  0.
    5000000    2    1    2    0    0 -0.14400834080E+03  0.18382932427E+03  0.22922178334E+03  0.68347379076E+03  0.60005180945E+03 0.  0.
        -24    2    4    4    0    0 -0.49915831371E+02 -0.21056076976E+03  0.66832742071E+02  0.23910751220E+03  0.76670457112E+02 0.  0.
         24    2    4    4    0    0 -0.94092509432E+02  0.39439009403E+03  0.16238904127E+03  0.44436627856E+03  0.81818348807E+02 0.  0.
         11    1    3    3    0    0  0.10116791144E+03 -0.44813459238E+02  0.31209270352E+03  0.33112693642E+03  0.00000000000E+00 0. -1.
        -12    1    3    3    0    0  0.42840429364E+02 -0.13901586503E+03  0.47898848405E+03  0.50059033248E+03  0.00000000000E+00 0.  1.
         15    1    5    5    0    0  0.89816821380E+01 -0.81528179427E+02  0.50484433116E+02  0.96329384773E+02  0.17770000000E+01 0. -1.
        -16    1    5    5    0    0 -0.58897513509E+02 -0.12903259033E+03  0.16348308955E+02  0.14277812743E+03  0.00000000000E+00 0.  1.
          2    1    6    6  502    0 -0.49967935437E+02  0.33554468193E+03  0.12242393449E+03  0.36065863067E+03  0.00000000000E+00 0. -1.
         -1    1    6    6    0  502 -0.44124573996E+02  0.58845412097E+02  0.39965106783E+02  0.83707647890E+02  0.00000000000E+00 0.  1.
<mgrwt>
<rscale>  0 0.44639591E+03</rscale>
<asrwt>0</asrwt>
<pdfrwt beam="1">  1        1 0.19503800E+00 0.44639591E+03</pdfrwt>
<pdfrwt beam="2">  1       -2 0.38068315E-01 0.44639591E+03</pdfrwt>
<totfact> 0.57855012E+01</totfact>
</mgrwt>
</event>
<event>
12    3  0.1201947E-007  0.5716343E+03  0.7818608E-02  0.9966069E-01
          1   -1    0    0  501    0  0.00000000000E+00  0.00000000000E+00  0.11752541110E+04  0.11752541110E+04  0.00000000000E+00 0. -1.
         -2   -1    0    0    0  501 -0.00000000000E+00 -0.00000000000E+00 -0.40686202459E+03  0.40686202459E+03  0.00000000000E+00 0.  1.
        -24    2    1    2    0    0  0.10271076552E+03  0.46808007311E+03  0.64026755784E+03  0.80366802878E+03  0.79317707117E+02 0.  0.
    5000000    2    1    2    0    0 -0.10271076552E+03 -0.46808007311E+03  0.12812452859E+03  0.77844810683E+03  0.59993091603E+03 0.  0.
        -24    2    4    4    0    0  0.17523421173E+03 -0.14137199326E+03 -0.12704760623E+03  0.27109230450E+03  0.81589667662E+02 0.  0.
         24    2    4    4    0    0 -0.27794497726E+03 -0.32670807986E+03  0.25517213482E+03  0.50735580234E+03  0.91134581537E+02 0.  0.
         11    1    3    3    0    0  0.28964188687E+02  0.21453827948E+03  0.34749341058E+03  0.40941087917E+03  0.00000000000E+00 0. -1.
        -12    1    3    3    0    0  0.73746576834E+02  0.25354179363E+03  0.29277414726E+03  0.39425714961E+03  0.00000000000E+00 0.  1.
         15    1    5    5    0    0  0.64335395481E+02 -0.91916995381E+02 -0.90875379843E+02  0.14439276139E+03  0.17770000000E+01 0. -1.
        -16    1    5    5    0    0  0.11089881625E+03 -0.49454997875E+02 -0.36172226384E+02  0.12669954310E+03  0.00000000000E+00 0.  1.
          2    1    6    6  502    0 -0.92447622065E+02 -0.11718900494E+03  0.14033282145E+03  0.20487344016E+03  0.00000000000E+00 0. -1.
         -1    1    6    6    0  502 -0.18549735519E+03 -0.20951907492E+03  0.11483931337E+03  0.30248236218E+03  0.00000000000E+00 0.  1.
<mgrwt>
<rscale>  0 0.57163429E+03</rscale>
<asrwt>0</asrwt>
<pdfrwt beam="1">  1        1 0.18080832E+00 0.57163429E+03</pdfrwt>
<pdfrwt beam="2">  1       -2 0.62594158E-01 0.57163429E+03</pdfrwt>
<totfact> 0.24249943E+01</totfact>
</mgrwt>
</event>
<event>
12    3  0.1201947E-007  0.6751095E+03  0.7818608E-02  0.9760771E-01
         -2   -1    0    0    0  501 -0.00000000000E+00  0.00000000000E+00  0.11750631513E+04  0.11750631513E+04  0.00000000000E+00 0.  1.
          1   -1    0    0  501    0  0.00000000000E+00 -0.00000000000E+00 -0.41621741195E+03  0.41621741195E+03  0.00000000000E+00 0. -1.
        -24    2    1    2    0    0  0.37915816913E+03 -0.40503673305E+03  0.44574041143E+03  0.71643184895E+03  0.82306788744E+02 0.  0.
    5000000    2    1    2    0    0 -0.37915816913E+03  0.40503673305E+03  0.31310532793E+03  0.87484871431E+03  0.59959123927E+03 0.  0.
        -24    2    4    4    0    0  0.14277219530E+03  0.80902844080E+02  0.25734413125E+01  0.18216274075E+03  0.79040948810E+02 0.  0.
         24    2    4    4    0    0 -0.52193036443E+03  0.32413388897E+03  0.31053188662E+03  0.69268597355E+03  0.76874716606E+02 0.  0.
         13    1    3    3    0    0  0.21850705020E+03 -0.17433454788E+03  0.23238169397E+03  0.36350944590E+03  0.00000000000E+00 0. -1.
        -14    1    3    3    0    0  0.16065111894E+03 -0.23070218516E+03  0.21335871746E+03  0.35292240305E+03  0.00000000000E+00 0.  1.
         15    1    5    5    0    0  0.62700051232E+02  0.23446177295E+01 -0.23456230719E+02  0.67008552778E+02  0.17770000000E+01 0. -1.
        -16    1    5    5    0    0  0.80072144066E+02  0.78558226350E+02  0.26029672032E+02  0.11515418798E+03  0.00000000000E+00 0.  1.
          4    1    6    6  502    0 -0.13404919834E+03  0.74705119078E+02  0.11509234991E+03  0.19182359448E+03  0.00000000000E+00 0. -1.
         -3    1    6    6    0  502 -0.38788116610E+03  0.24942876989E+03  0.19543953671E+03  0.50086237907E+03  0.00000000000E+00 0.  1.
<mgrwt>
<rscale>  0 0.67510955E+03</rscale>
<asrwt>0</asrwt>
<pdfrwt beam="1">  1        1 0.64033449E-01 0.67510955E+03</pdfrwt>
<pdfrwt beam="2">  1       -2 0.18077894E+00 0.67510955E+03</pdfrwt>
<totfact> 0.91750504E+00</totfact>
</mgrwt>
</event>
<event>
12    3  0.1201947E-007  0.5047314E+03  0.7818608E-02  0.1012551E+00
          1   -1    0    0  501    0  0.00000000000E+00  0.00000000000E+00  0.24037365467E+04  0.24037365467E+04  0.00000000000E+00 0. -1.
         -2   -1    0    0    0  501 -0.00000000000E+00 -0.00000000000E+00 -0.16656721293E+03  0.16656721293E+03  0.00000000000E+00 0.  1.
        -24    2    1    2    0    0 -0.41878256804E+03  0.18507788605E+03  0.12030831754E+04  0.12898047500E+04  0.80959885660E+02 0.  0.
    5000000    2    1    2    0    0  0.41878256804E+03 -0.18507788605E+03  0.10340861584E+04  0.12804990096E+04  0.60059209740E+03 0.  0.
        -24    2    4    4    0    0  0.16266741679E+03 -0.22078772614E+03  0.92412818940E+02  0.29975259060E+03  0.78125399003E+02 0.  0.
         24    2    4    4    0    0  0.25611515125E+03  0.35709840082E+02  0.94167333944E+03  0.98074641901E+03  0.90800312853E+02 0.  0.
         13    1    3    3    0    0 -0.17014334203E+03  0.37802832288E+02  0.50683404467E+03  0.53596507331E+03  0.00000000000E+00 0. -1.
        -14    1    3    3    0    0 -0.24863922601E+03  0.14727505377E+03  0.69624913072E+03  0.75383967672E+03  0.00000000000E+00 0.  1.
         15    1    5    5    0    0 -0.78580941802E+01 -0.15867842052E+02  0.64182849318E+00  0.17807518871E+02  0.17770000000E+01 0. -1.
        -16    1    5    5    0    0  0.17052551097E+03 -0.20491988409E+03  0.91770990447E+02  0.28194507173E+03  0.00000000000E+00 0.  1.
          2    1    6    6  502    0  0.10395090263E+03  0.34836147058E+02  0.54437063513E+03  0.55530058139E+03  0.00000000000E+00 0. -1.
         -1    1    6    6    0  502  0.15216424863E+03  0.87369302372E+00  0.39730270431E+03  0.42544583763E+03  0.00000000000E+00 0.  1.
<mgrwt>
<rscale>  0 0.50473143E+03</rscale>
<asrwt>0</asrwt>
<pdfrwt beam="1">  1        1 0.36980560E+00 0.50473143E+03</pdfrwt>
<pdfrwt beam="2">  1       -2 0.25625727E-01 0.50473143E+03</pdfrwt>
<totfact> 0.20715910E+01</totfact>
</mgrwt>
</event>
<event>
12    3  0.1201947E-007  0.1548213E+04  0.7818608E-02  0.8853010E-01
         -2   -1    0    0    0  501 -0.00000000000E+00  0.00000000000E+00  0.10088989921E+04  0.10088989921E+04  0.00000000000E+00 0.  1.
          1   -1    0    0  501    0  0.00000000000E+00 -0.00000000000E+00 -0.27420305348E+04  0.27420305348E+04  0.00000000000E+00 0. -1.
        -24    2    1    2    0    0  0.37749754633E+03 -0.14596219413E+04 -0.20762985807E+03  0.15237709432E+04  0.75941557874E+02 0.  0.
    5000000    2    1    2    0    0 -0.37749754633E+03  0.14596219413E+04 -0.15255016846E+04  0.22271585837E+04  0.60006612833E+03 0.  0.
        -24    2    4    4    0    0 -0.46775463297E+03  0.87683731161E+03 -0.73995733004E+03  0.12416100780E+04  0.80129069082E+02 0.  0.
         24    2    4    4    0    0  0.90257086647E+02  0.58278462971E+03 -0.78554435456E+03  0.98554850579E+03  0.80259939946E+02 0.  0.
         11    1    3    3    0    0  0.15581201675E+03 -0.61758922728E+03 -0.12542950838E+03  0.64917362839E+03  0.00000000000E+00 0. -1.
        -12    1    3    3    0    0  0.22168552957E+03 -0.84203271404E+03 -0.82200349691E+02  0.87459731478E+03  0.00000000000E+00 0.  1.
         15    1    5    5    0    0 -0.35586076091E+03  0.62664899364E+03 -0.49754974014E+03  0.87571955787E+03  0.17770000000E+01 0. -1.
        -16    1    5    5    0    0 -0.11189387206E+03  0.25018831796E+03 -0.24240758990E+03  0.36589052009E+03  0.00000000000E+00 0.  1.
          4    1    6    6  502    0  0.42111669433E+02  0.95318020707E+02 -0.16182071069E+03  0.19247041378E+03  0.00000000000E+00 0. -1.
         -3    1    6    6    0  502  0.48145417213E+02  0.48746660901E+03 -0.62372364387E+03  0.79307809201E+03  0.00000000000E+00 0.  1.
<mgrwt>
<rscale>  0 0.15482132E+04</rscale>
<asrwt>0</asrwt>
<pdfrwt beam="1">  1        1 0.42185085E+00 0.15482132E+04</pdfrwt>
<pdfrwt beam="2">  1       -2 0.15521523E+00 0.15482132E+04</pdfrwt>
<totfact> 0.20705944E-01</totfact>
</mgrwt>
</event>
<event>
12    3  0.1993166E-007  0.1062532E+04  0.7818608E-02  0.9242500E-01
          1   -1    0    0  501    0  0.00000000000E+00  0.00000000000E+00  0.20662605402E+04  0.20662605402E+04  0.00000000000E+00 0. -1.
         -2   -1    0    0    0  501 -0.00000000000E+00 -0.00000000000E+00 -0.67637326029E+03  0.67637326029E+03  0.00000000000E+00 0.  1.
        -24    2    1    2    0    0 -0.86118133863E+03 -0.60854519980E+03  0.10324815622E+04  0.14779110709E+04  0.79008854628E+02 0.  0.
    5000000    2    1    2    0    0  0.86118133863E+03  0.60854519980E+03  0.35740571766E+03  0.12647227295E+04  0.59985346319E+03 0.  0.
        -24    2    4    4    0    0  0.23759743105E+03  0.26758135655E+03 -0.14102627167E+03  0.39291177894E+03  0.80242975466E+02 0.  0.
         24    2    4    4    0    0  0.62358390758E+03  0.34096384325E+03  0.49843198933E+03  0.87181095056E+03  0.80663829158E+02 0.  0.
         11    1    3    3    0    0 -0.33527454581E+03 -0.27183454000E+03  0.45907874725E+03  0.63012406269E+03  0.00000000000E+00 0. -1.
        -12    1    3    3    0    0 -0.52590679283E+03 -0.33671065980E+03  0.57340281496E+03  0.84778700825E+03  0.00000000000E+00 0.  1.
         15    1    5    5    0    0  0.12852935610E+03  0.13639235730E+03 -0.31162354078E+02  0.18999189601E+03  0.17770000000E+01 0. -1.
        -16    1    5    5    0    0  0.10906807495E+03  0.13118899925E+03 -0.10986391760E+03  0.20291988293E+03  0.00000000000E+00 0.  1.
          4    1    6    6  502    0  0.45867546637E+03  0.25993260142E+03  0.32616867668E+03  0.61994688996E+03  0.00000000000E+00 0. -1.
         -3    1    6    6    0  502  0.16490844122E+03  0.81031241831E+02  0.17226331265E+03  0.25186406060E+03  0.00000000000E+00 0.  1.
<mgrwt>
<rscale>  0 0.10625319E+04</rscale>
<asrwt>0</asrwt>
<pdfrwt beam="1">  1        1 0.31788623E+00 0.10625319E+04</pdfrwt>
<pdfrwt beam="2">  1       -2 0.10405743E+00 0.10625319E+04</pdfrwt>
<totfact> 0.17684617E+00</totfact>
</mgrwt>
</event>
<event>
12    3  0.1201947E-007  0.1526972E+04  0.7818608E-02  0.8866712E-01
         -2   -1    0    0    0  501 -0.00000000000E+00  0.00000000000E+00  0.16556351840E+04  0.16556351840E+04  0.00000000000E+00 0.  1.
          1   -1    0    0  501    0  0.00000000000E+00 -0.00000000000E+00 -0.15760343957E+04  0.15760343957E+04  0.00000000000E+00 0. -1.
        -24    2    1    2    0    0 -0.14007944732E+04 -0.59485959771E+03  0.37494174485E+03  0.15693323749E+04  0.78356197783E+02 0.  0.
    5000000    2    1    2    0    0  0.14007944732E+04  0.59485959771E+03 -0.29534095654E+03  0.16623372048E+04  0.60004633549E+03 0.  0.
        -24    2    4    4    0    0  0.51754397684E+03  0.16440413318E+03  0.16653922604E+03  0.57367702255E+03  0.80557590679E+02 0.  0.
         24    2    4    4    0    0  0.88325049636E+03  0.43045546453E+03 -0.46188018258E+03  0.10886601823E+04  0.80152000072E+02 0.  0.
         11    1    3    3    0    0 -0.75433362471E+03 -0.31004575850E+03  0.16183803204E+03  0.83146806213E+03  0.00000000000E+00 0. -1.
        -12    1    3    3    0    0 -0.64646084849E+03 -0.28481383921E+03  0.21310371282E+03  0.73786431276E+03  0.00000000000E+00 0.  1.
         15    1    5    5    0    0  0.38204206078E+02  0.32654886653E+02  0.28264315941E+02  0.57688233367E+02  0.17770000000E+01 0. -1.
        -16    1    5    5    0    0  0.47933977076E+03  0.13174924653E+03  0.13827491010E+03  0.51598878918E+03  0.00000000000E+00 0.  1.
          4    1    6    6  502    0  0.61537586444E+03  0.33148917479E+03 -0.35275638433E+03  0.78294929224E+03  0.00000000000E+00 0. -1.
         -1    1    6    6    0  502  0.26787463192E+03  0.98966289744E+02 -0.10912379826E+03  0.30571089002E+03  0.00000000000E+00 0.  1.
<mgrwt>
<rscale>  0 0.15269720E+04</rscale>
<asrwt>0</asrwt>
<pdfrwt beam="1">  1        1 0.24246683E+00 0.15269720E+04</pdfrwt>
<pdfrwt beam="2">  1       -2 0.25471311E+00 0.15269720E+04</pdfrwt>
<totfact> 0.28691087E-01</totfact>
</mgrwt>
</event>
<event>
12    3  0.1201947E-007  0.5916301E+03  0.7818608E-02  0.9922925E-01
          1   -1    0    0  501    0  0.00000000000E+00  0.00000000000E+00  0.14862952496E+04  0.14862952496E+04  0.00000000000E+00 0. -1.
         -2   -1    0    0    0  501 -0.00000000000E+00 -0.00000000000E+00 -0.12654850607E+04  0.12654850607E+04  0.00000000000E+00 0.  1.
        -24    2    1    2    0    0  0.10236777203E+02  0.45323719076E+03 -0.11219816644E+04  0.12127743359E+04  0.80311842547E+02 0.  0.
    5000000    2    1    2    0    0 -0.10236777203E+02 -0.45323719076E+03  0.13427918533E+04  0.15390059743E+04  0.59993390059E+03 0.  0.
        -24    2    4    4    0    0 -0.96792494636E+02 -0.56691499514E+03  0.11354098661E+04  0.12753367625E+04  0.81036381258E+02 0.  0.
         24    2    4    4    0    0  0.86555717433E+02  0.11367780439E+03  0.20738198721E+03  0.26366921182E+03  0.78100122992E+02 0.  0.
         13    1    3    3    0    0  0.32122092439E+02  0.15038857216E+03 -0.31431962568E+03  0.34992196066E+03  0.00000000000E+00 0. -1.
        -14    1    3    3    0    0 -0.21885315236E+02  0.30284861860E+03 -0.80766203869E+03  0.86285237529E+03  0.00000000000E+00 0.  1.
         15    1    5    5    0    0 -0.19290923538E+02 -0.23806537822E+03  0.54603629093E+03  0.59599165496E+03  0.17770000000E+01 0. -1.
        -16    1    5    5    0    0 -0.77501571099E+02 -0.32884961692E+03  0.58937357515E+03  0.67934510755E+03  0.00000000000E+00 0.  1.
          4    1    6    6  502    0  0.58178205354E+02  0.41183995851E+02  0.15274931818E+03  0.16856209330E+03  0.00000000000E+00 0. -1.
         -3    1    6    6    0  502  0.28377512080E+02  0.72493808538E+02  0.54632669030E+02  0.95107118522E+02  0.00000000000E+00 0.  1.
<mgrwt>
<rscale>  0 0.59163015E+03</rscale>
<asrwt>0</asrwt>
<pdfrwt beam="1">  1        1 0.22866081E+00 0.59163015E+03</pdfrwt>
<pdfrwt beam="2">  1       -2 0.19469001E+00 0.59163015E+03</pdfrwt>
<totfact> 0.91006054E-01</totfact>
</mgrwt>
</event>
<event>
12    3  0.1201947E-007  0.7052609E+03  0.7818608E-02  0.9708277E-01
          1   -1    0    0  501    0  0.00000000000E+00  0.00000000000E+00  0.17411455525E+04  0.17411455525E+04  0.00000000000E+00 0. -1.
         -2   -1    0    0    0  501 -0.00000000000E+00 -0.00000000000E+00 -0.36308039561E+03  0.36308039561E+03  0.00000000000E+00 0.  1.
        -24    2    1    2    0    0  0.60121817335E+03  0.87888118672E+02  0.99448238635E+03  0.11681496055E+04  0.79941670957E+02 0.  0.
    5000000    2    1    2    0    0 -0.60121817335E+03 -0.87888118672E+02  0.38358277058E+03  0.93607634262E+03  0.59992963250E+03 0.  0.
        -24    2    4    4    0    0 -0.46639446933E+03 -0.29083724930E+03  0.39684601695E+03  0.68260095982E+03  0.79669332729E+02 0.  0.
         24    2    4    4    0    0 -0.13482370403E+03  0.20294913063E+03 -0.13263246375E+02  0.25347538280E+03  0.68615415121E+02 0.  0.
         13    1    3    3    0    0  0.43440646219E+03  0.94102639654E+02  0.75752665344E+03  0.87830001244E+03  0.00000000000E+00 0. -1.
        -14    1    3    3    0    0  0.16681171116E+03 -0.62145209821E+01  0.23695573291E+03  0.28984959309E+03  0.00000000000E+00 0.  1.
         15    1    5    5    0    0 -0.61702098846E+02 -0.73157618422E+02  0.74422526056E+02  0.12124791235E+03  0.17770000000E+01 0. -1.
        -16    1    5    5    0    0 -0.40469237048E+03 -0.21767963088E+03  0.32242349089E+03  0.56135304747E+03  0.00000000000E+00 0.  1.
          2    1    6    6  502    0 -0.11191236330E+03  0.17509105152E+03 -0.35916802715E+02  0.21088212371E+03  0.00000000000E+00 0. -1.
         -1    1    6    6    0  502 -0.22911340725E+02  0.27858079105E+02  0.22653556340E+02  0.42593259092E+02  0.00000000000E+00 0.  1.
<mgrwt>
<rscale>  0 0.70526093E+03</rscale>
<asrwt>0</asrwt>
<pdfrwt beam="1">  1        1 0.26786854E+00 0.70526093E+03</pdfrwt>
<pdfrwt beam="2">  1       -2 0.55858523E-01 0.70526093E+03</pdfrwt>
<totfact> 0.12308618E+01</totfact>
</mgrwt>
</event>
<event>
12    3  0.1201947E-007  0.6635229E+03  0.7818608E-02  0.9781730E-01
         -2   -1    0    0    0  501 -0.00000000000E+00  0.00000000000E+00  0.83877216574E+03  0.83877216574E+03  0.00000000000E+00 0.  1.
          1   -1    0    0  501    0  0.00000000000E+00 -0.00000000000E+00 -0.66932832571E+03  0.66932832571E+03  0.00000000000E+00 0. -1.
        -24    2    1    2    0    0 -0.88120725390E+02 -0.59375579933E+03 -0.10896259297E+03  0.61487296635E+03  0.76711841312E+02 0.  0.
    5000000    2    1    2    0    0  0.88120725390E+02  0.59375579933E+03  0.27840643299E+03  0.89322752509E+03  0.60002838113E+03 0.  0.
        -24    2    4    4    0    0  0.22987823667E+03  0.26356956970E+03  0.36854616050E+03  0.51437690409E+03  0.80277053253E+02 0.  0.
         24    2    4    4    0    0 -0.14175751128E+03  0.33018622963E+03 -0.90139727503E+02  0.37885062100E+03  0.79274739458E+02 0.  0.
         11    1    3    3    0    0 -0.91971636063E+02 -0.41296238098E+03 -0.94176651447E+02  0.43343506044E+03  0.00000000000E+00 0. -1.
        -12    1    3    3    0    0  0.38509106723E+01 -0.18079341836E+03 -0.14785941519E+02  0.18143790591E+03  0.00000000000E+00 0.  1.
         15    1    5    5    0    0  0.21430263121E+03  0.19935131428E+03  0.30408032168E+03  0.42205990572E+03  0.17770000000E+01 0. -1.
        -16    1    5    5    0    0  0.15575605456E+02  0.64218255425E+02  0.64465838811E+02  0.92316998374E+02  0.00000000000E+00 0.  1.
          4    1    6    6  502    0 -0.33683075430E+02  0.29276138138E+02 -0.29293091234E+02  0.53382834589E+02  0.00000000000E+00 0. -1.
         -3    1    6    6    0  502 -0.10807443585E+03  0.30091009150E+03 -0.60846636269E+02  0.32546778641E+03  0.00000000000E+00 0.  1.
<mgrwt>
<rscale>  0 0.66352291E+03</rscale>
<asrwt>0</asrwt>
<pdfrwt beam="1">  1        1 0.10297359E+00 0.66352291E+03</pdfrwt>
<pdfrwt beam="2">  1       -2 0.12904187E+00 0.66352291E+03</pdfrwt>
<totfact> 0.11638885E+01</totfact>
</mgrwt>
</event>
<event>
12    3  0.1201947E-007  0.7424155E+03  0.7818608E-02  0.9647325E-01
         -2   -1    0    0    0  501 -0.00000000000E+00  0.00000000000E+00  0.45217993311E+03  0.45217993311E+03  0.00000000000E+00 0.  1.
          1   -1    0    0  501    0  0.00000000000E+00 -0.00000000000E+00 -0.16553683027E+04  0.16553683027E+04  0.00000000000E+00 0. -1.
        -24    2    1    2    0    0 -0.70459835648E+03 -0.12323002174E+03 -0.22327754621E+03  0.75404178165E+03  0.84152620996E+02 0.  0.
    5000000    2    1    2    0    0  0.70459835648E+03  0.12323002174E+03 -0.97991082338E+03  0.13535064542E+04  0.60009167422E+03 0.  0.
        -24    2    4    4    0    0  0.57260966084E+03  0.20430002825E+03 -0.36261389353E+03  0.71243166653E+03  0.80310139216E+02 0.  0.
         24    2    4    4    0    0  0.13198869564E+03 -0.81070006505E+02 -0.61729692985E+03  0.64107478763E+03  0.76993649133E+02 0.  0.
         11    1    3    3    0    0 -0.32098547265E+03 -0.53073633139E+02 -0.57928701221E+02  0.33046061583E+03  0.00000000000E+00 0. -1.
        -12    1    3    3    0    0 -0.38361288383E+03 -0.70156388605E+02 -0.16534884499E+03  0.42358116583E+03  0.00000000000E+00 0.  1.
         15    1    5    5    0    0  0.38675100053E+03  0.17440246707E+03 -0.23486957836E+03  0.48493240095E+03  0.17770000000E+01 0. -1.
        -16    1    5    5    0    0  0.18585866032E+03  0.29897561183E+02 -0.12774431518E+03  0.22749926558E+03  0.00000000000E+00 0.  1.
          2    1    6    6  502    0  0.37681122147E+02 -0.10200910700E+02 -0.30052682733E+03  0.30305164492E+03  0.00000000000E+00 0. -1.
         -1    1    6    6    0  502  0.94307573490E+02 -0.70869095805E+02 -0.31677010252E+03  0.33802314271E+03  0.00000000000E+00 0.  1.
<mgrwt>
<rscale>  0 0.74241552E+03</rscale>
<asrwt>0</asrwt>
<pdfrwt beam="1">  1        1 0.25467205E+00 0.74241552E+03</pdfrwt>
<pdfrwt beam="2">  1       -2 0.69566143E-01 0.74241552E+03</pdfrwt>
<totfact> 0.87641548E+00</totfact>
</mgrwt>
</event>
<event>
12    3  0.1201947E-007  0.6612269E+03  0.7818608E-02  0.9785938E-01
          1   -1    0    0  501    0  0.00000000000E+00  0.00000000000E+00  0.80288001807E+03  0.80288001807E+03  0.00000000000E+00 0. -1.
         -2   -1    0    0    0  501 -0.00000000000E+00 -0.00000000000E+00 -0.15432807998E+04  0.15432807998E+04  0.00000000000E+00 0.  1.
        -24    2    1    2    0    0  0.15512762093E+03 -0.56493946071E+03  0.54994958940E+03  0.80729615082E+03  0.77854680071E+02 0.  0.
    5000000    2    1    2    0    0 -0.15512762093E+03  0.56493946071E+03 -0.12903503711E+04  0.15388646670E+04  0.59989933337E+03 0.  0.
        -24    2    4    4    0    0 -0.28278049498E+03  0.21945266986E+03 -0.99022625661E+03  0.10570549114E+04  0.93234992121E+02 0.  0.
         24    2    4    4    0    0  0.12765287405E+03  0.34548679084E+03 -0.30012411450E+03  0.48180975565E+03  0.80061086856E+02 0.  0.
         13    1    3    3    0    0  0.20875262839E+02 -0.14703885669E+03  0.10217628619E+03  0.18026701150E+03  0.00000000000E+00 0. -1.
        -14    1    3    3    0    0  0.13425235809E+03 -0.41790060402E+03  0.44777330321E+03  0.62702913932E+03  0.00000000000E+00 0.  1.
         15    1    5    5    0    0 -0.27745763737E+03  0.19681216875E+03 -0.86124388616E+03  0.92599241870E+03  0.17770000000E+01 0. -1.
        -16    1    5    5    0    0 -0.53228576108E+01  0.22640501109E+02 -0.12898237045E+03  0.13106249269E+03  0.00000000000E+00 0.  1.
          2    1    6    6  502    0  0.31852778967E+02  0.15626293935E+03 -0.89370812216E+02  0.18281096197E+03  0.00000000000E+00 0. -1.
         -1    1    6    6    0  502  0.95800095086E+02  0.18922385150E+03 -0.21075330229E+03  0.29899879368E+03  0.00000000000E+00 0.  1.
<mgrwt>
<rscale>  0 0.66122687E+03</rscale>
<asrwt>0</asrwt>
<pdfrwt beam="1">  1        1 0.12352001E+00 0.66122687E+03</pdfrwt>
<pdfrwt beam="2">  1       -2 0.23742781E+00 0.66122687E+03</pdfrwt>
<totfact> 0.15574829E+00</totfact>
</mgrwt>
</event>
<event>
12    3  0.1201947E-007  0.3459996E+03  0.7818608E-02  0.1064269E+00
          1   -1    0    0  501    0  0.00000000000E+00  0.00000000000E+00  0.18868694681E+03  0.18868694681E+03  0.00000000000E+00 0. -1.
         -4   -1    0    0    0  501 -0.00000000000E+00 -0.00000000000E+00 -0.74526777024E+03  0.74526777024E+03  0.00000000000E+00 0.  1.
        -24    2    1    2    0    0 -0.33726700938E+02  0.48566752646E+02 -0.10797831380E+02  0.12071551476E+03  0.10468726056E+03 0.  0.
    5000000    2    1    2    0    0  0.33726700938E+02 -0.48566752646E+02 -0.54578299205E+03  0.81323920229E+03  0.59998558808E+03 0.  0.
        -24    2    4    4    0    0 -0.14151607541E+03  0.21467617939E+03 -0.30357892574E+03  0.40583749995E+03  0.80195078501E+02 0.  0.
         24    2    4    4    0    0  0.17524277635E+03 -0.26324293203E+03 -0.24220406631E+03  0.40740170234E+03  0.85477864995E+02 0.  0.
         13    1    3    3    0    0  0.34308869510E+02  0.34882171962E+02  0.60549404164E+01  0.49300372730E+02  0.00000000000E+00 0. -1.
        -14    1    3    3    0    0 -0.68035570448E+02  0.13684580684E+02 -0.16852771797E+02  0.71415142035E+02  0.00000000000E+00 0.  1.
         15    1    5    5    0    0 -0.58720201606E+02  0.91985716730E+02 -0.19057761514E+03  0.21961880447E+03  0.17770000000E+01 0. -1.
        -16    1    5    5    0    0 -0.82795873802E+02  0.12269046266E+03 -0.11300131060E+03  0.18621869547E+03  0.00000000000E+00 0.  1.
          4    1    6    6  502    0  0.87149877258E+02 -0.14283171784E+03 -0.18000689543E+03  0.24576102850E+03  0.00000000000E+00 0. -1.
         -3    1    6    6    0  502  0.88092899089E+02 -0.12041121420E+03 -0.62197170882E+02  0.16164067384E+03  0.00000000000E+00 0.  1.
<mgrwt>
<rscale>  0 0.34599965E+03</rscale>
<asrwt>0</asrwt>
<pdfrwt beam="1">  1        1 0.29028761E-01 0.34599965E+03</pdfrwt>
<pdfrwt beam="2">  1       -4 0.11465658E+00 0.34599965E+03</pdfrwt>
<totfact> 0.45108571E+01</totfact>
</mgrwt>
</event>
<event>
12    3  0.1201947E-007  0.1078503E+04  0.7818608E-02  0.9226401E-01
         -2   -1    0    0    0  501 -0.00000000000E+00  0.00000000000E+00  0.40508454831E+03  0.40508454831E+03  0.00000000000E+00 0.  1.
          1   -1    0    0  501    0  0.00000000000E+00 -0.00000000000E+00 -0.30361806582E+04  0.30361806582E+04  0.00000000000E+00 0. -1.
        -24    2    1    2    0    0 -0.32370118901E+02  0.10154943980E+04 -0.14450610250E+04  0.17682610687E+04  0.79177927577E+02 0.  0.
    5000000    2    1    2    0    0  0.32370118901E+02 -0.10154943980E+04 -0.11860350850E+04  0.16730041378E+04  0.59998910438E+03 0.  0.
        -24    2    4    4    0    0 -0.17654716976E+03 -0.81780525994E+03 -0.65901461259E+03  0.10673832154E+04  0.70938865695E+02 0.  0.
         24    2    4    4    0    0  0.20891728867E+03 -0.19768913811E+03 -0.52702047237E+03  0.60562092238E+03  0.79364315063E+02 0.  0.
         13    1    3    3    0    0 -0.86277626581E+01  0.93566256329E+03 -0.13336427780E+04  0.16291537466E+04  0.00000000000E+00 0. -1.
        -14    1    3    3    0    0 -0.23742356243E+02  0.79831834755E+02 -0.11141824694E+03  0.13910732214E+03  0.00000000000E+00 0.  1.
         15    1    5    5    0    0 -0.54027718139E+02 -0.41822414165E+03 -0.33175337892E+03  0.53655744254E+03  0.17770000000E+01 0. -1.
        -16    1    5    5    0    0 -0.12251945163E+03 -0.39958111829E+03 -0.32726123367E+03  0.53082577291E+03  0.00000000000E+00 0.  1.
          2    1    6    6  502    0  0.15491478629E+03 -0.18783593093E+03 -0.43084148613E+03  0.49487909042E+03  0.00000000000E+00 0. -1.
         -1    1    6    6    0  502  0.54002502371E+02 -0.98532071825E+01 -0.96178986233E+02  0.11074183196E+03  0.00000000000E+00 0.  1.
<mgrwt>
<rscale>  0 0.10785033E+04</rscale>
<asrwt>0</asrwt>
<pdfrwt beam="1">  1        1 0.46710470E+00 0.10785033E+04</pdfrwt>
<pdfrwt beam="2">  1       -2 0.62320701E-01 0.10785033E+04</pdfrwt>
<totfact> 0.11968002E+00</totfact>
</mgrwt>
</event>
<event>
12    3  0.1201947E-007  0.3375311E+03  0.7818608E-02  0.1067852E+00
         -2   -1    0    0    0  501 -0.00000000000E+00  0.00000000000E+00  0.17570047081E+03  0.17570047081E+03  0.00000000000E+00 0.  1.
          1   -1    0    0  501    0  0.00000000000E+00 -0.00000000000E+00 -0.28548717510E+04  0.28548717510E+04  0.00000000000E+00 0. -1.
        -24    2    1    2    0    0  0.81316805383E+01  0.22030645304E+03 -0.22466838876E+04  0.22587615208E+04  0.76249980691E+02 0.  0.
    5000000    2    1    2    0    0 -0.81316805383E+01 -0.22030645304E+03 -0.43248739265E+03  0.77181070108E+03  0.60003779549E+03 0.  0.
        -24    2    4    4    0    0 -0.56274893053E+02  0.82096968579E+02 -0.43634087706E+03  0.45538465310E+03  0.84113289345E+02 0.  0.
         24    2    4    4    0    0  0.48143212514E+02 -0.30240342162E+03  0.38534844107E+01  0.31642604798E+03  0.79655484300E+02 0.  0.
         13    1    3    3    0    0 -0.31973105063E+02  0.11772479731E+03 -0.10688108523E+04  0.10757499920E+04  0.00000000000E+00 0. -1.
        -14    1    3    3    0    0  0.40104785601E+02  0.10258165572E+03 -0.11778730353E+04  0.11830115288E+04  0.00000000000E+00 0.  1.
         15    1    5    5    0    0  0.11147685276E+02  0.51556144413E+02 -0.13171360982E+03  0.14189411423E+03  0.17770000000E+01 0. -1.
        -16    1    5    5    0    0 -0.67422578329E+02  0.30540824166E+02 -0.30462726725E+03  0.31349053887E+03  0.00000000000E+00 0.  1.
          2    1    6    6  502    0  0.69413035287E+02 -0.20486536294E+03  0.86777231314E+01  0.21647930450E+03  0.00000000000E+00 0. -1.
         -1    1    6    6    0  502 -0.21269822773E+02 -0.97538058679E+02 -0.48242387207E+01  0.99946743473E+02  0.00000000000E+00 0.  1.
<mgrwt>
<rscale>  0 0.33753111E+03</rscale>
<asrwt>0</asrwt>
<pdfrwt beam="1">  1        1 0.43921099E+00 0.33753111E+03</pdfrwt>
<pdfrwt beam="2">  1       -2 0.27030844E-01 0.33753111E+03</pdfrwt>
<totfact> 0.97300661E+00</totfact>
</mgrwt>
</event>
<event>
12    3  0.1201947E-007  0.3989195E+03  0.7818608E-02  0.1044154E+00
         -2   -1    0    0    0  501 -0.00000000000E+00  0.00000000000E+00  0.59013017948E+03  0.59013017948E+03  0.00000000000E+00 0.  1.
          1   -1    0    0  501    0  0.00000000000E+00 -0.00000000000E+00 -0.48257211348E+03  0.48257211348E+03  0.00000000000E+00 0. -1.
        -24    2    1    2    0    0  0.25859422881E+03 -0.24123564259E+03  0.10145383615E+03  0.37620320024E+03  0.78551617246E+02 0.  0.
    5000000    2    1    2    0    0 -0.25859422881E+03  0.24123564259E+03  0.61042298428E+01  0.69649909272E+03  0.60000676172E+03 0.  0.
        -24    2    4    4    0    0 -0.17507673475E+03  0.51589612264E+01 -0.25914051590E+03  0.32307603406E+03  0.80906358652E+02 0.  0.
         24    2    4    4    0    0 -0.83517494061E+02  0.23607668136E+03  0.26524474574E+03  0.37342305866E+03  0.79891390642E+02 0.  0.
         13    1    3    3    0    0  0.64435574053E+02 -0.99857194428E+02  0.10218672537E+02  0.11928044161E+03  0.00000000000E+00 0. -1.
        -14    1    3    3    0    0  0.19415865476E+03 -0.14137844816E+03  0.91235163616E+02  0.25692275863E+03  0.00000000000E+00 0.  1.
         15    1    5    5    0    0 -0.47290371248E+02 -0.28851918966E+02 -0.44981449054E+02  0.71381376624E+02  0.17770000000E+01 0. -1.
        -16    1    5    5    0    0 -0.12778636350E+03  0.34010880192E+02 -0.21415906685E+03  0.25169465744E+03  0.00000000000E+00 0.  1.
          2    1    6    6  502    0 -0.55121380977E+02  0.18078671040E+03  0.14554892942E+03  0.23855123591E+03  0.00000000000E+00 0. -1.
         -1    1    6    6    0  502 -0.28396113085E+02  0.55289970962E+02  0.11969581633E+03  0.13487182276E+03  0.00000000000E+00 0.  1.
<mgrwt>
<rscale>  0 0.39891951E+03</rscale>
<asrwt>0</asrwt>
<pdfrwt beam="1">  1        1 0.74241864E-01 0.39891951E+03</pdfrwt>
<pdfrwt beam="2">  1       -2 0.90789258E-01 0.39891951E+03</pdfrwt>
<totfact> 0.44316971E+01</totfact>
</mgrwt>
</event>
<event>
12    3  0.1201947E-007  0.6425377E+03  0.7818608E-02  0.9820883E-01
          1   -1    0    0  501    0  0.00000000000E+00  0.00000000000E+00  0.16152074312E+04  0.16152074312E+04  0.00000000000E+00 0. -1.
         -2   -1    0    0    0  501 -0.00000000000E+00 -0.00000000000E+00 -0.30141287166E+03  0.30141287166E+03  0.00000000000E+00 0.  1.
        -24    2    1    2    0    0  0.44655818937E+02  0.51410655818E+03  0.85480127726E+03  0.10016554079E+04  0.79552732413E+02 0.  0.
    5000000    2    1    2    0    0 -0.44655818937E+02 -0.51410655818E+03  0.45899328227E+03  0.91496489495E+03  0.60015517202E+03 0.  0.
        -24    2    4    4    0    0  0.25084157086E+03 -0.17529065468E+03  0.28663491672E+03  0.42687633302E+03  0.80096946991E+02 0.  0.
         24    2    4    4    0    0 -0.29549738979E+03 -0.33881590350E+03  0.17235836555E+03  0.48808856194E+03  0.80050698197E+02 0.  0.
         13    1    3    3    0    0  0.17842563559E+02  0.34829909800E+03  0.64138294935E+03  0.73007034350E+03  0.00000000000E+00 0. -1.
        -14    1    3    3    0    0  0.26813255377E+02  0.16580746018E+03  0.21341832791E+03  0.27158506440E+03  0.00000000000E+00 0.  1.
         15    1    5    5    0    0  0.11197121013E+03 -0.42784827955E+02  0.76187512406E+02  0.14204150160E+03  0.17770000000E+01 0. -1.
        -16    1    5    5    0    0  0.13887036072E+03 -0.13250582673E+03  0.21044740431E+03  0.28483483141E+03  0.00000000000E+00 0.  1.
          4    1    6    6  502    0 -0.29685914529E+03 -0.31559708179E+03  0.16118300603E+03  0.46228436228E+03  0.00000000000E+00 0. -1.
         -3    1    6    6    0  502  0.13617554976E+01 -0.23218821703E+02  0.11175359525E+02  0.25804199655E+02  0.00000000000E+00 0.  1.
<mgrwt>
<rscale>  0 0.64253774E+03</rscale>
<asrwt>0</asrwt>
<pdfrwt beam="1">  1        1 0.24849345E+00 0.64253774E+03</pdfrwt>
<pdfrwt beam="2">  1       -2 0.46371212E-01 0.64253774E+03</pdfrwt>
<totfact> 0.22065452E+01</totfact>
</mgrwt>
</event>
<event>
12    3  0.1201947E-007  0.6056758E+03  0.7818608E-02  0.9893700E-01
          1   -1    0    0  501    0  0.00000000000E+00  0.00000000000E+00  0.11251210658E+04  0.11251210658E+04  0.00000000000E+00 0. -1.
         -2   -1    0    0    0  501 -0.00000000000E+00 -0.00000000000E+00 -0.46714206994E+03  0.46714206994E+03  0.00000000000E+00 0.  1.
        -24    2    1    2    0    0  0.85596477705E+00 -0.57871687041E+03  0.43795686102E+03  0.73011394220E+03  0.79663088722E+02 0.  0.
    5000000    2    1    2    0    0 -0.85596477705E+00  0.57871687041E+03  0.22002213481E+03  0.86214919350E+03  0.59998128577E+03 0.  0.
        -24    2    4    4    0    0  0.92103767000E+02  0.29785535853E+03  0.39249714732E+03  0.50753641087E+03  0.79613310495E+02 0.  0.
         24    2    4    4    0    0 -0.92959731777E+02  0.28086151188E+03 -0.17247501250E+03  0.35461278263E+03  0.92075485765E+02 0.  0.
         13    1    3    3    0    0 -0.18357240403E+02 -0.45128403306E+03  0.30528541941E+03  0.54515452312E+03  0.00000000000E+00 0. -1.
        -14    1    3    3    0    0  0.19213205180E+02 -0.12743283735E+03  0.13267144160E+03  0.18495941908E+03  0.00000000000E+00 0.  1.
         15    1    5    5    0    0  0.39446631147E+02  0.23842210032E+03  0.28054361001E+03  0.37028233752E+03  0.17770000000E+01 0. -1.
        -16    1    5    5    0    0  0.52657135853E+02  0.59433258217E+02  0.11195353730E+03  0.13725407336E+03  0.00000000000E+00 0.  1.
          4    1    6    6  502    0 -0.99813805122E+01  0.17478968178E+03 -0.93101713090E+02  0.19829016565E+03  0.00000000000E+00 0. -1.
         -3    1    6    6    0  502 -0.82978351265E+02  0.10607183010E+03 -0.79373299414E+02  0.15632261698E+03  0.00000000000E+00 0.  1.
<mgrwt>
<rscale>  0 0.60567575E+03</rscale>
<asrwt>0</asrwt>
<pdfrwt beam="1">  1        1 0.17309555E+00 0.60567575E+03</pdfrwt>
<pdfrwt beam="2">  1       -2 0.71868011E-01 0.60567575E+03</pdfrwt>
<totfact> 0.19492737E+01</totfact>
</mgrwt>
</event>
<event>
12    3  0.1201947E-007  0.4901425E+03  0.7818608E-02  0.1016384E+00
         -2   -1    0    0    0  501 -0.00000000000E+00  0.00000000000E+00  0.28130772335E+03  0.28130772335E+03  0.00000000000E+00 0.  1.
          1   -1    0    0  501    0  0.00000000000E+00 -0.00000000000E+00 -0.89962171876E+03  0.89962171876E+03  0.00000000000E+00 0. -1.
        -24    2    1    2    0    0 -0.51947104948E+02  0.31175520722E+03 -0.15651492859E+03  0.36040177438E+03  0.74180220817E+02 0.  0.
    5000000    2    1    2    0    0  0.51947104948E+02 -0.31175520722E+03 -0.46179906682E+03  0.82052766773E+03  0.60009787906E+03 0.  0.
        -24    2    4    4    0    0  0.26868685410E+02 -0.47968990101E+03 -0.28841432661E+03  0.56508243987E+03  0.72876694938E+02 0.  0.
         24    2    4    4    0    0  0.25078419538E+02  0.16793469379E+03 -0.17338474021E+03  0.25544522786E+03  0.79743387142E+02 0.  0.
         13    1    3    3    0    0 -0.14001199561E+02  0.25993359613E+03 -0.12912122169E+03  0.29057494365E+03  0.00000000000E+00 0. -1.
        -14    1    3    3    0    0 -0.37945905387E+02  0.51821611093E+02 -0.27393706903E+02  0.69826830730E+02  0.00000000000E+00 0.  1.
         15    1    5    5    0    0 -0.19495455965E+02 -0.49176184077E+02 -0.32217553639E+02  0.61963685939E+02  0.17770000000E+01 0. -1.
        -16    1    5    5    0    0  0.46364141376E+02 -0.43051371694E+03 -0.25619677297E+03  0.50311875393E+03  0.00000000000E+00 0.  1.
          4    1    6    6  502    0  0.49592314944E+00  0.63160676334E+01 -0.50593064620E+02  0.50988202927E+02  0.00000000000E+00 0. -1.
         -3    1    6    6    0  502  0.24582496389E+02  0.16161862616E+03 -0.12279167559E+03  0.20445702493E+03  0.00000000000E+00 0.  1.
<mgrwt>
<rscale>  0 0.49014250E+03</rscale>
<asrwt>0</asrwt>
<pdfrwt beam="1">  1        1 0.13840334E+00 0.49014250E+03</pdfrwt>
<pdfrwt beam="2">  1       -2 0.43278112E-01 0.49014250E+03</pdfrwt>
<totfact> 0.84242838E+01</totfact>
</mgrwt>
</event>
<event>
12    3  0.1201947E-007  0.8589282E+03  0.7818608E-02  0.9478432E-01
         -2   -1    0    0    0  501 -0.00000000000E+00  0.00000000000E+00  0.71677736393E+03  0.71677736393E+03  0.00000000000E+00 0.  1.
          1   -1    0    0  501    0  0.00000000000E+00 -0.00000000000E+00 -0.10392011918E+04  0.10392011918E+04  0.00000000000E+00 0. -1.
        -24    2    1    2    0    0  0.17060970966E+03  0.73518660243E+03 -0.19366573591E+03  0.78329096552E+03  0.80195423660E+02 0.  0.
    5000000    2    1    2    0    0 -0.17060970966E+03 -0.73518660243E+03 -0.12875809192E+03  0.97268759017E+03  0.59994623794E+03 0.  0.
        -24    2    4    4    0    0  0.14573721942E+03 -0.57956415928E+03 -0.76233272778E+02  0.60814099172E+03  0.83006036476E+02 0.  0.
         24    2    4    4    0    0 -0.31634692908E+03 -0.15562244315E+03 -0.52524819143E+02  0.36454659845E+03  0.76430631711E+02 0.  0.
         13    1    3    3    0    0  0.15538329789E+03  0.50715305728E+03 -0.13698668279E+03  0.54782619874E+03  0.00000000000E+00 0. -1.
        -14    1    3    3    0    0  0.15226411775E+02  0.22803354516E+03 -0.56679053114E+02  0.23546476678E+03  0.00000000000E+00 0.  1.
         15    1    5    5    0    0  0.14320966177E+03 -0.45860312628E+03 -0.41337717106E+02  0.48222173244E+03  0.17770000000E+01 0. -1.
        -16    1    5    5    0    0  0.25275576537E+01 -0.12096103300E+03 -0.34895555672E+02  0.12591925928E+03  0.00000000000E+00 0.  1.
          2    1    6    6  502    0 -0.15749094309E+03 -0.11026286296E+03 -0.37421458628E+01  0.19228962468E+03  0.00000000000E+00 0. -1.
         -1    1    6    6    0  502 -0.15885598599E+03 -0.45359580192E+02 -0.48782673281E+02  0.17225697377E+03  0.00000000000E+00 0.  1.
<mgrwt>
<rscale>  0 0.85892818E+03</rscale>
<asrwt>0</asrwt>
<pdfrwt beam="1">  1        1 0.15987711E+00 0.85892818E+03</pdfrwt>
<pdfrwt beam="2">  1       -2 0.11027344E+00 0.85892818E+03</pdfrwt>
<totfact> 0.81746743E+00</totfact>
</mgrwt>
</event>
<event>
12    3  0.1201947E-007  0.1365409E+04  0.7818608E-02  0.8979245E-01
          1   -1    0    0  501    0  0.00000000000E+00  0.00000000000E+00  0.15872269784E+04  0.15872269784E+04  0.00000000000E+00 0. -1.
         -2   -1    0    0    0  501 -0.00000000000E+00 -0.00000000000E+00 -0.12056565820E+04  0.12056565820E+04  0.00000000000E+00 0.  1.
        -24    2    1    2    0    0 -0.71541962747E+03 -0.11016960295E+04  0.85428408880E+02  0.13186948007E+04  0.78093403035E+02 0.  0.
    5000000    2    1    2    0    0  0.71541962747E+03  0.11016960295E+04  0.29614198760E+03  0.14741887597E+04  0.59997753109E+03 0.  0.
        -24    2    4    4    0    0 -0.80620397941E+02  0.15932160455E+03  0.10728129063E+03  0.22378023648E+03  0.81763663552E+02 0.  0.
         24    2    4    4    0    0  0.79604002541E+03  0.94237442491E+03  0.18886069696E+03  0.12504085233E+04  0.78127033742E+02 0.  0.
         13    1    3    3    0    0 -0.13792060061E+03 -0.16287593128E+03  0.38580346893E+01  0.21346087579E+03  0.00000000000E+00 0. -1.
        -14    1    3    3    0    0 -0.57749902685E+03 -0.93882009819E+03  0.81570374191E+02  0.11052339249E+04  0.00000000000E+00 0.  1.
         15    1    5    5    0    0 -0.35677729331E+02  0.10163464267E+03  0.19416154846E+02  0.10946527193E+03  0.17770000000E+01 0. -1.
        -16    1    5    5    0    0 -0.44942668610E+02  0.57686961883E+02  0.87865135785E+02  0.11431496455E+03  0.00000000000E+00 0.  1.
          4    1    6    6  502    0  0.15024964541E+03  0.15306452910E+03  0.77789459612E+01  0.21462576270E+03  0.00000000000E+00 0. -1.
         -3    1    6    6    0  502  0.64579038000E+03  0.78930989581E+03  0.18108175100E+03  0.10357827606E+04  0.00000000000E+00 0.  1.
<mgrwt>
<rscale>  0 0.13654093E+04</rscale>
<asrwt>0</asrwt>
<pdfrwt beam="1">  1        1 0.24418877E+00 0.13654093E+04</pdfrwt>
<pdfrwt beam="2">  1       -2 0.18548563E+00 0.13654093E+04</pdfrwt>
<totfact> 0.79463912E-01</totfact>
</mgrwt>
</event>
<event>
12    3  0.1201947E-007  0.1036822E+04  0.7818608E-02  0.9269056E-01
          1   -1    0    0  501    0  0.00000000000E+00  0.00000000000E+00  0.12954309870E+04  0.12954309870E+04  0.00000000000E+00 0. -1.
         -2   -1    0    0    0  501 -0.00000000000E+00 -0.00000000000E+00 -0.93075600101E+03  0.93075600101E+03  0.00000000000E+00 0.  1.
        -24    2    1    2    0    0 -0.60113026078E+03  0.80533916586E+03  0.30893357301E+03  0.10545670541E+04  0.82115507924E+02 0.  0.
    5000000    2    1    2    0    0  0.60113026078E+03 -0.80533916586E+03  0.55741412963E+02  0.11716199339E+04  0.59971443356E+03 0.  0.
        -24    2    4    4    0    0  0.43588771894E+03 -0.29884049685E+03 -0.20454080176E+03  0.57248817652E+03  0.81252855906E+02 0.  0.
         24    2    4    4    0    0  0.16524254184E+03 -0.50649866901E+03  0.26028221472E+03  0.59913175734E+03  0.85825590671E+02 0.  0.
         13    1    3    3    0    0 -0.42974966573E+03  0.56589088914E+03  0.17938169900E+03  0.73286770125E+03  0.00000000000E+00 0. -1.
        -14    1    3    3    0    0 -0.17138059506E+03  0.23944827672E+03  0.12955187402E+03  0.32169935288E+03  0.00000000000E+00 0.  1.
         15    1    5    5    0    0  0.31496499935E+03 -0.22898988603E+03 -0.11287076058E+03  0.40544085271E+03  0.17770000000E+01 0. -1.
        -16    1    5    5    0    0  0.12092271959E+03 -0.69850610820E+02 -0.91670041174E+02  0.16704732382E+03  0.00000000000E+00 0.  1.
          2    1    6    6  502    0  0.89072760379E+02 -0.39225093019E+03  0.18919592863E+03  0.44451079659E+03  0.00000000000E+00 0. -1.
         -1    1    6    6    0  502  0.76169781458E+02 -0.11424773881E+03  0.71086286094E+02  0.15462096075E+03  0.00000000000E+00 0.  1.
<mgrwt>
<rscale>  0 0.10368222E+04</rscale>
<asrwt>0</asrwt>
<pdfrwt beam="1">  1        1 0.19929708E+00 0.10368222E+04</pdfrwt>
<pdfrwt beam="2">  1       -2 0.14319323E+00 0.10368222E+04</pdfrwt>
<totfact> 0.26876764E+00</totfact>
</mgrwt>
</event>
<event>
12    3  0.1201947E-007  0.6540124E+03  0.7818608E-02  0.9799279E-01
         -2   -1    0    0    0  501 -0.00000000000E+00  0.00000000000E+00  0.37525284033E+03  0.37525284033E+03  0.00000000000E+00 0.  1.
          1   -1    0    0  501    0  0.00000000000E+00 -0.00000000000E+00 -0.11786277344E+04  0.11786277344E+04  0.00000000000E+00 0. -1.
        -24    2    1    2    0    0  0.24992330944E+02 -0.52214955466E+03 -0.25186499173E+03  0.58568065896E+03  0.79505258880E+02 0.  0.
    5000000    2    1    2    0    0 -0.24992330944E+02  0.52214955466E+03 -0.55150990238E+03  0.96819991580E+03  0.59998594192E+03 0.  0.
        -24    2    4    4    0    0  0.22506046616E+03  0.47013399120E+03 -0.38159512348E+03  0.65106511138E+03  0.81195799706E+02 0.  0.
         24    2    4    4    0    0 -0.25005279710E+03  0.52015563458E+02 -0.16991477890E+03  0.31713480442E+03  0.80445210572E+02 0.  0.
         13    1    3    3    0    0  0.31914628629E+02 -0.41097226783E+03 -0.23043041678E+03  0.47224456103E+03  0.00000000000E+00 0. -1.
        -14    1    3    3    0    0 -0.69222976846E+01 -0.11117728682E+03 -0.21434574959E+02  0.11343609793E+03  0.00000000000E+00 0.  1.
         15    1    5    5    0    0  0.37692825854E+02  0.16568176435E+03 -0.11701071857E+03  0.20631495862E+03  0.17770000000E+01 0. -1.
        -16    1    5    5    0    0  0.18736764031E+03  0.30445222685E+03 -0.26458440491E+03  0.44475015277E+03  0.00000000000E+00 0.  1.
          2    1    6    6  502    0 -0.98284064006E+02  0.62125710369E+01 -0.23296369228E+02  0.10119819216E+03  0.00000000000E+00 0. -1.
         -1    1    6    6    0  502 -0.15176873310E+03  0.45802992421E+02 -0.14661840967E+03  0.21593661226E+03  0.00000000000E+00 0.  1.
<mgrwt>
<rscale>  0 0.65401240E+03</rscale>
<asrwt>0</asrwt>
<pdfrwt beam="1">  1        1 0.18132734E+00 0.65401240E+03</pdfrwt>
<pdfrwt beam="2">  1       -2 0.57731207E-01 0.65401240E+03</pdfrwt>
<totfact> 0.28285677E+01</totfact>
</mgrwt>
</event>
<event>
12    3  0.1201947E-007  0.8468379E+03  0.7818608E-02  0.9494591E-01
         -2   -1    0    0    0  501 -0.00000000000E+00  0.00000000000E+00  0.41052139236E+03  0.41052139236E+03  0.00000000000E+00 0.  1.
          1   -1    0    0  501    0  0.00000000000E+00 -0.00000000000E+00 -0.19149384149E+04  0.19149384149E+04  0.00000000000E+00 0. -1.
        -24    2    1    2    0    0 -0.64613774056E+03  0.41384537549E+03 -0.46408991118E+03  0.90033248602E+03  0.80356487793E+02 0.  0.
    5000000    2    1    2    0    0  0.64613774056E+03 -0.41384537549E+03 -0.10403271113E+04  0.14251273212E+04  0.59995450537E+03 0.  0.
        -24    2    4    4    0    0  0.34764515576E+02 -0.28721527259E+03 -0.15131379366E+03  0.33581680958E+03  0.78586774274E+02 0.  0.
         24    2    4    4    0    0  0.61137322498E+03 -0.12663010290E+03 -0.88901331767E+03  0.10893105116E+04  0.80251533211E+02 0.  0.
         11    1    3    3    0    0 -0.34672083186E+03  0.17950024171E+03 -0.21394869640E+03  0.44520749849E+03  0.00000000000E+00 0. -1.
        -12    1    3    3    0    0 -0.29941690870E+03  0.23434513378E+03 -0.25014121478E+03  0.45512498753E+03  0.00000000000E+00 0.  1.
         15    1    5    5    0    0 -0.21815118286E+02 -0.46802958507E+02 -0.15425104703E+02  0.53921312066E+02  0.17770000000E+01 0. -1.
        -16    1    5    5    0    0  0.56579633862E+02 -0.24041231408E+03 -0.13588868896E+03  0.28189549751E+03  0.00000000000E+00 0.  1.
          2    1    6    6  502    0  0.26937351858E+03 -0.52868080625E+02 -0.46048878445E+03  0.53610357867E+03  0.00000000000E+00 0. -1.
         -1    1    6    6    0  502  0.34199970640E+03 -0.73762022273E+02 -0.42852453322E+03  0.55320693297E+03  0.00000000000E+00 0.  1.
<mgrwt>
<rscale>  0 0.84683794E+03</rscale>
<asrwt>0</asrwt>
<pdfrwt beam="1">  1        1 0.29460590E+00 0.84683794E+03</pdfrwt>
<pdfrwt beam="2">  1       -2 0.63157139E-01 0.84683794E+03</pdfrwt>
<totfact> 0.71234023E+00</totfact>
</mgrwt>
</event>
<event>
12    3  0.1201947E-007  0.1094288E+04  0.7818608E-02  0.9210777E-01
         -2   -1    0    0    0  501 -0.00000000000E+00  0.00000000000E+00  0.64291514950E+03  0.64291514950E+03  0.00000000000E+00 0.  1.
          1   -1    0    0  501    0  0.00000000000E+00 -0.00000000000E+00 -0.19912295364E+04  0.19912295364E+04  0.00000000000E+00 0. -1.
        -24    2    1    2    0    0 -0.99545266512E+03  0.29158602017E+03 -0.81886928161E+03  0.13240363884E+04  0.81098963199E+02 0.  0.
    5000000    2    1    2    0    0  0.99545266512E+03 -0.29158602017E+03 -0.52944510525E+03  0.13101082974E+04  0.60010267115E+03 0.  0.
        -24    2    4    4    0    0  0.50026325324E+03 -0.39914694510E+03 -0.12422917297E+03  0.65662028652E+03  0.78330753401E+02 0.  0.
         24    2    4    4    0    0  0.49518941187E+03  0.10756092493E+03 -0.40521593228E+03  0.65348801092E+03  0.77876327863E+02 0.  0.
         13    1    3    3    0    0 -0.33162003883E+03  0.12442260514E+03 -0.31546390834E+03  0.47431035440E+03  0.00000000000E+00 0. -1.
        -14    1    3    3    0    0 -0.66383262629E+03  0.16716341504E+03 -0.50340537327E+03  0.84972603402E+03  0.00000000000E+00 0.  1.
         15    1    5    5    0    0  0.44500099247E+03 -0.37418732467E+03 -0.12979455172E+03  0.59572797536E+03  0.17770000000E+01 0. -1.
        -16    1    5    5    0    0  0.55262260777E+02 -0.24959620433E+02  0.55653787546E+01  0.60892311165E+02  0.00000000000E+00 0.  1.
          4    1    6    6  502    0  0.24445102862E+03  0.69684330157E+02 -0.24797270481E+03  0.35510938257E+03  0.00000000000E+00 0. -1.
         -3    1    6    6    0  502  0.25073838326E+03  0.37876594775E+02 -0.15724322747E+03  0.29837862835E+03  0.00000000000E+00 0.  1.
<mgrwt>
<rscale>  0 0.10942880E+04</rscale>
<asrwt>0</asrwt>
<pdfrwt beam="1">  1        1 0.30634300E+00 0.10942880E+04</pdfrwt>
<pdfrwt beam="2">  1       -2 0.98910024E-01 0.10942880E+04</pdfrwt>
<totfact> 0.22351041E+00</totfact>
</mgrwt>
</event>
<event>
12    3  0.1201947E-007  0.9317851E+03  0.7818608E-02  0.9386698E-01
          1   -1    0    0  501    0  0.00000000000E+00  0.00000000000E+00  0.20661757566E+04  0.20661757566E+04  0.00000000000E+00 0. -1.
         -2   -1    0    0    0  501 -0.00000000000E+00 -0.00000000000E+00 -0.52090901817E+03  0.52090901817E+03  0.00000000000E+00 0.  1.
        -24    2    1    2    0    0  0.66981127792E+03 -0.58290536413E+03  0.29105319860E+03  0.93741735769E+03  0.74923471048E+02 0.  0.
    5000000    2    1    2    0    0 -0.66981127792E+03  0.58290536413E+03  0.12542135398E+04  0.16496674171E+04  0.59993764001E+03 0.  0.
        -24    2    4    4    0    0 -0.29457045570E+02  0.22638938976E+03  0.65390687471E+02  0.25072727170E+03  0.80426049503E+02 0.  0.
         24    2    4    4    0    0 -0.64035423235E+03  0.35651597437E+03  0.11888228523E+04  0.13989401454E+04  0.81096073703E+02 0.  0.
         13    1    3    3    0    0  0.16397724744E+03 -0.18247751573E+03  0.64710359596E+02  0.25372034224E+03  0.00000000000E+00 0. -1.
        -14    1    3    3    0    0  0.50583403048E+03 -0.40042784840E+03  0.22634283901E+03  0.68369701545E+03  0.00000000000E+00 0.  1.
         15    1    5    5    0    0  0.25143666197E+02  0.76130162752E+02  0.37144335201E+02  0.88379098191E+02  0.17770000000E+01 0. -1.
        -16    1    5    5    0    0 -0.54600711768E+02  0.15025922701E+03  0.28246352270E+02  0.16234817351E+03  0.00000000000E+00 0.  1.
          2    1    6    6  502    0 -0.46767143504E+03  0.25359523035E+03  0.92745321580E+03  0.10692037128E+04  0.00000000000E+00 0. -1.
         -1    1    6    6    0  502 -0.17268279731E+03  0.10292074402E+03  0.26136963655E+03  0.32973643254E+03  0.00000000000E+00 0.  1.
<mgrwt>
<rscale>  0 0.93178514E+03</rscale>
<asrwt>0</asrwt>
<pdfrwt beam="1">  1        1 0.31787319E+00 0.93178514E+03</pdfrwt>
<pdfrwt beam="2">  1       -2 0.80139850E-01 0.93178514E+03</pdfrwt>
<totfact> 0.33039683E+00</totfact>
</mgrwt>
</event>
<event>
12    3  0.1201947E-007  0.9219212E+03  0.7818608E-02  0.9398586E-01
         -2   -1    0    0    0  501 -0.00000000000E+00  0.00000000000E+00  0.20813508683E+04  0.20813508683E+04  0.00000000000E+00 0.  1.
          1   -1    0    0  501    0  0.00000000000E+00 -0.00000000000E+00 -0.42500838046E+03  0.42500838046E+03  0.00000000000E+00 0. -1.
        -24    2    1    2    0    0  0.18716366728E+03  0.81577972648E+03  0.87765233047E+03  0.12153954893E+04  0.79911087082E+02 0.  0.
    5000000    2    1    2    0    0 -0.18716366728E+03 -0.81577972648E+03  0.77869015733E+03  0.12909637594E+04  0.59975183738E+03 0.  0.
        -24    2    4    4    0    0 -0.22368122686E+03 -0.87501855631E+03  0.60496946208E+03  0.10899167995E+04  0.78992497504E+02 0.  0.
         24    2    4    4    0    0  0.36517559576E+02  0.59238829838E+02  0.17372069525E+03  0.20104695987E+03  0.73472641160E+02 0.  0.
         11    1    3    3    0    0  0.15714373634E+03  0.51332720494E+03  0.55969477149E+03  0.77553672410E+03  0.00000000000E+00 0. -1.
        -12    1    3    3    0    0  0.30019930939E+02  0.30245252154E+03  0.31795755898E+03  0.43985876524E+03  0.00000000000E+00 0.  1.
         15    1    5    5    0    0 -0.14306493552E+03 -0.60659992317E+03  0.45818000953E+03  0.77353934705E+03  0.17770000000E+01 0. -1.
        -16    1    5    5    0    0 -0.80616291342E+02 -0.26841863314E+03  0.14678945255E+03  0.31637745246E+03  0.00000000000E+00 0.  1.
          2    1    6    6  502    0 -0.21582863192E+02  0.12153714929E+02  0.28940884221E+02  0.38093405593E+02  0.00000000000E+00 0. -1.
         -1    1    6    6    0  502  0.58100422768E+02  0.47085114908E+02  0.14477981103E+03  0.16295355428E+03  0.00000000000E+00 0.  1.
<mgrwt>
<rscale>  0 0.92192117E+03</rscale>
<asrwt>0</asrwt>
<pdfrwt beam="1">  1        1 0.65385906E-01 0.92192117E+03</pdfrwt>
<pdfrwt beam="2">  1       -2 0.32020782E+00 0.92192117E+03</pdfrwt>
<totfact> 0.11836458E+00</totfact>
</mgrwt>
</event>
<event>
12    3  0.1201947E-007  0.4285372E+03  0.7818608E-02  0.1034323E+00
         -2   -1    0    0    0  501 -0.00000000000E+00  0.00000000000E+00  0.35091758408E+03  0.35091758408E+03  0.00000000000E+00 0.  1.
          1   -1    0    0  501    0  0.00000000000E+00 -0.00000000000E+00 -0.59921296153E+03  0.59921296153E+03  0.00000000000E+00 0. -1.
        -24    2    1    2    0    0 -0.10500357182E+03  0.21605137169E+03  0.12447221786E+02  0.25310665082E+03  0.78766097129E+02 0.  0.
    5000000    2    1    2    0    0  0.10500357182E+03 -0.21605137169E+03 -0.26074259923E+03  0.69702389479E+03  0.60012637131E+03 0.  0.
        -24    2    4    4    0    0 -0.53040611908E+02 -0.37579865730E+03 -0.24439606111E+03  0.45833598540E+03  0.79400903547E+02 0.  0.
         24    2    4    4    0    0  0.15804418372E+03  0.15974728561E+03 -0.16346538119E+02  0.23868790939E+03  0.78788003582E+02 0.  0.
         13    1    3    3    0    0 -0.96973494006E+02  0.17004204319E+03 -0.19199967641E+02  0.19668958729E+03  0.00000000000E+00 0. -1.
        -14    1    3    3    0    0 -0.80300778100E+01  0.46009328500E+02  0.31647189427E+02  0.56417063529E+02  0.00000000000E+00 0.  1.
         15    1    5    5    0    0 -0.27758278061E+02 -0.42435402542E+02 -0.51789656161E+02  0.72502493778E+02  0.17770000000E+01 0. -1.
        -16    1    5    5    0    0 -0.25282333847E+02 -0.33336325476E+03 -0.19260640495E+03  0.38583349162E+03  0.00000000000E+00 0.  1.
          2    1    6    6  502    0  0.18729151268E+01  0.19708230248E+02 -0.21017572753E+02  0.28873179856E+02  0.00000000000E+00 0. -1.
         -1    1    6    6    0  502  0.15617126860E+03  0.14003905537E+03  0.46710346344E+01  0.20981472953E+03  0.00000000000E+00 0.  1.
<mgrwt>
<rscale>  0 0.42853719E+03</rscale>
<asrwt>0</asrwt>
<pdfrwt beam="1">  1        1 0.92186609E-01 0.42853719E+03</pdfrwt>
<pdfrwt beam="2">  1       -2 0.53987321E-01 0.42853719E+03</pdfrwt>
<totfact> 0.10109054E+02</totfact>
</mgrwt>
</event>
<event>
12    3  0.1201947E-007  0.6487259E+03  0.7818608E-02  0.9809173E-01
          1   -1    0    0  501    0  0.00000000000E+00  0.00000000000E+00  0.18954048088E+04  0.18954048088E+04  0.00000000000E+00 0. -1.
         -2   -1    0    0    0  501 -0.00000000000E+00 -0.00000000000E+00 -0.29305264537E+03  0.29305264537E+03  0.00000000000E+00 0.  1.
        -24    2    1    2    0    0  0.60854868720E+03 -0.10115316821E+03  0.56350175282E+03  0.83950399212E+03  0.81665532685E+02 0.  0.
    5000000    2    1    2    0    0 -0.60854868720E+03  0.10115316821E+03  0.10388504106E+04  0.13489534620E+04  0.59991816027E+03 0.  0.
        -24    2    4    4    0    0 -0.34602489881E+02  0.55773846477E+02  0.63111680422E+03  0.63915788456E+03  0.76852628934E+02 0.  0.
         24    2    4    4    0    0 -0.57394619731E+03  0.45379321729E+02  0.40773360638E+03  0.70979557748E+03  0.78035554597E+02 0.  0.
         13    1    3    3    0    0  0.26741128095E+03 -0.23449068679E+02  0.29203087989E+03  0.39666193012E+03  0.00000000000E+00 0. -1.
        -14    1    3    3    0    0  0.34113740624E+03 -0.77704099527E+02  0.27147087294E+03  0.44284206200E+03  0.00000000000E+00 0.  1.
         15    1    5    5    0    0 -0.17431346048E+02  0.73758453635E+02  0.49822431200E+03  0.50395910956E+03  0.17770000000E+01 0. -1.
        -16    1    5    5    0    0 -0.17171143832E+02 -0.17984607157E+02  0.13289249221E+03  0.13519877500E+03  0.00000000000E+00 0.  1.
          4    1    6    6  502    0 -0.10338546283E+03 -0.13378942282E+02  0.10017217586E+03  0.14457529124E+03  0.00000000000E+00 0. -1.
         -3    1    6    6    0  502 -0.47056073448E+03  0.58758264011E+02  0.30756143052E+03  0.56522028623E+03  0.00000000000E+00 0.  1.
<mgrwt>
<rscale>  0 0.64872592E+03</rscale>
<asrwt>0</asrwt>
<pdfrwt beam="1">  1        1 0.29160073E+00 0.64872592E+03</pdfrwt>
<pdfrwt beam="2">  1       -2 0.45085023E-01 0.64872592E+03</pdfrwt>
<totfact> 0.15143604E+01</totfact>
</mgrwt>
</event>
<event>
12    3  0.1201947E-007  0.6780486E+03  0.7818608E-02  0.9755526E-01
         -2   -1    0    0    0  501 -0.00000000000E+00  0.00000000000E+00  0.11473791453E+04  0.11473791453E+04  0.00000000000E+00 0.  1.
          1   -1    0    0  501    0  0.00000000000E+00 -0.00000000000E+00 -0.54581033884E+03  0.54581033884E+03  0.00000000000E+00 0. -1.
        -24    2    1    2    0    0 -0.62738712151E+03  0.75873243641E+02  0.37845440420E+01  0.63629759628E+03  0.74087508506E+02 0.  0.
    5000000    2    1    2    0    0  0.62738712151E+03 -0.75873243641E+02  0.59778426246E+03  0.10568918879E+04  0.60025252098E+03 0.  0.
        -24    2    4    4    0    0  0.13572622507E+03  0.12574363546E+03  0.46104316051E+03  0.50305731444E+03  0.79200983124E+02 0.  0.
         24    2    4    4    0    0  0.49166089644E+03 -0.20161687910E+03  0.13674110195E+03  0.55383457347E+03  0.75198422773E+02 0.  0.
         11    1    3    3    0    0 -0.13429097541E+03  0.22775224644E+00  0.26646337329E+02  0.13690925915E+03  0.00000000000E+00 0. -1.
        -12    1    3    3    0    0 -0.49309614610E+03  0.75645491395E+02 -0.22861793287E+02  0.49938833713E+03  0.00000000000E+00 0.  1.
         15    1    5    5    0    0  0.59404085211E+02  0.40823588774E+02  0.27904107893E+03  0.28820564221E+03  0.17770000000E+01 0. -1.
        -16    1    5    5    0    0  0.76322139864E+02  0.84920046685E+02  0.18200208158E+03  0.21485167223E+03  0.00000000000E+00 0.  1.
          4    1    6    6  502    0  0.30678770718E+03 -0.86000088949E+02  0.83852731500E+02  0.32946318938E+03  0.00000000000E+00 0. -1.
         -3    1    6    6    0  502  0.18487318925E+03 -0.11561679015E+03  0.52888370454E+02  0.22437138409E+03  0.00000000000E+00 0.  1.
<mgrwt>
<rscale>  0 0.67804856E+03</rscale>
<asrwt>0</asrwt>
<pdfrwt beam="1">  1        1 0.83970822E-01 0.67804856E+03</pdfrwt>
<pdfrwt beam="2">  1       -2 0.17651987E+00 0.67804856E+03</pdfrwt>
<totfact> 0.67864471E+00</totfact>
</mgrwt>
</event>
<event>
12    3  0.1201947E-007  0.4903234E+03  0.7818608E-02  0.1016336E+00
         -2   -1    0    0    0  501 -0.00000000000E+00  0.00000000000E+00  0.21899965473E+03  0.21899965473E+03  0.00000000000E+00 0.  1.
          1   -1    0    0  501    0  0.00000000000E+00 -0.00000000000E+00 -0.13795517500E+04  0.13795517500E+04  0.00000000000E+00 0. -1.
        -24    2    1    2    0    0  0.76174869338E+02 -0.34949244116E+03 -0.22524283593E+03  0.43107900484E+03  0.84541091398E+02 0.  0.
    5000000    2    1    2    0    0 -0.76174869338E+02  0.34949244116E+03 -0.93530925937E+03  0.11674723999E+04  0.60020064706E+03 0.  0.
        -24    2    4    4    0    0 -0.10969579576E+03  0.46903416732E+03 -0.88687845486E+03  0.10123642193E+04  0.79383254952E+02 0.  0.
         24    2    4    4    0    0  0.33520926420E+02 -0.11954172616E+03 -0.48430804508E+02  0.15510818057E+03  0.79367046398E+02 0.  0.
         11    1    3    3    0    0  0.19120474401E+02 -0.25155572495E+03 -0.13456159129E+03  0.28592428569E+03  0.00000000000E+00 0. -1.
        -12    1    3    3    0    0  0.57054394938E+02 -0.97936716203E+02 -0.90681244641E+02  0.14515471915E+03  0.00000000000E+00 0.  1.
         15    1    5    5    0    0 -0.37376113517E+02  0.10553438152E+03 -0.14639199390E+03  0.18430478332E+03  0.17770000000E+01 0. -1.
        -16    1    5    5    0    0 -0.72319682241E+02  0.36349978579E+03 -0.74048646095E+03  0.82805943601E+03  0.00000000000E+00 0.  1.
          2    1    6    6  502    0  0.26063189385E+02 -0.20646593640E+02  0.15939884316E+02  0.36873453620E+02  0.00000000000E+00 0. -1.
         -1    1    6    6    0  502  0.74577370353E+01 -0.98895132523E+02 -0.64370688824E+02  0.11823472696E+03  0.00000000000E+00 0.  1.
<mgrwt>
<rscale>  0 0.49032343E+03</rscale>
<asrwt>0</asrwt>
<pdfrwt beam="1">  1        1 0.21223873E+00 0.49032343E+03</pdfrwt>
<pdfrwt beam="2">  1       -2 0.33692254E-01 0.49032343E+03</pdfrwt>
<totfact> 0.60595422E+01</totfact>
</mgrwt>
</event>
<event>
12    3  0.1201947E-007  0.1029311E+04  0.7818608E-02  0.9276969E-01
         -2   -1    0    0    0  501 -0.00000000000E+00  0.00000000000E+00  0.87194918352E+03  0.87194918352E+03  0.00000000000E+00 0.  1.
          1   -1    0    0  501    0  0.00000000000E+00 -0.00000000000E+00 -0.17873131475E+04  0.17873131475E+04  0.00000000000E+00 0. -1.
        -24    2    1    2    0    0 -0.94436083604E+03 -0.57695772447E+02  0.31000979470E+03  0.99897389400E+03  0.81832617483E+02 0.  0.
    5000000    2    1    2    0    0  0.94436083604E+03  0.57695772447E+02 -0.12253737587E+04  0.16602884370E+04  0.59989220266E+03 0.  0.
        -24    2    4    4    0    0  0.10880074743E+03  0.22250012396E+03 -0.34903589908E+03  0.43563359468E+03  0.81281376446E+02 0.  0.
         24    2    4    4    0    0  0.83556008861E+03 -0.16480435152E+03 -0.87633785961E+03  0.12246548423E+04  0.80562415187E+02 0.  0.
         13    1    3    3    0    0 -0.37901558034E+03 -0.96361136816E+01  0.84653839436E+02  0.38847385672E+03  0.00000000000E+00 0. -1.
        -14    1    3    3    0    0 -0.56534525570E+03 -0.48059658765E+02  0.22535595527E+03  0.61050003728E+03  0.00000000000E+00 0.  1.
         15    1    5    5    0    0  0.82140310068E+02  0.80092829692E+02 -0.17384543408E+03  0.20829614635E+03  0.17770000000E+01 0. -1.
        -16    1    5    5    0    0  0.26660437360E+02  0.14240729427E+03 -0.17519046500E+03  0.22733744832E+03  0.00000000000E+00 0.  1.
          2    1    6    6  502    0  0.74681859034E+03 -0.13540353854E+03 -0.80994537278E+03  0.11099926270E+04  0.00000000000E+00 0. -1.
         -1    1    6    6    0  502  0.88741498273E+02 -0.29400812971E+02 -0.66392486833E+02  0.11466221534E+03  0.00000000000E+00 0.  1.
<mgrwt>
<rscale>  0 0.10293110E+04</rscale>
<asrwt>0</asrwt>
<pdfrwt beam="1">  1        1 0.27497125E+00 0.10293110E+04</pdfrwt>
<pdfrwt beam="2">  1       -2 0.13414603E+00 0.10293110E+04</pdfrwt>
<totfact> 0.14585268E+00</totfact>
</mgrwt>
</event>
<event>
12    3  0.1201947E-007  0.1610791E+04  0.7818608E-02  0.8813946E-01
          1   -1    0    0  501    0  0.00000000000E+00  0.00000000000E+00  0.18308143369E+04  0.18308143369E+04  0.00000000000E+00 0. -1.
         -2   -1    0    0    0  501 -0.00000000000E+00 -0.00000000000E+00 -0.18095196531E+04  0.18095196531E+04  0.00000000000E+00 0.  1.
        -24    2    1    2    0    0 -0.11562131589E+04  0.11181028847E+04 -0.72797466733E+03  0.17672744672E+04  0.79554990539E+02 0.  0.
    5000000    2    1    2    0    0  0.11562131589E+04 -0.11181028847E+04  0.74926935110E+03  0.18730595228E+04  0.59997040429E+03 0.  0.
        -24    2    4    4    0    0  0.66491667652E+03 -0.62308163778E+03  0.73444602849E+03  0.11730995941E+04  0.80042331031E+02 0.  0.
         24    2    4    4    0    0  0.49129648234E+03 -0.49502124692E+03  0.14823322608E+02  0.69995992876E+03  0.57496978330E+02 0.  0.
         13    1    3    3    0    0 -0.53611855116E+03  0.48282798864E+03 -0.29333507194E+03  0.77883979864E+03  0.00000000000E+00 0. -1.
        -14    1    3    3    0    0 -0.62009460770E+03  0.63527489607E+03 -0.43463959540E+03  0.98843466853E+03  0.00000000000E+00 0.  1.
         15    1    5    5    0    0  0.39084180867E+03 -0.31286665237E+03  0.41262659253E+03  0.64877324557E+03  0.17770000000E+01 0. -1.
        -16    1    5    5    0    0  0.27407486785E+03 -0.31021498541E+03  0.32181943596E+03  0.52432634849E+03  0.00000000000E+00 0.  1.
          2    1    6    6  502    0  0.36477320001E+03 -0.35417109590E+03 -0.13010769007E+02  0.50859210840E+03  0.00000000000E+00 0. -1.
         -1    1    6    6    0  502  0.12652328233E+03 -0.14085015102E+03  0.27834091615E+02  0.19136782036E+03  0.00000000000E+00 0.  1.
<mgrwt>
<rscale>  0 0.16107914E+04</rscale>
<asrwt>0</asrwt>
<pdfrwt beam="1">  1        1 0.28166374E+00 0.16107914E+04</pdfrwt>
<pdfrwt beam="2">  1       -2 0.27838764E+00 0.16107914E+04</pdfrwt>
<totfact> 0.13621119E-01</totfact>
</mgrwt>
</event>
<event>
12    3  0.1201947E-007  0.1909555E+04  0.7818608E-02  0.8650115E-01
          1   -1    0    0  501    0  0.00000000000E+00  0.00000000000E+00  0.23944188099E+04  0.23944188099E+04  0.00000000000E+00 0. -1.
         -2   -1    0    0    0  501 -0.00000000000E+00 -0.00000000000E+00 -0.17231960064E+04  0.17231960064E+04  0.00000000000E+00 0.  1.
        -24    2    1    2    0    0  0.18850714554E+04  0.31227851051E+02 -0.30493279592E+03  0.19114243086E+04  0.78034010376E+02 0.  0.
    5000000    2    1    2    0    0 -0.18850714554E+04 -0.31227851051E+02  0.97615559943E+03  0.22061905078E+04  0.59993935660E+03 0.  0.
        -24    2    4    4    0    0 -0.24412572902E+03 -0.13961447423E+03  0.31837485953E+00  0.29218215585E+03  0.79251106309E+02 0.  0.
         24    2    4    4    0    0 -0.16409457264E+04  0.10838662318E+03  0.97583722457E+03  0.19140083519E+04  0.81970392953E+02 0.  0.
         13    1    3    3    0    0  0.40047970289E+03  0.28317270423E+02 -0.88753770036E+02  0.41117282488E+03  0.00000000000E+00 0. -1.
        -14    1    3    3    0    0  0.14845917525E+04  0.29105806280E+01 -0.21617902589E+03  0.15002514837E+04  0.00000000000E+00 0.  1.
         15    1    5    5    0    0 -0.48125624615E+02 -0.17342526028E+01 -0.18922552250E+02  0.51771653338E+02  0.17770000000E+01 0. -1.
        -16    1    5    5    0    0 -0.19600010440E+03 -0.13788022162E+03  0.19240927110E+02  0.24041050251E+03  0.00000000000E+00 0.  1.
          2    1    6    6  502    0 -0.23131991550E+03  0.31868412810E+02  0.16621359530E+03  0.28662075693E+03  0.00000000000E+00 0. -1.
         -1    1    6    6    0  502 -0.14096258109E+04  0.76518210367E+02  0.80962362927E+03  0.16273875950E+04  0.00000000000E+00 0.  1.
<mgrwt>
<rscale>  0 0.19095545E+04</rscale>
<asrwt>0</asrwt>
<pdfrwt beam="1">  1        1 0.36837213E+00 0.19095545E+04</pdfrwt>
<pdfrwt beam="2">  1       -2 0.26510708E+00 0.19095545E+04</pdfrwt>
<totfact> 0.65500394E-02</totfact>
</mgrwt>
</event>
<event>
12    3  0.1201947E-007  0.1134008E+04  0.7818608E-02  0.9172665E-01
          1   -1    0    0  501    0  0.00000000000E+00  0.00000000000E+00  0.11744880758E+04  0.11744880758E+04  0.00000000000E+00 0. -1.
         -2   -1    0    0    0  501 -0.00000000000E+00 -0.00000000000E+00 -0.14951989465E+04  0.14951989465E+04  0.00000000000E+00 0.  1.
        -24    2    1    2    0    0  0.10211114187E+04 -0.48463726053E+03  0.39921593822E+03  0.12014470583E+04  0.80992993540E+02 0.  0.
    5000000    2    1    2    0    0 -0.10211114187E+04  0.48463726053E+03 -0.71992680895E+03  0.14682399640E+04  0.59991014153E+03 0.  0.
        -24    2    4    4    0    0 -0.68427139404E+03  0.36397348801E+03 -0.77360228100E+03  0.10972700976E+04  0.69549530161E+02 0.  0.
         24    2    4    4    0    0 -0.33684002462E+03  0.12066377251E+03  0.53675472051E+02  0.37096986640E+03  0.81955093149E+02 0.  0.
         13    1    3    3    0    0  0.15934234033E+03 -0.45330716247E+02  0.67067904219E+02  0.17872593274E+03  0.00000000000E+00 0. -1.
        -14    1    3    3    0    0  0.86176907833E+03 -0.43930654428E+03  0.33214803400E+03  0.10227211256E+04  0.00000000000E+00 0.  1.
         15    1    5    5    0    0 -0.38258065520E+03  0.17275448793E+03 -0.38752034210E+03  0.57130311053E+03  0.17770000000E+01 0. -1.
        -16    1    5    5    0    0 -0.30169073884E+03  0.19121900008E+03 -0.38608193891E+03  0.52596698703E+03  0.00000000000E+00 0.  1.
          4    1    6    6  502    0 -0.19468687099E+03  0.62006173273E+02 -0.99096965567E+01  0.20456281516E+03  0.00000000000E+00 0. -1.
         -3    1    6    6    0  502 -0.14215315363E+03  0.58657599239E+02  0.63585168607E+02  0.16640705124E+03  0.00000000000E+00 0.  1.
<mgrwt>
<rscale>  0 0.11340082E+04</rscale>
<asrwt>0</asrwt>
<pdfrwt beam="1">  1        1 0.18069047E+00 0.11340082E+04</pdfrwt>
<pdfrwt beam="2">  1       -2 0.23003061E+00 0.11340082E+04</pdfrwt>
<totfact> 0.82157950E-01</totfact>
</mgrwt>
</event>
<event>
12    3  0.1201947E-007  0.6782710E+03  0.7818608E-02  0.9755131E-01
          1   -1    0    0  501    0  0.00000000000E+00  0.00000000000E+00  0.28047506057E+04  0.28047506057E+04  0.00000000000E+00 0. -1.
         -2   -1    0    0    0  501 -0.00000000000E+00 -0.00000000000E+00 -0.18719930240E+03  0.18719930240E+03  0.00000000000E+00 0.  1.
        -24    2    1    2    0    0  0.23488208977E+03  0.50336931267E+03  0.15421940033E+04  0.16411625371E+04  0.80634163278E+02 0.  0.
    5000000    2    1    2    0    0 -0.23488208977E+03 -0.50336931267E+03  0.10753573000E+04  0.13507873710E+04  0.59973572348E+03 0.  0.
        -24    2    4    4    0    0  0.10394935336E+03  0.68648692231E+02  0.19810823667E+03  0.24682489521E+03  0.78470022630E+02 0.  0.
         24    2    4    4    0    0 -0.33883144312E+03 -0.57201800490E+03  0.87724906333E+03  0.11039624758E+04  0.84592458916E+02 0.  0.
         11    1    3    3    0    0  0.65382567051E+02  0.17772274638E+03  0.63066603480E+03  0.65848303100E+03  0.00000000000E+00 0. -1.
        -12    1    3    3    0    0  0.16949952271E+03  0.32564656628E+03  0.91152796848E+03  0.98267950607E+03  0.00000000000E+00 0.  1.
         15    1    5    5    0    0  0.47867396287E+02  0.62577788775E+02  0.64638821115E+02  0.10192449264E+03  0.17770000000E+01 0. -1.
        -16    1    5    5    0    0  0.56081957068E+02  0.60709034557E+01  0.13346941556E+03  0.14490040258E+03  0.00000000000E+00 0.  1.
          2    1    6    6  502    0 -0.13049242751E+03 -0.21947402006E+03  0.27073584517E+03  0.37214918645E+03  0.00000000000E+00 0. -1.
         -3    1    6    6    0  502 -0.20833901561E+03 -0.35254398483E+03  0.60651321816E+03  0.73181328935E+03  0.00000000000E+00 0.  1.
<mgrwt>
<rscale>  0 0.67827099E+03</rscale>
<asrwt>0</asrwt>
<pdfrwt beam="1">  1        1 0.43150006E+00 0.67827099E+03</pdfrwt>
<pdfrwt beam="2">  1       -2 0.28799895E-01 0.67827099E+03</pdfrwt>
<totfact> 0.86019423E+00</totfact>
</mgrwt>
</event>
<event>
12    3  0.1201947E-007  0.6110554E+03  0.7818608E-02  0.9882731E-01
         -2   -1    0    0    0  501 -0.00000000000E+00  0.00000000000E+00  0.12944338814E+04  0.12944338814E+04  0.00000000000E+00 0.  1.
          1   -1    0    0  501    0  0.00000000000E+00 -0.00000000000E+00 -0.45796467838E+03  0.45796467838E+03  0.00000000000E+00 0. -1.
        -24    2    1    2    0    0 -0.53837451098E+03  0.16885067692E+03 -0.12833148404E+02  0.56927804397E+03  0.74532787912E+02 0.  0.
    5000000    2    1    2    0    0  0.53837451098E+03 -0.16885067692E+03  0.84930235142E+03  0.11831205158E+04  0.60008499865E+03 0.  0.
        -24    2    4    4    0    0  0.35367729189E+02 -0.13868475404E+03 -0.29883366340E+02  0.16663400544E+03  0.79934591477E+02 0.  0.
         24    2    4    4    0    0  0.50300678180E+03 -0.30165922877E+02  0.87918571776E+03  0.10164865104E+04  0.79696260843E+02 0.  0.
         11    1    3    3    0    0 -0.36947654148E+03  0.14836938877E+03  0.52175097501E+01  0.39818791121E+03  0.00000000000E+00 0. -1.
        -12    1    3    3    0    0 -0.16889796950E+03  0.20481288149E+02 -0.18050658154E+02  0.17109013276E+03  0.00000000000E+00 0.  1.
         15    1    5    5    0    0  0.12665835783E+02 -0.87294164897E+02  0.21159304691E+02  0.90727991960E+02  0.17770000000E+01 0. -1.
        -16    1    5    5    0    0  0.22701893406E+02 -0.51390589143E+02 -0.51042671031E+02  0.75906013482E+02  0.00000000000E+00 0.  1.
          4    1    6    6  502    0  0.31981574845E+03 -0.55121150352E+02  0.58640863046E+03  0.67022051301E+03  0.00000000000E+00 0. -1.
         -3    1    6    6    0  502  0.18319103334E+03  0.24955227474E+02  0.29277708730E+03  0.34626599736E+03  0.00000000000E+00 0.  1.
<mgrwt>
<rscale>  0 0.61105541E+03</rscale>
<asrwt>0</asrwt>
<pdfrwt beam="1">  1        1 0.70456105E-01 0.61105541E+03</pdfrwt>
<pdfrwt beam="2">  1       -2 0.19914367E+00 0.61105541E+03</pdfrwt>
<totfact> 0.61460700E+00</totfact>
</mgrwt>
</event>
<event>
12    3  0.1201947E-007  0.9508393E+03  0.7818608E-02  0.9364170E-01
          1   -1    0    0  501    0  0.00000000000E+00  0.00000000000E+00  0.40646014820E+04  0.40646014820E+04  0.00000000000E+00 0. -1.
         -2   -1    0    0    0  501 -0.00000000000E+00 -0.00000000000E+00 -0.38032981891E+03  0.38032981891E+03  0.00000000000E+00 0.  1.
        -24    2    1    2    0    0 -0.62146466767E+03  0.59527380474E+03  0.32122647799E+03  0.92204943230E+03  0.80121593043E+02 0.  0.
    5000000    2    1    2    0    0  0.62146466767E+03 -0.59527380474E+03  0.33630451851E+04  0.35228818686E+04  0.60004542108E+03 0.  0.
        -24    2    4    4    0    0  0.36227266299E+02 -0.42187383088E+03  0.15201532634E+04  0.15799718086E+04  0.78453986136E+02 0.  0.
         24    2    4    4    0    0  0.58523740137E+03 -0.17339997386E+03  0.18428919218E+04  0.19429100600E+04  0.77964729610E+02 0.  0.
         13    1    3    3    0    0 -0.28483858366E+03  0.23202709427E+03  0.16514662491E+03  0.40279399069E+03  0.00000000000E+00 0. -1.
        -14    1    3    3    0    0 -0.33662608401E+03  0.36324671047E+03  0.15607985307E+03  0.51925544161E+03  0.00000000000E+00 0.  1.
         15    1    5    5    0    0 -0.76779757728E+01 -0.85776535603E+02  0.42186997932E+03  0.43057403841E+03  0.17770000000E+01 0. -1.
        -16    1    5    5    0    0  0.43905242071E+02 -0.33609729528E+03  0.10982832840E+04  0.11493977702E+04  0.00000000000E+00 0.  1.
          4    1    6    6  502    0  0.41550362765E+03 -0.15399972509E+03  0.13866028283E+04  0.14556876668E+04  0.00000000000E+00 0. -1.
         -3    1    6    6    0  502  0.16973377372E+03 -0.19400248769E+02  0.45628909348E+03  0.48722239319E+03  0.00000000000E+00 0.  1.
<mgrwt>
<rscale>  0 0.95083933E+03</rscale>
<asrwt>0</asrwt>
<pdfrwt beam="1">  1        1 0.62532327E+00 0.95083933E+03</pdfrwt>
<pdfrwt beam="2">  1       -2 0.58512283E-01 0.95083933E+03</pdfrwt>
<totfact> 0.21454992E-01</totfact>
</mgrwt>
</event>
<event>
12    3  0.1201947E-007  0.1676177E+04  0.7818608E-02  0.8775069E-01
          1   -1    0    0  501    0  0.00000000000E+00  0.00000000000E+00  0.75694139565E+03  0.75694139565E+03  0.00000000000E+00 0. -1.
         -2   -1    0    0    0  501 -0.00000000000E+00 -0.00000000000E+00 -0.38481496008E+04  0.38481496008E+04  0.00000000000E+00 0.  1.
        -24    2    1    2    0    0 -0.11644438010E+04 -0.11707822648E+04 -0.13970512527E+04  0.21644427750E+04  0.79999038443E+02 0.  0.
    5000000    2    1    2    0    0  0.11644438010E+04  0.11707822648E+04 -0.16941569524E+04  0.24406482215E+04  0.59994623440E+03 0.  0.
        -24    2    4    4    0    0  0.98102636109E+03  0.75524878483E+03 -0.93453772395E+03  0.15520168968E+04  0.50815767067E+02 0.  0.
         24    2    4    4    0    0  0.18341743987E+03  0.41553348001E+03 -0.75961922847E+03  0.88863132470E+03  0.79587867864E+02 0.  0.
         13    1    3    3    0    0 -0.50088424325E+03 -0.44950229815E+03 -0.58111882149E+03  0.88917738718E+03  0.00000000000E+00 0. -1.
        -14    1    3    3    0    0 -0.66355955771E+03 -0.72127996670E+03 -0.81593243121E+03  0.12752653878E+04  0.00000000000E+00 0.  1.
         15    1    5    5    0    0  0.88775029619E+03  0.66850185847E+03 -0.85055902401E+03  0.13994460098E+04  0.17770000000E+01 0. -1.
        -16    1    5    5    0    0  0.93276064903E+02  0.86746926364E+02 -0.83978699942E+02  0.15257088700E+03  0.00000000000E+00 0.  1.
          2    1    6    6  502    0  0.68938987258E+02  0.77661537639E+02 -0.18988868488E+03  0.21642922871E+03  0.00000000000E+00 0. -1.
         -1    1    6    6    0  502  0.11447845262E+03  0.33787194237E+03 -0.56973054359E+03  0.67220209599E+03  0.00000000000E+00 0.  1.
<mgrwt>
<rscale>  0 0.16761772E+04</rscale>
<asrwt>0</asrwt>
<pdfrwt beam="1">  1        1 0.11645252E+00 0.16761772E+04</pdfrwt>
<pdfrwt beam="2">  1       -2 0.59202302E+00 0.16761772E+04</pdfrwt>
<totfact> 0.10503419E-02</totfact>
</mgrwt>
</event>
<event>
12    3  0.1201947E-007  0.4461319E+03  0.7818608E-02  0.1028882E+00
          1   -1    0    0  501    0  0.00000000000E+00  0.00000000000E+00  0.70101350188E+03  0.70101350188E+03  0.00000000000E+00 0. -1.
         -4   -1    0    0    0  501 -0.00000000000E+00 -0.00000000000E+00 -0.40598937313E+03  0.40598937313E+03  0.00000000000E+00 0.  1.
        -24    2    1    2    0    0  0.10055705472E+03  0.30015320525E+03 -0.74393559030E+02  0.33465017178E+03  0.79073813465E+02 0.  0.
    5000000    2    1    2    0    0 -0.10055705472E+03 -0.30015320525E+03  0.36941768778E+03  0.77235270322E+03  0.59987965648E+03 0.  0.
        -24    2    4    4    0    0 -0.28178382823E+03 -0.89723005445E+02  0.38552002047E+01  0.30636547862E+03  0.79953738891E+02 0.  0.
         24    2    4    4    0    0  0.18122677350E+03 -0.21043019980E+03  0.36556248757E+03  0.46598722460E+03  0.79900868271E+02 0.  0.
         13    1    3    3    0    0  0.82739493267E+02  0.20162803496E+03 -0.85071542918E+02  0.23395908968E+03  0.00000000000E+00 0. -1.
        -14    1    3    3    0    0  0.17817561457E+02  0.98525170284E+02  0.10677983887E+02  0.10069108211E+03  0.00000000000E+00 0.  1.
         15    1    5    5    0    0 -0.48906912670E+02 -0.13237838954E+02  0.31513980690E+02  0.59694348099E+02  0.17770000000E+01 0. -1.
        -16    1    5    5    0    0 -0.23287691556E+03 -0.76485166491E+02 -0.27658780485E+02  0.24667113052E+03  0.00000000000E+00 0.  1.
          4    1    6    6  502    0  0.12275023449E+03 -0.12831041319E+03  0.28981726443E+03  0.33989002480E+03  0.00000000000E+00 0. -1.
         -1    1    6    6    0  502  0.58476539013E+02 -0.82119786614E+02  0.75745223145E+02  0.12609719980E+03  0.00000000000E+00 0.  1.
<mgrwt>
<rscale>  0 0.44613190E+03</rscale>
<asrwt>0</asrwt>
<pdfrwt beam="1">  1        1 0.10784823E+00 0.44613190E+03</pdfrwt>
<pdfrwt beam="2">  1       -4 0.62459903E-01 0.44613190E+03</pdfrwt>
<totfact> 0.32026498E+01</totfact>
</mgrwt>
</event>
<event>
12    3  0.1201947E-007  0.4793462E+03  0.7818608E-02  0.1019315E+00
          1   -1    0    0  501    0  0.00000000000E+00  0.00000000000E+00  0.18519979300E+04  0.18519979300E+04  0.00000000000E+00 0. -1.
         -4   -1    0    0    0  501 -0.00000000000E+00 -0.00000000000E+00 -0.15001797802E+03  0.15001797802E+03  0.00000000000E+00 0.  1.
        -24    2    1    2    0    0 -0.33768766079E+03  0.24526927378E+02  0.75147896428E+03  0.82805986267E+03  0.79548576385E+02 0.  0.
    5000000    2    1    2    0    0  0.33768766079E+03 -0.24526927378E+02  0.95050098769E+03  0.11739560453E+04  0.60007178102E+03 0.  0.
        -24    2    4    4    0    0 -0.86757078749E+02 -0.14344900042E+03  0.99726388896E+02  0.21226778962E+03  0.83712934676E+02 0.  0.
         24    2    4    4    0    0  0.42444473954E+03  0.11892207304E+03  0.85077459880E+03  0.96168825572E+03  0.82043201171E+02 0.  0.
         13    1    3    3    0    0 -0.15696482611E+03  0.18626227534E+02  0.44471176516E+03  0.47196763349E+03  0.00000000000E+00 0. -1.
        -14    1    3    3    0    0 -0.18072283468E+03  0.59006998444E+01  0.30676719912E+03  0.35609222919E+03  0.00000000000E+00 0.  1.
         15    1    5    5    0    0 -0.45188057637E+02 -0.41561166522E+02  0.79369633876E+02  0.10035929268E+03  0.17770000000E+01 0. -1.
        -16    1    5    5    0    0 -0.41569021112E+02 -0.10188783390E+03  0.20356755020E+02  0.11190849694E+03  0.00000000000E+00 0.  1.
          4    1    6    6  502    0  0.40625245629E+03  0.93142598232E+02  0.78887915128E+03  0.89221461386E+03  0.00000000000E+00 0. -1.
         -3    1    6    6    0  502  0.18192283245E+02  0.25779474812E+02  0.61895447515E+02  0.69473641868E+02  0.00000000000E+00 0.  1.
<mgrwt>
<rscale>  0 0.47934618E+03</rscale>
<asrwt>0</asrwt>
<pdfrwt beam="1">  1        1 0.28492274E+00 0.47934618E+03</pdfrwt>
<pdfrwt beam="2">  1       -4 0.23079690E-01 0.47934618E+03</pdfrwt>
<totfact> 0.34182549E+01</totfact>
</mgrwt>
</event>
<event>
12    3  0.1201947E-007  0.1187249E+04  0.7818608E-02  0.9124091E-01
          1   -1    0    0  501    0  0.00000000000E+00  0.00000000000E+00  0.19613907903E+04  0.19613907903E+04  0.00000000000E+00 0. -1.
         -4   -1    0    0    0  501 -0.00000000000E+00 -0.00000000000E+00 -0.10068582205E+04  0.10068582205E+04  0.00000000000E+00 0.  1.
        -24    2    1    2    0    0  0.10089161424E+04 -0.47040899742E+03 -0.33185746095E+03  0.11643430414E+04  0.79805617621E+02 0.  0.
    5000000    2    1    2    0    0 -0.10089161424E+04  0.47040899742E+03  0.12863900308E+04  0.18039059693E+04  0.60006751924E+03 0.  0.
        -24    2    4    4    0    0 -0.29757880842E+03 -0.12677425413E+03  0.36750003206E+03  0.49584563318E+03  0.78624167036E+02 0.  0.
         24    2    4    4    0    0 -0.71133733394E+03  0.59718325155E+03  0.91888999875E+03  0.13080603362E+04  0.63516727154E+02 0.  0.
         13    1    3    3    0    0  0.10655370151E+03 -0.33899843209E+02 -0.53859424567E+02  0.12411175726E+03  0.00000000000E+00 0. -1.
        -14    1    3    3    0    0  0.90236244085E+03 -0.43650915421E+03 -0.27799803638E+03  0.10402312842E+04  0.00000000000E+00 0.  1.
         15    1    5    5    0    0 -0.13799505283E+03 -0.98079271323E+02  0.21059713919E+03  0.27021563765E+03  0.17770000000E+01 0. -1.
        -16    1    5    5    0    0 -0.15958375560E+03 -0.28694982808E+02  0.15690289287E+03  0.22562999552E+03  0.00000000000E+00 0.  1.
          2    1    6    6  502    0 -0.39622244148E+03  0.32596898660E+03  0.46357072353E+03  0.69148088843E+03  0.00000000000E+00 0. -1.
         -1    1    6    6    0  502 -0.31511489246E+03  0.27121426496E+03  0.45531927522E+03  0.61657944772E+03  0.00000000000E+00 0.  1.
<mgrwt>
<rscale>  0 0.11872494E+04</rscale>
<asrwt>0</asrwt>
<pdfrwt beam="1">  1        1 0.30175243E+00 0.11872494E+04</pdfrwt>
<pdfrwt beam="2">  1       -4 0.15490127E+00 0.11872494E+04</pdfrwt>
<totfact> 0.40515324E-01</totfact>
</mgrwt>
</event>
<event>
12    3  0.1472642E-007  0.9953784E+03  0.7818608E-02  0.9313628E-01
         -2   -1    0    0    0  501 -0.00000000000E+00  0.00000000000E+00  0.50871013698E+03  0.50871013698E+03  0.00000000000E+00 0.  1.
          1   -1    0    0  501    0  0.00000000000E+00 -0.00000000000E+00 -0.22225480814E+04  0.22225480814E+04  0.00000000000E+00 0. -1.
        -24    2    1    2    0    0 -0.95438096264E+03  0.40061357677E+02 -0.10534211475E+04  0.14242437235E+04  0.79537007999E+02 0.  0.
    5000000    2    1    2    0    0  0.95438096264E+03 -0.40061357677E+02 -0.66041679694E+03  0.13070144949E+04  0.59974045224E+03 0.  0.
        -24    2    4    4    0    0  0.63261513951E+03  0.15422611974E+03 -0.64579095338E+03  0.92217980401E+03  0.96860852313E+02 0.  0.
         24    2    4    4    0    0  0.32176582313E+03 -0.19428747741E+03 -0.14625843564E+02  0.38483469092E+03  0.81258570150E+02 0.  0.
         13    1    3    3    0    0 -0.45944966307E+03  0.49677467196E+01 -0.56169452816E+03  0.72568547896E+03  0.00000000000E+00 0. -1.
        -14    1    3    3    0    0 -0.49493129957E+03  0.35093610957E+02 -0.49172661934E+03  0.69855824453E+03  0.00000000000E+00 0.  1.
         15    1    5    5    0    0  0.33170641515E+03  0.32830931522E+02 -0.34525777218E+03  0.47990947364E+03  0.17770000000E+01 0. -1.
        -16    1    5    5    0    0  0.30090872436E+03  0.12139518822E+03 -0.30053318120E+03  0.44227033037E+03  0.00000000000E+00 0.  1.
          4    1    6    6  502    0  0.19369899003E+03 -0.98025021339E+02 -0.45165518728E+02  0.22173887261E+03  0.00000000000E+00 0. -1.
         -3    1    6    6    0  502  0.12806683311E+03 -0.96262456075E+02  0.30539675165E+02  0.16309581831E+03  0.00000000000E+00 0.  1.
<mgrwt>
<rscale>  0 0.99537845E+03</rscale>
<asrwt>0</asrwt>
<pdfrwt beam="1">  1        1 0.34193047E+00 0.99537845E+03</pdfrwt>
<pdfrwt beam="2">  1       -2 0.78263099E-01 0.99537845E+03</pdfrwt>
<totfact> 0.27107329E+00</totfact>
</mgrwt>
</event>
<event>
12    3  0.1201947E-007  0.1829129E+04  0.7818608E-02  0.8690961E-01
         -2   -1    0    0    0  501 -0.00000000000E+00  0.00000000000E+00  0.79836830166E+03  0.79836830166E+03  0.00000000000E+00 0.  1.
          1   -1    0    0  501    0  0.00000000000E+00 -0.00000000000E+00 -0.42290058825E+04  0.42290058825E+04  0.00000000000E+00 0. -1.
        -24    2    1    2    0    0 -0.14595766979E+04 -0.10268255898E+04 -0.18119235567E+04  0.25444413960E+04  0.79875613696E+02 0.  0.
    5000000    2    1    2    0    0  0.14595766979E+04  0.10268255898E+04 -0.16187140242E+04  0.24829327882E+04  0.59998767434E+03 0.  0.
        -24    2    4    4    0    0  0.59019263438E+03  0.10470494680E+03 -0.62132757015E+03  0.86819897378E+03  0.91820678893E+02 0.  0.
         24    2    4    4    0    0  0.86938406356E+03  0.92212064299E+03 -0.99738645407E+03  0.16147338144E+04  0.80314521741E+02 0.  0.
         11    1    3    3    0    0 -0.41641036822E+03 -0.29814071894E+03 -0.57185754270E+03  0.76766303297E+03  0.00000000000E+00 0. -1.
        -12    1    3    3    0    0 -0.10431663297E+04 -0.72868487085E+03 -0.12400660140E+04  0.17767783631E+04  0.00000000000E+00 0.  1.
         15    1    5    5    0    0  0.46856558946E+03  0.11997477171E+03 -0.48828779153E+03  0.68729599341E+03  0.17770000000E+01 0. -1.
        -16    1    5    5    0    0  0.12162704492E+03 -0.15269824911E+02 -0.13303977862E+03  0.18090298036E+03  0.00000000000E+00 0.  1.
          2    1    6    6  502    0  0.47333205571E+03  0.51018266713E+03 -0.59780503341E+03  0.91744233975E+03  0.00000000000E+00 0. -1.
         -1    1    6    6    0  502  0.39605200784E+03  0.41193797586E+03 -0.39958142066E+03  0.69729147464E+03  0.00000000000E+00 0.  1.
<mgrwt>
<rscale>  0 0.18291286E+04</rscale>
<asrwt>0</asrwt>
<pdfrwt beam="1">  1        1 0.65061630E+00 0.18291286E+04</pdfrwt>
<pdfrwt beam="2">  1       -2 0.12282589E+00 0.18291286E+04</pdfrwt>
<totfact> 0.24228378E-02</totfact>
</mgrwt>
</event>
<event>
12    3  0.1201947E-007  0.8742595E+03  0.7818608E-02  0.9458343E-01
         -4   -1    0    0    0  501 -0.00000000000E+00  0.00000000000E+00  0.52831877567E+03  0.52831877567E+03  0.00000000000E+00 0.  1.
          3   -1    0    0  501    0  0.00000000000E+00 -0.00000000000E+00 -0.15720063756E+04  0.15720063756E+04  0.00000000000E+00 0. -1.
        -24    2    1    2    0    0  0.60329641777E+03  0.50214144201E+03 -0.69907553043E+03  0.10540297611E+04  0.78482765461E+02 0.  0.
    5000000    2    1    2    0    0 -0.60329641777E+03 -0.50214144201E+03 -0.34461206946E+03  0.10462953902E+04  0.59988663060E+03 0.  0.
        -24    2    4    4    0    0 -0.69481567494E+03 -0.36325710724E+03 -0.20170987243E+03  0.81306705731E+03  0.75276948269E+02 0.  0.
         24    2    4    4    0    0  0.91519257170E+02 -0.13888433477E+03 -0.14290219703E+03  0.23322833285E+03  0.79434151662E+02 0.  0.
         11    1    3    3    0    0  0.53926916979E+03  0.47092827485E+03 -0.65431385961E+03  0.96990272936E+03  0.00000000000E+00 0. -1.
        -12    1    3    3    0    0  0.64027247981E+02  0.31213167158E+02 -0.44761670817E+02  0.84127031698E+02  0.00000000000E+00 0.  1.
         15    1    5    5    0    0 -0.40525198607E+03 -0.25141325466E+03 -0.13364009153E+03  0.49527833450E+03  0.17770000000E+01 0. -1.
        -16    1    5    5    0    0 -0.28956368888E+03 -0.11184385259E+03 -0.68069780899E+02  0.31778872281E+03  0.00000000000E+00 0.  1.
          2    1    6    6  502    0  0.78657029145E+02 -0.74420841738E+02 -0.49618700453E+02  0.11911089519E+03  0.00000000000E+00 0. -1.
         -1    1    6    6    0  502  0.12862228026E+02 -0.64463493029E+02 -0.93283496580E+02  0.11411743766E+03  0.00000000000E+00 0.  1.
<mgrwt>
<rscale>  0 0.87425953E+03</rscale>
<asrwt>0</asrwt>
<pdfrwt beam="1">  1        3 0.24184713E+00 0.87425953E+03</pdfrwt>
<pdfrwt beam="2">  1       -4 0.81279813E-01 0.87425953E+03</pdfrwt>
<totfact> 0.24836913E-01</totfact>
</mgrwt>
</event>
<event>
12    3  0.1201947E-007  0.4801228E+03  0.7818608E-02  0.1019101E+00
         -2   -1    0    0    0  501 -0.00000000000E+00  0.00000000000E+00  0.10605276135E+04  0.10605276135E+04  0.00000000000E+00 0.  1.
          1   -1    0    0  501    0  0.00000000000E+00 -0.00000000000E+00 -0.29166302738E+03  0.29166302738E+03  0.00000000000E+00 0. -1.
        -24    2    1    2    0    0 -0.28822857969E+03 -0.45297287836E+02 -0.38355049093E+02  0.30491116327E+03  0.79825743108E+02 0.  0.
    5000000    2    1    2    0    0  0.28822857969E+03  0.45297287836E+02  0.80721963526E+03  0.10472794777E+04  0.60005266963E+03 0.  0.
        -24    2    4    4    0    0  0.23911177475E+03  0.29908596268E+03  0.41657927230E+03  0.57212819967E+03  0.84649470456E+02 0.  0.
         24    2    4    4    0    0  0.49116804931E+02 -0.25378867485E+03  0.39064036295E+03  0.47515127798E+03  0.79672402929E+02 0.  0.
         13    1    3    3    0    0 -0.18856867222E+02 -0.22483373289E+02  0.84869225997E+01  0.30546871708E+02  0.00000000000E+00 0. -1.
        -14    1    3    3    0    0 -0.26937171246E+03 -0.22813914547E+02 -0.46841971693E+02  0.27436429156E+03  0.00000000000E+00 0.  1.
         15    1    5    5    0    0  0.20125289337E+03  0.19691457932E+03  0.27615817509E+03  0.39439139702E+03  0.17770000000E+01 0. -1.
        -16    1    5    5    0    0  0.37858881383E+02  0.10217138336E+03  0.14042109721E+03  0.17773680266E+03  0.00000000000E+00 0.  1.
          4    1    6    6  502    0  0.54183216983E+02 -0.82679809721E+02  0.15654367119E+03  0.18514235854E+03  0.00000000000E+00 0. -1.
         -3    1    6    6    0  502 -0.50664120527E+01 -0.17110886513E+03  0.23409669176E+03  0.29000891943E+03  0.00000000000E+00 0.  1.
<mgrwt>
<rscale>  0 0.48012285E+03</rscale>
<asrwt>0</asrwt>
<pdfrwt beam="1">  1        1 0.44871235E-01 0.48012285E+03</pdfrwt>
<pdfrwt beam="2">  1       -2 0.16315809E+00 0.48012285E+03</pdfrwt>
<totfact> 0.19821696E+01</totfact>
</mgrwt>
</event>
<event>
12    3  0.1201947E-007  0.9697482E+03  0.7818608E-02  0.9342361E-01
          1   -1    0    0  501    0  0.00000000000E+00  0.00000000000E+00  0.15767414108E+04  0.15767414108E+04  0.00000000000E+00 0. -1.
         -2   -1    0    0    0  501 -0.00000000000E+00 -0.00000000000E+00 -0.68959243833E+03  0.68959243833E+03  0.00000000000E+00 0.  1.
        -24    2    1    2    0    0  0.84997438234E+03  0.42270174648E+03  0.29778120177E+03  0.99806360991E+03  0.79524261563E+02 0.  0.
    5000000    2    1    2    0    0 -0.84997438234E+03 -0.42270174648E+03  0.58936777070E+03  0.12682702392E+04  0.60001817758E+03 0.  0.
        -24    2    4    4    0    0 -0.58176417419E+03 -0.16927754407E+03  0.54825809701E+02  0.61387082899E+03  0.82018802631E+02 0.  0.
         24    2    4    4    0    0 -0.26821020816E+03 -0.25342420241E+03  0.53454196100E+03  0.65439941023E+03  0.79642563414E+02 0.  0.
         13    1    3    3    0    0  0.58677787039E+03  0.25968141697E+03  0.22552461522E+03  0.68015002725E+03  0.00000000000E+00 0. -1.
        -14    1    3    3    0    0  0.26319651195E+03  0.16302032952E+03  0.72256586558E+02  0.31791358266E+03  0.00000000000E+00 0.  1.
         15    1    5    5    0    0 -0.31273731179E+02 -0.29651182559E+02  0.93276101856E+01  0.44129365844E+02  0.17770000000E+01 0. -1.
        -16    1    5    5    0    0 -0.55049044301E+03 -0.13962636151E+03  0.45498199516E+02  0.56974146315E+03  0.00000000000E+00 0.  1.
          2    1    6    6  502    0 -0.16279906519E+03 -0.20331418457E+03  0.35651784420E+03  0.44152595225E+03  0.00000000000E+00 0. -1.
         -1    1    6    6    0  502 -0.10541114297E+03 -0.50110017841E+02  0.17802411680E+03  0.21287345798E+03  0.00000000000E+00 0.  1.
<mgrwt>
<rscale>  0 0.96974819E+03</rscale>
<asrwt>0</asrwt>
<pdfrwt beam="1">  1        1 0.24257560E+00 0.96974819E+03</pdfrwt>
<pdfrwt beam="2">  1       -2 0.10609114E+00 0.96974819E+03</pdfrwt>
<totfact> 0.36591432E+00</totfact>
</mgrwt>
</event>
<event>
12    3  0.1201947E-007  0.1947944E+04  0.7818608E-02  0.8631353E-01
          1   -1    0    0  501    0  0.00000000000E+00  0.00000000000E+00  0.29857795787E+04  0.29857795787E+04  0.00000000000E+00 0. -1.
         -2   -1    0    0    0  501 -0.00000000000E+00 -0.00000000000E+00 -0.26019365395E+04  0.26019365395E+04  0.00000000000E+00 0.  1.
        -24    2    1    2    0    0 -0.62615488836E+02  0.19223546134E+04 -0.17866259122E+04  0.26262449195E+04  0.75909602905E+02 0.  0.
    5000000    2    1    2    0    0  0.62615488836E+02 -0.19223546134E+04  0.21704689513E+04  0.29614711988E+04  0.60000686118E+03 0.  0.
        -24    2    4    4    0    0 -0.49497869150E+01 -0.18367091963E+04  0.21436609926E+04  0.28240453282E+04  0.80152305247E+02 0.  0.
         24    2    4    4    0    0  0.67565275751E+02 -0.85645417115E+02  0.26807958687E+02  0.13742587062E+03  0.79164381560E+02 0.  0.
         13    1    3    3    0    0 -0.31119438158E+01  0.11741701932E+04 -0.11059057017E+04  0.16129825628E+04  0.00000000000E+00 0. -1.
        -14    1    3    3    0    0 -0.59503545020E+02  0.74818442019E+03 -0.68072021047E+03  0.10132623567E+04  0.00000000000E+00 0.  1.
         15    1    5    5    0    0 -0.43100032814E+01 -0.73747714811E+03  0.92134883084E+03  0.11801601357E+04  0.17770000000E+01 0. -1.
        -16    1    5    5    0    0 -0.63978363358E+00 -0.10992320482E+04  0.12223121618E+04  0.16438851925E+04  0.00000000000E+00 0.  1.
          2    1    6    6  502    0  0.50160110060E+02 -0.32895507430E+01  0.52997684465E+01  0.50546467046E+02  0.00000000000E+00 0. -1.
         -1    1    6    6    0  502  0.17405165691E+02 -0.82355866372E+02  0.21508190240E+02  0.86879403578E+02  0.00000000000E+00 0.  1.
<mgrwt>
<rscale>  0 0.19479441E+04</rscale>
<asrwt>0</asrwt>
<pdfrwt beam="1">  1        1 0.45935071E+00 0.19479441E+04</pdfrwt>
<pdfrwt beam="2">  1       -2 0.40029793E+00 0.19479441E+04</pdfrwt>
<totfact> 0.35121175E-03</totfact>
</mgrwt>
</event>
<event>
12    3  0.1201947E-007  0.8268654E+03  0.7818608E-02  0.9521924E-01
          1   -1    0    0  501    0  0.00000000000E+00  0.00000000000E+00  0.13883812341E+04  0.13883812341E+04  0.00000000000E+00 0. -1.
         -2   -1    0    0    0  501 -0.00000000000E+00 -0.00000000000E+00 -0.70035191991E+03  0.70035191991E+03  0.00000000000E+00 0.  1.
        -24    2    1    2    0    0  0.41934950913E+03  0.69483448157E+03 -0.81676458350E+02  0.81951424948E+03  0.79269121726E+02 0.  0.
    5000000    2    1    2    0    0 -0.41934950913E+03 -0.69483448157E+03  0.76970577255E+03  0.12692189045E+04  0.59985055121E+03 0.  0.
        -24    2    4    4    0    0 -0.12567136061E+03 -0.41393646700E+03  0.73070301269E+03  0.85292005232E+03  0.80056438277E+02 0.  0.
         24    2    4    4    0    0 -0.29367814851E+03 -0.28089801457E+03  0.39002759859E+02  0.41629885223E+03  0.81443045021E+02 0.  0.
         13    1    3    3    0    0  0.31958084280E+03  0.47625378674E+03 -0.33939275218E+02  0.57454456648E+03  0.00000000000E+00 0. -1.
        -14    1    3    3    0    0  0.99768666326E+02  0.21858069483E+03 -0.47737183133E+02  0.24496968299E+03  0.00000000000E+00 0.  1.
         15    1    5    5    0    0 -0.60280387804E+02 -0.23992500734E+03  0.48883469248E+03  0.54786882427E+03  0.17770000000E+01 0. -1.
        -16    1    5    5    0    0 -0.65390972810E+02 -0.17401145966E+03  0.24186832021E+03  0.30505122805E+03  0.00000000000E+00 0.  1.
          4    1    6    6  502    0 -0.14051750560E+03 -0.12459637523E+03 -0.22091764250E+02  0.18909646255E+03  0.00000000000E+00 0. -1.
         -3    1    6    6    0  502 -0.15316064291E+03 -0.15630163935E+03  0.61094524108E+02  0.22720238968E+03  0.00000000000E+00 0.  1.
<mgrwt>
<rscale>  0 0.82686544E+03</rscale>
<asrwt>0</asrwt>
<pdfrwt beam="1">  1        1 0.21359711E+00 0.82686544E+03</pdfrwt>
<pdfrwt beam="2">  1       -2 0.10774645E+00 0.82686544E+03</pdfrwt>
<totfact> 0.48400617E+00</totfact>
</mgrwt>
</event>
<event>
12    3  0.1201947E-007  0.6035317E+03  0.7818608E-02  0.9898106E-01
          1   -1    0    0  501    0  0.00000000000E+00  0.00000000000E+00  0.24291346422E+04  0.24291346422E+04  0.00000000000E+00 0. -1.
         -2   -1    0    0    0  501 -0.00000000000E+00 -0.00000000000E+00 -0.18322829877E+03  0.18322829877E+03  0.00000000000E+00 0.  1.
        -24    2    1    2    0    0 -0.26417363383E+03 -0.39352034480E+03  0.13583728853E+04  0.14408686819E+04  0.79244510012E+02 0.  0.
    5000000    2    1    2    0    0  0.26417363383E+03  0.39352034480E+03  0.88753345813E+03  0.11714942591E+04  0.60003099016E+03 0.  0.
        -24    2    4    4    0    0 -0.14809128349E+03  0.24954504355E+03  0.48828810437E+03  0.57358768598E+03  0.79836104829E+02 0.  0.
         24    2    4    4    0    0  0.41226491732E+03  0.14397530125E+03  0.39924535376E+03  0.59790657308E+03  0.86047476520E+02 0.  0.
         13    1    3    3    0    0 -0.92109335620E+02 -0.15005327519E+03  0.39606656851E+03  0.43343839446E+03  0.00000000000E+00 0. -1.
        -14    1    3    3    0    0 -0.17206429821E+03 -0.24346706962E+03  0.96230631678E+03  0.10074302874E+04  0.00000000000E+00 0.  1.
         15    1    5    5    0    0 -0.20191553001E+01  0.10775366355E+02  0.66186601931E+02  0.67111917812E+02  0.17770000000E+01 0. -1.
        -16    1    5    5    0    0 -0.14607212819E+03  0.23876967720E+03  0.42210150244E+03  0.50647576817E+03  0.00000000000E+00 0.  1.
          4    1    6    6  502    0  0.13093810406E+03  0.13163965523E+02  0.15299750382E+03  0.20180761447E+03  0.00000000000E+00 0. -1.
         -3    1    6    6    0  502  0.28132681327E+03  0.13081133573E+03  0.24624784993E+03  0.39609895861E+03  0.00000000000E+00 0.  1.
<mgrwt>
<rscale>  0 0.60353168E+03</rscale>
<asrwt>0</asrwt>
<pdfrwt beam="1">  1        1 0.37371300E+00 0.60353168E+03</pdfrwt>
<pdfrwt beam="2">  1       -2 0.28188971E-01 0.60353168E+03</pdfrwt>
<totfact> 0.16429376E+01</totfact>
</mgrwt>
</event>
<event>
12    3  0.1201947E-007  0.6803162E+03  0.7818608E-02  0.9751499E-01
         -4   -1    0    0    0  501 -0.00000000000E+00  0.00000000000E+00  0.84889747463E+03  0.84889747463E+03  0.00000000000E+00 0.  1.
          1   -1    0    0  501    0  0.00000000000E+00 -0.00000000000E+00 -0.60043253798E+03  0.60043253798E+03  0.00000000000E+00 0. -1.
        -24    2    1    2    0    0  0.96519634367E+02 -0.54591462933E+03 -0.86068802412E+02  0.56655863235E+03  0.79006473188E+02 0.  0.
    5000000    2    1    2    0    0 -0.96519634367E+02  0.54591462933E+03  0.33453373906E+03  0.88277138027E+03  0.60002805345E+03 0.  0.
        -24    2    4    4    0    0  0.16330379275E+03  0.50871499087E+03  0.22169082382E+03  0.58388788414E+03  0.79493202360E+02 0.  0.
         24    2    4    4    0    0 -0.25982342711E+03  0.37199638456E+02  0.11284291524E+03  0.29888349613E+03  0.87782654097E+02 0.  0.
         13    1    3    3    0    0  0.22735752093E+02 -0.34120025165E+02 -0.18834000829E+02  0.45119952657E+02  0.00000000000E+00 0. -1.
        -14    1    3    3    0    0  0.73783882274E+02 -0.51179460416E+03 -0.67234801583E+02  0.52143867969E+03  0.00000000000E+00 0.  1.
         15    1    5    5    0    0  0.12092831129E+03  0.30329687028E+03  0.10044160602E+03  0.34162014276E+03  0.17770000000E+01 0. -1.
        -16    1    5    5    0    0  0.42375481453E+02  0.20541812059E+03  0.12124921780E+03  0.24226774138E+03  0.00000000000E+00 0.  1.
          2    1    6    6  502    0 -0.23870074376E+03  0.20925230859E+02  0.72169402821E+02  0.25024854258E+03  0.00000000000E+00 0. -1.
         -1    1    6    6    0  502 -0.21122683354E+02  0.16274407597E+02  0.40673512417E+02  0.48634953552E+02  0.00000000000E+00 0.  1.
<mgrwt>
<rscale>  0 0.68031615E+03</rscale>
<asrwt>0</asrwt>
<pdfrwt beam="1">  1        1 0.92374236E-01 0.68031615E+03</pdfrwt>
<pdfrwt beam="2">  1       -4 0.13059961E+00 0.68031615E+03</pdfrwt>
<totfact> 0.70753684E+00</totfact>
</mgrwt>
</event>
<event>
12    3  0.1201947E-007  0.6149636E+03  0.7818608E-02  0.9874839E-01
          1   -1    0    0  501    0  0.00000000000E+00  0.00000000000E+00  0.15756181815E+04  0.15756181815E+04  0.00000000000E+00 0. -1.
         -2   -1    0    0    0  501 -0.00000000000E+00 -0.00000000000E+00 -0.96042381734E+03  0.96042381734E+03  0.00000000000E+00 0.  1.
        -24    2    1    2    0    0 -0.45978959970E+03 -0.17132275736E+03  0.13679994798E+04  0.14555581607E+04  0.80430213851E+02 0.  0.
    5000000    2    1    2    0    0  0.45978959970E+03  0.17132275736E+03 -0.75280511563E+03  0.10804838381E+04  0.59997651553E+03 0.  0.
        -24    2    4    4    0    0  0.53903633098E+03  0.29346982577E+00 -0.65945082491E+03  0.85529713386E+03  0.78086775287E+02 0.  0.
         24    2    4    4    0    0 -0.79246731286E+02  0.17102928753E+03 -0.93354290717E+02  0.22518670428E+03  0.80392577851E+02 0.  0.
         13    1    3    3    0    0 -0.20743368698E+03 -0.87004781107E+02  0.51387174443E+03  0.56094806904E+03  0.00000000000E+00 0. -1.
        -14    1    3    3    0    0 -0.25235591272E+03 -0.84317976253E+02  0.85412773534E+03  0.89461009164E+03  0.00000000000E+00 0.  1.
         15    1    5    5    0    0  0.17406812367E+03 -0.16714240124E+02 -0.16440277841E+03  0.24002189229E+03  0.17770000000E+01 0. -1.
        -16    1    5    5    0    0  0.36496820731E+03  0.17007709950E+02 -0.49504804650E+03  0.61527524157E+03  0.00000000000E+00 0.  1.
          4    1    6    6  502    0  0.47919292631E+01  0.56062620111E+02 -0.52693887049E+02  0.77088427744E+02  0.00000000000E+00 0. -1.
         -3    1    6    6    0  502 -0.84038660549E+02  0.11496666742E+03 -0.40660403668E+02  0.14809827653E+03  0.00000000000E+00 0.  1.
<mgrwt>
<rscale>  0 0.61496360E+03</rscale>
<asrwt>0</asrwt>
<pdfrwt beam="1">  1        1 0.24240280E+00 0.61496360E+03</pdfrwt>
<pdfrwt beam="2">  1       -2 0.14775751E+00 0.61496360E+03</pdfrwt>
<totfact> 0.16883132E+00</totfact>
</mgrwt>
</event>
<event>
12    3  0.1201947E-007  0.5918805E+03  0.7818608E-02  0.9922396E-01
         -2   -1    0    0    0  501 -0.00000000000E+00  0.00000000000E+00  0.14871499283E+03  0.14871499283E+03  0.00000000000E+00 0.  1.
          1   -1    0    0  501    0  0.00000000000E+00 -0.00000000000E+00 -0.31286299201E+04  0.31286299201E+04  0.00000000000E+00 0. -1.
        -24    2    1    2    0    0  0.50263448211E+03 -0.52724996779E+02 -0.17081355875E+04  0.17830792917E+04  0.78887433235E+02 0.  0.
    5000000    2    1    2    0    0 -0.50263448211E+03  0.52724996779E+02 -0.12717793397E+04  0.14942656212E+04  0.59998809153E+03 0.  0.
        -24    2    4    4    0    0 -0.42108713543E+02  0.17842878372E+03 -0.94989174255E+02  0.22193314246E+03  0.81371996911E+02 0.  0.
         24    2    4    4    0    0 -0.46052576856E+03 -0.12570378694E+03 -0.11767901655E+04  0.12723324788E+04  0.78162762478E+02 0.  0.
         13    1    3    3    0    0  0.30325922928E+03 -0.54249028665E+02 -0.11436255878E+04  0.11843937699E+04  0.00000000000E+00 0. -1.
        -14    1    3    3    0    0  0.19937525282E+03  0.15240318861E+01 -0.56450999974E+03  0.59868552172E+03  0.00000000000E+00 0.  1.
         15    1    5    5    0    0 -0.50600474229E+02  0.58262502084E+02 -0.18965611934E+02  0.79484459527E+02  0.17770000000E+01 0. -1.
        -16    1    5    5    0    0  0.84917606860E+01  0.12016628164E+03 -0.76023562321E+02  0.14244868294E+03  0.00000000000E+00 0.  1.
          2    1    6    6  502    0 -0.32431116080E+03 -0.10492238918E+03 -0.74936743544E+03  0.82324843764E+03  0.00000000000E+00 0. -1.
         -1    1    6    6    0  502 -0.13621460777E+03 -0.20781397761E+02 -0.42742273002E+03  0.44908404113E+03  0.00000000000E+00 0.  1.
<mgrwt>
<rscale>  0 0.59188047E+03</rscale>
<asrwt>0</asrwt>
<pdfrwt beam="1">  1        1 0.48132768E+00 0.59188047E+03</pdfrwt>
<pdfrwt beam="2">  1       -2 0.22879230E-01 0.59188047E+03</pdfrwt>
<totfact> 0.77996907E+00</totfact>
</mgrwt>
</event>
<event>
12    3  0.1201947E-007  0.3862821E+03  0.7818608E-02  0.1048636E+00
         -2   -1    0    0    0  501 -0.00000000000E+00  0.00000000000E+00  0.32444777704E+03  0.32444777704E+03  0.00000000000E+00 0.  1.
          1   -1    0    0  501    0  0.00000000000E+00 -0.00000000000E+00 -0.15783653125E+04  0.15783653125E+04  0.00000000000E+00 0. -1.
        -24    2    1    2    0    0  0.11110858939E+03 -0.35087659194E+03  0.88481982595E+02  0.38698523033E+03  0.80430130187E+02 0.  0.
    5000000    2    1    2    0    0 -0.11110858939E+03  0.35087659194E+03 -0.13423995181E+04  0.15158278592E+04  0.60019840993E+03 0.  0.
        -24    2    4    4    0    0 -0.78376436327E+01  0.13047977772E+03 -0.50533256627E+01  0.15421004157E+03  0.81662719586E+02 0.  0.
         24    2    4    4    0    0 -0.10327094575E+03  0.22039681422E+03 -0.13373461924E+04  0.13616178176E+04  0.79174484813E+02 0.  0.
         13    1    3    3    0    0  0.46351415254E+02 -0.52900250916E+02  0.34461083610E+01  0.70418505422E+02  0.00000000000E+00 0. -1.
        -14    1    3    3    0    0  0.64757174133E+02 -0.29797634102E+03  0.85035874234E+02  0.31656672490E+03  0.00000000000E+00 0.  1.
         15    1    5    5    0    0  0.31889321048E+02  0.95178662670E+02 -0.97007940918E+01  0.10086213244E+03  0.17770000000E+01 0. -1.
        -16    1    5    5    0    0 -0.39726964681E+02  0.35301115050E+02  0.46474684291E+01  0.53347909137E+02  0.00000000000E+00 0.  1.
          2    1    6    6  502    0 -0.20737854497E+02  0.32752978693E+02 -0.41291847071E+03  0.41473422776E+03  0.00000000000E+00 0. -1.
         -1    1    6    6    0  502 -0.82533091257E+02  0.18764383552E+03 -0.92442772169E+03  0.94688358988E+03  0.00000000000E+00 0.  1.
<mgrwt>
<rscale>  0 0.38628210E+03</rscale>
<asrwt>0</asrwt>
<pdfrwt beam="1">  1        1 0.24282544E+00 0.38628210E+03</pdfrwt>
<pdfrwt beam="2">  1       -2 0.49915042E-01 0.38628210E+03</pdfrwt>
<totfact> 0.21128130E+01</totfact>
</mgrwt>
</event>
<event>
12    3  0.1201947E-007  0.5154212E+03  0.7818608E-02  0.1009830E+00
         -2   -1    0    0    0  501 -0.00000000000E+00  0.00000000000E+00  0.28420314802E+03  0.28420314802E+03  0.00000000000E+00 0.  1.
          1   -1    0    0  501    0  0.00000000000E+00 -0.00000000000E+00 -0.10292515119E+04  0.10292515119E+04  0.00000000000E+00 0. -1.
        -24    2    1    2    0    0 -0.70629312030E+01 -0.34025066911E+03 -0.43448563233E+03  0.55706320848E+03  0.75638949739E+02 0.  0.
    5000000    2    1    2    0    0  0.70629312030E+01  0.34025066911E+03 -0.31056273150E+03  0.75639145139E+03  0.59988200066E+03 0.  0.
        -24    2    4    4    0    0  0.25280315236E+03  0.67551590603E+01 -0.90669736661E+02  0.28053062040E+03  0.80754949211E+02 0.  0.
         24    2    4    4    0    0 -0.24574022115E+03  0.33349551005E+03 -0.21989299484E+03  0.47586083099E+03  0.80517636428E+02 0.  0.
         11    1    3    3    0    0 -0.21383393084E+02 -0.50330661261E+02 -0.10169662321E+03  0.11546700020E+03  0.00000000000E+00 0. -1.
        -12    1    3    3    0    0  0.14320461881E+02 -0.28992000785E+03 -0.33278900912E+03  0.44159620828E+03  0.00000000000E+00 0.  1.
         15    1    5    5    0    0  0.18191508326E+02  0.24044727149E+02 -0.11491238193E+02  0.32315416801E+02  0.17770000000E+01 0. -1.
        -16    1    5    5    0    0  0.23461164403E+03 -0.17289568088E+02 -0.79178498468E+02  0.24821520360E+03  0.00000000000E+00 0.  1.
          4    1    6    6  502    0 -0.15830892548E+02  0.65248920209E+02 -0.50768026337E+02  0.84175003685E+02  0.00000000000E+00 0. -1.
         -3    1    6    6    0  502 -0.22990932861E+03  0.26824658984E+03 -0.16912496850E+03  0.39168582730E+03  0.00000000000E+00 0.  1.
<mgrwt>
<rscale>  0 0.51542115E+03</rscale>
<asrwt>0</asrwt>
<pdfrwt beam="1">  1        1 0.15834639E+00 0.51542115E+03</pdfrwt>
<pdfrwt beam="2">  1       -2 0.43723562E-01 0.51542115E+03</pdfrwt>
<totfact> 0.65237527E+01</totfact>
</mgrwt>
</event>
<event>
12    3  0.1201947E-007  0.9646018E+03  0.7818608E-02  0.9348244E-01
          1   -1    0    0  501    0  0.00000000000E+00  0.00000000000E+00  0.17122647268E+04  0.17122647268E+04  0.00000000000E+00 0. -1.
         -2   -1    0    0    0  501 -0.00000000000E+00 -0.00000000000E+00 -0.70839101941E+03  0.70839101941E+03  0.00000000000E+00 0.  1.
        -24    2    1    2    0    0 -0.29675455230E+03 -0.83878538218E+03 -0.78267158150E+02  0.89668185040E+03  0.79299502596E+02 0.  0.
    5000000    2    1    2    0    0  0.29675455230E+03  0.83878538218E+03  0.10821408655E+04  0.15239738958E+04  0.59986948629E+03 0.  0.
        -24    2    4    4    0    0 -0.12638617414E+03  0.43376207592E+03  0.31978431670E+03  0.55939583682E+03  0.80862163734E+02 0.  0.
         24    2    4    4    0    0  0.42314072643E+03  0.40502330626E+03  0.76235654883E+03  0.96457805899E+03  0.78303073713E+02 0.  0.
         11    1    3    3    0    0 -0.19453943111E+03 -0.57984792761E+03 -0.89215562408E+02  0.61808464306E+03  0.00000000000E+00 0. -1.
        -12    1    3    3    0    0 -0.10221512118E+03 -0.25893745457E+03  0.10948404258E+02  0.27859720733E+03  0.00000000000E+00 0.  1.
         15    1    5    5    0    0 -0.82361198414E+02  0.21333772899E+03  0.20444748736E+03  0.30675443995E+03  0.17770000000E+01 0. -1.
        -16    1    5    5    0    0 -0.44024975723E+02  0.22042434694E+03  0.11533682934E+03  0.25264139687E+03  0.00000000000E+00 0.  1.
          2    1    6    6  502    0  0.23786834272E+03  0.22722621953E+03  0.49074630580E+03  0.59080033849E+03  0.00000000000E+00 0. -1.
         -1    1    6    6    0  502  0.18527238372E+03  0.17779708673E+03  0.27161024304E+03  0.37377772050E+03  0.00000000000E+00 0.  1.
<mgrwt>
<rscale>  0 0.96460180E+03</rscale>
<asrwt>0</asrwt>
<pdfrwt beam="1">  1        1 0.26342534E+00 0.96460180E+03</pdfrwt>
<pdfrwt beam="2">  1       -2 0.10898323E+00 0.96460180E+03</pdfrwt>
<totfact> 0.27745424E+00</totfact>
</mgrwt>
</event>
<event>
12    3  0.1201947E-007  0.7743063E+03  0.7818608E-02  0.9597971E-01
          1   -1    0    0  501    0  0.00000000000E+00  0.00000000000E+00  0.43353963371E+03  0.43353963371E+03  0.00000000000E+00 0. -1.
         -2   -1    0    0    0  501 -0.00000000000E+00 -0.00000000000E+00 -0.15401087903E+04  0.15401087903E+04  0.00000000000E+00 0.  1.
        -24    2    1    2    0    0  0.65731529804E+03  0.23236511790E+03 -0.35785082358E+03  0.78761475990E+03  0.78885036704E+02 0.  0.
    5000000    2    1    2    0    0 -0.65731529804E+03 -0.23236511790E+03 -0.74871833305E+03  0.11860336641E+04  0.60003313341E+03 0.  0.
        -24    2    4    4    0    0 -0.18097030507E+03  0.14675915474E+03 -0.41840256332E+02  0.24990588223E+03  0.80086466447E+02 0.  0.
         24    2    4    4    0    0 -0.47634499298E+03 -0.37912427264E+03 -0.70687807672E+03  0.93612778192E+03  0.77581198054E+02 0.  0.
         11    1    3    3    0    0  0.18040072537E+03  0.91733882259E+02 -0.13108626621E+03  0.24112887852E+03  0.00000000000E+00 0. -1.
        -12    1    3    3    0    0  0.47691457268E+03  0.14063123564E+03 -0.22676455738E+03  0.54648588138E+03  0.00000000000E+00 0.  1.
         15    1    5    5    0    0 -0.51987575680E+02  0.12877473225E+02  0.14744538155E+02  0.55579640843E+02  0.17770000000E+01 0. -1.
        -16    1    5    5    0    0 -0.12898272939E+03  0.13388168151E+03 -0.56584794487E+02  0.19432624139E+03  0.00000000000E+00 0.  1.
          2    1    6    6  502    0 -0.17294884504E+03 -0.15598510396E+03 -0.32443576082E+03  0.39937603653E+03  0.00000000000E+00 0. -1.
         -1    1    6    6    0  502 -0.30339614794E+03 -0.22313916868E+03 -0.38244231590E+03  0.53675174539E+03  0.00000000000E+00 0.  1.
<mgrwt>
<rscale>  0 0.77430632E+03</rscale>
<asrwt>0</asrwt>
<pdfrwt beam="1">  1        1 0.66698406E-01 0.77430632E+03</pdfrwt>
<pdfrwt beam="2">  1       -2 0.23693981E+00 0.77430632E+03</pdfrwt>
<totfact> 0.37473375E+00</totfact>
</mgrwt>
</event>
<event>
12    3  0.1201947E-007  0.3768969E+03  0.7818608E-02  0.1052087E+00
          1   -1    0    0  501    0  0.00000000000E+00  0.00000000000E+00  0.38754563713E+03  0.38754563713E+03  0.00000000000E+00 0. -1.
         -2   -1    0    0    0  501 -0.00000000000E+00 -0.00000000000E+00 -0.14672675250E+04  0.14672675250E+04  0.00000000000E+00 0.  1.
        -24    2    1    2    0    0  0.35673686763E+03  0.11349860814E+03 -0.10812643072E+04  0.11470718778E+04  0.80611810970E+02 0.  0.
    5000000    2    1    2    0    0 -0.35673686763E+03 -0.11349860814E+03  0.15424192632E+01  0.70774128438E+03  0.60062652271E+03 0.  0.
        -24    2    4    4    0    0 -0.95142039076E+02 -0.28532196272E+02  0.28068329059E+03  0.30784024817E+03  0.78207512126E+02 0.  0.
         24    2    4    4    0    0 -0.26159482855E+03 -0.84966411868E+02 -0.27914087132E+03  0.39990103621E+03  0.79687309206E+02 0.  0.
         13    1    3    3    0    0  0.10993842489E+03  0.33009439598E+02 -0.45239287832E+03  0.46672839717E+03  0.00000000000E+00 0. -1.
        -14    1    3    3    0    0  0.24679844274E+03  0.80489168542E+02 -0.62887142887E+03  0.68034348063E+03  0.00000000000E+00 0.  1.
         15    1    5    5    0    0 -0.76352725134E+02 -0.93162570801E+01  0.10532291256E+03  0.13043237681E+03  0.17770000000E+01 0. -1.
        -16    1    5    5    0    0 -0.18789313942E+02 -0.19215939192E+02  0.17536037802E+03  0.17740787135E+03  0.00000000000E+00 0.  1.
          4    1    6    6  502    0 -0.22020680836E+03 -0.64692226799E+02 -0.18392000131E+03  0.29411339572E+03  0.00000000000E+00 0. -1.
         -3    1    6    6    0  502 -0.41388020188E+02 -0.20274185069E+02 -0.95220870013E+02  0.10578764049E+03  0.00000000000E+00 0.  1.
<mgrwt>
<rscale>  0 0.37689691E+03</rscale>
<asrwt>0</asrwt>
<pdfrwt beam="1">  1        1 0.59622404E-01 0.37689691E+03</pdfrwt>
<pdfrwt beam="2">  1       -2 0.22573347E+00 0.37689691E+03</pdfrwt>
<totfact> 0.54460442E+00</totfact>
</mgrwt>
</event>
<event>
12    3  0.1201947E-007  0.5495359E+03  0.7818608E-02  0.1001601E+00
         -2   -1    0    0    0  501 -0.00000000000E+00  0.00000000000E+00  0.16706000685E+03  0.16706000685E+03  0.00000000000E+00 0.  1.
          1   -1    0    0  501    0  0.00000000000E+00 -0.00000000000E+00 -0.21572487397E+04  0.21572487397E+04  0.00000000000E+00 0. -1.
        -24    2    1    2    0    0 -0.76948414036E+01 -0.41961994194E+03 -0.10428124189E+04  0.11269613240E+04  0.80274394528E+02 0.  0.
    5000000    2    1    2    0    0  0.76948414036E+01  0.41961994194E+03 -0.94737631390E+03  0.11973474226E+04  0.59998238631E+03 0.  0.
        -24    2    4    4    0    0 -0.16582610714E+02 -0.12566633692E+03 -0.36853163277E+03  0.39770413100E+03  0.79284300129E+02 0.  0.
         24    2    4    4    0    0  0.24277452118E+02  0.54528627886E+03 -0.57884468113E+03  0.79964329155E+03  0.80260253259E+02 0.  0.
         11    1    3    3    0    0 -0.18831078762E+02 -0.17164511747E+03 -0.52621830829E+03  0.55382521056E+03  0.00000000000E+00 0. -1.
        -12    1    3    3    0    0  0.11136237358E+02 -0.24797482447E+03 -0.51659411066E+03  0.57313611343E+03  0.00000000000E+00 0.  1.
         15    1    5    5    0    0 -0.21523924429E+02 -0.71096647412E+02 -0.30447168570E+03  0.31340736705E+03  0.17770000000E+01 0. -1.
        -16    1    5    5    0    0  0.49413137147E+01 -0.54569689507E+02 -0.64059947071E+02  0.84296763953E+02  0.00000000000E+00 0.  1.
          2    1    6    6  502    0 -0.18166228000E+02  0.90066730809E+02 -0.69515776518E+02  0.11521489063E+03  0.00000000000E+00 0. -1.
         -1    1    6    6    0  502  0.42443680117E+02  0.45521954805E+03 -0.50932890461E+03  0.68442840092E+03  0.00000000000E+00 0.  1.
<mgrwt>
<rscale>  0 0.54953587E+03</rscale>
<asrwt>0</asrwt>
<pdfrwt beam="1">  1        1 0.33188443E+00 0.54953587E+03</pdfrwt>
<pdfrwt beam="2">  1       -2 0.25701539E-01 0.54953587E+03</pdfrwt>
<totfact> 0.29846581E+01</totfact>
</mgrwt>
</event>
<event>
12    3  0.1201947E-007  0.6181033E+03  0.7818608E-02  0.9868543E-01
         -4   -1    0    0    0  501 -0.00000000000E+00  0.00000000000E+00  0.88964920583E+03  0.88964920583E+03  0.00000000000E+00 0.  1.
          3   -1    0    0  501    0  0.00000000000E+00 -0.00000000000E+00 -0.49631428161E+03  0.49631428161E+03  0.00000000000E+00 0. -1.
        -24    2    1    2    0    0  0.37807621667E+03  0.32879696517E+03  0.32119572175E+03  0.60073908607E+03  0.81680401181E+02 0.  0.
    5000000    2    1    2    0    0 -0.37807621667E+03 -0.32879696517E+03  0.72139202464E+02  0.78522440138E+03  0.60027012758E+03 0.  0.
        -24    2    4    4    0    0 -0.11832826308E+02 -0.35759538891E+03 -0.96878344805E+02  0.37564799741E+03  0.60922297391E+02 0.  0.
         24    2    4    4    0    0 -0.36624339037E+03  0.28798423736E+02  0.16901754727E+03  0.40957640397E+03  0.64979452186E+02 0.  0.
         13    1    3    3    0    0  0.25982609108E+03  0.26481856173E+03  0.25991467907E+03  0.45298356332E+03  0.00000000000E+00 0. -1.
        -14    1    3    3    0    0  0.11825012560E+03  0.63978403442E+02  0.61281042682E+02  0.14775552275E+03  0.00000000000E+00 0.  1.
         15    1    5    5    0    0  0.56057678897E+01 -0.16342422043E+03 -0.73535183730E+02  0.17930276470E+03  0.17770000000E+01 0. -1.
        -16    1    5    5    0    0 -0.17438594197E+02 -0.19417116848E+03 -0.23343161075E+02  0.19634523270E+03  0.00000000000E+00 0.  1.
          4    1    6    6  502    0 -0.29688376322E+03 -0.75773484058E+00  0.12380687046E+03  0.32166548493E+03  0.00000000000E+00 0. -1.
         -3    1    6    6    0  502 -0.69359627147E+02  0.29556158577E+02  0.45210676812E+02  0.87910919035E+02  0.00000000000E+00 0.  1.
<mgrwt>
<rscale>  0 0.61810334E+03</rscale>
<asrwt>0</asrwt>
<pdfrwt beam="1">  1        3 0.76356043E-01 0.61810334E+03</pdfrwt>
<pdfrwt beam="2">  1       -4 0.13686911E+00 0.61810334E+03</pdfrwt>
<totfact> 0.13846470E+00</totfact>
</mgrwt>
</event>
<event>
12    3  0.1201947E-007  0.7790369E+03  0.7818608E-02  0.9590866E-01
          1   -1    0    0  501    0  0.00000000000E+00  0.00000000000E+00  0.68275932164E+03  0.68275932164E+03  0.00000000000E+00 0. -1.
         -2   -1    0    0    0  501 -0.00000000000E+00 -0.00000000000E+00 -0.94436545683E+03  0.94436545683E+03  0.00000000000E+00 0.  1.
        -24    2    1    2    0    0 -0.70606484687E+02 -0.66502802101E+03  0.52201741396E+02  0.67544756868E+03  0.79100264308E+02 0.  0.
    5000000    2    1    2    0    0  0.70606484687E+02  0.66502802101E+03 -0.31380787659E+03  0.95167720979E+03  0.59997215253E+03 0.  0.
        -24    2    4    4    0    0  0.27297502314E+03  0.11860989042E+03 -0.14223345184E+03  0.33929440915E+03  0.79414557182E+02 0.  0.
         24    2    4    4    0    0 -0.20236853845E+03  0.54641813060E+03 -0.17157442475E+03  0.61238280064E+03  0.77776040608E+02 0.  0.
         13    1    3    3    0    0  0.46932744827E+01 -0.26081522583E+03  0.41528116978E+02  0.26414237326E+03  0.00000000000E+00 0. -1.
        -14    1    3    3    0    0 -0.75299759170E+02 -0.40421279519E+03  0.10673624418E+02  0.41130519542E+03  0.00000000000E+00 0.  1.
         15    1    5    5    0    0  0.15469017427E+03  0.40196512672E+02 -0.41119559013E+02  0.16504176898E+03  0.17770000000E+01 0. -1.
        -16    1    5    5    0    0  0.11828484887E+03  0.78413377746E+02 -0.10111389282E+03  0.17425264017E+03  0.00000000000E+00 0.  1.
          2    1    6    6  502    0 -0.87911224351E+02  0.29959732160E+03 -0.58048318665E+02  0.31757919607E+03  0.00000000000E+00 0. -1.
         -1    1    6    6    0  502 -0.11445731410E+03  0.24682080900E+03 -0.11352610609E+03  0.29480360457E+03  0.00000000000E+00 0.  1.
<mgrwt>
<rscale>  0 0.77903688E+03</rscale>
<asrwt>0</asrwt>
<pdfrwt beam="1">  1        1 0.10503990E+00 0.77903688E+03</pdfrwt>
<pdfrwt beam="2">  1       -2 0.14528699E+00 0.77903688E+03</pdfrwt>
<totfact> 0.82239697E+00</totfact>
</mgrwt>
</event>
<event>
12    3  0.1201947E-007  0.5907395E+03  0.7818608E-02  0.9924807E-01
         -2   -1    0    0    0  501 -0.00000000000E+00  0.00000000000E+00  0.52192801749E+03  0.52192801749E+03  0.00000000000E+00 0.  1.
          1   -1    0    0  501    0  0.00000000000E+00 -0.00000000000E+00 -0.12381603359E+04  0.12381603359E+04  0.00000000000E+00 0. -1.
        -24    2    1    2    0    0  0.40062615343E+03 -0.25757582942E+03  0.23670122193E+03  0.53773250518E+03  0.79260052640E+02 0.  0.
    5000000    2    1    2    0    0 -0.40062615343E+03  0.25757582942E+03 -0.95293354029E+03  0.12223558482E+04  0.59935370578E+03 0.  0.
        -24    2    4    4    0    0 -0.10103586835E+02  0.29411486698E+03 -0.65816802922E+03  0.72535295438E+03  0.79662514966E+02 0.  0.
         24    2    4    4    0    0 -0.39052256660E+03 -0.36539037559E+02 -0.29476551107E+03  0.49700289379E+03  0.79260290400E+02 0.  0.
         13    1    3    3    0    0  0.86377169231E+02 -0.48249959643E+02  0.86326403826E+02  0.13130621450E+03  0.00000000000E+00 0. -1.
        -14    1    3    3    0    0  0.31424898420E+03 -0.20932586978E+03  0.15037481811E+03  0.40642629067E+03  0.00000000000E+00 0.  1.
         15    1    5    5    0    0 -0.37799514792E+02  0.75420448517E+02 -0.18854858074E+03  0.20656904996E+03  0.17770000000E+01 0. -1.
        -16    1    5    5    0    0  0.27695927957E+02  0.21869441846E+03 -0.46961944848E+03  0.51878390442E+03  0.00000000000E+00 0.  1.
          4    1    6    6  502    0 -0.30242754421E+03  0.55969305517E+01 -0.22514525174E+03  0.37707310897E+03  0.00000000000E+00 0. -1.
         -3    1    6    6    0  502 -0.88095022390E+02 -0.42135968111E+02 -0.69620259333E+02  0.11992978482E+03  0.00000000000E+00 0.  1.
<mgrwt>
<rscale>  0 0.59073949E+03</rscale>
<asrwt>0</asrwt>
<pdfrwt beam="1">  1        1 0.19048621E+00 0.59073949E+03</pdfrwt>
<pdfrwt beam="2">  1       -2 0.80296618E-01 0.59073949E+03</pdfrwt>
<totfact> 0.12658091E+01</totfact>
</mgrwt>
</event>
<event>
12    3  0.1201947E-007  0.5651572E+03  0.7818608E-02  0.9980453E-01
         -2   -1    0    0    0  501 -0.00000000000E+00  0.00000000000E+00  0.26073914352E+03  0.26073914352E+03  0.00000000000E+00 0.  1.
          1   -1    0    0  501    0  0.00000000000E+00 -0.00000000000E+00 -0.21214458423E+04  0.21214458423E+04  0.00000000000E+00 0. -1.
        -24    2    1    2    0    0 -0.42140167740E+03 -0.25072375541E+03 -0.17445108653E+03  0.52643797960E+03  0.79132733641E+02 0.  0.
    5000000    2    1    2    0    0  0.42140167740E+03  0.25072375541E+03 -0.16862556123E+04  0.18557470062E+04  0.59991431557E+03 0.  0.
        -24    2    4    4    0    0  0.18428684625E+03  0.32337361621E+03 -0.14658438929E+04  0.15144298440E+04  0.79166258739E+02 0.  0.
         24    2    4    4    0    0  0.23711483115E+03 -0.72649860802E+02 -0.22041171932E+03  0.34131716225E+03  0.80091409067E+02 0.  0.
         13    1    3    3    0    0 -0.13742623919E+03 -0.12470719380E+03 -0.54577219474E+02  0.19343352422E+03  0.00000000000E+00 0. -1.
        -14    1    3    3    0    0 -0.28397543821E+03 -0.12601656160E+03 -0.11987386705E+03  0.33300445538E+03  0.00000000000E+00 0.  1.
         15    1    5    5    0    0  0.16606824528E+03  0.24019097730E+03 -0.12120458083E+04  0.12467271421E+04  0.17770000000E+01 0. -1.
        -16    1    5    5    0    0  0.18218600969E+02  0.83182638906E+02 -0.25379808461E+03  0.26770270187E+03  0.00000000000E+00 0.  1.
          2    1    6    6  502    0  0.17653748152E+03 -0.21953832804E+02 -0.17800985975E+03  0.25166438628E+03  0.00000000000E+00 0. -1.
         -1    1    6    6    0  502  0.60577349633E+02 -0.50696027999E+02 -0.42401859571E+02  0.89652775966E+02  0.00000000000E+00 0.  1.
<mgrwt>
<rscale>  0 0.56515722E+03</rscale>
<asrwt>0</asrwt>
<pdfrwt beam="1">  1        1 0.32637629E+00 0.56515722E+03</pdfrwt>
<pdfrwt beam="2">  1       -2 0.40113714E-01 0.56515722E+03</pdfrwt>
<totfact> 0.13678710E+01</totfact>
</mgrwt>
</event>
<event>
12    3  0.1201947E-007  0.6449065E+03  0.7818608E-02  0.9816384E-01
          1   -1    0    0  501    0  0.00000000000E+00  0.00000000000E+00  0.15227558055E+04  0.15227558055E+04  0.00000000000E+00 0. -1.
         -2   -1    0    0    0  501 -0.00000000000E+00 -0.00000000000E+00 -0.48322253641E+03  0.48322253641E+03  0.00000000000E+00 0.  1.
        -24    2    1    2    0    0  0.45697042284E+03 -0.38949952763E+03  0.98295112830E+03  0.11552504494E+04  0.88762778053E+02 0.  0.
    5000000    2    1    2    0    0 -0.45697042284E+03  0.38949952763E+03  0.56582140772E+02  0.85072789251E+03  0.60000379922E+03 0.  0.
        -24    2    4    4    0    0 -0.97814540100E+02  0.27441041289E+03 -0.22177237575E+03  0.37512316266E+03  0.81643380389E+02 0.  0.
         24    2    4    4    0    0 -0.35915588274E+03  0.11508911474E+03  0.27835451652E+03  0.47560472985E+03  0.80499501601E+02 0.  0.
         13    1    3    3    0    0  0.12454063273E+03 -0.77437107084E+02  0.30231923719E+03  0.33601160089E+03  0.00000000000E+00 0. -1.
        -14    1    3    3    0    0  0.33242979010E+03 -0.31206242055E+03  0.68063189111E+03  0.81923884848E+03  0.00000000000E+00 0.  1.
         15    1    5    5    0    0 -0.63381001412E+02  0.69664106262E+02 -0.81456176202E+02  0.12453314985E+03  0.17770000000E+01 0. -1.
        -16    1    5    5    0    0 -0.34433538688E+02  0.20474630663E+03 -0.14031619954E+03  0.25059001281E+03  0.00000000000E+00 0.  1.
          2    1    6    6  502    0 -0.12677448525E+03  0.16229736088E+01  0.83552114821E+02  0.15183991585E+03  0.00000000000E+00 0. -1.
         -1    1    6    6    0  502 -0.23238139748E+03  0.11346614113E+03  0.19480240170E+03  0.32376481400E+03  0.00000000000E+00 0.  1.
<mgrwt>
<rscale>  0 0.64490651E+03</rscale>
<asrwt>0</asrwt>
<pdfrwt beam="1">  1        1 0.23427012E+00 0.64490651E+03</pdfrwt>
<pdfrwt beam="2">  1       -2 0.74341929E-01 0.64490651E+03</pdfrwt>
<totfact> 0.94549171E+00</totfact>
</mgrwt>
</event>
<event>
12    3  0.1201947E-007  0.5978530E+03  0.7818608E-02  0.9909870E-01
          1   -1    0    0  501    0  0.00000000000E+00  0.00000000000E+00  0.18384706311E+04  0.18384706311E+04  0.00000000000E+00 0. -1.
         -2   -1    0    0    0  501 -0.00000000000E+00 -0.00000000000E+00 -0.21838255976E+03  0.21838255976E+03  0.00000000000E+00 0.  1.
        -24    2    1    2    0    0  0.70823547706E+01  0.45393634175E+03  0.92090399311E+03  0.10297518220E+04  0.78843441346E+02 0.  0.
    5000000    2    1    2    0    0 -0.70823547706E+01 -0.45393634175E+03  0.69918407828E+03  0.10271013689E+04  0.59997540334E+03 0.  0.
        -24    2    4    4    0    0 -0.29032698735E+03 -0.22647335526E+03  0.29977502670E+03  0.48101225414E+03  0.76992089030E+02 0.  0.
         24    2    4    4    0    0  0.28324463258E+03 -0.22746298649E+03  0.39940905158E+03  0.54608911478E+03  0.81968278556E+02 0.  0.
         13    1    3    3    0    0 -0.33210057931E+02  0.28191296029E+03  0.55115611062E+03  0.61996038858E+03  0.00000000000E+00 0. -1.
        -14    1    3    3    0    0  0.40292412702E+02  0.17202338146E+03  0.36974788249E+03  0.40979143341E+03  0.00000000000E+00 0.  1.
         15    1    5    5    0    0 -0.10892291663E+03 -0.10811590220E+03  0.82643067380E+02  0.17431662110E+03  0.17770000000E+01 0. -1.
        -16    1    5    5    0    0 -0.18140407072E+03 -0.11835745306E+03  0.21713195932E+03  0.30669563304E+03  0.00000000000E+00 0.  1.
          4    1    6    6  502    0  0.81218850340E+02 -0.87039485929E+02  0.18359689342E+03  0.21881543144E+03  0.00000000000E+00 0. -1.
         -3    1    6    6    0  502  0.20202578224E+03 -0.14042350056E+03  0.21581215816E+03  0.32727368334E+03  0.00000000000E+00 0.  1.
<mgrwt>
<rscale>  0 0.59785299E+03</rscale>
<asrwt>0</asrwt>
<pdfrwt beam="1">  1        1 0.28284163E+00 0.59785299E+03</pdfrwt>
<pdfrwt beam="2">  1       -2 0.33597318E-01 0.59785299E+03</pdfrwt>
<totfact> 0.29430990E+01</totfact>
</mgrwt>
</event>
<event>
12    3  0.1201947E-007  0.1059147E+04  0.7818608E-02  0.9245951E-01
         -2   -1    0    0    0  501 -0.00000000000E+00  0.00000000000E+00  0.78181605804E+03  0.78181605804E+03  0.00000000000E+00 0.  1.
          1   -1    0    0  501    0  0.00000000000E+00 -0.00000000000E+00 -0.14669433158E+04  0.14669433158E+04  0.00000000000E+00 0. -1.
        -24    2    1    2    0    0  0.27073964508E+03  0.94608757772E+03 -0.36101936630E+03  0.10513806791E+04  0.81759949491E+02 0.  0.
    5000000    2    1    2    0    0 -0.27073964508E+03 -0.94608757772E+03 -0.32410789142E+03  0.11973786947E+04  0.60024007960E+03 0.  0.
        -24    2    4    4    0    0  0.10730139649E+03 -0.78990730733E+01 -0.65047455159E+01  0.13407853630E+03  0.79741815502E+02 0.  0.
         24    2    4    4    0    0 -0.37804104157E+03 -0.93818850465E+03 -0.31760314591E+03  0.10633001584E+04  0.81380398377E+02 0.  0.
         13    1    3    3    0    0  0.16881728841E+03  0.62334852374E+03 -0.19632481431E+03  0.67498599366E+03  0.00000000000E+00 0. -1.
        -14    1    3    3    0    0  0.10192235667E+03  0.32273905398E+03 -0.16469455199E+03  0.37639468541E+03  0.00000000000E+00 0.  1.
         15    1    5    5    0    0  0.58362700980E+01 -0.17994212820E+02 -0.24012355774E+02  0.30620331521E+02  0.17770000000E+01 0. -1.
        -16    1    5    5    0    0  0.10146512639E+03  0.10095139747E+02  0.17507610258E+02  0.10345820478E+03  0.00000000000E+00 0.  1.
          2    1    6    6  502    0 -0.21856110000E+03 -0.61491556714E+03 -0.23377402375E+03  0.69321021582E+03  0.00000000000E+00 0. -1.
         -1    1    6    6    0  502 -0.15947994157E+03 -0.32327293751E+03 -0.83829122159E+02  0.37008994260E+03  0.00000000000E+00 0.  1.
<mgrwt>
<rscale>  0 0.10591470E+04</rscale>
<asrwt>0</asrwt>
<pdfrwt beam="1">  1        1 0.22568359E+00 0.10591470E+04</pdfrwt>
<pdfrwt beam="2">  1       -2 0.12027939E+00 0.10591470E+04</pdfrwt>
<totfact> 0.31707407E+00</totfact>
</mgrwt>
</event>
<event>
12    3  0.1201947E-007  0.4321237E+03  0.7818608E-02  0.1033191E+00
         -4   -1    0    0    0  501 -0.00000000000E+00  0.00000000000E+00  0.12310349884E+04  0.12310349884E+04  0.00000000000E+00 0.  1.
          3   -1    0    0  501    0  0.00000000000E+00 -0.00000000000E+00 -0.46209166889E+03  0.46209166889E+03  0.00000000000E+00 0. -1.
        -24    2    1    2    0    0  0.37665417617E+03  0.62186327750E+01 -0.24474931607E+03  0.45646861736E+03  0.80958823452E+02 0.  0.
    5000000    2    1    2    0    0 -0.37665417617E+03 -0.62186327750E+01  0.10136926356E+04  0.12366580400E+04  0.59986940953E+03 0.  0.
        -24    2    4    4    0    0  0.22532611246E+01  0.63393243154E+02 -0.41271975226E+02  0.11081872055E+03  0.80954508344E+02 0.  0.
         24    2    4    4    0    0 -0.37890743730E+03 -0.69611875929E+02  0.10549646108E+04  0.11258393194E+04  0.78403977655E+02 0.  0.
         11    1    3    3    0    0  0.22621001928E+03 -0.10764688683E+02 -0.10197283933E+03  0.24836527798E+03  0.00000000000E+00 0. -1.
        -12    1    3    3    0    0  0.15044415689E+03  0.16983321458E+02 -0.14277647674E+03  0.20810333938E+03  0.00000000000E+00 0.  1.
         15    1    5    5    0    0  0.40324311867E+02  0.35835161630E+02 -0.11509541196E+02  0.55189094975E+02  0.17770000000E+01 0. -1.
        -16    1    5    5    0    0 -0.38071050742E+02  0.27558081524E+02 -0.29762434030E+02  0.55629625572E+02  0.00000000000E+00 0.  1.
          2    1    6    6  502    0 -0.94354309534E+02 -0.22214765349E+02  0.37260916370E+03  0.38501145490E+03  0.00000000000E+00 0. -1.
         -1    1    6    6    0  502 -0.28455312776E+03 -0.47397110580E+02  0.68235544713E+03  0.74082786451E+03  0.00000000000E+00 0.  1.
<mgrwt>
<rscale>  0 0.43212373E+03</rscale>
<asrwt>0</asrwt>
<pdfrwt beam="1">  1        3 0.71091026E-01 0.43212373E+03</pdfrwt>
<pdfrwt beam="2">  1       -4 0.18939000E+00 0.43212373E+03</pdfrwt>
<totfact> 0.67253445E-01</totfact>
</mgrwt>
</event>
<event>
12    3  0.1201947E-007  0.7173088E+03  0.7818608E-02  0.9688081E-01
         -2   -1    0    0    0  501 -0.00000000000E+00  0.00000000000E+00  0.11251529870E+04  0.11251529870E+04  0.00000000000E+00 0.  1.
          1   -1    0    0  501    0  0.00000000000E+00 -0.00000000000E+00 -0.49198832567E+03  0.49198832567E+03  0.00000000000E+00 0. -1.
        -24    2    1    2    0    0  0.15132176294E+03 -0.58937775121E+03  0.13533966608E+03  0.62818359466E+03  0.77674924044E+02 0.  0.
    5000000    2    1    2    0    0 -0.15132176294E+03  0.58937775121E+03  0.49782499526E+03  0.98895771801E+03  0.59995269193E+03 0.  0.
        -24    2    4    4    0    0 -0.27722889155E+03  0.62458790036E+03  0.33436665482E+03  0.76505037780E+03  0.80840071258E+02 0.  0.
         24    2    4    4    0    0  0.12590712861E+03 -0.35210149151E+02  0.16345834044E+03  0.22390734022E+03  0.79520489860E+02 0.  0.
         11    1    3    3    0    0  0.51253157090E+02 -0.24838256645E+03  0.19323609521E+02  0.25435052057E+03  0.00000000000E+00 0. -1.
        -12    1    3    3    0    0  0.10006860585E+03 -0.34099518476E+03  0.11601605656E+03  0.37383307409E+03  0.00000000000E+00 0.  1.
         15    1    5    5    0    0 -0.10177163217E+03  0.19581956732E+03  0.14781151648E+03  0.26562034974E+03  0.17770000000E+01 0. -1.
        -16    1    5    5    0    0 -0.17545725937E+03  0.42876833304E+03  0.18655513834E+03  0.49943002806E+03  0.00000000000E+00 0.  1.
          4    1    6    6  502    0  0.40564778784E+02 -0.38939869753E+02  0.25727259684E+02  0.61836127183E+02  0.00000000000E+00 0. -1.
         -3    1    6    6    0  502  0.85342349826E+02  0.37297206020E+01  0.13773108075E+03  0.16207121304E+03  0.00000000000E+00 0.  1.
<mgrwt>
<rscale>  0 0.71730881E+03</rscale>
<asrwt>0</asrwt>
<pdfrwt beam="1">  1        1 0.75690512E-01 0.71730881E+03</pdfrwt>
<pdfrwt beam="2">  1       -2 0.17310046E+00 0.71730881E+03</pdfrwt>
<totfact> 0.82372371E+00</totfact>
</mgrwt>
</event>
<event>
12    3  0.1201947E-007  0.7975522E+03  0.7818608E-02  0.9563567E-01
         -2   -1    0    0    0  501 -0.00000000000E+00  0.00000000000E+00  0.15027566511E+04  0.15027566511E+04  0.00000000000E+00 0.  1.
          1   -1    0    0  501    0  0.00000000000E+00 -0.00000000000E+00 -0.17572162422E+04  0.17572162422E+04  0.00000000000E+00 0. -1.
        -24    2    1    2    0    0 -0.71005958088E+03 -0.29713898019E+03 -0.14940821172E+04  0.16822713275E+04  0.72658547959E+02 0.  0.
    5000000    2    1    2    0    0  0.71005958088E+03  0.29713898019E+03  0.12396225260E+04  0.15777015658E+04  0.60000170144E+03 0.  0.
        -24    2    4    4    0    0  0.13120217717E+03  0.16567178220E+03  0.29851904959E+02  0.22777261040E+03  0.79549199307E+02 0.  0.
         24    2    4    4    0    0  0.57885740371E+03  0.13146719799E+03  0.12097706211E+04  0.13499289554E+04  0.80023190535E+02 0.  0.
         11    1    3    3    0    0 -0.56934822298E+03 -0.21122119447E+03 -0.11386519400E+04  0.12904650450E+04  0.00000000000E+00 0. -1.
        -12    1    3    3    0    0 -0.14071135790E+03 -0.85917785716E+02 -0.35543017720E+03  0.39180628250E+03  0.00000000000E+00 0.  1.
         15    1    5    5    0    0  0.17006360435E+02  0.80479043369E+02  0.34383928877E+00  0.82276173168E+02  0.17770000000E+01 0. -1.
        -16    1    5    5    0    0  0.11419581673E+03  0.85192738826E+02  0.29508065670E+02  0.14549643723E+03  0.00000000000E+00 0.  1.
          2    1    6    6  502    0  0.57214741308E+02 -0.91907596666E+01  0.13837641600E+03  0.15002009596E+03  0.00000000000E+00 0. -1.
         -1    1    6    6    0  502  0.52164266240E+03  0.14065795766E+03  0.10713942051E+04  0.11999088594E+04  0.00000000000E+00 0.  1.
<mgrwt>
<rscale>  0 0.79755216E+03</rscale>
<asrwt>0</asrwt>
<pdfrwt beam="1">  1        1 0.27034096E+00 0.79755216E+03</pdfrwt>
<pdfrwt beam="2">  1       -2 0.23119333E+00 0.79755216E+03</pdfrwt>
<totfact> 0.33475961E-01</totfact>
</mgrwt>
</event>
<event>
12    3  0.1201947E-007  0.5639010E+03  0.7818608E-02  0.9983266E-01
         -2   -1    0    0    0  501 -0.00000000000E+00  0.00000000000E+00  0.87739670687E+03  0.87739670687E+03  0.00000000000E+00 0.  1.
          1   -1    0    0  501    0  0.00000000000E+00 -0.00000000000E+00 -0.42821547910E+03  0.42821547910E+03  0.00000000000E+00 0. -1.
        -24    2    1    2    0    0 -0.27796313588E+03  0.29856028598E+03 -0.59123191355E+02  0.41975933984E+03  0.79376333750E+02 0.  0.
    5000000    2    1    2    0    0  0.27796313588E+03 -0.29856028598E+03  0.50830441913E+03  0.88585284613E+03  0.59996677677E+03 0.  0.
        -24    2    4    4    0    0 -0.17400232575E+03 -0.11751195834E+03  0.10152440961E+03  0.24627404812E+03  0.79106455564E+02 0.  0.
         24    2    4    4    0    0  0.45196546162E+03 -0.18104832764E+03  0.40678000952E+03  0.63957879802E+03  0.80868951321E+02 0.  0.
         13    1    3    3    0    0 -0.25102164119E+03  0.23629925031E+03 -0.30379377560E+02  0.34608106944E+03  0.00000000000E+00 0. -1.
        -14    1    3    3    0    0 -0.26941494687E+02  0.62261035663E+02 -0.28743813795E+02  0.73678270401E+02  0.00000000000E+00 0.  1.
         15    1    5    5    0    0 -0.88983651724E+02 -0.15870908448E+02  0.27532502895E+02  0.94504880582E+02  0.17770000000E+01 0. -1.
        -16    1    5    5    0    0 -0.85018674023E+02 -0.10164104989E+03  0.73991906716E+02  0.15176916754E+03  0.00000000000E+00 0.  1.
          4    1    6    6  502    0  0.14474523725E+03 -0.22180442156E+02  0.10061836255E+03  0.17767163702E+03  0.00000000000E+00 0. -1.
         -3    1    6    6    0  502  0.30722022438E+03 -0.15886788549E+03  0.30616164697E+03  0.46190716099E+03  0.00000000000E+00 0.  1.
<mgrwt>
<rscale>  0 0.56390104E+03</rscale>
<asrwt>0</asrwt>
<pdfrwt beam="1">  1        1 0.65879305E-01 0.56390104E+03</pdfrwt>
<pdfrwt beam="2">  1       -2 0.13498411E+00 0.56390104E+03</pdfrwt>
<totfact> 0.19581084E+01</totfact>
</mgrwt>
</event>
<event>
12    3  0.1201947E-007  0.8356288E+03  0.7818608E-02  0.9509831E-01
         -2   -1    0    0    0  501 -0.00000000000E+00  0.00000000000E+00  0.56806759928E+03  0.56806759928E+03  0.00000000000E+00 0.  1.
          1   -1    0    0  501    0  0.00000000000E+00 -0.00000000000E+00 -0.13332235149E+04  0.13332235149E+04  0.00000000000E+00 0. -1.
        -24    2    1    2    0    0 -0.62863411706E+03 -0.42021471882E+03 -0.21499018124E+03  0.79024826599E+03  0.80686311270E+02 0.  0.
    5000000    2    1    2    0    0  0.62863411706E+03  0.42021471882E+03 -0.55016573435E+03  0.11110428482E+04  0.59997717636E+03 0.  0.
        -24    2    4    4    0    0  0.70335033873E+03  0.40522698875E+03 -0.36081476289E+03  0.89192778710E+03  0.80232617297E+02 0.  0.
         24    2    4    4    0    0 -0.74716221669E+02  0.14987730068E+02 -0.18935097146E+03  0.21911506106E+03  0.79689859819E+02 0.  0.
         13    1    3    3    0    0 -0.31185124746E+03 -0.24071782036E+03 -0.80424702956E+02  0.40207512038E+03  0.00000000000E+00 0. -1.
        -14    1    3    3    0    0 -0.31678286960E+03 -0.17949689846E+03 -0.13456547829E+03  0.38817314562E+03  0.00000000000E+00 0.  1.
         15    1    5    5    0    0  0.49526086149E+03  0.28982460064E+03 -0.29407317297E+03  0.64479749445E+03  0.17770000000E+01 0. -1.
        -16    1    5    5    0    0  0.20808947724E+03  0.11540238811E+03 -0.66741589918E+02  0.24713029265E+03  0.00000000000E+00 0.  1.
          4    1    6    6  502    0 -0.34827116848E+02  0.41006477042E+02 -0.14245990282E+03  0.15228027823E+03  0.00000000000E+00 0. -1.
         -3    1    6    6    0  502 -0.39889104820E+02 -0.26018746974E+02 -0.46891068640E+02  0.66834782828E+02  0.00000000000E+00 0.  1.
<mgrwt>
<rscale>  0 0.83562880E+03</rscale>
<asrwt>0</asrwt>
<pdfrwt beam="1">  1        1 0.20511131E+00 0.83562880E+03</pdfrwt>
<pdfrwt beam="2">  1       -2 0.87395015E-01 0.83562880E+03</pdfrwt>
<totfact> 0.86535643E+00</totfact>
</mgrwt>
</event>
<event>
12    3  0.1201947E-007  0.3758587E+03  0.7818608E-02  0.1052475E+00
         -2   -1    0    0    0  501 -0.00000000000E+00  0.00000000000E+00  0.51260079009E+03  0.51260079009E+03  0.00000000000E+00 0.  1.
          1   -1    0    0  501    0  0.00000000000E+00 -0.00000000000E+00 -0.40478488679E+03  0.40478488679E+03  0.00000000000E+00 0. -1.
        -24    2    1    2    0    0 -0.89646570708E+02  0.23181011163E+03  0.43166107214E+02  0.26461802757E+03  0.79918409702E+02 0.  0.
    5000000    2    1    2    0    0  0.89646570708E+02 -0.23181011163E+03  0.64649796084E+02  0.65276764932E+03  0.60012796332E+03 0.  0.
        -24    2    4    4    0    0  0.24745714612E+03 -0.20606170521E+03 -0.15771858396E+03  0.36747753745E+03  0.80424643545E+02 0.  0.
         24    2    4    4    0    0 -0.15781057541E+03 -0.25748406426E+02  0.22236838004E+03  0.28529011186E+03  0.79847312654E+02 0.  0.
         13    1    3    3    0    0 -0.50984076424E+02  0.18644186060E+03  0.40646349086E+01  0.19332993738E+03  0.00000000000E+00 0. -1.
        -14    1    3    3    0    0 -0.38662494285E+02  0.45368251035E+02  0.39101472305E+02  0.71288090189E+02  0.00000000000E+00 0.  1.
         15    1    5    5    0    0  0.48161146942E+02 -0.66904810035E+02 -0.72817024738E+02  0.11000557487E+03  0.17770000000E+01 0. -1.
        -16    1    5    5    0    0  0.19929599918E+03 -0.13915689517E+03 -0.84901559223E+02  0.25747196259E+03  0.00000000000E+00 0.  1.
          2    1    6    6  502    0 -0.98202326000E+02  0.17370928420E+02  0.92445944047E+02  0.13598418495E+03  0.00000000000E+00 0. -1.
         -1    1    6    6    0  502 -0.59608249409E+02 -0.43119334846E+02  0.12992243600E+03  0.14930592691E+03  0.00000000000E+00 0.  1.
<mgrwt>
<rscale>  0 0.37585868E+03</rscale>
<asrwt>0</asrwt>
<pdfrwt beam="1">  1        1 0.62274597E-01 0.37585868E+03</pdfrwt>
<pdfrwt beam="2">  1       -2 0.78861661E-01 0.37585868E+03</pdfrwt>
<totfact> 0.76984315E+01</totfact>
</mgrwt>
</event>
<event>
12    3  0.1201947E-007  0.7250226E+03  0.7818608E-02  0.9675372E-01
         -2   -1    0    0    0  501 -0.00000000000E+00  0.00000000000E+00  0.40763782647E+03  0.40763782647E+03  0.00000000000E+00 0.  1.
          1   -1    0    0  501    0  0.00000000000E+00 -0.00000000000E+00 -0.13821711382E+04  0.13821711382E+04  0.00000000000E+00 0. -1.
        -24    2    1    2    0    0 -0.18775913073E+03 -0.59227012068E+03 -0.51780455495E+03  0.81270798240E+03  0.79594726681E+02 0.  0.
    5000000    2    1    2    0    0  0.18775913073E+03  0.59227012068E+03 -0.45672875674E+03  0.97710098222E+03  0.60007314987E+03 0.  0.
        -24    2    4    4    0    0  0.26294752208E+03  0.66768154660E+03 -0.33639545832E+03  0.79642056768E+03  0.78636945596E+02 0.  0.
         24    2    4    4    0    0 -0.75188391344E+02 -0.75411425922E+02 -0.12033329842E+03  0.18068041453E+03  0.82614357926E+02 0.  0.
         11    1    3    3    0    0 -0.89679694446E+02 -0.33218724009E+03 -0.23847220390E+03  0.41864042101E+03  0.00000000000E+00 0. -1.
        -12    1    3    3    0    0 -0.98079436289E+02 -0.26008288059E+03 -0.27933235104E+03  0.39406756139E+03  0.00000000000E+00 0.  1.
         15    1    5    5    0    0  0.99834700386E+02  0.32830940091E+03 -0.19144480523E+03  0.39294821708E+03  0.17770000000E+01 0. -1.
        -16    1    5    5    0    0  0.16311282169E+03  0.33937214569E+03 -0.14495065309E+03  0.40347235060E+03  0.00000000000E+00 0.  1.
          4    1    6    6  502    0 -0.37417814604E+02 -0.23767363242E+02 -0.10630697044E+03  0.11517878437E+03  0.00000000000E+00 0. -1.
         -3    1    6    6    0  502 -0.37770576740E+02 -0.51644062680E+02 -0.14026327978E+02  0.65501630162E+02  0.00000000000E+00 0.  1.
<mgrwt>
<rscale>  0 0.72502258E+03</rscale>
<asrwt>0</asrwt>
<pdfrwt beam="1">  1        1 0.21264171E+00 0.72502258E+03</pdfrwt>
<pdfrwt beam="2">  1       -2 0.62713513E-01 0.72502258E+03</pdfrwt>
<totfact> 0.16886753E+01</totfact>
</mgrwt>
</event>
<event>
12    3  0.1201947E-007  0.1272779E+04  0.7818608E-02  0.9051434E-01
          1   -1    0    0  501    0  0.00000000000E+00  0.00000000000E+00  0.14872386833E+04  0.14872386833E+04  0.00000000000E+00 0. -1.
         -2   -1    0    0    0  501 -0.00000000000E+00 -0.00000000000E+00 -0.11067764344E+04  0.11067764344E+04  0.00000000000E+00 0.  1.
        -24    2    1    2    0    0  0.10601801520E+04 -0.58463100393E+03  0.22456991052E+03  0.12338988506E+04  0.79368528814E+02 0.  0.
    5000000    2    1    2    0    0 -0.10601801520E+04  0.58463100393E+03  0.15589233833E+03  0.13601162671E+04  0.59986537955E+03 0.  0.
        -24    2    4    4    0    0 -0.56709787682E+03  0.26579758326E+01  0.15598805267E+03  0.59318240253E+03  0.76980668803E+02 0.  0.
         24    2    4    4    0    0 -0.49308227516E+03  0.58197302810E+03 -0.95714343792E-01  0.76693386461E+03  0.79779746886E+02 0.  0.
         13    1    3    3    0    0  0.41557350324E+03 -0.25388390334E+03  0.12322576681E+03  0.50233749867E+03  0.00000000000E+00 0. -1.
        -14    1    3    3    0    0  0.64460664874E+03 -0.33074710059E+03  0.10134414371E+03  0.73156135191E+03  0.00000000000E+00 0.  1.
         15    1    5    5    0    0 -0.42474980581E+03 -0.22335890753E+02  0.13993429651E+03  0.44776785795E+03  0.17770000000E+01 0. -1.
        -16    1    5    5    0    0 -0.14234807101E+03  0.24993866586E+02  0.16053756162E+02  0.14541454458E+03  0.00000000000E+00 0.  1.
          2    1    6    6  502    0 -0.10034545996E+03  0.90937455459E+02  0.24768229091E+02  0.13766734294E+03  0.00000000000E+00 0. -1.
         -1    1    6    6    0  502 -0.39273681520E+03  0.49103557264E+03 -0.24863943435E+02  0.62926652166E+03  0.00000000000E+00 0.  1.
<mgrwt>
<rscale>  0 0.12727794E+04</rscale>
<asrwt>0</asrwt>
<pdfrwt beam="1">  1        1 0.22880595E+00 0.12727794E+04</pdfrwt>
<pdfrwt beam="2">  1       -2 0.17027330E+00 0.12727794E+04</pdfrwt>
<totfact> 0.12016053E+00</totfact>
</mgrwt>
</event>
<event>
12    3  0.1201947E-007  0.1173494E+04  0.7818608E-02  0.9136379E-01
          1   -1    0    0  501    0  0.00000000000E+00  0.00000000000E+00  0.38450602275E+04  0.38450602275E+04  0.00000000000E+00 0. -1.
         -2   -1    0    0    0  501 -0.00000000000E+00 -0.00000000000E+00 -0.54565907077E+03  0.54565907077E+03  0.00000000000E+00 0.  1.
        -24    2    1    2    0    0 -0.80571412074E+03 -0.84408282818E+03  0.27114778241E+04  0.29529712965E+04  0.79223874727E+02 0.  0.
    5000000    2    1    2    0    0  0.80571412074E+03  0.84408282818E+03  0.58792333264E+03  0.14377480018E+04  0.59984531865E+03 0.  0.
        -24    2    4    4    0    0  0.68068431439E+03  0.65880643385E+03  0.69392711724E+03  0.11769998060E+04  0.80228711209E+02 0.  0.
         24    2    4    4    0    0  0.12502980635E+03  0.18527639433E+03 -0.10600378460E+03  0.26074819577E+03  0.82419806338E+02 0.  0.
         11    1    3    3    0    0 -0.59515704504E+03 -0.57979867632E+03  0.18776528895E+04  0.20532800069E+04  0.00000000000E+00 0. -1.
        -12    1    3    3    0    0 -0.21055707570E+03 -0.26428415186E+03  0.83382493454E+03  0.89969128956E+03  0.00000000000E+00 0.  1.
         15    1    5    5    0    0  0.42787344283E+03  0.36807509864E+03  0.38584251287E+03  0.68369040054E+03  0.17770000000E+01 0. -1.
        -16    1    5    5    0    0  0.25281087156E+03  0.29073133521E+03  0.30808460437E+03  0.49330940544E+03  0.00000000000E+00 0.  1.
          4    1    6    6  502    0  0.12672080651E+03  0.16444802735E+03 -0.69949750186E+02  0.21907597780E+03  0.00000000000E+00 0. -1.
         -3    1    6    6    0  502 -0.16910001577E+01  0.20828366987E+02 -0.36054034417E+02  0.41672217971E+02  0.00000000000E+00 0.  1.
<mgrwt>
<rscale>  0 0.11734938E+04</rscale>
<asrwt>0</asrwt>
<pdfrwt beam="1">  1        1 0.59154771E+00 0.11734938E+04</pdfrwt>
<pdfrwt beam="2">  1       -2 0.83947552E-01 0.11734938E+04</pdfrwt>
<totfact> 0.14410570E-01</totfact>
</mgrwt>
</event>
<event>
12    3  0.1201947E-007  0.1069981E+04  0.7818608E-02  0.9234955E-01
         -2   -1    0    0    0  501 -0.00000000000E+00  0.00000000000E+00  0.89307597931E+03  0.89307597931E+03  0.00000000000E+00 0.  1.
          1   -1    0    0  501    0  0.00000000000E+00 -0.00000000000E+00 -0.14859485675E+04  0.14859485675E+04  0.00000000000E+00 0. -1.
        -24    2    1    2    0    0  0.61305440793E+02  0.10421833004E+04 -0.24160149598E+02  0.10475357928E+04  0.82723248226E+02 0.  0.
    5000000    2    1    2    0    0 -0.61305440793E+02 -0.10421833004E+04 -0.56871243855E+03  0.13314887539E+04  0.59960326497E+03 0.  0.
        -24    2    4    4    0    0 -0.18327329837E+03 -0.63680465529E+03 -0.68014738432E+02  0.67090213190E+03  0.79839808696E+02 0.  0.
         24    2    4    4    0    0  0.12196785758E+03 -0.40537864510E+03 -0.50069770012E+03  0.66058662201E+03  0.80426948823E+02 0.  0.
         11    1    3    3    0    0 -0.17385571663E+02  0.33754404983E+03 -0.18418829289E+02  0.33849297918E+03  0.00000000000E+00 0. -1.
        -12    1    3    3    0    0  0.78691012455E+02  0.70463925055E+03 -0.57413203089E+01  0.70904281367E+03  0.00000000000E+00 0.  1.
         15    1    5    5    0    0 -0.16909827052E+03 -0.46044206327E+03 -0.49973116082E+02  0.49305333260E+03  0.17770000000E+01 0. -1.
        -16    1    5    5    0    0 -0.14175027847E+02 -0.17636259201E+03 -0.18041622350E+02  0.17784879930E+03  0.00000000000E+00 0.  1.
          4    1    6    6  502    0  0.21673554966E+02 -0.14257962634E+03 -0.22111879706E+03  0.26399283180E+03  0.00000000000E+00 0. -1.
         -3    1    6    6    0  502  0.10029430261E+03 -0.26279901875E+03 -0.27957890306E+03  0.39659379021E+03  0.00000000000E+00 0.  1.
<mgrwt>
<rscale>  0 0.10699805E+04</rscale>
<asrwt>0</asrwt>
<pdfrwt beam="1">  1        1 0.22860747E+00 0.10699805E+04</pdfrwt>
<pdfrwt beam="2">  1       -2 0.13739630E+00 0.10699805E+04</pdfrwt>
<totfact> 0.21916869E+00</totfact>
</mgrwt>
</event>
<event>
12    3  0.1201947E-007  0.1597354E+04  0.7818608E-02  0.8822175E-01
          1   -1    0    0  501    0  0.00000000000E+00  0.00000000000E+00  0.16064717703E+04  0.16064717703E+04  0.00000000000E+00 0. -1.
         -2   -1    0    0    0  501 -0.00000000000E+00 -0.00000000000E+00 -0.17019580717E+04  0.17019580717E+04  0.00000000000E+00 0.  1.
        -24    2    1    2    0    0 -0.14443484677E+04  0.56479648566E+03  0.34022667731E+03  0.15894227071E+04  0.73299275117E+02 0.  0.
    5000000    2    1    2    0    0  0.14443484677E+04 -0.56479648566E+03 -0.43571297871E+03  0.17190071349E+04  0.60000180314E+03 0.  0.
        -24    2    4    4    0    0  0.17042567033E+03  0.10142994160E+03 -0.12212029939E+03  0.24539274897E+03  0.77274132562E+02 0.  0.
         24    2    4    4    0    0  0.12739227974E+04 -0.66622642725E+03 -0.31359267932E+03  0.14736143859E+04  0.80386839521E+02 0.  0.
         13    1    3    3    0    0 -0.62715720511E+03  0.21324789393E+03  0.12408916685E+03  0.67394283549E+03  0.00000000000E+00 0. -1.
        -14    1    3    3    0    0 -0.81719126257E+03  0.35154859172E+03  0.21613751046E+03  0.91547987165E+03  0.00000000000E+00 0.  1.
         15    1    5    5    0    0  0.16283974366E+03  0.10571464804E+03 -0.93535408411E+02  0.21550962689E+03  0.17770000000E+01 0. -1.
        -16    1    5    5    0    0  0.75859266686E+01 -0.42847064466E+01 -0.28584890983E+02  0.29883122080E+02  0.00000000000E+00 0.  1.
          4    1    6    6  502    0  0.10208904074E+04 -0.49720600055E+03 -0.24293541007E+03  0.11612272148E+04  0.00000000000E+00 0. -1.
         -3    1    6    6    0  502  0.25303238998E+03 -0.16902042670E+03 -0.70657269248E+02  0.31238717118E+03  0.00000000000E+00 0.  1.
<mgrwt>
<rscale>  0 0.15973543E+04</rscale>
<asrwt>0</asrwt>
<pdfrwt beam="1">  1        1 0.24714950E+00 0.15973543E+04</pdfrwt>
<pdfrwt beam="2">  1       -2 0.26183970E+00 0.15973543E+04</pdfrwt>
<totfact> 0.24540397E-01</totfact>
</mgrwt>
</event>
<event>
12    3  0.1201947E-007  0.5915552E+03  0.7818608E-02  0.9923083E-01
          1   -1    0    0  501    0  0.00000000000E+00  0.00000000000E+00  0.18895614166E+04  0.18895614166E+04  0.00000000000E+00 0. -1.
         -2   -1    0    0    0  501 -0.00000000000E+00 -0.00000000000E+00 -0.34878514832E+03  0.34878514832E+03  0.00000000000E+00 0.  1.
        -24    2    1    2    0    0 -0.24136624132E+03 -0.52450908910E+03  0.12595392745E+03  0.59666376021E+03  0.82315271418E+02 0.  0.
    5000000    2    1    2    0    0  0.24136624132E+03  0.52450908910E+03  0.14148223408E+04  0.16416828047E+04  0.60002727282E+03 0.  0.
        -24    2    4    4    0    0  0.18544309924E+03  0.29779120013E+03  0.22002296690E+03  0.42168799764E+03  0.79636169242E+02 0.  0.
         24    2    4    4    0    0  0.55923142076E+02  0.22671788897E+03  0.11947993739E+04  0.12199948070E+04  0.79456820531E+02 0.  0.
         13    1    3    3    0    0 -0.19074390046E+03 -0.45843589209E+03  0.13019310735E+03  0.51331953783E+03  0.00000000000E+00 0. -1.
        -14    1    3    3    0    0 -0.50622340859E+02 -0.66073197010E+02 -0.42391798998E+01  0.83344222375E+02  0.00000000000E+00 0.  1.
         15    1    5    5    0    0  0.10193259897E+03  0.22479436416E+03  0.17184271192E+03  0.30075876755E+03  0.17770000000E+01 0. -1.
        -16    1    5    5    0    0  0.83510500277E+02  0.72996835975E+02  0.48180254984E+02  0.12092923009E+03  0.00000000000E+00 0.  1.
          4    1    6    6  502    0  0.47512515613E+02  0.23121986412E+03  0.11211423988E+04  0.11457226293E+04  0.00000000000E+00 0. -1.
         -3    1    6    6    0  502  0.84106264631E+01 -0.45019751587E+01  0.73656975050E+02  0.74272177774E+02  0.00000000000E+00 0.  1.
<mgrwt>
<rscale>  0 0.59155516E+03</rscale>
<asrwt>0</asrwt>
<pdfrwt beam="1">  1        1 0.29070175E+00 0.59155516E+03</pdfrwt>
<pdfrwt beam="2">  1       -2 0.53659255E-01 0.59155516E+03</pdfrwt>
<totfact> 0.10848168E+01</totfact>
</mgrwt>
</event>
<event>
12    3  0.1201947E-007  0.5515443E+03  0.7818608E-02  0.1001137E+00
          1   -1    0    0  501    0  0.00000000000E+00  0.00000000000E+00  0.21571551515E+03  0.21571551515E+03  0.00000000000E+00 0. -1.
         -2   -1    0    0    0  501 -0.00000000000E+00 -0.00000000000E+00 -0.14892195304E+04  0.14892195304E+04  0.00000000000E+00 0.  1.
        -24    2    1    2    0    0  0.14384391668E+03 -0.36274164393E+03 -0.31050278894E+03  0.50513671621E+03  0.80489424930E+02 0.  0.
    5000000    2    1    2    0    0 -0.14384391668E+03  0.36274164393E+03 -0.96300122629E+03  0.11997983293E+04  0.59989340434E+03 0.  0.
        -24    2    4    4    0    0  0.20409188025E+03  0.19291438030E+02 -0.30984240146E+03  0.37994692679E+03  0.79571969102E+02 0.  0.
         24    2    4    4    0    0 -0.34793579693E+03  0.34345020590E+03 -0.65315882482E+03  0.81985140251E+03  0.80762052004E+02 0.  0.
         13    1    3    3    0    0  0.54707961007E+02 -0.82234040828E+02 -0.44174813098E+02  0.10819802485E+03  0.00000000000E+00 0. -1.
        -14    1    3    3    0    0  0.89135955669E+02 -0.28050760310E+03 -0.26632797584E+03  0.39693869137E+03  0.00000000000E+00 0.  1.
         15    1    5    5    0    0  0.12011092641E+03 -0.19969241045E+02 -0.21646512598E+03  0.24836608812E+03  0.17770000000E+01 0. -1.
        -16    1    5    5    0    0  0.83980953845E+02  0.39260679075E+02 -0.93377275481E+02  0.13158083868E+03  0.00000000000E+00 0.  1.
          2    1    6    6  502    0 -0.27801291471E+03  0.22367806812E+03 -0.47236218744E+03  0.59198741121E+03  0.00000000000E+00 0. -1.
         -1    1    6    6    0  502 -0.69922882215E+02  0.11977213777E+03 -0.18079663738E+03  0.22786399130E+03  0.00000000000E+00 0.  1.
<mgrwt>
<rscale>  0 0.55154428E+03</rscale>
<asrwt>0</asrwt>
<pdfrwt beam="1">  1        1 0.33187002E-01 0.55154428E+03</pdfrwt>
<pdfrwt beam="2">  1       -2 0.22911070E+00 0.55154428E+03</pdfrwt>
<totfact> 0.10684540E+01</totfact>
</mgrwt>
</event>
<event>
12    3  0.1201947E-007  0.7978197E+03  0.7818608E-02  0.9563178E-01
         -2   -1    0    0    0  501 -0.00000000000E+00  0.00000000000E+00  0.30980182611E+03  0.30980182611E+03  0.00000000000E+00 0.  1.
          1   -1    0    0  501    0  0.00000000000E+00 -0.00000000000E+00 -0.26890600197E+04  0.26890600197E+04  0.00000000000E+00 0. -1.
        -24    2    1    2    0    0 -0.19115938997E+03 -0.76475341391E+03 -0.13829643254E+04  0.15938363827E+04  0.79588900805E+02 0.  0.
    5000000    2    1    2    0    0  0.19115938997E+03  0.76475341391E+03 -0.99629386827E+03  0.14050254632E+04  0.60008781333E+03 0.  0.
        -24    2    4    4    0    0  0.11956012602E+03  0.60460146972E+03 -0.10359679439E+04  0.12078728175E+04  0.76743740365E+02 0.  0.
         24    2    4    4    0    0  0.71599263950E+02  0.16015194419E+03  0.39674075599E+02  0.19715264563E+03  0.80746724867E+02 0.  0.
         13    1    3    3    0    0 -0.93790748981E+02 -0.31273703087E+03 -0.64613287121E+03  0.72393980574E+03  0.00000000000E+00 0. -1.
        -14    1    3    3    0    0 -0.97368640991E+02 -0.45201638304E+03 -0.73683145415E+03  0.86989657696E+03  0.00000000000E+00 0.  1.
         15    1    5    5    0    0  0.11783420749E+03  0.41588570878E+03 -0.71185741655E+03  0.83282048633E+03  0.17770000000E+01 0. -1.
        -16    1    5    5    0    0  0.17259185340E+01  0.18871576094E+03 -0.32411052732E+03  0.37505233120E+03  0.00000000000E+00 0.  1.
          4    1    6    6  502    0  0.79825126568E+02  0.11569517407E+03  0.58387626639E+01  0.14068232044E+03  0.00000000000E+00 0. -1.
         -3    1    6    6    0  502 -0.82258626182E+01  0.44456770120E+02  0.33835312935E+02  0.56470325187E+02  0.00000000000E+00 0.  1.
<mgrwt>
<rscale>  0 0.79781966E+03</rscale>
<asrwt>0</asrwt>
<pdfrwt beam="1">  1        1 0.41370155E+00 0.79781966E+03</pdfrwt>
<pdfrwt beam="2">  1       -2 0.47661818E-01 0.79781966E+03</pdfrwt>
<totfact> 0.38455639E+00</totfact>
</mgrwt>
</event>
<event>
12    3  0.1201947E-007  0.4660756E+03  0.7818608E-02  0.1023034E+00
         -2   -1    0    0    0  501 -0.00000000000E+00  0.00000000000E+00  0.23693636417E+03  0.23693636417E+03  0.00000000000E+00 0.  1.
          1   -1    0    0  501    0  0.00000000000E+00 -0.00000000000E+00 -0.10044348353E+04  0.10044348353E+04  0.00000000000E+00 0. -1.
        -24    2    1    2    0    0 -0.29100898928E+03 -0.57893715610E+02 -0.24664230789E+03  0.39343613526E+03  0.76952260151E+02 0.  0.
    5000000    2    1    2    0    0  0.29100898928E+03  0.57893715610E+02 -0.52085616321E+03  0.84793506418E+03  0.59972061509E+03 0.  0.
        -24    2    4    4    0    0  0.31425788890E+03  0.27027529150E+03 -0.43262728417E+03  0.60474482381E+03  0.82116873951E+02 0.  0.
         24    2    4    4    0    0 -0.23248899618E+02 -0.21238157589E+03 -0.88228879035E+02  0.24319024037E+03  0.75569258305E+02 0.  0.
         11    1    3    3    0    0 -0.28925176940E+02  0.76194151567E+01 -0.53677813253E+02  0.61449401819E+02  0.00000000000E+00 0. -1.
        -12    1    3    3    0    0 -0.26208381234E+03 -0.65513130767E+02 -0.19296449463E+03  0.33198673344E+03  0.00000000000E+00 0.  1.
         15    1    5    5    0    0  0.28747522115E+03  0.25269693835E+03 -0.36038067034E+03  0.52571392478E+03  0.17770000000E+01 0. -1.
        -16    1    5    5    0    0  0.26782667750E+02  0.17578353152E+02 -0.72246613837E+02  0.79030899035E+02  0.00000000000E+00 0.  1.
          2    1    6    6  502    0  0.60574362582E+01 -0.12478819265E+03 -0.16039149349E+02  0.12596046948E+03  0.00000000000E+00 0. -1.
         -1    1    6    6    0  502 -0.29306335876E+02 -0.87593383243E+02 -0.72189729686E+02  0.11722977089E+03  0.00000000000E+00 0.  1.
<mgrwt>
<rscale>  0 0.46607564E+03</rscale>
<asrwt>0</asrwt>
<pdfrwt beam="1">  1        1 0.15452844E+00 0.46607564E+03</pdfrwt>
<pdfrwt beam="2">  1       -2 0.36451748E-01 0.46607564E+03</pdfrwt>
<totfact> 0.97482742E+01</totfact>
</mgrwt>
</event>
<event>
12    3  0.1201947E-007  0.7588747E+03  0.7818608E-02  0.9621529E-01
          1   -1    0    0  501    0  0.00000000000E+00  0.00000000000E+00  0.13800566726E+04  0.13800566726E+04  0.00000000000E+00 0. -1.
         -2   -1    0    0    0  501 -0.00000000000E+00 -0.00000000000E+00 -0.49924838408E+03  0.49924838408E+03  0.00000000000E+00 0.  1.
        -24    2    1    2    0    0  0.50220645478E+03  0.48784319935E+03  0.57013428228E+03  0.90637838302E+03  0.79160362589E+02 0.  0.
    5000000    2    1    2    0    0 -0.50220645478E+03 -0.48784319935E+03  0.31067400624E+03  0.97292667365E+03  0.59988804270E+03 0.  0.
        -24    2    4    4    0    0 -0.54661384897E+03 -0.47401549914E+03  0.41196256190E+03  0.83616578821E+03  0.77347783802E+02 0.  0.
         24    2    4    4    0    0  0.44407394194E+02 -0.13827700210E+02 -0.10128855566E+03  0.13676088544E+03  0.79252421586E+02 0.  0.
         13    1    3    3    0    0  0.13598838151E+03  0.91616633231E+02  0.15464531574E+03  0.22539214953E+03  0.00000000000E+00 0. -1.
        -14    1    3    3    0    0  0.36621807327E+03  0.39622656612E+03  0.41548896654E+03  0.68098623349E+03  0.00000000000E+00 0.  1.
         15    1    5    5    0    0 -0.21927704224E+03 -0.18740365670E+03  0.12127208435E+03  0.31290993587E+03  0.17770000000E+01 0. -1.
        -16    1    5    5    0    0 -0.32733680673E+03 -0.28661184244E+03  0.29069047755E+03  0.52325585234E+03  0.00000000000E+00 0.  1.
          2    1    6    6  502    0 -0.11162278427E+02 -0.30663490732E+02 -0.47378026195E+02  0.57528458085E+02  0.00000000000E+00 0. -1.
         -1    1    6    6    0  502  0.55569672621E+02  0.16835790522E+02 -0.53910529463E+02  0.79232427355E+02  0.00000000000E+00 0.  1.
<mgrwt>
<rscale>  0 0.75887469E+03</rscale>
<asrwt>0</asrwt>
<pdfrwt beam="1">  1        1 0.21231641E+00 0.75887469E+03</pdfrwt>
<pdfrwt beam="2">  1       -2 0.76807444E-01 0.75887469E+03</pdfrwt>
<totfact> 0.10847477E+01</totfact>
</mgrwt>
</event>
<event>
12    3  0.1201947E-007  0.5470132E+03  0.7818608E-02  0.1002188E+00
         -2   -1    0    0    0  501 -0.00000000000E+00  0.00000000000E+00  0.25771368296E+03  0.25771368296E+03  0.00000000000E+00 0.  1.
          1   -1    0    0  501    0  0.00000000000E+00 -0.00000000000E+00 -0.19427838270E+04  0.19427838270E+04  0.00000000000E+00 0. -1.
        -24    2    1    2    0    0  0.63554037050E+02  0.51944081702E+03 -0.31529249522E+03  0.61615804612E+03  0.79896822497E+02 0.  0.
    5000000    2    1    2    0    0 -0.63554037050E+02 -0.51944081702E+03 -0.13697776488E+04  0.15843394638E+04  0.59998570939E+03 0.  0.
        -24    2    4    4    0    0 -0.14699567375E+03 -0.34380150689E+03 -0.13119410154E+04  0.13665323541E+04  0.80088966599E+02 0.  0.
         24    2    4    4    0    0  0.83441636700E+02 -0.17563931013E+03 -0.57836633366E+02  0.21780710973E+03  0.79266555954E+02 0.  0.
         13    1    3    3    0    0  0.10430065569E+02  0.24604019913E+03 -0.10766127997E+03  0.26876665913E+03  0.00000000000E+00 0. -1.
        -14    1    3    3    0    0  0.53123971481E+02  0.27340061789E+03 -0.20763121525E+03  0.34739138699E+03  0.00000000000E+00 0.  1.
         15    1    5    5    0    0 -0.13870318656E+03 -0.30414575415E+03 -0.10631997004E+04  0.11145133352E+04  0.17770000000E+01 0. -1.
        -16    1    5    5    0    0 -0.82924871903E+01 -0.39655752736E+02 -0.24874131500E+03  0.25201901884E+03  0.00000000000E+00 0.  1.
          2    1    6    6  502    0  0.52891460478E+02 -0.11183773945E+03 -0.75452851067E+02  0.14490796835E+03  0.00000000000E+00 0. -1.
         -1    1    6    6    0  502  0.30550176223E+02 -0.63801570677E+02  0.17616217701E+02  0.72899141381E+02  0.00000000000E+00 0.  1.
<mgrwt>
<rscale>  0 0.54701316E+03</rscale>
<asrwt>0</asrwt>
<pdfrwt beam="1">  1        1 0.29888981E+00 0.54701316E+03</pdfrwt>
<pdfrwt beam="2">  1       -2 0.39648260E-01 0.54701316E+03</pdfrwt>
<totfact> 0.18447341E+01</totfact>
</mgrwt>
</event>
<event>
12    3  0.1201947E-007  0.1331397E+04  0.7818608E-02  0.9005031E-01
          1   -1    0    0  501    0  0.00000000000E+00  0.00000000000E+00  0.21163188871E+04  0.21163188871E+04  0.00000000000E+00 0. -1.
         -2   -1    0    0    0  501 -0.00000000000E+00 -0.00000000000E+00 -0.96136058737E+03  0.96136058737E+03  0.00000000000E+00 0.  1.
        -24    2    1    2    0    0  0.58116559153E+03  0.11961150691E+04  0.87038762514E+03  0.15913781475E+04  0.80405764976E+02 0.  0.
    5000000    2    1    2    0    0 -0.58116559153E+03 -0.11961150691E+04  0.28457067455E+03  0.14863013269E+04  0.59972198734E+03 0.  0.
        -24    2    4    4    0    0 -0.38101965870E+03 -0.70796157596E+03  0.45285953304E+03  0.92633655122E+03  0.81437559584E+02 0.  0.
         24    2    4    4    0    0 -0.20014593283E+03 -0.48815349319E+03 -0.16828885849E+03  0.55996477567E+03  0.82989052086E+02 0.  0.
         13    1    3    3    0    0  0.31032767457E+03  0.66033244406E+03  0.43090694210E+03  0.84736237528E+03  0.00000000000E+00 0. -1.
        -14    1    3    3    0    0  0.27083791696E+03  0.53578262509E+03  0.43948068304E+03  0.74401577226E+03  0.00000000000E+00 0.  1.
         15    1    5    5    0    0 -0.31789263941E+03 -0.59923032821E+03  0.34677265585E+03  0.76183144397E+03  0.17770000000E+01 0. -1.
        -16    1    5    5    0    0 -0.63127019291E+02 -0.10873124775E+03  0.10608687719E+03  0.16450510725E+03  0.00000000000E+00 0.  1.
          2    1    6    6  502    0 -0.10674405809E+03 -0.21409643440E+03 -0.11550819237E+03  0.26565714684E+03  0.00000000000E+00 0. -1.
         -1    1    6    6    0  502 -0.93401874734E+02 -0.27405705879E+03 -0.52780666113E+02  0.29430762884E+03  0.00000000000E+00 0.  1.
<mgrwt>
<rscale>  0 0.13313965E+04</rscale>
<asrwt>0</asrwt>
<pdfrwt beam="1">  1        1 0.32558752E+00 0.13313965E+04</pdfrwt>
<pdfrwt beam="2">  1       -2 0.14790163E+00 0.13313965E+04</pdfrwt>
<totfact> 0.65302381E-01</totfact>
</mgrwt>
</event>
<event>
12    3  0.1201947E-007  0.8736324E+03  0.7818608E-02  0.9459156E-01
          1   -1    0    0  501    0  0.00000000000E+00  0.00000000000E+00  0.63005117240E+03  0.63005117240E+03  0.00000000000E+00 0. -1.
         -2   -1    0    0    0  501 -0.00000000000E+00 -0.00000000000E+00 -0.12717618584E+04  0.12717618584E+04  0.00000000000E+00 0.  1.
        -24    2    1    2    0    0  0.55334983454E+03  0.56198720702E+03 -0.20395358252E+03  0.81836093149E+03  0.78050561369E+02 0.  0.
    5000000    2    1    2    0    0 -0.55334983454E+03 -0.56198720702E+03 -0.43775710344E+03  0.10834520993E+04  0.60017623210E+03 0.  0.
        -24    2    4    4    0    0  0.92025743316E+02 -0.13806787849E+03  0.13581799239E+02  0.18540485183E+03  0.81602802084E+02 0.  0.
         24    2    4    4    0    0 -0.64537557786E+03 -0.42391932853E+03 -0.45133890268E+03  0.89804724745E+03  0.81023576702E+02 0.  0.
         13    1    3    3    0    0  0.35459058775E+02  0.27152718260E+02  0.54338499543E+01  0.44990462139E+02  0.00000000000E+00 0. -1.
        -14    1    3    3    0    0  0.51789077577E+03  0.53483448876E+03 -0.20938743248E+03  0.77337046936E+03  0.00000000000E+00 0.  1.
         15    1    5    5    0    0  0.92030780624E+02 -0.75199945276E+02  0.25122056399E+02  0.12148650871E+03  0.17770000000E+01 0. -1.
        -16    1    5    5    0    0 -0.50373075305E-02 -0.62867933212E+02 -0.11540257160E+02  0.63918343119E+02  0.00000000000E+00 0.  1.
          2    1    6    6  502    0 -0.24058121377E+03 -0.11207912837E+03 -0.15493441651E+03  0.30732023177E+03  0.00000000000E+00 0. -1.
         -1    1    6    6    0  502 -0.40479436409E+03 -0.31184020016E+03 -0.29640448616E+03  0.59072701568E+03  0.00000000000E+00 0.  1.
<mgrwt>
<rscale>  0 0.87363240E+03</rscale>
<asrwt>0</asrwt>
<pdfrwt beam="1">  1        1 0.96930950E-01 0.87363240E+03</pdfrwt>
<pdfrwt beam="2">  1       -2 0.19565567E+00 0.87363240E+03</pdfrwt>
<totfact> 0.40109834E+00</totfact>
</mgrwt>
</event>
<event>
12    3  0.1201947E-007  0.1244990E+04  0.7818608E-02  0.9074364E-01
          1   -1    0    0  501    0  0.00000000000E+00  0.00000000000E+00  0.29963035714E+04  0.29963035714E+04  0.00000000000E+00 0. -1.
         -2   -1    0    0    0  501 -0.00000000000E+00 -0.00000000000E+00 -0.78450832338E+03  0.78450832338E+03  0.00000000000E+00 0.  1.
        -24    2    1    2    0    0 -0.91450251495E+03 -0.73416588191E+03  0.21639161597E+04  0.24625699011E+04  0.80018620165E+02 0.  0.
    5000000    2    1    2    0    0  0.91450251495E+03  0.73416588191E+03  0.47879088277E+02  0.13182419936E+04  0.60012928163E+03 0.  0.
        -24    2    4    4    0    0  0.11764886656E+03  0.44039692598E+03  0.49464440019E+02  0.46522838060E+03  0.78740123626E+02 0.  0.
         24    2    4    4    0    0  0.79685364839E+03  0.29376895593E+03 -0.15853517426E+01  0.85301361304E+03  0.79710565590E+02 0.  0.
         11    1    3    3    0    0 -0.32925365446E+03 -0.21730423938E+03  0.74546374649E+03  0.84341288747E+03  0.00000000000E+00 0. -1.
        -12    1    3    3    0    0 -0.58524886049E+03 -0.51686164253E+03  0.14184524132E+04  0.16191570136E+04  0.00000000000E+00 0.  1.
         15    1    5    5    0    0  0.48129559200E+02  0.31162565085E+03  0.47452458877E+02  0.31887598579E+03  0.17770000000E+01 0. -1.
        -16    1    5    5    0    0  0.69519307363E+02  0.12877127514E+03  0.20119811420E+01  0.14635239481E+03  0.00000000000E+00 0.  1.
          4    1    6    6  502    0  0.23038663120E+03  0.47037351353E+02  0.78558797441E+00  0.23514065877E+03  0.00000000000E+00 0. -1.
         -3    1    6    6    0  502  0.56646701719E+03  0.24673160457E+03 -0.23709397171E+01  0.61787295427E+03  0.00000000000E+00 0.  1.
<mgrwt>
<rscale>  0 0.12449895E+04</rscale>
<asrwt>0</asrwt>
<pdfrwt beam="1">  1        1 0.46096977E+00 0.12449895E+04</pdfrwt>
<pdfrwt beam="2">  1       -2 0.12069359E+00 0.12449895E+04</pdfrwt>
<totfact> 0.27176169E-01</totfact>
</mgrwt>
</event>
<event>
12    3  0.1201947E-007  0.8953665E+03  0.7818608E-02  0.9431392E-01
          1   -1    0    0  501    0  0.00000000000E+00  0.00000000000E+00  0.66988781945E+03  0.66988781945E+03  0.00000000000E+00 0. -1.
         -2   -1    0    0    0  501 -0.00000000000E+00 -0.00000000000E+00 -0.12309857579E+04  0.12309857579E+04  0.00000000000E+00 0.  1.
        -24    2    1    2    0    0  0.48171847476E+03 -0.64386441608E+03 -0.18118926343E+03  0.82819933531E+03  0.80439508983E+02 0.  0.
    5000000    2    1    2    0    0 -0.48171847476E+03  0.64386441608E+03 -0.37990867500E+03  0.10726742420E+04  0.59973773680E+03 0.  0.
        -24    2    4    4    0    0 -0.35122581301E+03  0.73007770815E+03 -0.37711830027E+03  0.89730429537E+03  0.81017000950E+02 0.  0.
         24    2    4    4    0    0 -0.13049266176E+03 -0.86213292071E+02 -0.27903747369E+01  0.17536994665E+03  0.79282819674E+02 0.  0.
         11    1    3    3    0    0  0.15510275007E+03 -0.27043918171E+03 -0.59561931960E+02  0.31739854729E+03  0.00000000000E+00 0. -1.
        -12    1    3    3    0    0  0.32661572470E+03 -0.37342523437E+03 -0.12162733147E+03  0.51080078802E+03  0.00000000000E+00 0.  1.
         15    1    5    5    0    0 -0.16642717625E+03  0.42083421814E+03 -0.18371874070E+03  0.48842110680E+03  0.17770000000E+01 0. -1.
        -16    1    5    5    0    0 -0.18479863676E+03  0.30924349001E+03 -0.19339955956E+03  0.40888318858E+03  0.00000000000E+00 0.  1.
          2    1    6    6  502    0 -0.96173581120E+02 -0.94417500933E+02  0.15435209298E+02  0.13565495890E+03  0.00000000000E+00 0. -1.
         -1    1    6    6    0  502 -0.34319080637E+02  0.82042088618E+01 -0.18225584035E+02  0.39714987753E+02  0.00000000000E+00 0.  1.
<mgrwt>
<rscale>  0 0.89536651E+03</rscale>
<asrwt>0</asrwt>
<pdfrwt beam="1">  1        1 0.10305966E+00 0.89536651E+03</pdfrwt>
<pdfrwt beam="2">  1       -2 0.18938242E+00 0.89536651E+03</pdfrwt>
<totfact> 0.40223672E+00</totfact>
</mgrwt>
</event>
<event>
12    3  0.1201947E-007  0.1678531E+04  0.7818608E-02  0.8773704E-01
         -2   -1    0    0    0  501 -0.00000000000E+00  0.00000000000E+00  0.26875182356E+04  0.26875182356E+04  0.00000000000E+00 0.  1.
          1   -1    0    0  501    0  0.00000000000E+00 -0.00000000000E+00 -0.12061583718E+04  0.12061583718E+04  0.00000000000E+00 0. -1.
        -24    2    1    2    0    0  0.14926462901E+04 -0.72226088829E+03  0.11737227245E+03  0.16643094090E+04  0.80596651821E+02 0.  0.
    5000000    2    1    2    0    0 -0.14926462901E+04  0.72226088829E+03  0.13639875913E+04  0.22293671985E+04  0.59996851447E+03 0.  0.
        -24    2    4    4    0    0 -0.14025736056E+04  0.57018409681E+03  0.13585589663E+04  0.20355483218E+04  0.73836859212E+02 0.  0.
         24    2    4    4    0    0 -0.90072684486E+02  0.15207679148E+03  0.54286250284E+01  0.19381887677E+03  0.79346380030E+02 0.  0.
         11    1    3    3    0    0  0.88661728665E+03 -0.45809752663E+03  0.40987649258E+02  0.99881106536E+03  0.00000000000E+00 0. -1.
        -12    1    3    3    0    0  0.60602900345E+03 -0.26416336166E+03  0.76384623188E+02  0.66549834360E+03  0.00000000000E+00 0.  1.
         15    1    5    5    0    0 -0.52724975393E+03  0.24938824344E+03  0.50235405473E+03  0.76977240339E+03  0.17770000000E+01 0. -1.
        -16    1    5    5    0    0 -0.87532385169E+03  0.32079585337E+03  0.85620491159E+03  0.12657759184E+04  0.00000000000E+00 0.  1.
          2    1    6    6  502    0 -0.17697135124E+02  0.73704221659E+02  0.34452972835E+02  0.83261685180E+02  0.00000000000E+00 0. -1.
         -1    1    6    6    0  502 -0.72375549362E+02  0.78372569821E+02 -0.29024347806E+02  0.11055719159E+03  0.00000000000E+00 0.  1.
<mgrwt>
<rscale>  0 0.16785313E+04</rscale>
<asrwt>0</asrwt>
<pdfrwt beam="1">  1        1 0.18556283E+00 0.16785313E+04</pdfrwt>
<pdfrwt beam="2">  1       -2 0.41346434E+00 0.16785313E+04</pdfrwt>
<totfact> 0.52100252E-02</totfact>
</mgrwt>
</event>
<event>
12    3  0.1201947E-007  0.7253813E+03  0.7818608E-02  0.9674785E-01
          1   -1    0    0  501    0  0.00000000000E+00  0.00000000000E+00  0.18658683599E+04  0.18658683599E+04  0.00000000000E+00 0. -1.
         -2   -1    0    0    0  501 -0.00000000000E+00 -0.00000000000E+00 -0.33000032305E+03  0.33000032305E+03  0.00000000000E+00 0.  1.
        -24    2    1    2    0    0  0.32862361990E+03 -0.51328978393E+03  0.10376765289E+04  0.12061033250E+04  0.80329112320E+02 0.  0.
    5000000    2    1    2    0    0 -0.32862361990E+03  0.51328978393E+03  0.49819150802E+03  0.98976535794E+03  0.59998399918E+03 0.  0.
        -24    2    4    4    0    0 -0.13265342855E+03  0.59900490633E+03  0.41139556597E+03  0.74310160543E+03  0.80931294158E+02 0.  0.
         24    2    4    4    0    0 -0.19597019135E+03 -0.85715122393E+02  0.86795942049E+02  0.24666375252E+03  0.86937179291E+02 0.  0.
         13    1    3    3    0    0  0.10510837658E+03 -0.15224537046E+03  0.24681744589E+03  0.30845627769E+03  0.00000000000E+00 0. -1.
        -14    1    3    3    0    0  0.22351524332E+03 -0.36104441347E+03  0.79085908296E+03  0.89764704734E+03  0.00000000000E+00 0.  1.
         15    1    5    5    0    0 -0.13878843792E+03  0.59108469476E+03  0.41077533780E+03  0.73306403728E+03  0.17770000000E+01 0. -1.
        -16    1    5    5    0    0  0.61350093697E+01  0.79202115674E+01  0.62022816711E+00  0.10037568143E+02  0.00000000000E+00 0.  1.
          4    1    6    6  502    0 -0.18820150284E+03 -0.60693597044E+02  0.54582111118E+02  0.20514074498E+03  0.00000000000E+00 0. -1.
         -3    1    6    6    0  502 -0.77686885091E+01 -0.25021525349E+02  0.32213830931E+02  0.41523007540E+02  0.00000000000E+00 0.  1.
<mgrwt>
<rscale>  0 0.72538128E+03</rscale>
<asrwt>0</asrwt>
<pdfrwt beam="1">  1        1 0.28705666E+00 0.72538128E+03</pdfrwt>
<pdfrwt beam="2">  1       -2 0.50769282E-01 0.72538128E+03</pdfrwt>
<totfact> 0.12329224E+01</totfact>
</mgrwt>
</event>
<event>
12    3  0.1201947E-007  0.7600441E+03  0.7818608E-02  0.9619723E-01
         -2   -1    0    0    0  501 -0.00000000000E+00  0.00000000000E+00  0.27811947191E+03  0.27811947191E+03  0.00000000000E+00 0.  1.
          1   -1    0    0  501    0  0.00000000000E+00 -0.00000000000E+00 -0.23070787452E+04  0.23070787452E+04  0.00000000000E+00 0. -1.
        -24    2    1    2    0    0 -0.54805298521E+03  0.36915705810E+03 -0.11725212689E+04  0.13482300797E+04  0.79241488976E+02 0.  0.
    5000000    2    1    2    0    0  0.54805298521E+03 -0.36915705810E+03 -0.85643800440E+03  0.12369681374E+04  0.59997092391E+03 0.  0.
        -24    2    4    4    0    0  0.44840989492E+02 -0.34677140320E+03 -0.21643532973E+03  0.41864457526E+03  0.78472339257E+02 0.  0.
         24    2    4    4    0    0  0.50321199572E+03 -0.22385654901E+02 -0.64000267467E+03  0.81832356218E+03  0.79539918654E+02 0.  0.
         11    1    3    3    0    0 -0.34980239345E+03  0.27012377774E+03 -0.82847356176E+03  0.93898722691E+03  0.00000000000E+00 0. -1.
        -12    1    3    3    0    0 -0.19825059176E+03  0.99033280358E+02 -0.34404770715E+03  0.40924285277E+03  0.00000000000E+00 0.  1.
         15    1    5    5    0    0  0.16349068130E+02 -0.39437249902E+02 -0.19265969823E+01  0.42772166340E+02  0.17770000000E+01 0. -1.
        -16    1    5    5    0    0  0.28491921362E+02 -0.30733415330E+03 -0.21450873275E+03  0.37587240892E+03  0.00000000000E+00 0.  1.
          2    1    6    6  502    0  0.38891156492E+03 -0.13288866448E+01 -0.44211059037E+03  0.58882573431E+03  0.00000000000E+00 0. -1.
         -1    1    6    6    0  502  0.11430043080E+03 -0.21056768256E+02 -0.19789208430E+03  0.22949782787E+03  0.00000000000E+00 0.  1.
<mgrwt>
<rscale>  0 0.76004406E+03</rscale>
<asrwt>0</asrwt>
<pdfrwt beam="1">  1        1 0.35493520E+00 0.76004406E+03</pdfrwt>
<pdfrwt beam="2">  1       -2 0.42787610E-01 0.76004406E+03</pdfrwt>
<totfact> 0.87553840E+00</totfact>
</mgrwt>
</event>
<event>
12    3  0.1201947E-007  0.5301386E+03  0.7818608E-02  0.1006199E+00
          1   -1    0    0  501    0  0.00000000000E+00  0.00000000000E+00  0.18345420505E+04  0.18345420505E+04  0.00000000000E+00 0. -1.
         -2   -1    0    0    0  501 -0.00000000000E+00 -0.00000000000E+00 -0.26479598924E+03  0.26479598924E+03  0.00000000000E+00 0.  1.
        -24    2    1    2    0    0 -0.31067828816E+03 -0.25596224646E+03  0.46128302118E+02  0.41310958725E+03  0.80585609624E+02 0.  0.
    5000000    2    1    2    0    0  0.31067828816E+03  0.25596224646E+03  0.15236177591E+04  0.16862284525E+04  0.59993136910E+03 0.  0.
        -24    2    4    4    0    0  0.43932445855E+03  0.16978213376E+03  0.72142825859E+03  0.86534973823E+03  0.80867078220E+02 0.  0.
         24    2    4    4    0    0 -0.12864617040E+03  0.86180112704E+02  0.80218950056E+03  0.82087871425E+03  0.79730920739E+02 0.  0.
         13    1    3    3    0    0 -0.26107867810E+03 -0.17629702961E+03  0.51045969846E+02  0.31913697661E+03  0.00000000000E+00 0. -1.
        -14    1    3    3    0    0 -0.49599610064E+02 -0.79665216854E+02 -0.49176677280E+01  0.93972610641E+02  0.00000000000E+00 0.  1.
         15    1    5    5    0    0  0.11532149061E+03  0.83951372792E+02  0.20968713914E+03  0.25361138232E+03  0.17770000000E+01 0. -1.
        -16    1    5    5    0    0  0.32400296794E+03  0.85830760963E+02  0.51174111944E+03  0.61173835591E+03  0.00000000000E+00 0.  1.
          2    1    6    6  502    0 -0.12147321989E+03  0.41569170353E+02  0.56232266881E+03  0.57679331041E+03  0.00000000000E+00 0. -1.
         -1    1    6    6    0  502 -0.71729505074E+01  0.44610942351E+02  0.23986683175E+03  0.24408540384E+03  0.00000000000E+00 0.  1.
<mgrwt>
<rscale>  0 0.53013865E+03</rscale>
<asrwt>0</asrwt>
<pdfrwt beam="1">  1        1 0.28223723E+00 0.53013865E+03</pdfrwt>
<pdfrwt beam="2">  1       -2 0.40737846E-01 0.53013865E+03</pdfrwt>
<totfact> 0.20709893E+01</totfact>
</mgrwt>
</event>
<event>
12    3  0.1201947E-007  0.6830883E+03  0.7818608E-02  0.9746599E-01
          1   -1    0    0  501    0  0.00000000000E+00  0.00000000000E+00  0.59454858771E+03  0.59454858771E+03  0.00000000000E+00 0. -1.
         -2   -1    0    0    0  501 -0.00000000000E+00 -0.00000000000E+00 -0.11759027941E+04  0.11759027941E+04  0.00000000000E+00 0.  1.
        -24    2    1    2    0    0 -0.39919244936E+03 -0.51749858596E+03  0.82861880048E+02  0.66223329926E+03  0.67286353588E+02 0.  0.
    5000000    2    1    2    0    0  0.39919244936E+03  0.51749858596E+03 -0.66421608642E+03  0.11082180825E+04  0.59983740371E+03 0.  0.
        -24    2    4    4    0    0  0.70981449149E+02  0.34116203850E-01  0.86006959958E+02  0.13681199568E+03  0.79258802111E+02 0.  0.
         24    2    4    4    0    0  0.32821100022E+03  0.51746446976E+03 -0.75022304638E+03  0.97140608686E+03  0.72823266458E+02 0.  0.
         13    1    3    3    0    0 -0.14419969179E+03 -0.13733226295E+03  0.19010771036E+02  0.20003777387E+03  0.00000000000E+00 0. -1.
        -14    1    3    3    0    0 -0.25499275758E+03 -0.38016632301E+03  0.63851109012E+02  0.46219552539E+03  0.00000000000E+00 0.  1.
         15    1    5    5    0    0 -0.11123648772E+01 -0.20945354251E+02  0.48520838071E+02  0.52890213428E+02  0.17770000000E+01 0. -1.
        -16    1    5    5    0    0  0.72093814026E+02  0.20979470455E+02  0.37486121887E+02  0.83921782247E+02  0.00000000000E+00 0.  1.
          4    1    6    6  502    0  0.17717976686E+03  0.29910356539E+03 -0.47903377830E+03  0.59188594625E+03  0.00000000000E+00 0. -1.
         -3    1    6    6    0  502  0.15103123335E+03  0.21836090437E+03 -0.27118926807E+03  0.37952014060E+03  0.00000000000E+00 0.  1.
<mgrwt>
<rscale>  0 0.68308832E+03</rscale>
<asrwt>0</asrwt>
<pdfrwt beam="1">  1        1 0.91469014E-01 0.68308832E+03</pdfrwt>
<pdfrwt beam="2">  1       -2 0.18090812E+00 0.68308832E+03</pdfrwt>
<totfact> 0.56057127E+00</totfact>
</mgrwt>
</event>
<event>
12    3  0.1201947E-007  0.6191058E+03  0.7818608E-02  0.9866542E-01
         -2   -1    0    0    0  501 -0.00000000000E+00  0.00000000000E+00  0.72465003245E+03  0.72465003245E+03  0.00000000000E+00 0.  1.
          1   -1    0    0  501    0  0.00000000000E+00 -0.00000000000E+00 -0.67042540272E+03  0.67042540272E+03  0.00000000000E+00 0. -1.
        -24    2    1    2    0    0 -0.27437093592E+03  0.39041067225E+03 -0.27958692122E+03  0.55892527141E+03  0.80800427098E+02 0.  0.
    5000000    2    1    2    0    0  0.27437093592E+03 -0.39041067225E+03  0.33381155096E+03  0.83615016375E+03  0.60001420092E+03 0.  0.
        -24    2    4    4    0    0 -0.17758134335E+03 -0.85278026854E+02  0.58677050936E+02  0.22025854788E+03  0.79141368665E+02 0.  0.
         24    2    4    4    0    0  0.45195227927E+03 -0.30513264540E+03  0.27513450002E+03  0.61589161588E+03  0.79099275460E+02 0.  0.
         11    1    3    3    0    0 -0.14329776537E+03  0.14692864545E+03 -0.14570657794E+03  0.25169958933E+03  0.00000000000E+00 0. -1.
        -12    1    3    3    0    0 -0.13107317054E+03  0.24348202681E+03 -0.13388034329E+03  0.30722568209E+03  0.00000000000E+00 0.  1.
         15    1    5    5    0    0 -0.13234407121E+03 -0.97354815781E+02  0.55111860981E+02  0.17330143765E+03  0.17770000000E+01 0. -1.
        -16    1    5    5    0    0 -0.45237272140E+02  0.12076788927E+02  0.35651899552E+01  0.46957110227E+02  0.00000000000E+00 0.  1.
          2    1    6    6  502    0  0.17119189577E+03 -0.11786185600E+03  0.14844742937E+03  0.25541088771E+03  0.00000000000E+00 0. -1.
         -1    1    6    6    0  502  0.28076038350E+03 -0.18727078940E+03  0.12668707065E+03  0.36048072816E+03  0.00000000000E+00 0.  1.
<mgrwt>
<rscale>  0 0.61910578E+03</rscale>
<asrwt>0</asrwt>
<pdfrwt beam="1">  1        1 0.10314237E+00 0.61910578E+03</pdfrwt>
<pdfrwt beam="2">  1       -2 0.11148462E+00 0.61910578E+03</pdfrwt>
<totfact> 0.16750070E+01</totfact>
</mgrwt>
</event>
<event>
12    3  0.1201947E-007  0.1170318E+04  0.7818608E-02  0.9139241E-01
         -2   -1    0    0    0  501 -0.00000000000E+00  0.00000000000E+00  0.19118810686E+04  0.19118810686E+04  0.00000000000E+00 0.  1.
          1   -1    0    0  501    0  0.00000000000E+00 -0.00000000000E+00 -0.94053178248E+03  0.94053178248E+03  0.00000000000E+00 0. -1.
        -24    2    1    2    0    0 -0.80562490996E+03 -0.83890871648E+03 -0.86309165700E+02  0.11696185655E+04  0.88085109657E+02 0.  0.
    5000000    2    1    2    0    0  0.80562490996E+03  0.83890871648E+03  0.10576584519E+04  0.16827942856E+04  0.60029649074E+03 0.  0.
        -24    2    4    4    0    0  0.35177462878E+01  0.48432617867E+02 -0.47593114145E+02  0.10293341144E+03  0.77279296479E+02 0.  0.
         24    2    4    4    0    0  0.80210716367E+03  0.79047609861E+03  0.11052515660E+04  0.15798608742E+04  0.78428267379E+02 0.  0.
         13    1    3    3    0    0 -0.30894672416E+03 -0.28964325863E+03 -0.67643109933E+02  0.42885532055E+03  0.00000000000E+00 0. -1.
        -14    1    3    3    0    0 -0.49667818580E+03 -0.54926545784E+03 -0.18666055767E+02  0.74076324495E+03  0.00000000000E+00 0.  1.
         15    1    5    5    0    0 -0.17899671123E+00  0.45141075812E+02  0.90504104156E+01  0.46074031981E+02  0.17770000000E+01 0. -1.
        -16    1    5    5    0    0  0.36967429991E+01  0.32915420557E+01 -0.56643524561E+02  0.56859379460E+02  0.00000000000E+00 0.  1.
          2    1    6    6  502    0  0.51620270966E+03  0.52713552042E+03  0.67430240953E+03  0.99951029702E+03  0.00000000000E+00 0. -1.
         -1    1    6    6    0  502  0.28590445401E+03  0.26334057818E+03  0.43094915648E+03  0.58035057716E+03  0.00000000000E+00 0.  1.
<mgrwt>
<rscale>  0 0.11703179E+04</rscale>
<asrwt>0</asrwt>
<pdfrwt beam="1">  1        1 0.14469720E+00 0.11703179E+04</pdfrwt>
<pdfrwt beam="2">  1       -2 0.29413555E+00 0.11703179E+04</pdfrwt>
<totfact> 0.50260529E-01</totfact>
</mgrwt>
</event>
<event>
12    3  0.1201947E-007  0.1226701E+04  0.7818608E-02  0.9089801E-01
         -2   -1    0    0    0  501 -0.00000000000E+00  0.00000000000E+00  0.43496360467E+03  0.43496360467E+03  0.00000000000E+00 0.  1.
          1   -1    0    0  501    0  0.00000000000E+00 -0.00000000000E+00 -0.37834303783E+04  0.37834303783E+04  0.00000000000E+00 0. -1.
        -24    2    1    2    0    0 -0.10700575094E+04  0.54636116915E+03 -0.13283153640E+04  0.17925957406E+04  0.73784702183E+02 0.  0.
    5000000    2    1    2    0    0  0.10700575094E+04 -0.54636116915E+03 -0.20201514096E+04  0.24257982424E+04  0.59995982754E+03 0.  0.
        -24    2    4    4    0    0  0.71662083390E+03 -0.52423815136E+03 -0.17797982774E+04  0.19905491804E+04  0.78949810079E+02 0.  0.
         24    2    4    4    0    0  0.35343667546E+03 -0.22123017797E+02 -0.24035313229E+03  0.43524906207E+03  0.79153056476E+02 0.  0.
         11    1    3    3    0    0 -0.43514197807E+03  0.26299362529E+03 -0.56495542447E+03  0.76005843174E+03  0.00000000000E+00 0. -1.
        -12    1    3    3    0    0 -0.63491553129E+03  0.28336754386E+03 -0.76335993956E+03  0.10325373088E+04  0.00000000000E+00 0.  1.
         15    1    5    5    0    0  0.38578443527E+03 -0.32701963790E+03 -0.97703649326E+03  0.11001704145E+04  0.17770000000E+01 0. -1.
        -16    1    5    5    0    0  0.33083639863E+03 -0.19721851346E+03 -0.80276178409E+03  0.89037876587E+03  0.00000000000E+00 0.  1.
          4    1    6    6  502    0  0.14528197686E+03  0.19246772385E+02 -0.66629531975E+02  0.16098691120E+03  0.00000000000E+00 0. -1.
         -3    1    6    6    0  502  0.20815469861E+03 -0.41369790182E+02 -0.17372360031E+03  0.27426215086E+03  0.00000000000E+00 0.  1.
<mgrwt>
<rscale>  0 0.12267009E+04</rscale>
<asrwt>0</asrwt>
<pdfrwt beam="1">  1        1 0.58206621E+00 0.12267009E+04</pdfrwt>
<pdfrwt beam="2">  1       -2 0.66917478E-01 0.12267009E+04</pdfrwt>
<totfact> 0.26674831E-01</totfact>
</mgrwt>
</event>
<event>
12    3  0.1201947E-007  0.1782082E+04  0.7818608E-02  0.8715886E-01
         -2   -1    0    0    0  501 -0.00000000000E+00  0.00000000000E+00  0.11265182829E+04  0.11265182829E+04  0.00000000000E+00 0.  1.
          1   -1    0    0  501    0  0.00000000000E+00 -0.00000000000E+00 -0.47456328724E+04  0.47456328724E+04  0.00000000000E+00 0. -1.
        -24    2    1    2    0    0 -0.14998639643E+04  0.94893801499E+03 -0.35818894303E+04  0.39982965636E+04  0.79801326857E+02 0.  0.
    5000000    2    1    2    0    0  0.14998639643E+04 -0.94893801499E+03 -0.37225159216E+02  0.18738545917E+04  0.59989169918E+03 0.  0.
        -24    2    4    4    0    0  0.19409739843E+03 -0.61343382769E+02 -0.18526625447E+03  0.28612205496E+03  0.78137280519E+02 0.  0.
         24    2    4    4    0    0  0.13057665659E+04 -0.88759463222E+03  0.14804109525E+03  0.15877325368E+04  0.78280819483E+02 0.  0.
         11    1    3    3    0    0 -0.58272925143E+03  0.39158312246E+03 -0.13408538694E+04  0.15135388404E+04  0.00000000000E+00 0. -1.
        -12    1    3    3    0    0 -0.91713471290E+03  0.55735489253E+03 -0.22410355609E+04  0.24847577232E+04  0.00000000000E+00 0.  1.
         15    1    5    5    0    0  0.68972021729E+02 -0.56681862353E+00 -0.10464077962E+03  0.12534078168E+03  0.17770000000E+01 0. -1.
        -16    1    5    5    0    0  0.12512537670E+03 -0.60776564145E+02 -0.80625474846E+02  0.16078127328E+03  0.00000000000E+00 0.  1.
          4    1    6    6  502    0  0.10129876745E+04 -0.72680121595E+03  0.11217981703E+03  0.12517860630E+04  0.00000000000E+00 0. -1.
         -3    1    6    6    0  502  0.29277889136E+03 -0.16079341627E+03  0.35861278216E+02  0.33594647374E+03  0.00000000000E+00 0.  1.
<mgrwt>
<rscale>  0 0.17820824E+04</rscale>
<asrwt>0</asrwt>
<pdfrwt beam="1">  1        1 0.73009736E+00 0.17820824E+04</pdfrwt>
<pdfrwt beam="2">  1       -2 0.17331051E+00 0.17820824E+04</pdfrwt>
<totfact> 0.28836341E-03</totfact>
</mgrwt>
</event>
<event>
12    3  0.1201947E-007  0.6293868E+03  0.7818608E-02  0.9846246E-01
         -2   -1    0    0    0  501 -0.00000000000E+00  0.00000000000E+00  0.18822048364E+03  0.18822048364E+03  0.00000000000E+00 0.  1.
          1   -1    0    0  501    0  0.00000000000E+00 -0.00000000000E+00 -0.37238151663E+04  0.37238151663E+04  0.00000000000E+00 0. -1.
        -24    2    1    2    0    0 -0.38727628790E+02 -0.57063042224E+03 -0.49477452326E+03  0.76024806484E+03  0.77822767948E+02 0.  0.
    5000000    2    1    2    0    0  0.38727628790E+02  0.57063042224E+03 -0.30408201594E+04  0.31517875851E+04  0.60004902443E+03 0.  0.
        -24    2    4    4    0    0 -0.93151141902E+02 -0.28444839141E+01 -0.12190554988E+03  0.17305354677E+03  0.80008378521E+02 0.  0.
         24    2    4    4    0    0  0.13187877069E+03  0.57347490616E+03 -0.29189146096E+04  0.29787340384E+04  0.80799104005E+02 0.  0.
         11    1    3    3    0    0 -0.25121950783E+02 -0.39450950815E+03 -0.38763042158E+03  0.55364809054E+03  0.00000000000E+00 0. -1.
        -12    1    3    3    0    0 -0.13605678007E+02 -0.17612091409E+03 -0.10714410168E+03  0.20659997430E+03  0.00000000000E+00 0.  1.
         15    1    5    5    0    0 -0.69746402380E+02  0.43676578514E+01 -0.12971100025E+03  0.14734903595E+03  0.17770000000E+01 0. -1.
        -16    1    5    5    0    0 -0.23404739521E+02 -0.72121417655E+01  0.78054503777E+01  0.25704510820E+02  0.00000000000E+00 0.  1.
          4    1    6    6  502    0  0.17954091477E+02  0.22678387038E+03 -0.10183041863E+04  0.10434062915E+04  0.00000000000E+00 0. -1.
         -3    1    6    6    0  502  0.11392467921E+03  0.34669103578E+03 -0.19006104232E+04  0.19353277469E+04  0.00000000000E+00 0.  1.
<mgrwt>
<rscale>  0 0.62938675E+03</rscale>
<asrwt>0</asrwt>
<pdfrwt beam="1">  1        1 0.57289459E+00 0.62938675E+03</pdfrwt>
<pdfrwt beam="2">  1       -2 0.28957000E-01 0.62938675E+03</pdfrwt>
<totfact> 0.17781258E+00</totfact>
</mgrwt>
</event>
<event>
12    3  0.1201947E-007  0.6322454E+03  0.7818608E-02  0.9840677E-01
         -2   -1    0    0    0  501 -0.00000000000E+00  0.00000000000E+00  0.26097280310E+04  0.26097280310E+04  0.00000000000E+00 0.  1.
          1   -1    0    0  501    0  0.00000000000E+00 -0.00000000000E+00 -0.28019187689E+03  0.28019187689E+03  0.00000000000E+00 0. -1.
        -24    2    1    2    0    0  0.49102696761E+03  0.19097048408E+03  0.19204007698E+04  0.19929350507E+04  0.79207267067E+02 0.  0.
    5000000    2    1    2    0    0 -0.49102696761E+03 -0.19097048408E+03  0.40913538432E+03  0.89698485715E+03  0.59967729867E+03 0.  0.
        -24    2    4    4    0    0  0.82714070232E+02  0.29236133368E+02 -0.43723155551E+02  0.13070522567E+03  0.86462551301E+02 0.  0.
         24    2    4    4    0    0 -0.57374103785E+03 -0.22020661745E+03  0.45285853987E+03  0.76627963148E+03  0.66587413275E+02 0.  0.
         11    1    3    3    0    0  0.25975027895E+03  0.11866966451E+03  0.11716744818E+04  0.12059742070E+04  0.00000000000E+00 0. -1.
        -12    1    3    3    0    0  0.23127668866E+03  0.72300819576E+02  0.74872628796E+03  0.78696084370E+03  0.00000000000E+00 0.  1.
         15    1    5    5    0    0 -0.59263574462E+01  0.30939423621E+02 -0.24602153010E+02  0.40009915125E+02  0.17770000000E+01 0. -1.
        -16    1    5    5    0    0  0.88640427678E+02 -0.17032902525E+01 -0.19121002541E+02  0.90695310545E+02  0.00000000000E+00 0.  1.
          2    1    6    6  502    0 -0.41052470259E+03 -0.13420076455E+03  0.29038410142E+03  0.52044529299E+03  0.00000000000E+00 0. -1.
         -1    1    6    6    0  502 -0.16321633526E+03 -0.86005852903E+02  0.16247443845E+03  0.24583433848E+03  0.00000000000E+00 0.  1.
<mgrwt>
<rscale>  0 0.63224542E+03</rscale>
<asrwt>0</asrwt>
<pdfrwt beam="1">  1        1 0.43106444E-01 0.63224542E+03</pdfrwt>
<pdfrwt beam="2">  1       -2 0.40149660E+00 0.63224542E+03</pdfrwt>
<totfact> 0.66314675E-01</totfact>
</mgrwt>
</event>
<event>
12    3  0.1201947E-007  0.3605171E+03  0.7818608E-02  0.1058379E+00
          1   -1    0    0  501    0  0.00000000000E+00  0.00000000000E+00  0.20212562816E+04  0.20212562816E+04  0.00000000000E+00 0. -1.
         -2   -1    0    0    0  501 -0.00000000000E+00 -0.00000000000E+00 -0.89964587432E+02  0.89964587432E+02  0.00000000000E+00 0.  1.
        -24    2    1    2    0    0  0.10622911102E+03 -0.41399038388E+02  0.91624964631E+03  0.92652979464E+03  0.77107338124E+02 0.  0.
    5000000    2    1    2    0    0 -0.10622911102E+03  0.41399038388E+02  0.10150420479E+04  0.11846910744E+04  0.60015337908E+03 0.  0.
        -24    2    4    4    0    0 -0.56457909647E+01  0.30191307401E+03  0.62772590007E+03  0.70081916686E+03  0.76969603196E+02 0.  0.
         24    2    4    4    0    0 -0.10058332006E+03 -0.26051403562E+03  0.38731614782E+03  0.48387190756E+03  0.78317670621E+02 0.  0.
         13    1    3    3    0    0  0.39072670739E+02 -0.48382079312E+02  0.59626491462E+03  0.59949924738E+03  0.00000000000E+00 0. -1.
        -14    1    3    3    0    0  0.67156440284E+02  0.69830409236E+01  0.31998473168E+03  0.32703054726E+03  0.00000000000E+00 0.  1.
         15    1    5    5    0    0  0.97593457858E+01  0.64737082578E+02  0.77582497991E+02  0.10152997791E+03  0.17770000000E+01 0. -1.
        -16    1    5    5    0    0 -0.15405136751E+02  0.23717599143E+03  0.55014340208E+03  0.59928918895E+03  0.00000000000E+00 0.  1.
          4    1    6    6  502    0  0.10229235154E+02 -0.41040395579E+02  0.39056383111E+02  0.57570412391E+02  0.00000000000E+00 0. -1.
         -3    1    6    6    0  502 -0.11081255521E+03 -0.21947364004E+03  0.34825976471E+03  0.42630149517E+03  0.00000000000E+00 0.  1.
<mgrwt>
<rscale>  0 0.36051707E+03</rscale>
<asrwt>0</asrwt>
<pdfrwt beam="1">  1        1 0.31096247E+00 0.36051707E+03</pdfrwt>
<pdfrwt beam="2">  1       -2 0.13840707E-01 0.36051707E+03</pdfrwt>
<totfact> 0.11052767E+02</totfact>
</mgrwt>
</event>
<event>
12    3  0.1201947E-007  0.1987963E+04  0.7818608E-02  0.8612269E-01
          1   -1    0    0  501    0  0.00000000000E+00  0.00000000000E+00  0.30265242478E+04  0.30265242478E+04  0.00000000000E+00 0. -1.
         -2   -1    0    0    0  501 -0.00000000000E+00 -0.00000000000E+00 -0.19314068008E+04  0.19314068008E+04  0.00000000000E+00 0.  1.
        -24    2    1    2    0    0  0.91401273700E+03  0.17359094227E+04  0.19205975724E+04  0.27466344595E+04  0.80653654467E+02 0.  0.
    5000000    2    1    2    0    0 -0.91401273700E+03 -0.17359094227E+04 -0.82548012542E+03  0.22112965891E+04  0.59967854740E+03 0.  0.
        -24    2    4    4    0    0 -0.24977402847E+03 -0.14806464136E+03 -0.26438126697E+03  0.39926705169E+03  0.72156225798E+02 0.  0.
         24    2    4    4    0    0 -0.66423870853E+03 -0.15878447813E+04 -0.56109885845E+03  0.18120295374E+04  0.78453832894E+02 0.  0.
         11    1    3    3    0    0  0.98339929757E+02  0.15812247051E+03  0.21045076381E+03  0.28100352569E+03  0.00000000000E+00 0. -1.
        -12    1    3    3    0    0  0.81567280724E+03  0.15777869522E+04  0.17101468086E+04  0.24656309339E+04  0.00000000000E+00 0.  1.
         15    1    5    5    0    0 -0.59533733344E+02 -0.45224087894E+02 -0.30606145713E+02  0.80804563090E+02  0.17770000000E+01 0. -1.
        -16    1    5    5    0    0 -0.19024029512E+03 -0.10284055346E+03 -0.23377512125E+03  0.31846248860E+03  0.00000000000E+00 0.  1.
          4    1    6    6  502    0 -0.28722650695E+03 -0.60094123802E+03 -0.23713368436E+03  0.70700906791E+03  0.00000000000E+00 0. -1.
         -3    1    6    6    0  502 -0.37701220159E+03 -0.98690354332E+03 -0.32396517409E+03  0.11050204695E+04  0.00000000000E+00 0.  1.
<mgrwt>
<rscale>  0 0.19879633E+04</rscale>
<asrwt>0</asrwt>
<pdfrwt beam="1">  1        1 0.46561912E+00 0.19879633E+04</pdfrwt>
<pdfrwt beam="2">  1       -2 0.29713951E+00 0.19879633E+04</pdfrwt>
<totfact> 0.14692546E-02</totfact>
</mgrwt>
</event>
<event>
12    3  0.1201947E-007  0.1026384E+04  0.7818608E-02  0.9280071E-01
          1   -1    0    0  501    0  0.00000000000E+00  0.00000000000E+00  0.16620172573E+04  0.16620172573E+04  0.00000000000E+00 0. -1.
         -2   -1    0    0    0  501 -0.00000000000E+00 -0.00000000000E+00 -0.76210890000E+03  0.76210890000E+03  0.00000000000E+00 0.  1.
        -24    2    1    2    0    0  0.87417740347E+03 -0.50435666278E+03  0.13165502380E+03  0.10209840296E+04  0.80706675241E+02 0.  0.
    5000000    2    1    2    0    0 -0.87417740347E+03  0.50435666278E+03  0.76825333349E+03  0.14031421277E+04  0.60002739102E+03 0.  0.
        -24    2    4    4    0    0 -0.19607205254E+02  0.15721234408E+02  0.29633640503E+03  0.30858187136E+03  0.82315895659E+02 0.  0.
         24    2    4    4    0    0 -0.85457019821E+03  0.48863542837E+03  0.47191692846E+03  0.10945602563E+04  0.79383636655E+02 0.  0.
         13    1    3    3    0    0  0.76361944988E+03 -0.42401615844E+03  0.89778185863E+02  0.87804583566E+03  0.00000000000E+00 0. -1.
        -14    1    3    3    0    0  0.11055795359E+03 -0.80340504337E+02  0.41876837940E+02  0.14293819397E+03  0.00000000000E+00 0.  1.
         15    1    5    5    0    0  0.11845789151E+02 -0.10881757652E+02  0.22950086897E+03  0.23007073251E+03  0.17770000000E+01 0. -1.
        -16    1    5    5    0    0 -0.31452994404E+02  0.26602992060E+02  0.66835536056E+02  0.78511138850E+02  0.00000000000E+00 0.  1.
          4    1    6    6  502    0 -0.38016638121E+03  0.19368507223E+03  0.16734328854E+03  0.45830575038E+03  0.00000000000E+00 0. -1.
         -3    1    6    6    0  502 -0.47440381700E+03  0.29495035614E+03  0.30457363992E+03  0.63625450593E+03  0.00000000000E+00 0.  1.
<mgrwt>
<rscale>  0 0.10263843E+04</rscale>
<asrwt>0</asrwt>
<pdfrwt beam="1">  1        1 0.25569496E+00 0.10263843E+04</pdfrwt>
<pdfrwt beam="2">  1       -2 0.11724752E+00 0.10263843E+04</pdfrwt>
<totfact> 0.24911291E+00</totfact>
</mgrwt>
</event>
<event>
12    3  0.1201947E-007  0.7296084E+03  0.7818608E-02  0.9667896E-01
          3   -1    0    0  501    0  0.00000000000E+00  0.00000000000E+00  0.89762528084E+03  0.89762528084E+03  0.00000000000E+00 0. -1.
         -4   -1    0    0    0  501 -0.00000000000E+00 -0.00000000000E+00 -0.76470014717E+03  0.76470014717E+03  0.00000000000E+00 0.  1.
        -24    2    1    2    0    0 -0.89942399043E+02 -0.70664220145E+03 -0.27957386283E+02  0.71719824007E+03  0.78478430811E+02 0.  0.
    5000000    2    1    2    0    0  0.89942399043E+02  0.70664220145E+03  0.16088251996E+03  0.94512718794E+03  0.59995781530E+03 0.  0.
        -24    2    4    4    0    0  0.14474654929E+03  0.52457911111E+03  0.36120251980E+03  0.65797843104E+03  0.79583591627E+02 0.  0.
         24    2    4    4    0    0 -0.54804150245E+02  0.18206309033E+03 -0.20031999984E+03  0.28714875690E+03  0.78586528805E+02 0.  0.
         13    1    3    3    0    0 -0.14070204426E+02 -0.48024872793E+02 -0.20779577366E+02  0.54186251900E+02  0.00000000000E+00 0. -1.
        -14    1    3    3    0    0 -0.75872194617E+02 -0.65861732865E+03 -0.71778089164E+01  0.66301198817E+03  0.00000000000E+00 0.  1.
         15    1    5    5    0    0  0.56206215555E+02  0.10107963492E+03  0.56035609898E+02  0.12852773463E+03  0.17770000000E+01 0. -1.
        -16    1    5    5    0    0  0.88540333734E+02  0.42349947619E+03  0.30516690990E+03  0.52945069641E+03  0.00000000000E+00 0.  1.
          4    1    6    6  502    0 -0.19121965386E+02  0.89324993889E+01 -0.52969132781E+02  0.57019015540E+02  0.00000000000E+00 0. -1.
         -3    1    6    6    0  502 -0.35682184859E+02  0.17313059094E+03 -0.14735086705E+03  0.23012974136E+03  0.00000000000E+00 0.  1.
<mgrwt>
<rscale>  0 0.72960841E+03</rscale>
<asrwt>0</asrwt>
<pdfrwt beam="1">  1        3 0.13809620E+00 0.72960841E+03</pdfrwt>
<pdfrwt beam="2">  1       -4 0.11764618E+00 0.72960841E+03</pdfrwt>
<totfact> 0.50034241E-01</totfact>
</mgrwt>
</event>
<event>
12    3  0.1201947E-007  0.4664271E+03  0.7818608E-02  0.1022933E+00
          1   -1    0    0  501    0  0.00000000000E+00  0.00000000000E+00  0.58975095269E+03  0.58975095269E+03  0.00000000000E+00 0. -1.
         -2   -1    0    0    0  501 -0.00000000000E+00 -0.00000000000E+00 -0.55593866624E+03  0.55593866624E+03  0.00000000000E+00 0.  1.
        -24    2    1    2    0    0 -0.17082274531E+03 -0.29120116261E+03 -0.22140843921E+03  0.41143892324E+03  0.79257574940E+02 0.  0.
    5000000    2    1    2    0    0  0.17082274531E+03  0.29120116261E+03  0.25522072566E+03  0.73425069570E+03  0.60000661489E+03 0.  0.
        -24    2    4    4    0    0 -0.15721162306E+03  0.12770317677E+03 -0.78907786522E+02  0.23191131481E+03  0.80825883113E+02 0.  0.
         24    2    4    4    0    0  0.32803436837E+03  0.16349798584E+03  0.33412851218E+03  0.50233938089E+03  0.79780027178E+02 0.  0.
         13    1    3    3    0    0 -0.14288703654E+03 -0.16856044468E+03 -0.14368762442E+03  0.26358198371E+03  0.00000000000E+00 0. -1.
        -14    1    3    3    0    0 -0.27935708774E+02 -0.12264071792E+03 -0.77720814789E+02  0.14785693953E+03  0.00000000000E+00 0.  1.
         15    1    5    5    0    0 -0.10875566555E+03  0.41177620389E+02 -0.60316689814E+02  0.13101393822E+03  0.17770000000E+01 0. -1.
        -16    1    5    5    0    0 -0.48455957512E+02  0.86525556380E+02 -0.18591096708E+02  0.10089737659E+03  0.00000000000E+00 0.  1.
          2    1    6    6  502    0  0.15466193591E+03  0.46620562756E+02  0.18452396967E+03  0.24524046704E+03  0.00000000000E+00 0. -1.
         -1    1    6    6    0  502  0.17337243246E+03  0.11687742308E+03  0.14960454251E+03  0.25709891385E+03  0.00000000000E+00 0.  1.
<mgrwt>
<rscale>  0 0.46642713E+03</rscale>
<asrwt>0</asrwt>
<pdfrwt beam="1">  1        1 0.90730916E-01 0.46642713E+03</pdfrwt>
<pdfrwt beam="2">  1       -2 0.85529025E-01 0.46642713E+03</pdfrwt>
<totfact> 0.38213378E+01</totfact>
</mgrwt>
</event>
<event>
12    3  0.1201947E-007  0.6002035E+03  0.7818608E-02  0.9904984E-01
         -2   -1    0    0    0  501 -0.00000000000E+00  0.00000000000E+00  0.16393403147E+03  0.16393403147E+03  0.00000000000E+00 0.  1.
          1   -1    0    0  501    0  0.00000000000E+00 -0.00000000000E+00 -0.24484712445E+04  0.24484712445E+04  0.00000000000E+00 0. -1.
        -24    2    1    2    0    0  0.11090228349E+03 -0.45327458742E+03 -0.60007115688E+03  0.76439189411E+03  0.80326872156E+02 0.  0.
    5000000    2    1    2    0    0 -0.11090228349E+03  0.45327458742E+03 -0.16844660562E+04  0.18480133819E+04  0.59997533043E+03 0.  0.
        -24    2    4    4    0    0  0.18431228846E+03  0.37729512749E+03 -0.76720490917E+03  0.87794661347E+03  0.76578394781E+02 0.  0.
         24    2    4    4    0    0 -0.29521457195E+03  0.75979459929E+02 -0.91726114699E+03  0.97006676839E+03  0.82079239435E+02 0.  0.
         11    1    3    3    0    0  0.19335173261E+02 -0.19150613235E+03 -0.29365134546E+03  0.35111189148E+03  0.00000000000E+00 0. -1.
        -12    1    3    3    0    0  0.91567110226E+02 -0.26176845507E+03 -0.30641981142E+03  0.41328000263E+03  0.00000000000E+00 0.  1.
         15    1    5    5    0    0  0.44267427238E+02  0.16388311012E+03 -0.34664274824E+03  0.38598138754E+03  0.17770000000E+01 0. -1.
        -16    1    5    5    0    0  0.14004486122E+03  0.21341201737E+03 -0.42056216093E+03  0.49196522593E+03  0.00000000000E+00 0.  1.
          2    1    6    6  502    0 -0.18541700474E+03  0.58316025830E+02 -0.69305037867E+03  0.71979097792E+03  0.00000000000E+00 0. -1.
         -1    1    6    6    0  502 -0.10979756721E+03  0.17663434099E+02 -0.22421076831E+03  0.25027579047E+03  0.00000000000E+00 0.  1.
<mgrwt>
<rscale>  0 0.60020348E+03</rscale>
<asrwt>0</asrwt>
<pdfrwt beam="1">  1        1 0.37668790E+00 0.60020348E+03</pdfrwt>
<pdfrwt beam="2">  1       -2 0.25220619E-01 0.60020348E+03</pdfrwt>
<totfact> 0.19521866E+01</totfact>
</mgrwt>
</event>
<event>
12    3  0.1201947E-007  0.7995883E+03  0.7818608E-02  0.9560613E-01
         -2   -1    0    0    0  501 -0.00000000000E+00  0.00000000000E+00  0.22708205425E+03  0.22708205425E+03  0.00000000000E+00 0.  1.
          1   -1    0    0  501    0  0.00000000000E+00 -0.00000000000E+00 -0.31791295345E+04  0.31791295345E+04  0.00000000000E+00 0. -1.
        -24    2    1    2    0    0  0.70212785165E+03 -0.19823707686E+03 -0.15598901535E+04  0.17238477669E+04  0.78181671147E+02 0.  0.
    5000000    2    1    2    0    0 -0.70212785165E+03  0.19823707686E+03 -0.13921573268E+04  0.16823638219E+04  0.59997045597E+03 0.  0.
        -24    2    4    4    0    0 -0.61438627448E+03  0.32525785333E+03 -0.13207113712E+04  0.14945967268E+04  0.79231840212E+02 0.  0.
         24    2    4    4    0    0 -0.87741577170E+02 -0.12702077647E+03 -0.71445955627E+02  0.18776709508E+03  0.79492738037E+02 0.  0.
         13    1    3    3    0    0  0.48598659617E+03 -0.10714614174E+03 -0.11111880819E+04  0.12175394124E+04  0.00000000000E+00 0. -1.
        -14    1    3    3    0    0  0.21614125548E+03 -0.91090935115E+02 -0.44870207159E+03  0.50630835449E+03  0.00000000000E+00 0.  1.
         15    1    5    5    0    0 -0.44367054342E+03  0.19430281469E+03 -0.89970404101E+03  0.10217962879E+04  0.17770000000E+01 0. -1.
        -16    1    5    5    0    0 -0.17071573106E+03  0.13095503864E+03 -0.42100733015E+03  0.47280043890E+03  0.00000000000E+00 0.  1.
          4    1    6    6  502    0 -0.78469941283E+02 -0.57412975446E+02 -0.65622599949E+02  0.11730348272E+03  0.00000000000E+00 0. -1.
         -3    1    6    6    0  502 -0.92716358866E+01 -0.69607801026E+02 -0.58233556780E+01  0.70463612361E+02  0.00000000000E+00 0.  1.
<mgrwt>
<rscale>  0 0.79958832E+03</rscale>
<asrwt>0</asrwt>
<pdfrwt beam="1">  1        1 0.48909684E+00 0.79958832E+03</pdfrwt>
<pdfrwt beam="2">  1       -2 0.34935701E-01 0.79958832E+03</pdfrwt>
<totfact> 0.31601858E+00</totfact>
</mgrwt>
</event>
<event>
12    3  0.1201947E-007  0.7454980E+03  0.7818608E-02  0.9642440E-01
         -2   -1    0    0    0  501 -0.00000000000E+00  0.00000000000E+00  0.36414614263E+03  0.36414614263E+03  0.00000000000E+00 0.  1.
          1   -1    0    0  501    0  0.00000000000E+00 -0.00000000000E+00 -0.21773946529E+04  0.21773946529E+04  0.00000000000E+00 0. -1.
        -24    2    1    2    0    0 -0.48972429257E+03  0.54457931166E+03 -0.12174809104E+04  0.14228848625E+04  0.77104184116E+02 0.  0.
    5000000    2    1    2    0    0  0.48972429257E+03 -0.54457931166E+03 -0.59576759990E+03  0.11186559331E+04  0.60004629336E+03 0.  0.
        -24    2    4    4    0    0  0.14529345546E+03 -0.27838472259E+03  0.58712950307E+02  0.32858586688E+03  0.76897460343E+02 0.  0.
         24    2    4    4    0    0  0.34443083710E+03 -0.26619458907E+03 -0.65448055021E+03  0.79007006624E+03  0.79835820037E+02 0.  0.
         11    1    3    3    0    0 -0.26153372645E+03  0.30361297683E+03 -0.59306344681E+03  0.71575483352E+03  0.00000000000E+00 0. -1.
        -12    1    3    3    0    0 -0.22819056612E+03  0.24096633483E+03 -0.62441746360E+03  0.70713002894E+03  0.00000000000E+00 0.  1.
         15    1    5    5    0    0  0.14410338471E+03 -0.20995655463E+03  0.41517019283E+02  0.25802007855E+03  0.17770000000E+01 0. -1.
        -16    1    5    5    0    0  0.11900707560E+01 -0.68428167955E+02  0.17195931024E+02  0.70565788325E+02  0.00000000000E+00 0.  1.
          4    1    6    6  502    0  0.96442016309E+02 -0.74274283909E+02 -0.25192669419E+03  0.27979419402E+03  0.00000000000E+00 0. -1.
         -3    1    6    6    0  502  0.24798882080E+03 -0.19192030516E+03 -0.40255385602E+03  0.51027587222E+03  0.00000000000E+00 0.  1.
<mgrwt>
<rscale>  0 0.74549800E+03</rscale>
<asrwt>0</asrwt>
<pdfrwt beam="1">  1        1 0.33498380E+00 0.74549800E+03</pdfrwt>
<pdfrwt beam="2">  1       -2 0.56022483E-01 0.74549800E+03</pdfrwt>
<totfact> 0.62108197E+00</totfact>
</mgrwt>
</event>
<event>
12    3  0.1201947E-007  0.8521986E+03  0.7818608E-02  0.9487391E-01
          1   -1    0    0  501    0  0.00000000000E+00  0.00000000000E+00  0.19094016626E+04  0.19094016626E+04  0.00000000000E+00 0. -1.
         -2   -1    0    0    0  501 -0.00000000000E+00 -0.00000000000E+00 -0.40451930579E+03  0.40451930579E+03  0.00000000000E+00 0.  1.
        -24    2    1    2    0    0 -0.75267254444E+03  0.12001600657E+03  0.84468835215E+03  0.11405524172E+04  0.80259598848E+02 0.  0.
    5000000    2    1    2    0    0  0.75267254444E+03 -0.12001600657E+03  0.66019400471E+03  0.11733685512E+04  0.60001485991E+03 0.  0.
        -24    2    4    4    0    0  0.26175747518E+03 -0.30563504738E+03  0.43055123709E+03  0.59489910949E+03  0.81245459645E+02 0.  0.
         24    2    4    4    0    0  0.49091506926E+03  0.18561904081E+03  0.22964276762E+03  0.57846944171E+03  0.80243758231E+02 0.  0.
         11    1    3    3    0    0 -0.16071042102E+03 -0.13102837684E+01  0.20657783864E+03  0.26173261105E+03  0.00000000000E+00 0. -1.
        -12    1    3    3    0    0 -0.59196212342E+03  0.12132629034E+03  0.63811051351E+03  0.87881980618E+03  0.00000000000E+00 0.  1.
         15    1    5    5    0    0  0.16216231602E+03 -0.13174779867E+03  0.19710203599E+03  0.28723939408E+03  0.17770000000E+01 0. -1.
        -16    1    5    5    0    0  0.99595159162E+02 -0.17388724871E+03  0.23344920110E+03  0.30765971541E+03  0.00000000000E+00 0.  1.
          4    1    6    6  502    0  0.67186886145E+02  0.54553284073E+02  0.49872813942E+02  0.99887116504E+02  0.00000000000E+00 0. -1.
         -3    1    6    6    0  502  0.42372818312E+03  0.13106575674E+03  0.17976995368E+03  0.47858232521E+03  0.00000000000E+00 0.  1.
<mgrwt>
<rscale>  0 0.85219859E+03</rscale>
<asrwt>0</asrwt>
<pdfrwt beam="1">  1        1 0.29375410E+00 0.85219859E+03</pdfrwt>
<pdfrwt beam="2">  1       -2 0.62233740E-01 0.85219859E+03</pdfrwt>
<totfact> 0.74088068E+00</totfact>
</mgrwt>
</event>
<event>
12    3  0.1201947E-007  0.9544007E+03  0.7818608E-02  0.9360022E-01
          1   -1    0    0  501    0  0.00000000000E+00  0.00000000000E+00  0.25529871637E+04  0.25529871637E+04  0.00000000000E+00 0. -1.
         -2   -1    0    0    0  501 -0.00000000000E+00 -0.00000000000E+00 -0.44687247530E+03  0.44687247530E+03  0.00000000000E+00 0.  1.
        -24    2    1    2    0    0 -0.61928869113E+03  0.61681858378E+03  0.16005599416E+04  0.18253830450E+04  0.79041039237E+02 0.  0.
    5000000    2    1    2    0    0  0.61928869113E+03 -0.61681858378E+03  0.50555474674E+03  0.11744765940E+04  0.59985499883E+03 0.  0.
        -24    2    4    4    0    0  0.58254874617E+03 -0.70656358726E+03  0.38032053301E+03  0.99567907509E+03  0.90210688031E+02 0.  0.
         24    2    4    4    0    0  0.36739944959E+02  0.89745003479E+02  0.12523421373E+03  0.17879751890E+03  0.82951523620E+02 0.  0.
         11    1    3    3    0    0 -0.34885408089E+03  0.40195259046E+03  0.97077982069E+03  0.11071036605E+04  0.00000000000E+00 0. -1.
        -12    1    3    3    0    0 -0.27043461024E+03  0.21486599332E+03  0.62978012093E+03  0.71827938452E+03  0.00000000000E+00 0.  1.
         15    1    5    5    0    0  0.33142744253E+03 -0.34687774788E+03  0.16802881039E+03  0.50833567697E+03  0.17770000000E+01 0. -1.
        -16    1    5    5    0    0  0.25112130364E+03 -0.35968583938E+03  0.21229172262E+03  0.48734339812E+03  0.00000000000E+00 0.  1.
          2    1    6    6  502    0  0.47931294981E+02  0.42101436803E+02  0.11066133250E+03  0.12773359202E+03  0.00000000000E+00 0. -1.
         -1    1    6    6    0  502 -0.11191350022E+02  0.47643566676E+02  0.14572881228E+02  0.51063926878E+02  0.00000000000E+00 0.  1.
<mgrwt>
<rscale>  0 0.95440075E+03</rscale>
<asrwt>0</asrwt>
<pdfrwt beam="1">  1        1 0.39276725E+00 0.95440075E+03</pdfrwt>
<pdfrwt beam="2">  1       -2 0.68749613E-01 0.95440075E+03</pdfrwt>
<totfact> 0.21615336E+00</totfact>
</mgrwt>
</event>
<event>
12    3  0.1201947E-007  0.5113195E+03  0.7818608E-02  0.1010866E+00
         -2   -1    0    0    0  501 -0.00000000000E+00  0.00000000000E+00  0.79601675834E+03  0.79601675834E+03  0.00000000000E+00 0.  1.
          1   -1    0    0  501    0  0.00000000000E+00 -0.00000000000E+00 -0.72085065135E+03  0.72085065135E+03  0.00000000000E+00 0. -1.
        -24    2    1    2    0    0 -0.13372182693E+02 -0.41336856359E+03  0.51529543931E+03  0.66558700784E+03  0.80151672403E+02 0.  0.
    5000000    2    1    2    0    0  0.13372182693E+02  0.41336856359E+03 -0.44012933232E+03  0.85128040186E+03  0.59992675284E+03 0.  0.
        -24    2    4    4    0    0 -0.17707242206E+03  0.35300455021E+03 -0.48556017463E+03  0.63083478646E+03  0.78847888363E+02 0.  0.
         24    2    4    4    0    0  0.19044460475E+03  0.60364013377E+02  0.45430842309E+02  0.22044561539E+03  0.81359365311E+02 0.  0.
         11    1    3    3    0    0  0.25080125757E+02 -0.17862866630E+03  0.18326863058E+03  0.25714704759E+03  0.00000000000E+00 0. -1.
        -12    1    3    3    0    0 -0.38452308450E+02 -0.23473989729E+03  0.33202680873E+03  0.40843996024E+03  0.00000000000E+00 0.  1.
         15    1    5    5    0    0 -0.16428328974E+03  0.27434165613E+03 -0.41845433017E+03  0.52664934040E+03  0.17770000000E+01 0. -1.
        -16    1    5    5    0    0 -0.12789132318E+02  0.78662894079E+02 -0.67105844466E+02  0.10418544607E+03  0.00000000000E+00 0.  1.
          4    1    6    6  502    0  0.94164510486E+02  0.60083474425E+01  0.55425957525E+02  0.10943076369E+03  0.00000000000E+00 0. -1.
         -3    1    6    6    0  502  0.96280094264E+02  0.54355665935E+02 -0.99951152160E+01  0.11101485170E+03  0.00000000000E+00 0.  1.
<mgrwt>
<rscale>  0 0.51131954E+03</rscale>
<asrwt>0</asrwt>
<pdfrwt beam="1">  1        1 0.11090010E+00 0.51131954E+03</pdfrwt>
<pdfrwt beam="2">  1       -2 0.12246412E+00 0.51131954E+03</pdfrwt>
<totfact> 0.12118255E+01</totfact>
</mgrwt>
</event>
<event>
12    3  0.1201947E-007  0.8535428E+03  0.7818608E-02  0.9485594E-01
          1   -1    0    0  501    0  0.00000000000E+00  0.00000000000E+00  0.41673524409E+03  0.41673524409E+03  0.00000000000E+00 0. -1.
         -2   -1    0    0    0  501 -0.00000000000E+00 -0.00000000000E+00 -0.20329438848E+04  0.20329438848E+04  0.00000000000E+00 0.  1.
        -24    2    1    2    0    0 -0.25933785078E+03  0.77315558904E+03 -0.85072866216E+03  0.11804868806E+04  0.69168872714E+02 0.  0.
    5000000    2    1    2    0    0  0.25933785078E+03 -0.77315558904E+03 -0.76547997860E+03  0.12691922483E+04  0.59988638913E+03 0.  0.
        -24    2    4    4    0    0  0.23250668098E+02 -0.57428568494E+03 -0.18854053493E+03  0.61017770726E+03  0.80153974508E+02 0.  0.
         24    2    4    4    0    0  0.23608718268E+03 -0.19886990410E+03 -0.57693944366E+03  0.65901454106E+03  0.78451558910E+02 0.  0.
         13    1    3    3    0    0 -0.73275192250E+02  0.29063068767E+03 -0.34744242021E+03  0.45885911321E+03  0.00000000000E+00 0. -1.
        -14    1    3    3    0    0 -0.18606265853E+03  0.48252490137E+03 -0.50328624195E+03  0.72162776740E+03  0.00000000000E+00 0.  1.
         15    1    5    5    0    0 -0.12458118450E+02 -0.40673395013E+03 -0.15596491467E+03  0.43579344103E+03  0.17770000000E+01 0. -1.
        -16    1    5    5    0    0  0.35708786548E+02 -0.16755173481E+03 -0.32575620264E+02  0.17438426623E+03  0.00000000000E+00 0.  1.
          2    1    6    6  502    0  0.21437519566E+03 -0.16022709894E+03 -0.53393187722E+03  0.59725429865E+03  0.00000000000E+00 0. -1.
         -1    1    6    6    0  502  0.21711987020E+02 -0.38642805162E+02 -0.43007566445E+02  0.61760242411E+02  0.00000000000E+00 0.  1.
<mgrwt>
<rscale>  0 0.85354279E+03</rscale>
<asrwt>0</asrwt>
<pdfrwt beam="1">  1        1 0.64113116E-01 0.85354279E+03</pdfrwt>
<pdfrwt beam="2">  1       -2 0.31276059E+00 0.85354279E+03</pdfrwt>
<totfact> 0.13617139E+00</totfact>
</mgrwt>
</event>
<event>
12    3  0.1201947E-007  0.7997517E+03  0.7818608E-02  0.9560377E-01
         -2   -1    0    0    0  501 -0.00000000000E+00  0.00000000000E+00  0.28166562885E+03  0.28166562885E+03  0.00000000000E+00 0.  1.
          1   -1    0    0  501    0  0.00000000000E+00 -0.00000000000E+00 -0.30183047428E+04  0.30183047428E+04  0.00000000000E+00 0. -1.
        -24    2    1    2    0    0 -0.25177541128E+03  0.64421011901E+03 -0.20214314918E+04  0.21379490617E+04  0.79015056451E+02 0.  0.
    5000000    2    1    2    0    0  0.25177541128E+03 -0.64421011901E+03 -0.71520762215E+03  0.11620213100E+04  0.60031162479E+03 0.  0.
        -24    2    4    4    0    0  0.43174146830E+03 -0.40024024734E+03 -0.54430886297E+03  0.80574669956E+03  0.79766249114E+02 0.  0.
         24    2    4    4    0    0 -0.17996605703E+03 -0.24396987168E+03 -0.17089875918E+03  0.35627461040E+03  0.76263570352E+02 0.  0.
         13    1    3    3    0    0 -0.16073980377E+03  0.50373471899E+03 -0.15398615029E+04  0.16281152906E+04  0.00000000000E+00 0. -1.
        -14    1    3    3    0    0 -0.91035607507E+02  0.14047540003E+03 -0.48156998891E+03  0.50983377101E+03  0.00000000000E+00 0.  1.
         15    1    5    5    0    0  0.15641963025E+03 -0.18132714716E+03 -0.18208914393E+03  0.30084256529E+03  0.17770000000E+01 0. -1.
        -16    1    5    5    0    0  0.27532183805E+03 -0.21891310018E+03 -0.36221971904E+03  0.50490413427E+03  0.00000000000E+00 0.  1.
          2    1    6    6  502    0 -0.83107262732E+01 -0.59760468806E+02 -0.25365846405E+02  0.65450805702E+02  0.00000000000E+00 0. -1.
         -1    1    6    6    0  502 -0.17165533075E+03 -0.18420940287E+03 -0.14553291277E+03  0.29082380470E+03  0.00000000000E+00 0.  1.
<mgrwt>
<rscale>  0 0.79975173E+03</rscale>
<asrwt>0</asrwt>
<pdfrwt beam="1">  1        1 0.46435457E+00 0.79975173E+03</pdfrwt>
<pdfrwt beam="2">  1       -2 0.43333174E-01 0.79975173E+03</pdfrwt>
<totfact> 0.27223130E+00</totfact>
</mgrwt>
</event>
<event>
12    3  0.1201947E-007  0.9711516E+03  0.7818608E-02  0.9340764E-01
         -2   -1    0    0    0  501 -0.00000000000E+00  0.00000000000E+00  0.29282547218E+03  0.29282547218E+03  0.00000000000E+00 0.  1.
          1   -1    0    0  501    0  0.00000000000E+00 -0.00000000000E+00 -0.36458401248E+04  0.36458401248E+04  0.00000000000E+00 0. -1.
        -24    2    1    2    0    0  0.91421057462E+03 -0.46351647878E+02 -0.19791602284E+04  0.21820750943E+04  0.80293569810E+02 0.  0.
    5000000    2    1    2    0    0 -0.91421057462E+03  0.46351647878E+02 -0.13738544242E+04  0.17565905027E+04  0.60017061344E+03 0.  0.
        -24    2    4    4    0    0 -0.93138564839E+03  0.86224268129E+02 -0.13748864790E+04  0.16649543499E+04  0.82742412087E+02 0.  0.
         24    2    4    4    0    0  0.17175073770E+02 -0.39872620251E+02  0.10320548200E+01  0.91636152748E+02  0.80692690800E+02 0.  0.
         13    1    3    3    0    0  0.26414188873E+03 -0.26128157148E+02 -0.49529349067E+03  0.56193350129E+03  0.00000000000E+00 0. -1.
        -14    1    3    3    0    0  0.65006868590E+03 -0.20223490730E+02 -0.14838667377E+04  0.16201415930E+04  0.00000000000E+00 0.  1.
         15    1    5    5    0    0 -0.57046408934E+03  0.20592402673E+02 -0.88000197259E+03  0.10489327689E+04  0.17770000000E+01 0. -1.
        -16    1    5    5    0    0 -0.36092155905E+03  0.65631865457E+02 -0.49488450643E+03  0.61602158100E+03  0.00000000000E+00 0.  1.
          4    1    6    6  502    0 -0.20246115705E+02 -0.46582641558E+02  0.11755326539E+02  0.52134781075E+02  0.00000000000E+00 0. -1.
         -1    1    6    6    0  502  0.37421189475E+02  0.67100213065E+01 -0.10723271719E+02  0.39501371673E+02  0.00000000000E+00 0.  1.
<mgrwt>
<rscale>  0 0.97115163E+03</rscale>
<asrwt>0</asrwt>
<pdfrwt beam="1">  1        1 0.56089850E+00 0.97115163E+03</pdfrwt>
<pdfrwt beam="2">  1       -2 0.45050071E-01 0.97115163E+03</pdfrwt>
<totfact> 0.82023450E-01</totfact>
</mgrwt>
</event>
<event>
12    3  0.1201947E-007  0.7157619E+03  0.7818608E-02  0.9690651E-01
          3   -1    0    0  501    0  0.00000000000E+00  0.00000000000E+00  0.46922043489E+03  0.46922043489E+03  0.00000000000E+00 0. -1.
         -4   -1    0    0    0  501 -0.00000000000E+00 -0.00000000000E+00 -0.12324682653E+04  0.12324682653E+04  0.00000000000E+00 0.  1.
        -24    2    1    2    0    0  0.63822163432E+03  0.38058355879E+01 -0.36128743360E+03  0.73780651512E+03  0.80551258070E+02 0.  0.
    5000000    2    1    2    0    0 -0.63822163432E+03 -0.38058355879E+01 -0.40196039680E+03  0.96388218506E+03  0.60012945868E+03 0.  0.
        -24    2    4    4    0    0  0.38207393403E+02 -0.94013803052E+02  0.54803317064E+02  0.13884101038E+03  0.77298269880E+02 0.  0.
         24    2    4    4    0    0 -0.67642902772E+03  0.90207967465E+02 -0.45676371387E+03  0.82504117468E+03  0.79788111063E+02 0.  0.
         13    1    3    3    0    0  0.35875852753E+03  0.18672779613E+02 -0.24452349612E+03  0.43456655869E+03  0.00000000000E+00 0. -1.
        -14    1    3    3    0    0  0.27946310679E+03 -0.14866944025E+02 -0.11676393748E+03  0.30323995643E+03  0.00000000000E+00 0.  1.
         15    1    5    5    0    0 -0.60287137410E+01 -0.32670876227E+02  0.53739065359E+02  0.63204243667E+02  0.17770000000E+01 0. -1.
        -16    1    5    5    0    0  0.44236107144E+02 -0.61342926825E+02  0.10642517052E+01  0.75636766711E+02  0.00000000000E+00 0.  1.
          2    1    6    6  502    0 -0.16690404639E+03  0.54294117736E+01 -0.14881941983E+03  0.22368204875E+03  0.00000000000E+00 0. -1.
         -1    1    6    6    0  502 -0.50952498134E+03  0.84778555691E+02 -0.30794429403E+03  0.60135912593E+03  0.00000000000E+00 0.  1.
<mgrwt>
<rscale>  0 0.71576192E+03</rscale>
<asrwt>0</asrwt>
<pdfrwt beam="1">  1        3 0.72187760E-01 0.71576192E+03</pdfrwt>
<pdfrwt beam="2">  1       -4 0.18961050E+00 0.71576192E+03</pdfrwt>
<totfact> 0.63949679E-01</totfact>
</mgrwt>
</event>
<event>
12    3  0.1201947E-007  0.4422881E+03  0.7818608E-02  0.1030047E+00
         -2   -1    0    0    0  501 -0.00000000000E+00  0.00000000000E+00  0.50537405797E+03  0.50537405797E+03  0.00000000000E+00 0.  1.
          1   -1    0    0  501    0  0.00000000000E+00 -0.00000000000E+00 -0.77087868341E+03  0.77087868341E+03  0.00000000000E+00 0. -1.
        -24    2    1    2    0    0 -0.27776418602E+03  0.39364028828E+02 -0.49570234859E+03  0.57506915127E+03  0.79254277727E+02 0.  0.
    5000000    2    1    2    0    0  0.27776418602E+03 -0.39364028828E+02  0.23019772316E+03  0.70118359011E+03  0.59997080387E+03 0.  0.
        -24    2    4    4    0    0 -0.39715570941E+02  0.19575100350E+03  0.20493865455E+03  0.29708391132E+03  0.79769770519E+02 0.  0.
         24    2    4    4    0    0  0.31747975696E+03 -0.23511503233E+03  0.25259068606E+02  0.40409967879E+03  0.81154515249E+02 0.  0.
         13    1    3    3    0    0 -0.15408995569E+03  0.46809510559E+02 -0.33896363491E+03  0.37527481998E+03  0.00000000000E+00 0. -1.
        -14    1    3    3    0    0 -0.12367423033E+03 -0.74454817308E+01 -0.15673871369E+03  0.19979433128E+03  0.00000000000E+00 0.  1.
         15    1    5    5    0    0 -0.17110030529E+02  0.57519639879E+02  0.11754139442E+03  0.13198636008E+03  0.17770000000E+01 0. -1.
        -16    1    5    5    0    0 -0.22605540413E+02  0.13823136362E+03  0.87397260134E+02  0.16509755124E+03  0.00000000000E+00 0.  1.
          2    1    6    6  502    0  0.26331963261E+03 -0.22045750583E+03  0.40907484810E+02  0.34584991414E+03  0.00000000000E+00 0. -1.
         -1    1    6    6    0  502  0.54160124348E+02 -0.14657526501E+02 -0.15648416204E+02  0.58249764653E+02  0.00000000000E+00 0.  1.
<mgrwt>
<rscale>  0 0.44228805E+03</rscale>
<asrwt>0</asrwt>
<pdfrwt beam="1">  1        1 0.11859672E+00 0.44228805E+03</pdfrwt>
<pdfrwt beam="2">  1       -2 0.77749855E-01 0.44228805E+03</pdfrwt>
<totfact> 0.31996911E+01</totfact>
</mgrwt>
</event>
<event>
12    3  0.1201947E-007  0.7315837E+03  0.7818608E-02  0.9664694E-01
         -2   -1    0    0    0  501 -0.00000000000E+00  0.00000000000E+00  0.68458414194E+03  0.68458414194E+03  0.00000000000E+00 0.  1.
          1   -1    0    0  501    0  0.00000000000E+00 -0.00000000000E+00 -0.19284256432E+04  0.19284256432E+04  0.00000000000E+00 0. -1.
        -24    2    1    2    0    0  0.47019151302E+03  0.42158716106E+03  0.40044368171E+03  0.75224125780E+03  0.81828933889E+02 0.  0.
    5000000    2    1    2    0    0 -0.47019151302E+03 -0.42158716106E+03 -0.16442851830E+04  0.18607685273E+04  0.59997496290E+03 0.  0.
        -24    2    4    4    0    0 -0.53128719596E+03 -0.48997365879E+03 -0.14138522509E+04  0.15899838815E+04  0.82038313924E+02 0.  0.
         24    2    4    4    0    0  0.61095682940E+02  0.68386497733E+02 -0.23043293206E+03  0.27078464589E+03  0.10869955256E+03 0.  0.
         11    1    3    3    0    0  0.31137837990E+03  0.29080308438E+03  0.22477145088E+03  0.48171063356E+03  0.00000000000E+00 0. -1.
        -12    1    3    3    0    0  0.15881313313E+03  0.13078407667E+03  0.17567223083E+03  0.27053062423E+03  0.00000000000E+00 0.  1.
         15    1    5    5    0    0 -0.34863506618E+03 -0.36794275297E+03 -0.95104326358E+03  0.10776895312E+04  0.17770000000E+01 0. -1.
        -16    1    5    5    0    0 -0.18265212978E+03 -0.12203090581E+03 -0.46280898734E+03  0.51229435020E+03  0.00000000000E+00 0.  1.
          4    1    6    6  502    0  0.58627011368E+02  0.29076581401E+02 -0.40830491577E+02  0.77134318499E+02  0.00000000000E+00 0. -1.
         -3    1    6    6    0  502  0.24686715720E+01  0.39309916332E+02 -0.18960244049E+03  0.19365032739E+03  0.00000000000E+00 0.  1.
<mgrwt>
<rscale>  0 0.73158367E+03</rscale>
<asrwt>0</asrwt>
<pdfrwt beam="1">  1        1 0.29668087E+00 0.73158367E+03</pdfrwt>
<pdfrwt beam="2">  1       -2 0.10532064E+00 0.73158367E+03</pdfrwt>
<totfact> 0.22333070E+00</totfact>
</mgrwt>
</event>
<event>
12    3  0.1201947E-007  0.4197172E+03  0.7818608E-02  0.1037158E+00
         -2   -1    0    0    0  501 -0.00000000000E+00  0.00000000000E+00  0.31160497498E+03  0.31160497498E+03  0.00000000000E+00 0.  1.
          1   -1    0    0  501    0  0.00000000000E+00 -0.00000000000E+00 -0.73419802392E+03  0.73419802392E+03  0.00000000000E+00 0. -1.
        -24    2    1    2    0    0  0.27531327395E+03 -0.48130858988E+02 -0.80763987168E+02  0.30087340580E+03  0.76733345407E+02 0.  0.
    5000000    2    1    2    0    0 -0.27531327395E+03  0.48130858988E+02 -0.34182906177E+03  0.74492959310E+03  0.59996584303E+03 0.  0.
        -24    2    4    4    0    0  0.42365458830E+01 -0.18397802204E+03  0.47758233535E+02  0.20617474727E+03  0.79757862486E+02 0.  0.
         24    2    4    4    0    0 -0.27954981983E+03  0.23210888102E+03 -0.38958729531E+03  0.53875484583E+03  0.80348545861E+02 0.  0.
         13    1    3    3    0    0  0.11114163221E+03 -0.23091155359E+02 -0.72306727403E+02  0.13458798867E+03  0.00000000000E+00 0. -1.
        -14    1    3    3    0    0  0.16417164174E+03 -0.25039703630E+02 -0.84572597654E+01  0.16628541714E+03  0.00000000000E+00 0.  1.
         15    1    5    5    0    0  0.22657484052E+02 -0.11067237317E+03 -0.64423066635E+01  0.11316535163E+03  0.17770000000E+01 0. -1.
        -16    1    5    5    0    0 -0.18420938169E+02 -0.73305648870E+02  0.54200540198E+02  0.93009395639E+02  0.00000000000E+00 0.  1.
          4    1    6    6  502    0 -0.38145867595E+02  0.72387150504E+02 -0.71300414260E+02  0.10852997672E+03  0.00000000000E+00 0. -1.
         -3    1    6    6    0  502 -0.24140395223E+03  0.15972173052E+03 -0.31828688105E+03  0.43022486911E+03  0.00000000000E+00 0.  1.
<mgrwt>
<rscale>  0 0.41971724E+03</rscale>
<asrwt>0</asrwt>
<pdfrwt beam="1">  1        1 0.11295354E+00 0.41971724E+03</pdfrwt>
<pdfrwt beam="2">  1       -2 0.47939228E-01 0.41971724E+03</pdfrwt>
<totfact> 0.95657678E+01</totfact>
</mgrwt>
</event>
<event>
12    3  0.1201947E-007  0.1514452E+04  0.7818608E-02  0.8874899E-01
         -2   -1    0    0    0  501 -0.00000000000E+00  0.00000000000E+00  0.48354902423E+04  0.48354902423E+04  0.00000000000E+00 0.  1.
          1   -1    0    0  501    0  0.00000000000E+00 -0.00000000000E+00 -0.65186777974E+03  0.65186777974E+03  0.00000000000E+00 0. -1.
        -24    2    1    2    0    0 -0.10476004701E+04  0.10548470130E+04  0.68483787665E+03  0.16387845218E+04  0.80267215253E+02 0.  0.
    5000000    2    1    2    0    0  0.10476004701E+04 -0.10548470130E+04  0.34987845859E+04  0.38485735002E+04  0.59987952297E+03 0.  0.
        -24    2    4    4    0    0  0.60514129869E+03 -0.86115982210E+03  0.18672741014E+04  0.21452366550E+04  0.86807289794E+02 0.  0.
         24    2    4    4    0    0  0.44245917143E+03 -0.19368719091E+03  0.16315104845E+04  0.17033368453E+04  0.79025950972E+02 0.  0.
         13    1    3    3    0    0 -0.40653895658E+03  0.36222990097E+03  0.22883347706E+03  0.59063456095E+03  0.00000000000E+00 0. -1.
        -14    1    3    3    0    0 -0.64106151354E+03  0.69261711204E+03  0.45600439959E+03  0.10481499609E+04  0.00000000000E+00 0.  1.
         15    1    5    5    0    0  0.19552902238E+03 -0.34037688425E+03  0.65053262644E+03  0.75979199635E+03  0.17770000000E+01 0. -1.
        -16    1    5    5    0    0  0.40961227632E+03 -0.52078293785E+03  0.12167414750E+04  0.13854446586E+04  0.00000000000E+00 0.  1.
          2    1    6    6  502    0  0.60520045341E+01  0.31059492769E+01  0.70162839547E+01  0.97725083947E+01  0.00000000000E+00 0. -1.
         -1    1    6    6    0  502  0.43640716690E+03 -0.19679314019E+03  0.16244942006E+04  0.16935643369E+04  0.00000000000E+00 0.  1.
<mgrwt>
<rscale>  0 0.15144515E+04</rscale>
<asrwt>0</asrwt>
<pdfrwt beam="1">  1        1 0.10028735E+00 0.15144515E+04</pdfrwt>
<pdfrwt beam="2">  1       -2 0.74392155E+00 0.15144515E+04</pdfrwt>
<totfact> 0.38814360E-03</totfact>
</mgrwt>
</event>
<event>
12    3  0.1201947E-007  0.8595401E+03  0.7818608E-02  0.9477621E-01
         -2   -1    0    0    0  501 -0.00000000000E+00  0.00000000000E+00  0.52797648013E+03  0.52797648013E+03  0.00000000000E+00 0.  1.
          1   -1    0    0  501    0  0.00000000000E+00 -0.00000000000E+00 -0.15787972207E+04  0.15787972207E+04  0.00000000000E+00 0. -1.
        -24    2    1    2    0    0  0.11506803318E+03 -0.75399200481E+03 -0.79098753659E+03  0.11021873345E+04  0.86087406973E+02 0.  0.
    5000000    2    1    2    0    0 -0.11506803318E+03  0.75399200481E+03 -0.25983320396E+03  0.10045863663E+04  0.59994656260E+03 0.  0.
        -24    2    4    4    0    0  0.21897944954E+03  0.44492544953E+03 -0.88339970481E+02  0.50984039202E+03  0.78883585045E+02 0.  0.
         24    2    4    4    0    0 -0.33404748272E+03  0.30906655528E+03 -0.17149323348E+03  0.49474597432E+03  0.90850391701E+02 0.  0.
         11    1    3    3    0    0  0.48433640982E+02 -0.24673460223E+03 -0.31832225868E+03  0.40565113322E+03  0.00000000000E+00 0. -1.
        -12    1    3    3    0    0  0.66634392199E+02 -0.50725740258E+03 -0.47266527791E+03  0.69653620124E+03  0.00000000000E+00 0.  1.
         15    1    5    5    0    0  0.42858050471E+02  0.16169223915E+03 -0.46996629858E+02  0.17376142736E+03  0.17770000000E+01 0. -1.
        -16    1    5    5    0    0  0.17612139907E+03  0.28323321038E+03 -0.41343340623E+02  0.33607896466E+03  0.00000000000E+00 0.  1.
          4    1    6    6  502    0 -0.23074334316E+03  0.21992019988E+03 -0.16303513000E+03  0.35803329222E+03  0.00000000000E+00 0. -1.
         -3    1    6    6    0  502 -0.10330413956E+03  0.89146355404E+02 -0.84581034834E+01  0.13671268210E+03  0.00000000000E+00 0.  1.
<mgrwt>
<rscale>  0 0.85954008E+03</rscale>
<asrwt>0</asrwt>
<pdfrwt beam="1">  1        1 0.24289188E+00 0.85954008E+03</pdfrwt>
<pdfrwt beam="2">  1       -2 0.81227151E-01 0.85954008E+03</pdfrwt>
<totfact> 0.68936443E+00</totfact>
</mgrwt>
</event>
<event>
12    3  0.1201947E-007  0.4694989E+03  0.7818608E-02  0.1022062E+00
          1   -1    0    0  501    0  0.00000000000E+00  0.00000000000E+00  0.13734281172E+04  0.13734281172E+04  0.00000000000E+00 0. -1.
         -2   -1    0    0    0  501 -0.00000000000E+00 -0.00000000000E+00 -0.19719372574E+03  0.19719372574E+03  0.00000000000E+00 0.  1.
        -24    2    1    2    0    0  0.29694585883E+03  0.47718385290E+02  0.15195711122E+03  0.34603616334E+03  0.78715788229E+02 0.  0.
    5000000    2    1    2    0    0 -0.29694585883E+03 -0.47718385290E+02  0.10242772802E+04  0.12245856796E+04  0.60001021032E+03 0.  0.
        -24    2    4    4    0    0 -0.43881794737E+03 -0.13919460158E+03  0.57998401814E+03  0.74475271228E+03  0.79616663482E+02 0.  0.
         24    2    4    4    0    0  0.14187208854E+03  0.91476216288E+02  0.44429326210E+03  0.47983296732E+03  0.65936227716E+02 0.  0.
         11    1    3    3    0    0  0.21382990713E+03  0.32992877560E+02  0.14681433417E+03  0.26146932491E+03  0.00000000000E+00 0. -1.
        -12    1    3    3    0    0  0.83115951704E+02  0.14725507730E+02  0.51427770460E+01  0.84566838426E+02  0.00000000000E+00 0.  1.
         15    1    5    5    0    0 -0.34319067777E+03 -0.13187638006E+03  0.41966514336E+03  0.55793656558E+03  0.17770000000E+01 0. -1.
        -16    1    5    5    0    0 -0.95627269601E+02 -0.73182215142E+01  0.16031887478E+03  0.18681614670E+03  0.00000000000E+00 0.  1.
          2    1    6    6  502    0  0.72667561338E+02  0.73062786161E+02  0.19625243002E+03  0.22166136669E+03  0.00000000000E+00 0. -1.
         -1    1    6    6    0  502  0.69204527204E+02  0.18413430127E+02  0.24804083208E+03  0.25817160063E+03  0.00000000000E+00 0.  1.
<mgrwt>
<rscale>  0 0.46949887E+03</rscale>
<asrwt>0</asrwt>
<pdfrwt beam="1">  1        1 0.21129663E+00 0.46949887E+03</pdfrwt>
<pdfrwt beam="2">  1       -2 0.30337497E-01 0.46949887E+03</pdfrwt>
<totfact> 0.74608597E+01</totfact>
</mgrwt>
</event>
<event>
12    3  0.1283525E-007  0.3718837E+03  0.7818608E-02  0.1053975E+00
          1   -1    0    0  501    0  0.00000000000E+00  0.00000000000E+00  0.13722981714E+04  0.13722981714E+04  0.00000000000E+00 0. -1.
         -2   -1    0    0    0  501 -0.00000000000E+00 -0.00000000000E+00 -0.15282175657E+03  0.15282175657E+03  0.00000000000E+00 0.  1.
        -24    2    1    2    0    0  0.21032131041E+03  0.13939040406E+03  0.34891026816E+03  0.43813748751E+03  0.81002125723E+02 0.  0.
    5000000    2    1    2    0    0 -0.21032131041E+03 -0.13939040406E+03  0.87056614662E+03  0.10869824404E+04  0.59998389293E+03 0.  0.
        -24    2    4    4    0    0  0.86175782579E+02 -0.14651007555E+03  0.71951397951E+03  0.74330602158E+03  0.76889578425E+02 0.  0.
         24    2    4    4    0    0 -0.29649709299E+03  0.71196714882E+01  0.15105216711E+03  0.34367641883E+03  0.85647579061E+02 0.  0.
         13    1    3    3    0    0  0.81762734236E+02  0.93732590677E+02  0.20543347695E+03  0.24015381887E+03  0.00000000000E+00 0. -1.
        -14    1    3    3    0    0  0.12855857618E+03  0.45657813387E+02  0.14347679121E+03  0.19798366864E+03  0.00000000000E+00 0.  1.
         15    1    5    5    0    0  0.52131061148E+02 -0.22738065983E+02  0.18264739296E+03  0.19130576328E+03  0.17770000000E+01 0. -1.
        -16    1    5    5    0    0  0.34044721431E+02 -0.12377200957E+03  0.53686658655E+03  0.55200025830E+03  0.00000000000E+00 0.  1.
          2    1    6    6  502    0 -0.74072036190E+02  0.12908533672E+02  0.79526537646E+00  0.75192614225E+02  0.00000000000E+00 0. -1.
         -1    1    6    6    0  502 -0.22242505680E+03 -0.57888621840E+01  0.15025690173E+03  0.26848380461E+03  0.00000000000E+00 0.  1.
<mgrwt>
<rscale>  0 0.37188367E+03</rscale>
<asrwt>0</asrwt>
<pdfrwt beam="1">  1        1 0.21112279E+00 0.37188367E+03</pdfrwt>
<pdfrwt beam="2">  1       -2 0.23511040E-01 0.37188367E+03</pdfrwt>
<totfact> 0.12018529E+02</totfact>
</mgrwt>
</event>
<event>
12    3  0.1201947E-007  0.9209585E+03  0.7818608E-02  0.9399755E-01
         -2   -1    0    0    0  501 -0.00000000000E+00  0.00000000000E+00  0.67213623954E+03  0.67213623954E+03  0.00000000000E+00 0.  1.
          1   -1    0    0  501    0  0.00000000000E+00 -0.00000000000E+00 -0.15604489177E+04  0.15604489177E+04  0.00000000000E+00 0. -1.
        -24    2    1    2    0    0  0.53532903974E+03  0.73352134173E+03 -0.64711458225E+03  0.11179255335E+04  0.79808998570E+02 0.  0.
    5000000    2    1    2    0    0 -0.53532903974E+03 -0.73352134173E+03 -0.24119809590E+03  0.11146596238E+04  0.59971561245E+03 0.  0.
        -24    2    4    4    0    0 -0.45337178960E+03 -0.52930252069E+03 -0.42198203636E+03  0.81867329752E+03  0.80311836327E+02 0.  0.
         24    2    4    4    0    0 -0.81957250144E+02 -0.20421882104E+03  0.18078394045E+03  0.29598632624E+03  0.80639658226E+02 0.  0.
         11    1    3    3    0    0  0.21176242053E+03  0.28014490516E+03 -0.20365842309E+03  0.40595719470E+03  0.00000000000E+00 0. -1.
        -12    1    3    3    0    0  0.32356661921E+03  0.45337643658E+03 -0.44345615916E+03  0.71196833877E+03  0.00000000000E+00 0.  1.
         15    1    5    5    0    0 -0.34738701002E+03 -0.44476141558E+03 -0.36161550514E+03  0.67026814247E+03  0.17770000000E+01 0. -1.
        -16    1    5    5    0    0 -0.10598477958E+03 -0.84541105107E+02 -0.60366531218E+02  0.14840515505E+03  0.00000000000E+00 0.  1.
          2    1    6    6  502    0 -0.62244199521E+02 -0.20484810120E+03  0.17080696040E+03  0.27388337419E+03  0.00000000000E+00 0. -1.
         -1    1    6    6    0  502 -0.19713050623E+02  0.62928015539E+00  0.99769800516E+01  0.22102952050E+02  0.00000000000E+00 0.  1.
<mgrwt>
<rscale>  0 0.92095849E+03</rscale>
<asrwt>0</asrwt>
<pdfrwt beam="1">  1        1 0.24006906E+00 0.92095849E+03</pdfrwt>
<pdfrwt beam="2">  1       -2 0.10340558E+00 0.92095849E+03</pdfrwt>
<totfact> 0.40169433E+00</totfact>
</mgrwt>
</event>
<event>
12    3  0.1201947E-007  0.7847024E+03  0.7818608E-02  0.9582428E-01
         -2   -1    0    0    0  501 -0.00000000000E+00  0.00000000000E+00  0.90082025398E+03  0.90082025398E+03  0.00000000000E+00 0.  1.
          1   -1    0    0  501    0  0.00000000000E+00 -0.00000000000E+00 -0.92820185550E+03  0.92820185550E+03  0.00000000000E+00 0. -1.
        -24    2    1    2    0    0  0.25851558133E+03 -0.64039068459E+03 -0.44274227991E+03  0.82419407779E+03  0.79653102473E+02 0.  0.
    5000000    2    1    2    0    0 -0.25851558133E+03  0.64039068459E+03  0.41536067839E+03  0.10048280317E+04  0.60018692540E+03 0.  0.
        -24    2    4    4    0    0 -0.13087055885E+03 -0.69244258522E+02  0.14955290446E+03  0.23239292125E+03  0.98582595351E+02 0.  0.
         24    2    4    4    0    0 -0.12764502249E+03  0.70963494311E+03  0.26580777394E+03  0.77243511044E+03  0.78276579511E+02 0.  0.
         13    1    3    3    0    0  0.14500608263E+03 -0.25432274723E+03 -0.18902284968E+03  0.34847734713E+03  0.00000000000E+00 0. -1.
        -14    1    3    3    0    0  0.11350949871E+03 -0.38606793736E+03 -0.25371943023E+03  0.47571673066E+03  0.00000000000E+00 0.  1.
         15    1    5    5    0    0 -0.66799087411E+02 -0.14157211047E+02  0.12816559463E+03  0.14523127101E+03  0.17770000000E+01 0. -1.
        -16    1    5    5    0    0 -0.64071471435E+02 -0.55087047475E+02  0.21387309828E+02  0.87161650243E+02  0.00000000000E+00 0.  1.
          2    1    6    6  502    0 -0.27482338251E+02  0.21601275940E+03  0.11718545488E+03  0.24728368724E+03  0.00000000000E+00 0. -1.
         -1    1    6    6    0  502 -0.10016268424E+03  0.49362218371E+03  0.14862231906E+03  0.52515142320E+03  0.00000000000E+00 0.  1.
<mgrwt>
<rscale>  0 0.78470242E+03</rscale>
<asrwt>0</asrwt>
<pdfrwt beam="1">  1        1 0.14280029E+00 0.78470242E+03</pdfrwt>
<pdfrwt beam="2">  1       -2 0.13858773E+00 0.78470242E+03</pdfrwt>
<totfact> 0.56883111E+00</totfact>
</mgrwt>
</event>
<event>
12    3  0.1201947E-007  0.2051920E+04  0.7818608E-02  0.8582724E-01
          1   -1    0    0  501    0  0.00000000000E+00  0.00000000000E+00  0.11668209551E+04  0.11668209551E+04  0.00000000000E+00 0. -1.
         -2   -1    0    0    0  501 -0.00000000000E+00 -0.00000000000E+00 -0.36700047928E+04  0.36700047928E+04  0.00000000000E+00 0.  1.
        -24    2    1    2    0    0  0.76273989424E+03  0.18624778054E+04 -0.96371904357E+03  0.22328731730E+04  0.79827876786E+02 0.  0.
    5000000    2    1    2    0    0 -0.76273989424E+03 -0.18624778054E+04 -0.15394647942E+04  0.26039525748E+04  0.60001786428E+03 0.  0.
        -24    2    4    4    0    0 -0.84922241885E+03 -0.16119986474E+04 -0.13374155392E+04  0.22615567026E+04  0.78993914791E+02 0.  0.
         24    2    4    4    0    0  0.86482524616E+02 -0.25047915800E+03 -0.20204925503E+03  0.34239587225E+03  0.78689238307E+02 0.  0.
         13    1    3    3    0    0  0.39216535942E+03  0.85255081400E+03 -0.44996626161E+03  0.10407238808E+04  0.00000000000E+00 0. -1.
        -14    1    3    3    0    0  0.37057453481E+03  0.10099269914E+04 -0.51375278196E+03  0.11921492922E+04  0.00000000000E+00 0.  1.
         15    1    5    5    0    0 -0.55659193246E+03 -0.99953118963E+03 -0.80523125010E+03  0.13990202651E+04  0.17770000000E+01 0. -1.
        -16    1    5    5    0    0 -0.29263048640E+03 -0.61246745781E+03 -0.53218428908E+03  0.86253643748E+03  0.00000000000E+00 0.  1.
          2    1    6    6  502    0  0.16046663893E+02 -0.91917161512E+02 -0.11557162029E+03  0.14853639089E+03  0.00000000000E+00 0. -1.
         -1    1    6    6    0  502  0.70435860723E+02 -0.15856199649E+03 -0.86477634738E+02  0.19385948136E+03  0.00000000000E+00 0.  1.
<mgrwt>
<rscale>  0 0.20519200E+04</rscale>
<asrwt>0</asrwt>
<pdfrwt beam="1">  1        1 0.17951091E+00 0.20519200E+04</pdfrwt>
<pdfrwt beam="2">  1       -2 0.56461613E+00 0.20519200E+04</pdfrwt>
<totfact> 0.62505105E-03</totfact>
</mgrwt>
</event>
<event>
12    3  0.1201947E-007  0.3764275E+03  0.7818608E-02  0.1052262E+00
         -2   -1    0    0    0  501 -0.00000000000E+00  0.00000000000E+00  0.69654069829E+03  0.69654069829E+03  0.00000000000E+00 0.  1.
          1   -1    0    0  501    0  0.00000000000E+00 -0.00000000000E+00 -0.77513772375E+03  0.77513772375E+03  0.00000000000E+00 0. -1.
        -24    2    1    2    0    0 -0.22914455651E+03 -0.28895756781E+02  0.53165704312E+03  0.58523332115E+03  0.80601713112E+02 0.  0.
    5000000    2    1    2    0    0  0.22914455651E+03  0.28895756781E+02 -0.61025406857E+03  0.88644510089E+03  0.60002724617E+03 0.  0.
        -24    2    4    4    0    0  0.36612544428E+03  0.60989995741E+02 -0.61661535998E+03  0.72423841406E+03  0.80865058645E+02 0.  0.
         24    2    4    4    0    0 -0.13698088777E+03 -0.32094238960E+02  0.63612914032E+01  0.16220668683E+03  0.80478192304E+02 0.  0.
         11    1    3    3    0    0 -0.15465670066E+03 -0.35995254008E+02  0.27146368006E+03  0.31449464695E+03  0.00000000000E+00 0. -1.
        -12    1    3    3    0    0 -0.74487855848E+02  0.70994972271E+01  0.26019336306E+03  0.27073867421E+03  0.00000000000E+00 0.  1.
         15    1    5    5    0    0  0.12449366041E+03  0.56067688095E+02 -0.25572128924E+03  0.28989445084E+03  0.17770000000E+01 0. -1.
        -16    1    5    5    0    0  0.24163178386E+03  0.49223076463E+01 -0.36089407074E+03  0.43434396321E+03  0.00000000000E+00 0.  1.
          4    1    6    6  502    0 -0.81709458597E+02 -0.14354705440E+02 -0.35908774237E+02  0.90398745897E+02  0.00000000000E+00 0. -1.
         -3    1    6    6    0  502 -0.55271429172E+02 -0.17739533520E+02  0.42270065640E+02  0.71807940936E+02  0.00000000000E+00 0.  1.
<mgrwt>
<rscale>  0 0.37642753E+03</rscale>
<asrwt>0</asrwt>
<pdfrwt beam="1">  1        1 0.11925196E+00 0.37642753E+03</pdfrwt>
<pdfrwt beam="2">  1       -2 0.10716011E+00 0.37642753E+03</pdfrwt>
<totfact> 0.15360673E+01</totfact>
</mgrwt>
</event>
<event>
12    3  0.1201947E-007  0.1324543E+04  0.7818608E-02  0.9010326E-01
         -2   -1    0    0    0  501 -0.00000000000E+00  0.00000000000E+00  0.23277432050E+04  0.23277432050E+04  0.00000000000E+00 0.  1.
          1   -1    0    0  501    0  0.00000000000E+00 -0.00000000000E+00 -0.84139126501E+03  0.84139126501E+03  0.00000000000E+00 0. -1.
        -24    2    1    2    0    0  0.91861665674E+03  0.94228308490E+03  0.95665313576E+03  0.16288660849E+04  0.79155076634E+02 0.  0.
    5000000    2    1    2    0    0 -0.91861665674E+03 -0.94228308490E+03  0.52969880419E+03  0.15402683851E+04  0.60007657916E+03 0.  0.
        -24    2    4    4    0    0 -0.18043884872E+03 -0.13980814609E+03 -0.11873761580E+03  0.26912897102E+03  0.78913153485E+02 0.  0.
         24    2    4    4    0    0 -0.73817780802E+03 -0.80247493881E+03  0.64843642000E+03  0.12711394141E+04  0.80331286499E+02 0.  0.
         11    1    3    3    0    0  0.52042223312E+03  0.49183059109E+03  0.55252905002E+03  0.90444733521E+03  0.00000000000E+00 0. -1.
        -12    1    3    3    0    0  0.39819442362E+03  0.45045249381E+03  0.40412408574E+03  0.72441874966E+03  0.00000000000E+00 0.  1.
         15    1    5    5    0    0 -0.66904786124E+02 -0.10148096573E+03 -0.64156879195E+02  0.13745508244E+03  0.17770000000E+01 0. -1.
        -16    1    5    5    0    0 -0.11353406260E+03 -0.38327180361E+02 -0.54580736609E+02  0.13167388858E+03  0.00000000000E+00 0.  1.
          2    1    6    6  502    0 -0.22282977104E+03 -0.25009505094E+03  0.24251413453E+03  0.41353808387E+03  0.00000000000E+00 0. -1.
         -1    1    6    6    0  502 -0.51534803697E+03 -0.55237988788E+03  0.40592228547E+03  0.85760133021E+03  0.00000000000E+00 0.  1.
<mgrwt>
<rscale>  0 0.13245425E+04</rscale>
<asrwt>0</asrwt>
<pdfrwt beam="1">  1        1 0.12944481E+00 0.13245425E+04</pdfrwt>
<pdfrwt beam="2">  1       -2 0.35811434E+00 0.13245425E+04</pdfrwt>
<totfact> 0.23996984E-01</totfact>
</mgrwt>
</event>
<event>
12    3  0.1201947E-007  0.1146118E+04  0.7818608E-02  0.9161373E-01
          1   -1    0    0  501    0  0.00000000000E+00  0.00000000000E+00  0.18332939806E+04  0.18332939806E+04  0.00000000000E+00 0. -1.
         -2   -1    0    0    0  501 -0.00000000000E+00 -0.00000000000E+00 -0.76198078378E+03  0.76198078378E+03  0.00000000000E+00 0.  1.
        -24    2    1    2    0    0 -0.10401934393E+04  0.25831336839E+03  0.21004026304E+03  0.10950856072E+04  0.79795911480E+02 0.  0.
    5000000    2    1    2    0    0  0.10401934393E+04 -0.25831336839E+03  0.86127293373E+03  0.15001891572E+04  0.60004020992E+03 0.  0.
        -24    2    4    4    0    0  0.83770422134E+03  0.58813917081E+02  0.59494554266E+03  0.10322982055E+04  0.80448412986E+02 0.  0.
         24    2    4    4    0    0  0.20248921794E+03 -0.31712728547E+03  0.26632739108E+03  0.46789095163E+03  0.80125306927E+02 0.  0.
         13    1    3    3    0    0 -0.74225349073E+03  0.17097542852E+03  0.18345558399E+03  0.78347226687E+03  0.00000000000E+00 0. -1.
        -14    1    3    3    0    0 -0.29793994855E+03  0.87337939864E+02  0.26584679049E+02  0.31161334029E+03  0.00000000000E+00 0.  1.
         15    1    5    5    0    0  0.33482544917E+03  0.62835238598E+02  0.23528036298E+03  0.41402458328E+03  0.17770000000E+01 0. -1.
        -16    1    5    5    0    0  0.50287877217E+03 -0.40213215161E+01  0.35966517967E+03  0.61827362227E+03  0.00000000000E+00 0.  1.
          2    1    6    6  502    0  0.70254328892E+02 -0.12204068473E+03  0.54466159328E+02  0.15098397918E+03  0.00000000000E+00 0. -1.
         -1    1    6    6    0  502  0.13223488905E+03 -0.19508660074E+03  0.21186123175E+03  0.31690697245E+03  0.00000000000E+00 0.  1.
<mgrwt>
<rscale>  0 0.11461176E+04</rscale>
<asrwt>0</asrwt>
<pdfrwt beam="1">  1        1 0.28204523E+00 0.11461176E+04</pdfrwt>
<pdfrwt beam="2">  1       -2 0.11722781E+00 0.11461176E+04</pdfrwt>
<totfact> 0.18812804E+00</totfact>
</mgrwt>
</event>
<event>
12    3  0.1201947E-007  0.4825126E+03  0.7818608E-02  0.1018447E+00
         -2   -1    0    0    0  501 -0.00000000000E+00  0.00000000000E+00  0.16687313007E+03  0.16687313007E+03  0.00000000000E+00 0.  1.
          1   -1    0    0  501    0  0.00000000000E+00 -0.00000000000E+00 -0.30959210853E+04  0.30959210853E+04  0.00000000000E+00 0. -1.
        -24    2    1    2    0    0 -0.41631764063E+03 -0.15283690357E+03 -0.20981160035E+04  0.21460258334E+04  0.81588089909E+02 0.  0.
    5000000    2    1    2    0    0  0.41631764063E+03  0.15283690357E+03 -0.83093195173E+03  0.11167683820E+04  0.60003684355E+03 0.  0.
        -24    2    4    4    0    0  0.33346257777E+03  0.14949294276E+02 -0.86741690952E+03  0.93288087796E+03  0.80211379330E+02 0.  0.
         24    2    4    4    0    0  0.82855062869E+02  0.13788760930E+03  0.36484957789E+02  0.18388750403E+03  0.81274274858E+02 0.  0.
         11    1    3    3    0    0 -0.55255221559E+02 -0.40174232441E+02 -0.44344012797E+03  0.44867165673E+03  0.00000000000E+00 0. -1.
        -12    1    3    3    0    0 -0.36106241908E+03 -0.11266267113E+03 -0.16546758755E+04  0.16973541766E+04  0.00000000000E+00 0.  1.
         15    1    5    5    0    0  0.80414089208E+02 -0.30836520353E+02 -0.21727349014E+03  0.23372685763E+03  0.17770000000E+01 0. -1.
        -16    1    5    5    0    0  0.25304848856E+03  0.45785814629E+02 -0.65014341938E+03  0.69915402034E+03  0.00000000000E+00 0.  1.
          2    1    6    6  502    0  0.82744513887E+02  0.73156424429E+02  0.43652720281E+02  0.11876058690E+03  0.00000000000E+00 0. -1.
         -1    1    6    6    0  502  0.11054898152E+00  0.64731184869E+02 -0.71677624925E+01  0.65126917129E+02  0.00000000000E+00 0.  1.
<mgrwt>
<rscale>  0 0.48251262E+03</rscale>
<asrwt>0</asrwt>
<pdfrwt beam="1">  1        1 0.47629550E+00 0.48251262E+03</pdfrwt>
<pdfrwt beam="2">  1       -2 0.25672792E-01 0.48251262E+03</pdfrwt>
<totfact> 0.68873669E+00</totfact>
</mgrwt>
</event>
<event>
12    3  0.1201947E-007  0.5310693E+03  0.7818608E-02  0.1005973E+00
          1   -1    0    0  501    0  0.00000000000E+00  0.00000000000E+00  0.69835748898E+03  0.69835748898E+03  0.00000000000E+00 0. -1.
         -2   -1    0    0    0  501 -0.00000000000E+00 -0.00000000000E+00 -0.60010764801E+03  0.60010764801E+03  0.00000000000E+00 0.  1.
        -24    2    1    2    0    0 -0.22696169282E+03  0.43549243904E+03 -0.77483397460E+02  0.50345915718E+03  0.79386217918E+02 0.  0.
    5000000    2    1    2    0    0  0.22696169282E+03 -0.43549243904E+03  0.17573323843E+03  0.79500597982E+03  0.59998921856E+03 0.  0.
        -24    2    4    4    0    0 -0.54665682090E+02 -0.36220144941E+02  0.27522206622E+03  0.29120813070E+03  0.68954723929E+02 0.  0.
         24    2    4    4    0    0  0.28162737491E+03 -0.39927229410E+03 -0.99488827795E+02  0.50379784912E+03  0.71985434532E+02 0.  0.
         13    1    3    3    0    0 -0.17364943245E+03  0.37678798700E+03 -0.86020802384E+02  0.42370141725E+03  0.00000000000E+00 0. -1.
        -14    1    3    3    0    0 -0.53312260378E+02  0.58704452041E+02  0.85374049245E+01  0.79757739931E+02  0.00000000000E+00 0.  1.
         15    1    5    5    0    0 -0.24708340422E+01  0.90518618596E+01  0.25023628642E+01  0.98722222875E+01  0.17770000000E+01 0. -1.
        -16    1    5    5    0    0 -0.52194848048E+02 -0.45272006801E+02  0.27271970336E+03  0.28133590841E+03  0.00000000000E+00 0.  1.
          2    1    6    6  502    0  0.21497867390E+03 -0.28436993981E+03 -0.10250574399E+03  0.37093061406E+03  0.00000000000E+00 0. -1.
         -1    1    6    6    0  502  0.66648701013E+02 -0.11490235429E+03  0.30169161902E+01  0.13286723505E+03  0.00000000000E+00 0.  1.
<mgrwt>
<rscale>  0 0.53106931E+03</rscale>
<asrwt>0</asrwt>
<pdfrwt beam="1">  1        1 0.10743961E+00 0.53106931E+03</pdfrwt>
<pdfrwt beam="2">  1       -2 0.92324253E-01 0.53106931E+03</pdfrwt>
<totfact> 0.24900335E+01</totfact>
</mgrwt>
</event>
<event>
12    3  0.1201947E-007  0.1223787E+04  0.7818608E-02  0.9092287E-01
          1   -1    0    0  501    0  0.00000000000E+00  0.00000000000E+00  0.12516675629E+04  0.12516675629E+04  0.00000000000E+00 0. -1.
         -2   -1    0    0    0  501 -0.00000000000E+00 -0.00000000000E+00 -0.14529424859E+04  0.14529424859E+04  0.00000000000E+00 0.  1.
        -24    2    1    2    0    0  0.25217468106E+03  0.11924140197E+04  0.29812284987E+03  0.12571012023E+04  0.77349434083E+02 0.  0.
    5000000    2    1    2    0    0 -0.25217468106E+03 -0.11924140197E+04 -0.49939777286E+03  0.14475088465E+04  0.60036693860E+03 0.  0.
        -24    2    4    4    0    0 -0.14449127113E+03 -0.80662515638E+03 -0.60910025664E+03  0.10244093496E+04  0.83003148544E+02 0.  0.
         24    2    4    4    0    0 -0.10768340993E+03 -0.38578886336E+03  0.10970248378E+03  0.42309949686E+03  0.80930744689E+02 0.  0.
         11    1    3    3    0    0  0.17796963244E+03  0.81886935744E+03  0.24134781598E+03  0.87204872737E+03  0.00000000000E+00 0. -1.
        -12    1    3    3    0    0  0.74205048620E+02  0.37354466229E+03  0.56775033891E+02  0.38505247492E+03  0.00000000000E+00 0.  1.
         15    1    5    5    0    0 -0.37522400488E+02 -0.13958665817E+03 -0.14533333588E+03  0.20498122335E+03  0.17770000000E+01 0. -1.
        -16    1    5    5    0    0 -0.10696887064E+03 -0.66703849821E+03 -0.46376692075E+03  0.81942812630E+03  0.00000000000E+00 0.  1.
          4    1    6    6  502    0 -0.10600932799E+03 -0.23469233314E+03  0.69473993902E+02  0.26673039700E+03  0.00000000000E+00 0. -1.
         -3    1    6    6    0  502 -0.16740819331E+01 -0.15109653022E+03  0.40228489880E+02  0.15636909986E+03  0.00000000000E+00 0.  1.
<mgrwt>
<rscale>  0 0.12237865E+04</rscale>
<asrwt>0</asrwt>
<pdfrwt beam="1">  1        1 0.19256424E+00 0.12237865E+04</pdfrwt>
<pdfrwt beam="2">  1       -2 0.22352961E+00 0.12237865E+04</pdfrwt>
<totfact> 0.78415671E-01</totfact>
</mgrwt>
</event>
<event>
12    3  0.1201947E-007  0.1024699E+04  0.7818608E-02  0.9281863E-01
         -2   -1    0    0    0  501 -0.00000000000E+00  0.00000000000E+00  0.53556291719E+03  0.53556291719E+03  0.00000000000E+00 0.  1.
          1   -1    0    0  501    0  0.00000000000E+00 -0.00000000000E+00 -0.21950042052E+04  0.21950042052E+04  0.00000000000E+00 0. -1.
        -24    2    1    2    0    0  0.64835885348E+03  0.72188256273E+03 -0.10701567891E+04  0.14465089429E+04  0.75292305680E+02 0.  0.
    5000000    2    1    2    0    0 -0.64835885348E+03 -0.72188256273E+03 -0.58928449897E+03  0.12840581796E+04  0.60005462298E+03 0.  0.
        -24    2    4    4    0    0 -0.41531191199E+03 -0.13266081188E+03 -0.44666759818E+03  0.62953616733E+03  0.81981506837E+02 0.  0.
         24    2    4    4    0    0 -0.23304694149E+03 -0.58922175085E+03 -0.14261690078E+03  0.65452201224E+03  0.81032928595E+02 0.  0.
         13    1    3    3    0    0  0.34252015093E+03  0.40217233658E+03 -0.53038130933E+03  0.74857663294E+03  0.00000000000E+00 0. -1.
        -14    1    3    3    0    0  0.30583870255E+03  0.31971022615E+03 -0.53977547976E+03  0.69793230992E+03  0.00000000000E+00 0.  1.
         15    1    5    5    0    0 -0.18543742435E+03 -0.18550934203E+02 -0.17163911031E+03  0.25336597527E+03  0.17770000000E+01 0. -1.
        -16    1    5    5    0    0 -0.22987448764E+03 -0.11410987768E+03 -0.27502848788E+03  0.37617019206E+03  0.00000000000E+00 0.  1.
          4    1    6    6  502    0 -0.87730712198E+02 -0.15917817406E+03 -0.11895087855E+02  0.18214242250E+03  0.00000000000E+00 0. -1.
         -3    1    6    6    0  502 -0.14531622929E+03 -0.43004357679E+03 -0.13072181293E+03  0.47237958974E+03  0.00000000000E+00 0.  1.
<mgrwt>
<rscale>  0 0.10246990E+04</rscale>
<asrwt>0</asrwt>
<pdfrwt beam="1">  1        1 0.33769296E+00 0.10246990E+04</pdfrwt>
<pdfrwt beam="2">  1       -2 0.82394293E-01 0.10246990E+04</pdfrwt>
<totfact> 0.25094138E+00</totfact>
</mgrwt>
</event>
<event>
12    3  0.1201947E-007  0.1048790E+04  0.7818608E-02  0.9256595E-01
         -2   -1    0    0    0  501 -0.00000000000E+00  0.00000000000E+00  0.16756422157E+04  0.16756422157E+04  0.00000000000E+00 0.  1.
          1   -1    0    0  501    0  0.00000000000E+00 -0.00000000000E+00 -0.75890087441E+03  0.75890087441E+03  0.00000000000E+00 0. -1.
        -24    2    1    2    0    0  0.76257846259E+03  0.67801697982E+03  0.67531830628E+03  0.12264965228E+04  0.83701667791E+02 0.  0.
    5000000    2    1    2    0    0 -0.76257846259E+03 -0.67801697982E+03  0.24142303499E+03  0.12080465673E+04  0.59988206366E+03 0.  0.
        -24    2    4    4    0    0 -0.15865745388E+02 -0.11225046608E+03  0.22905103132E+03  0.26772415893E+03  0.79749365622E+02 0.  0.
         24    2    4    4    0    0 -0.74671271720E+03 -0.56576651374E+03  0.12372003670E+02  0.94032240832E+03  0.79884510430E+02 0.  0.
         13    1    3    3    0    0  0.22919255712E+03  0.15798618060E+03  0.20141380575E+03  0.34359333906E+03  0.00000000000E+00 0. -1.
        -14    1    3    3    0    0  0.53338590547E+03  0.52003079922E+03  0.47390450053E+03  0.88290318377E+03  0.00000000000E+00 0.  1.
         15    1    5    5    0    0 -0.46895415140E+02 -0.73479600645E+02  0.16561375062E+03  0.18716170494E+03  0.17770000000E+01 0. -1.
        -16    1    5    5    0    0  0.31029669752E+02 -0.38770865432E+02  0.63437280703E+02  0.80562453998E+02  0.00000000000E+00 0.  1.
          2    1    6    6  502    0 -0.33249451842E+03 -0.23133495451E+03 -0.30663478604E+02  0.40621264736E+03  0.00000000000E+00 0. -1.
         -1    1    6    6    0  502 -0.41421819878E+03 -0.33443155924E+03  0.43035482274E+02  0.53410976096E+03  0.00000000000E+00 0.  1.
<mgrwt>
<rscale>  0 0.10487896E+04</rscale>
<asrwt>0</asrwt>
<pdfrwt beam="1">  1        1 0.11675398E+00 0.10487896E+04</pdfrwt>
<pdfrwt beam="2">  1       -2 0.25779111E+00 0.10487896E+04</pdfrwt>
<totfact> 0.12086847E+00</totfact>
</mgrwt>
</event>
<event>
12    3  0.1201947E-007  0.1256787E+04  0.7818608E-02  0.9064553E-01
          1   -1    0    0  501    0  0.00000000000E+00  0.00000000000E+00  0.14168626829E+04  0.14168626829E+04  0.00000000000E+00 0. -1.
         -2   -1    0    0    0  501 -0.00000000000E+00 -0.00000000000E+00 -0.13081468549E+04  0.13081468549E+04  0.00000000000E+00 0.  1.
        -24    2    1    2    0    0 -0.36263028260E+03 -0.11478520096E+04 -0.42349215620E+03  0.12785642864E+04  0.79473708021E+02 0.  0.
    5000000    2    1    2    0    0  0.36263028260E+03  0.11478520096E+04  0.53220798419E+03  0.14464452513E+04  0.59991130082E+03 0.  0.
        -24    2    4    4    0    0 -0.19438590700E+02 -0.20264821942E+02 -0.36497197274E+02  0.89920505938E+02  0.77234255111E+02 0.  0.
         24    2    4    4    0    0  0.38206887330E+03  0.11681168315E+04  0.56870518147E+03  0.13565247454E+04  0.79121712309E+02 0.  0.
         13    1    3    3    0    0 -0.26358599252E+03 -0.93782851664E+03 -0.33911042869E+03  0.10315017135E+04  0.00000000000E+00 0. -1.
        -14    1    3    3    0    0 -0.99044290082E+02 -0.21002349296E+03 -0.84381727507E+02  0.24706257290E+03  0.00000000000E+00 0.  1.
         15    1    5    5    0    0 -0.45989172538E+02 -0.69664467217E+01 -0.52971257153E+01  0.46848187163E+02  0.17770000000E+01 0. -1.
        -16    1    5    5    0    0  0.26550581838E+02 -0.13298375220E+02 -0.31200071558E+02  0.43072318775E+02  0.00000000000E+00 0.  1.
          2    1    6    6  502    0  0.23585452285E+02  0.14386498982E+03  0.81232727506E+02  0.16688967875E+03  0.00000000000E+00 0. -1.
         -1    1    6    6    0  502  0.35848342102E+03  0.10242518417E+04  0.48747245396E+03  0.11896350666E+04  0.00000000000E+00 0.  1.
<mgrwt>
<rscale>  0 0.12567871E+04</rscale>
<asrwt>0</asrwt>
<pdfrwt beam="1">  1        1 0.21797888E+00 0.12567871E+04</pdfrwt>
<pdfrwt beam="2">  1       -2 0.20125336E+00 0.12567871E+04</pdfrwt>
<totfact> 0.82805271E-01</totfact>
</mgrwt>
</event>
<event>
12    3  0.1201947E-007  0.4469322E+03  0.7818608E-02  0.1028641E+00
          1   -1    0    0  501    0  0.00000000000E+00  0.00000000000E+00  0.13104403412E+04  0.13104403412E+04  0.00000000000E+00 0. -1.
         -4   -1    0    0    0  501 -0.00000000000E+00 -0.00000000000E+00 -0.26782869201E+03  0.26782869201E+03  0.00000000000E+00 0.  1.
        -24    2    1    2    0    0  0.37227925203E+03 -0.20884211782E+03  0.52328785040E+03  0.67732216134E+03  0.52232788487E+02 0.  0.
    5000000    2    1    2    0    0 -0.37227925203E+03  0.20884211782E+03  0.51932379880E+03  0.90094687188E+03  0.59983429902E+03 0.  0.
        -24    2    4    4    0    0 -0.23601115701E+03  0.46942961263E+02  0.60772094632E+03  0.65850697710E+03  0.80011139535E+02 0.  0.
         24    2    4    4    0    0 -0.13626809502E+03  0.16189915656E+03 -0.88397147526E+02  0.24243989478E+03  0.78630250377E+02 0.  0.
         11    1    3    3    0    0  0.21970713341E+03 -0.12051255653E+03  0.34685283829E+03  0.42790348466E+03  0.00000000000E+00 0. -1.
        -12    1    3    3    0    0  0.15257211862E+03 -0.88329561288E+02  0.17643501211E+03  0.24941867668E+03  0.00000000000E+00 0.  1.
         15    1    5    5    0    0 -0.14534470115E+03  0.19557937664E+02  0.46191253399E+03  0.48463794927E+03  0.17770000000E+01 0. -1.
        -16    1    5    5    0    0 -0.90666455861E+02  0.27385023599E+02  0.14580841233E+03  0.17386902784E+03  0.00000000000E+00 0.  1.
          4    1    6    6  502    0 -0.81026153688E+02  0.37084586667E+02 -0.39210177094E+02  0.97354723241E+02  0.00000000000E+00 0. -1.
         -3    1    6    6    0  502 -0.55241941331E+02  0.12481456989E+03 -0.49186970432E+02  0.14508517153E+03  0.00000000000E+00 0.  1.
<mgrwt>
<rscale>  0 0.44693222E+03</rscale>
<asrwt>0</asrwt>
<pdfrwt beam="1">  1        1 0.20160620E+00 0.44693222E+03</pdfrwt>
<pdfrwt beam="2">  1       -4 0.41204415E-01 0.44693222E+03</pdfrwt>
<totfact> 0.25698608E+01</totfact>
</mgrwt>
</event>
<event>
12    3  0.1201947E-007  0.1482214E+04  0.7818608E-02  0.8896367E-01
          1   -1    0    0  501    0  0.00000000000E+00  0.00000000000E+00  0.20414383233E+04  0.20414383233E+04  0.00000000000E+00 0. -1.
         -2   -1    0    0    0  501 -0.00000000000E+00 -0.00000000000E+00 -0.10870041378E+04  0.10870041378E+04  0.00000000000E+00 0.  1.
        -24    2    1    2    0    0  0.13336492891E+04 -0.49769241349E+03  0.57954974359E+03  0.15389798462E+04  0.79138466635E+02 0.  0.
    5000000    2    1    2    0    0 -0.13336492891E+04  0.49769241349E+03  0.37488444197E+03  0.15894626149E+04  0.59961228689E+03 0.  0.
        -24    2    4    4    0    0 -0.77044308589E+03 -0.18201114933E+02  0.15205465840E+03  0.78957711956E+03  0.79984869965E+02 0.  0.
         24    2    4    4    0    0 -0.56320620321E+03  0.51589352842E+03  0.22282978357E+03  0.79988549533E+03  0.82561087709E+02 0.  0.
         11    1    3    3    0    0  0.72096283916E+03 -0.25795445634E+03  0.27056750774E+03  0.81211741346E+03  0.00000000000E+00 0. -1.
        -12    1    3    3    0    0  0.61268644993E+03 -0.23973795715E+03  0.30898223584E+03  0.72686243271E+03  0.00000000000E+00 0.  1.
         15    1    5    5    0    0 -0.38954550036E+03  0.18889655727E+02  0.10572703584E+03  0.40408400090E+03  0.17770000000E+01 0. -1.
        -16    1    5    5    0    0 -0.38089758552E+03 -0.37090770660E+02  0.46327622561E+02  0.38549311866E+03  0.00000000000E+00 0.  1.
          2    1    6    6  502    0 -0.27375771915E+03  0.30572114079E+03  0.11143965446E+03  0.42523817009E+03  0.00000000000E+00 0. -1.
         -1    1    6    6    0  502 -0.28944848406E+03  0.21017238763E+03  0.11139012911E+03  0.37464732524E+03  0.00000000000E+00 0.  1.
<mgrwt>
<rscale>  0 0.14822142E+04</rscale>
<asrwt>0</asrwt>
<pdfrwt beam="1">  1        1 0.31406743E+00 0.14822142E+04</pdfrwt>
<pdfrwt beam="2">  1       -2 0.16723141E+00 0.14822142E+04</pdfrwt>
<totfact> 0.51712700E-01</totfact>
</mgrwt>
</event>
<event>
12    3  0.1201947E-007  0.4852460E+03  0.7818608E-02  0.1017703E+00
          1   -1    0    0  501    0  0.00000000000E+00  0.00000000000E+00  0.33708278733E+03  0.33708278733E+03  0.00000000000E+00 0. -1.
         -2   -1    0    0    0  501 -0.00000000000E+00 -0.00000000000E+00 -0.98842802956E+03  0.98842802956E+03  0.00000000000E+00 0.  1.
        -24    2    1    2    0    0  0.24142445292E+03  0.22833072928E+03  0.48912522033E+02  0.34516661871E+03  0.79541633488E+02 0.  0.
    5000000    2    1    2    0    0 -0.24142445292E+03 -0.22833072928E+03 -0.70025776426E+03  0.98034419819E+03  0.60024421873E+03 0.  0.
        -24    2    4    4    0    0 -0.41085856992E+03 -0.11804136302E+03 -0.60192847620E+03  0.74253492446E+03  0.79383220665E+02 0.  0.
         24    2    4    4    0    0  0.16943411701E+03 -0.11028936626E+03 -0.98329288064E+02  0.23780927373E+03  0.77543132927E+02 0.  0.
         13    1    3    3    0    0  0.91746927643E+02  0.12509484582E+03 -0.59384710807E+01  0.15524652854E+03  0.00000000000E+00 0. -1.
        -14    1    3    3    0    0  0.14967752527E+03  0.10323588346E+03  0.54850993114E+02  0.18992009017E+03  0.00000000000E+00 0.  1.
         15    1    5    5    0    0 -0.17742068849E+03 -0.53881531536E+02 -0.32939497944E+03  0.37800202427E+03  0.17770000000E+01 0. -1.
        -16    1    5    5    0    0 -0.23343788144E+03 -0.64159831482E+02 -0.27253349676E+03  0.36453290019E+03  0.00000000000E+00 0.  1.
          4    1    6    6  502    0  0.22283999493E+02 -0.32930534917E+02  0.78770816522E+01  0.40534493689E+02  0.00000000000E+00 0. -1.
         -3    1    6    6    0  502  0.14715011752E+03 -0.77358831346E+02 -0.10620636972E+03  0.19727478004E+03  0.00000000000E+00 0.  1.
<mgrwt>
<rscale>  0 0.48524597E+03</rscale>
<asrwt>0</asrwt>
<pdfrwt beam="1">  1        1 0.51858890E-01 0.48524597E+03</pdfrwt>
<pdfrwt beam="2">  1       -2 0.15206585E+00 0.48524597E+03</pdfrwt>
<totfact> 0.19845604E+01</totfact>
</mgrwt>
</event>
<event>
12    3  0.1201947E-007  0.8454677E+03  0.7818608E-02  0.9496440E-01
          1   -1    0    0  501    0  0.00000000000E+00  0.00000000000E+00  0.44878234293E+04  0.44878234293E+04  0.00000000000E+00 0. -1.
         -2   -1    0    0    0  501 -0.00000000000E+00 -0.00000000000E+00 -0.20570450530E+03  0.20570450530E+03  0.00000000000E+00 0.  1.
        -24    2    1    2    0    0 -0.70138224064E+03  0.27325672655E+03  0.29773014615E+04  0.30720744776E+04  0.81922627872E+02 0.  0.
    5000000    2    1    2    0    0  0.70138224064E+03 -0.27325672655E+03  0.13048174625E+04  0.16214534570E+04  0.59996367957E+03 0.  0.
        -24    2    4    4    0    0  0.78956657591E+03 -0.18469337759E+03  0.11018789844E+04  0.13704895814E+04  0.81101016765E+02 0.  0.
         24    2    4    4    0    0 -0.88184335262E+02 -0.88563348956E+02  0.20293847812E+03  0.25096387566E+03  0.78605961751E+02 0.  0.
         11    1    3    3    0    0 -0.18520582730E+03  0.63755308025E+02  0.92504009693E+03  0.94555016720E+03  0.00000000000E+00 0. -1.
        -12    1    3    3    0    0 -0.51617641334E+03  0.20950141852E+03  0.20522613646E+04  0.21265243104E+04  0.00000000000E+00 0.  1.
         15    1    5    5    0    0  0.60574099007E+03 -0.16644021316E+03  0.80973417740E+03  0.10248400301E+04  0.17770000000E+01 0. -1.
        -16    1    5    5    0    0  0.18382558583E+03 -0.18253164438E+02  0.29214480698E+03  0.34564955123E+03  0.00000000000E+00 0.  1.
          2    1    6    6  502    0 -0.47892977901E+02 -0.51400003954E+02  0.44136797948E+02  0.82968395621E+02  0.00000000000E+00 0. -1.
         -1    1    6    6    0  502 -0.40291357361E+02 -0.37163345002E+02  0.15880168017E+03  0.16799548004E+03  0.00000000000E+00 0.  1.
<mgrwt>
<rscale>  0 0.84546773E+03</rscale>
<asrwt>0</asrwt>
<pdfrwt beam="1">  1        1 0.69043430E+00 0.84546773E+03</pdfrwt>
<pdfrwt beam="2">  1       -2 0.31646850E-01 0.84546773E+03</pdfrwt>
<totfact> 0.29820848E-01</totfact>
</mgrwt>
</event>
<event>
12    3  0.1201947E-007  0.1016078E+04  0.7818608E-02  0.9291085E-01
          1   -1    0    0  501    0  0.00000000000E+00  0.00000000000E+00  0.16872894790E+04  0.16872894790E+04  0.00000000000E+00 0. -1.
         -2   -1    0    0    0  501 -0.00000000000E+00 -0.00000000000E+00 -0.84960299238E+03  0.84960299238E+03  0.00000000000E+00 0.  1.
        -24    2    1    2    0    0 -0.59054609762E+03 -0.72092780480E+03  0.10523726920E+04  0.14079714840E+04  0.80086350788E+02 0.  0.
    5000000    2    1    2    0    0  0.59054609762E+03  0.72092780480E+03 -0.21468620537E+03  0.11289209875E+04  0.59990902310E+03 0.  0.
        -24    2    4    4    0    0 -0.46771214934E+02  0.35491787677E+03 -0.10498894533E+03  0.38162172614E+03  0.80363035200E+02 0.  0.
         24    2    4    4    0    0  0.63731731255E+03  0.36600992803E+03 -0.10969726003E+03  0.74729926131E+03  0.79284757703E+02 0.  0.
         11    1    3    3    0    0 -0.41555059560E+03 -0.54750899225E+03  0.73706560711E+03  0.10078264252E+04  0.00000000000E+00 0. -1.
        -12    1    3    3    0    0 -0.17499550202E+03 -0.17341881255E+03  0.31530708491E+03  0.40014505878E+03  0.00000000000E+00 0.  1.
         15    1    5    5    0    0 -0.37837778123E+02  0.11573824365E+03 -0.67867491651E+02  0.13941374627E+03  0.17770000000E+01 0. -1.
        -16    1    5    5    0    0 -0.89334368105E+01  0.23917963312E+03 -0.37121453680E+02  0.24220797988E+03  0.00000000000E+00 0.  1.
          4    1    6    6  502    0  0.52452087441E+03  0.27416200891E+03 -0.66590319325E+02  0.59558477604E+03  0.00000000000E+00 0. -1.
         -3    1    6    6    0  502  0.11279643814E+03  0.91847919126E+02 -0.43106940709E+02  0.15171448527E+03  0.00000000000E+00 0.  1.
<mgrwt>
<rscale>  0 0.10160776E+04</rscale>
<asrwt>0</asrwt>
<pdfrwt beam="1">  1        1 0.25958300E+00 0.10160776E+04</pdfrwt>
<pdfrwt beam="2">  1       -2 0.13070815E+00 0.10160776E+04</pdfrwt>
<totfact> 0.18246809E+00</totfact>
</mgrwt>
</event>
<event>
12    3  0.1201947E-007  0.1120575E+04  0.7818608E-02  0.9185367E-01
         -2   -1    0    0    0  501 -0.00000000000E+00  0.00000000000E+00  0.15276622734E+04  0.15276622734E+04  0.00000000000E+00 0.  1.
          1   -1    0    0  501    0  0.00000000000E+00 -0.00000000000E+00 -0.87069777976E+03  0.87069777976E+03  0.00000000000E+00 0. -1.
        -24    2    1    2    0    0  0.64525351905E+03  0.81996479350E+03  0.57023988346E+03  0.11917161700E+04  0.79495526941E+02 0.  0.
    5000000    2    1    2    0    0 -0.64525351905E+03 -0.81996479350E+03  0.86724610198E+02  0.12066438832E+04  0.59981158402E+03 0.  0.
        -24    2    4    4    0    0 -0.58839521043E+03 -0.28986861357E+03  0.94066285764E+02  0.66741456327E+03  0.79755854680E+02 0.  0.
         24    2    4    4    0    0 -0.56858308618E+02 -0.53009617993E+03 -0.73416755662E+01  0.53922931989E+03  0.80495540204E+02 0.  0.
         11    1    3    3    0    0  0.29502670768E+03  0.43370905290E+03  0.26769731911E+03  0.58890250082E+03  0.00000000000E+00 0. -1.
        -12    1    3    3    0    0  0.35022681137E+03  0.38625574060E+03  0.30254256435E+03  0.60281366922E+03  0.00000000000E+00 0.  1.
         15    1    5    5    0    0 -0.35432173904E+03 -0.15668262873E+03  0.19237296547E+02  0.38790020909E+03  0.17770000000E+01 0. -1.
        -16    1    5    5    0    0 -0.23407347139E+03 -0.13318598484E+03  0.74828989218E+02  0.27951435418E+03  0.00000000000E+00 0.  1.
          4    1    6    6  502    0 -0.66877224107E+01 -0.38304801710E+03  0.72439438800E+01  0.38317487360E+03  0.00000000000E+00 0. -1.
         -3    1    6    6    0  502 -0.50170586207E+02 -0.14704816283E+03 -0.14585619446E+02  0.15605444629E+03  0.00000000000E+00 0.  1.
<mgrwt>
<rscale>  0 0.11205745E+04</rscale>
<asrwt>0</asrwt>
<pdfrwt beam="1">  1        1 0.13395350E+00 0.11205745E+04</pdfrwt>
<pdfrwt beam="2">  1       -2 0.23502497E+00 0.11205745E+04</pdfrwt>
<totfact> 0.13224019E+00</totfact>
</mgrwt>
</event>
<event>
12    3  0.1201947E-007  0.7539207E+03  0.7818608E-02  0.9629219E-01
         -2   -1    0    0    0  501 -0.00000000000E+00  0.00000000000E+00  0.91610615560E+03  0.91610615560E+03  0.00000000000E+00 0.  1.
          1   -1    0    0  501    0  0.00000000000E+00 -0.00000000000E+00 -0.25587518695E+04  0.25587518695E+04  0.00000000000E+00 0. -1.
        -24    2    1    2    0    0 -0.62074673942E+03 -0.36507183226E+03  0.66542648109E+03  0.98376898161E+03  0.80031557706E+02 0.  0.
    5000000    2    1    2    0    0  0.62074673942E+03  0.36507183226E+03 -0.23080721949E+04  0.24910890435E+04  0.59976946251E+03 0.  0.
        -24    2    4    4    0    0  0.64982573482E+03  0.32864149965E+03 -0.14158298119E+04  0.15939991579E+04  0.77333940005E+02 0.  0.
         24    2    4    4    0    0 -0.29078995398E+02  0.36430332613E+02 -0.89224238305E+03  0.89708988554E+03  0.80628999241E+02 0.  0.
         11    1    3    3    0    0 -0.28601345342E+03 -0.21462694716E+03  0.32793268676E+03  0.48518890036E+03  0.00000000000E+00 0. -1.
        -12    1    3    3    0    0 -0.33473328600E+03 -0.15044488510E+03  0.33749379432E+03  0.49858008125E+03  0.00000000000E+00 0.  1.
         15    1    5    5    0    0  0.17687745416E+03  0.12039551189E+03 -0.46317144612E+03  0.51020746692E+03  0.17770000000E+01 0. -1.
        -16    1    5    5    0    0  0.47294828066E+03  0.20824598776E+03 -0.95265836577E+03  0.10837916910E+04  0.00000000000E+00 0.  1.
          4    1    6    6  502    0 -0.62697795825E+01  0.27217158695E+02 -0.82527093682E+03  0.82574342445E+03  0.00000000000E+00 0. -1.
         -3    1    6    6    0  502 -0.22809215815E+02  0.92131739188E+01 -0.66971446231E+02  0.71346461090E+02  0.00000000000E+00 0.  1.
<mgrwt>
<rscale>  0 0.75392071E+03</rscale>
<asrwt>0</asrwt>
<pdfrwt beam="1">  1        1 0.39365413E+00 0.75392071E+03</pdfrwt>
<pdfrwt beam="2">  1       -2 0.14093941E+00 0.75392071E+03</pdfrwt>
<totfact> 0.40496077E-01</totfact>
</mgrwt>
</event>
<event>
12    3  0.1201947E-007  0.1034569E+04  0.7818608E-02  0.9271423E-01
         -2   -1    0    0    0  501 -0.00000000000E+00  0.00000000000E+00  0.69946864156E+03  0.69946864156E+03  0.00000000000E+00 0.  1.
          1   -1    0    0  501    0  0.00000000000E+00 -0.00000000000E+00 -0.15705615315E+04  0.15705615315E+04  0.00000000000E+00 0. -1.
        -24    2    1    2    0    0 -0.94748036057E+03 -0.15513042126E+03 -0.42981558932E+03  0.10549780362E+04  0.80328915800E+02 0.  0.
    5000000    2    1    2    0    0  0.94748036057E+03  0.15513042126E+03 -0.44127730060E+03  0.12150521369E+04  0.59986795048E+03 0.  0.
        -24    2    4    4    0    0  0.72714382355E+03 -0.12959247140E+03 -0.18401249437E+03  0.76519787587E+03  0.78325234590E+02 0.  0.
         24    2    4    4    0    0  0.22033653702E+03  0.28472289266E+03 -0.25726480624E+03  0.44985426100E+03  0.81045422219E+02 0.  0.
         11    1    3    3    0    0 -0.24690613430E+03 -0.30130971715E+02 -0.75053907491E+02  0.25981455625E+03  0.00000000000E+00 0. -1.
        -12    1    3    3    0    0 -0.70057422628E+03 -0.12499944955E+03 -0.35476168183E+03  0.79516347993E+03  0.00000000000E+00 0.  1.
         15    1    5    5    0    0  0.37021250361E+03 -0.45271698606E+02 -0.12719639040E+03  0.39406713132E+03  0.17770000000E+01 0. -1.
        -16    1    5    5    0    0  0.35693131994E+03 -0.84320772795E+02 -0.56816103964E+02  0.37113074455E+03  0.00000000000E+00 0.  1.
          4    1    6    6  502    0  0.11949346896E+03  0.21647112060E+03 -0.17252914663E+03  0.30150413200E+03  0.00000000000E+00 0. -1.
         -3    1    6    6    0  502  0.10084306806E+03  0.68251772058E+02 -0.84735659612E+02  0.14835012900E+03  0.00000000000E+00 0.  1.
<mgrwt>
<rscale>  0 0.10345686E+04</rscale>
<asrwt>0</asrwt>
<pdfrwt beam="1">  1        1 0.24162485E+00 0.10345686E+04</pdfrwt>
<pdfrwt beam="2">  1       -2 0.10761056E+00 0.10345686E+04</pdfrwt>
<totfact> 0.35433879E+00</totfact>
</mgrwt>
</event>
<event>
12    3  0.1201947E-007  0.4608013E+03  0.7818608E-02  0.1024549E+00
          1   -1    0    0  501    0  0.00000000000E+00  0.00000000000E+00  0.26478711905E+04  0.26478711905E+04  0.00000000000E+00 0. -1.
         -2   -1    0    0    0  501 -0.00000000000E+00 -0.00000000000E+00 -0.82402141457E+02  0.82402141457E+02  0.00000000000E+00 0.  1.
        -24    2    1    2    0    0  0.56836261955E+02  0.25627146828E+03  0.89162346638E+03  0.93286249097E+03  0.79590169822E+02 0.  0.
    5000000    2    1    2    0    0 -0.56836261955E+02 -0.25627146828E+03  0.16738455827E+04  0.17974108410E+04  0.60001772522E+03 0.  0.
        -24    2    4    4    0    0  0.10907722433E+03 -0.39880384791E+03  0.10343263922E+04  0.11168085484E+04  0.80547489369E+02 0.  0.
         24    2    4    4    0    0 -0.16591348629E+03  0.14253237964E+03  0.63951919047E+03  0.68060229266E+03  0.79949494223E+02 0.  0.
         13    1    3    3    0    0 -0.18736172725E+02  0.84698544571E+02  0.27207311304E+03  0.28556727134E+03  0.00000000000E+00 0. -1.
        -14    1    3    3    0    0  0.75572434680E+02  0.17157292371E+03  0.61955035334E+03  0.64729521963E+03  0.00000000000E+00 0.  1.
         15    1    5    5    0    0  0.63445660130E+02 -0.98940933795E+02  0.31001120482E+03  0.33154903862E+03  0.17770000000E+01 0. -1.
        -16    1    5    5    0    0  0.45631564203E+02 -0.29986291412E+03  0.72431518743E+03  0.78525950975E+03  0.00000000000E+00 0.  1.
          4    1    6    6  502    0 -0.51773504150E+02  0.82887970222E+02  0.35662918708E+03  0.36977734979E+03  0.00000000000E+00 0. -1.
         -3    1    6    6    0  502 -0.11413998214E+03  0.59644409415E+02  0.28289000339E+03  0.31082494288E+03  0.00000000000E+00 0.  1.
<mgrwt>
<rscale>  0 0.46080131E+03</rscale>
<asrwt>0</asrwt>
<pdfrwt beam="1">  1        1 0.40736473E+00 0.46080131E+03</pdfrwt>
<pdfrwt beam="2">  1       -2 0.12677255E-01 0.46080131E+03</pdfrwt>
<totfact> 0.47848868E+01</totfact>
</mgrwt>
</event>
<event>
12    3  0.1201947E-007  0.5043934E+03  0.7818608E-02  0.1012639E+00
         -2   -1    0    0    0  501 -0.00000000000E+00  0.00000000000E+00  0.67927606431E+03  0.67927606431E+03  0.00000000000E+00 0.  1.
          1   -1    0    0  501    0  0.00000000000E+00 -0.00000000000E+00 -0.55532268817E+03  0.55532268817E+03  0.00000000000E+00 0. -1.
        -24    2    1    2    0    0 -0.30229984056E+03 -0.12692417962E+03 -0.28185233109E+03  0.43945807807E+03  0.78662092912E+02 0.  0.
    5000000    2    1    2    0    0  0.30229984056E+03  0.12692417962E+03  0.40580570723E+03  0.79514067441E+03  0.60006289597E+03 0.  0.
        -24    2    4    4    0    0  0.38986585216E+03 -0.11542383803E+03  0.24683625893E+03  0.48207154831E+03  0.78401491705E+02 0.  0.
         24    2    4    4    0    0 -0.87566011605E+02  0.24234801765E+03  0.15896944830E+03  0.31306912610E+03  0.79628036380E+02 0.  0.
         11    1    3    3    0    0 -0.12586846252E+03 -0.13940144182E+02 -0.12297303057E+03  0.17652071755E+03  0.00000000000E+00 0. -1.
        -12    1    3    3    0    0 -0.17643137803E+03 -0.11298403544E+03 -0.15887930053E+03  0.26293736052E+03  0.00000000000E+00 0.  1.
         15    1    5    5    0    0  0.32269644018E+03 -0.12120008177E+03  0.22304968437E+03  0.41058101729E+03  0.17770000000E+01 0. -1.
        -16    1    5    5    0    0  0.67169411980E+02  0.57762437327E+01  0.23786574551E+02  0.71490531025E+02  0.00000000000E+00 0.  1.
          4    1    6    6  502    0 -0.45206666080E+02  0.72311614534E+02  0.92077590596E+02  0.12550256947E+03  0.00000000000E+00 0. -1.
         -3    1    6    6    0  502 -0.42359345526E+02  0.17003640312E+03  0.66891857704E+02  0.18756655663E+03  0.00000000000E+00 0.  1.
<mgrwt>
<rscale>  0 0.50439336E+03</rscale>
<asrwt>0</asrwt>
<pdfrwt beam="1">  1        1 0.85434260E-01 0.50439336E+03</pdfrwt>
<pdfrwt beam="2">  1       -2 0.10450401E+00 0.50439336E+03</pdfrwt>
<totfact> 0.25991154E+01</totfact>
</mgrwt>
</event>
<event>
12    3  0.1201947E-007  0.3894241E+03  0.7818608E-02  0.1047505E+00
         -2   -1    0    0    0  501 -0.00000000000E+00  0.00000000000E+00  0.23044817801E+03  0.23044817801E+03  0.00000000000E+00 0.  1.
          1   -1    0    0  501    0  0.00000000000E+00 -0.00000000000E+00 -0.10171849847E+04  0.10171849847E+04  0.00000000000E+00 0. -1.
        -24    2    1    2    0    0 -0.18200739132E+03 -0.22213496409E+03 -0.30491213935E+03  0.42627517303E+03  0.79173718217E+02 0.  0.
    5000000    2    1    2    0    0  0.18200739132E+03  0.22213496409E+03 -0.48182466734E+03  0.82135798967E+03  0.60000275364E+03 0.  0.
        -24    2    4    4    0    0  0.24570512809E+03  0.57181469718E+01  0.28354531770E+02  0.25989052282E+03  0.79595208450E+02 0.  0.
         24    2    4    4    0    0 -0.63697736763E+02  0.21641681711E+03 -0.51017919911E+03  0.56146746685E+03  0.63790757368E+02 0.  0.
         11    1    3    3    0    0 -0.62971120539E+02 -0.13821637046E+03 -0.14513621871E+03  0.21008010155E+03  0.00000000000E+00 0. -1.
        -12    1    3    3    0    0 -0.11903627079E+03 -0.83918593627E+02 -0.15977592064E+03  0.21619507148E+03  0.00000000000E+00 0.  1.
         15    1    5    5    0    0  0.31029457719E+02 -0.74945160614E+01 -0.22230308842E+02  0.38940202587E+02  0.17770000000E+01 0. -1.
        -16    1    5    5    0    0  0.21467567037E+03  0.13212663033E+02  0.50584840613E+02  0.22095032024E+03  0.00000000000E+00 0.  1.
          4    1    6    6  502    0  0.58742043100E+00  0.10957165464E+03 -0.24947066447E+03  0.27247367762E+03  0.00000000000E+00 0. -1.
         -3    1    6    6    0  502 -0.64285157194E+02  0.10684516247E+03 -0.26070853464E+03  0.28899378923E+03  0.00000000000E+00 0.  1.
<mgrwt>
<rscale>  0 0.38942413E+03</rscale>
<asrwt>0</asrwt>
<pdfrwt beam="1">  1        1 0.15648999E+00 0.38942413E+03</pdfrwt>
<pdfrwt beam="2">  1       -2 0.35453566E-01 0.38942413E+03</pdfrwt>
<totfact> 0.10148560E+02</totfact>
</mgrwt>
</event>
<event>
12    3  0.1201947E-007  0.1412027E+04  0.7818608E-02  0.8945158E-01
          1   -1    0    0  501    0  0.00000000000E+00  0.00000000000E+00  0.20396142389E+04  0.20396142389E+04  0.00000000000E+00 0. -1.
         -2   -1    0    0    0  501 -0.00000000000E+00 -0.00000000000E+00 -0.98735842743E+03  0.98735842743E+03  0.00000000000E+00 0.  1.
        -24    2    1    2    0    0  0.43840682477E+03 -0.12814682028E+04  0.48640511931E+03  0.14412342805E+04  0.78771901419E+02 0.  0.
    5000000    2    1    2    0    0 -0.43840682477E+03  0.12814682028E+04  0.56585069219E+03  0.15857383858E+04  0.60001493623E+03 0.  0.
        -24    2    4    4    0    0 -0.56657982449E+03  0.99349586949E+03  0.51131496417E+03  0.12553194690E+04  0.79606761695E+02 0.  0.
         24    2    4    4    0    0  0.12817299973E+03  0.28797233331E+03  0.54535728018E+02  0.33041891682E+03  0.82741358170E+02 0.  0.
         11    1    3    3    0    0  0.36032542498E+03 -0.10653844182E+04  0.43452908192E+03  0.12056922881E+04  0.00000000000E+00 0. -1.
        -12    1    3    3    0    0  0.78081399788E+02 -0.21608378455E+03  0.51876037387E+02  0.23554199242E+03  0.00000000000E+00 0.  1.
         15    1    5    5    0    0 -0.49666984805E+03  0.82338418330E+03  0.44783824996E+03  0.10607566672E+04  0.17770000000E+01 0. -1.
        -16    1    5    5    0    0 -0.69909976447E+02  0.17011168620E+03  0.63476714211E+02  0.19456280177E+03  0.00000000000E+00 0.  1.
          2    1    6    6  502    0  0.39015498839E+02  0.24724750663E+02  0.20041848450E+02  0.50350751080E+02  0.00000000000E+00 0. -1.
         -1    1    6    6    0  502  0.89157500886E+02  0.26324758265E+03  0.34493879568E+02  0.28006816574E+03  0.00000000000E+00 0.  1.
<mgrwt>
<rscale>  0 0.14120271E+04</rscale>
<asrwt>0</asrwt>
<pdfrwt beam="1">  1        1 0.31378681E+00 0.14120271E+04</pdfrwt>
<pdfrwt beam="2">  1       -2 0.15190130E+00 0.14120271E+04</pdfrwt>
<totfact> 0.67971495E-01</totfact>
</mgrwt>
</event>
<event>
12    3  0.1201947E-007  0.1626265E+04  0.7818608E-02  0.8804573E-01
         -2   -1    0    0    0  501 -0.00000000000E+00  0.00000000000E+00  0.14918526764E+04  0.14918526764E+04  0.00000000000E+00 0.  1.
          1   -1    0    0  501    0  0.00000000000E+00 -0.00000000000E+00 -0.23622488586E+04  0.23622488586E+04  0.00000000000E+00 0. -1.
        -24    2    1    2    0    0 -0.14848237382E+04  0.62018910121E+03 -0.13155061155E+04  0.20799769172E+04  0.80072350053E+02 0.  0.
    5000000    2    1    2    0    0  0.14848237382E+04 -0.62018910121E+03  0.44510993330E+03  0.17741246179E+04  0.60004937476E+03 0.  0.
        -24    2    4    4    0    0  0.51233485831E+03 -0.71440777656E+02  0.38995631144E+03  0.65317174359E+03  0.83526103974E+02 0.  0.
         24    2    4    4    0    0  0.97248887993E+03 -0.54874832355E+03  0.55153621863E+02  0.11209528743E+04  0.81449863014E+02 0.  0.
         11    1    3    3    0    0 -0.10252538786E+04  0.45131919665E+03 -0.95378155292E+03  0.14712354616E+04  0.00000000000E+00 0. -1.
        -12    1    3    3    0    0 -0.45956985965E+03  0.16886990455E+03 -0.36172456258E+03  0.60874145557E+03  0.00000000000E+00 0.  1.
         15    1    5    5    0    0  0.47914236334E+03 -0.86292601181E+02  0.35329616703E+03  0.60153566539E+03  0.17770000000E+01 0. -1.
        -16    1    5    5    0    0  0.33192494970E+02  0.14851823525E+02  0.36660144408E+02  0.51636078205E+02  0.00000000000E+00 0.  1.
          4    1    6    6  502    0  0.52991215528E+03 -0.34466228861E+03  0.38233847536E+02  0.63329362274E+03  0.00000000000E+00 0. -1.
         -3    1    6    6    0  502  0.44257672465E+03 -0.20408603494E+03  0.16919774327E+02  0.48765925155E+03  0.00000000000E+00 0.  1.
<mgrwt>
<rscale>  0 0.16262648E+04</rscale>
<asrwt>0</asrwt>
<pdfrwt beam="1">  1        1 0.36342290E+00 0.16262648E+04</pdfrwt>
<pdfrwt beam="2">  1       -2 0.22951580E+00 0.16262648E+04</pdfrwt>
<totfact> 0.11801819E-01</totfact>
</mgrwt>
</event>
<event>
12    3  0.1201947E-007  0.8742375E+03  0.7818608E-02  0.9458371E-01
          1   -1    0    0  501    0  0.00000000000E+00  0.00000000000E+00  0.11021436820E+04  0.11021436820E+04  0.00000000000E+00 0. -1.
         -2   -1    0    0    0  501 -0.00000000000E+00 -0.00000000000E+00 -0.75574879202E+03  0.75574879202E+03  0.00000000000E+00 0.  1.
        -24    2    1    2    0    0  0.74277527823E+03  0.26172522284E+03 -0.46546605972E+02  0.79288348315E+03  0.79261750510E+02 0.  0.
    5000000    2    1    2    0    0 -0.74277527823E+03 -0.26172522284E+03  0.39294149600E+03  0.10650089909E+04  0.59968819001E+03 0.  0.
        -24    2    4    4    0    0 -0.46096002944E+03 -0.42977728005E+03  0.16055436122E+03  0.65524549065E+03  0.79851680786E+02 0.  0.
         24    2    4    4    0    0 -0.28181524879E+03  0.16805205721E+03  0.23238713478E+03  0.40976350026E+03  0.79000109847E+02 0.  0.
         11    1    3    3    0    0  0.48873572089E+03  0.19352471267E+03  0.60042086694E+00  0.52565652264E+03  0.00000000000E+00 0. -1.
        -12    1    3    3    0    0  0.25403955734E+03  0.68200510177E+02 -0.47147026839E+02  0.26722696051E+03  0.00000000000E+00 0.  1.
         15    1    5    5    0    0 -0.28064435383E+03 -0.23362524849E+03  0.12740904986E+03  0.38675345349E+03  0.17770000000E+01 0. -1.
        -16    1    5    5    0    0 -0.18031567561E+03 -0.19615203156E+03  0.33145311361E+02  0.26849203717E+03  0.00000000000E+00 0.  1.
          4    1    6    6  502    0 -0.11233926630E+03  0.63330176651E+02  0.45920077980E+02  0.13689220426E+03  0.00000000000E+00 0. -1.
         -3    1    6    6    0  502 -0.16947598249E+03  0.10472188056E+03  0.18646705680E+03  0.27287129600E+03  0.00000000000E+00 0.  1.
<mgrwt>
<rscale>  0 0.87423751E+03</rscale>
<asrwt>0</asrwt>
<pdfrwt beam="1">  1        1 0.16956057E+00 0.87423751E+03</pdfrwt>
<pdfrwt beam="2">  1       -2 0.11626904E+00 0.87423751E+03</pdfrwt>
<totfact> 0.64264759E+00</totfact>
</mgrwt>
</event>
<event>
12    3  0.1201947E-007  0.5304514E+03  0.7818608E-02  0.1006123E+00
          1   -1    0    0  501    0  0.00000000000E+00  0.00000000000E+00  0.15806430975E+04  0.15806430975E+04  0.00000000000E+00 0. -1.
         -2   -1    0    0    0  501 -0.00000000000E+00 -0.00000000000E+00 -0.27824827218E+03  0.27824827218E+03  0.00000000000E+00 0.  1.
        -24    2    1    2    0    0 -0.49199865798E+03  0.11192398080E+03  0.71864693856E+03  0.88142694958E+03  0.76618458698E+02 0.  0.
    5000000    2    1    2    0    0  0.49199865798E+03 -0.11192398080E+03  0.58374788679E+03  0.97746442012E+03  0.60007119606E+03 0.  0.
        -24    2    4    4    0    0  0.93019699609E+02 -0.80541904457E+02  0.54550830957E+03  0.56500593327E+03  0.80701461766E+02 0.  0.
         24    2    4    4    0    0  0.39897895837E+03 -0.31382076344E+02  0.38239577217E+02  0.41245848685E+03  0.92144962804E+02 0.  0.
         13    1    3    3    0    0 -0.22814808781E+03  0.71880363348E+02  0.28315042918E+03  0.37066494595E+03  0.00000000000E+00 0. -1.
        -14    1    3    3    0    0 -0.26385057017E+03  0.40043617452E+02  0.43549650938E+03  0.51076200364E+03  0.00000000000E+00 0.  1.
         15    1    5    5    0    0  0.10669041215E+03 -0.73986843071E+02  0.45216582151E+03  0.47044020328E+03  0.17770000000E+01 0. -1.
        -16    1    5    5    0    0 -0.13670712540E+02 -0.65550613862E+01  0.93342488059E+02  0.94565729988E+02  0.00000000000E+00 0.  1.
          2    1    6    6  502    0  0.37119071310E+03 -0.45893902497E+01  0.42405878845E+02  0.37363333170E+03  0.00000000000E+00 0. -1.
         -1    1    6    6    0  502  0.27788245272E+02 -0.26792686094E+02 -0.41663016284E+01  0.38825155153E+02  0.00000000000E+00 0.  1.
<mgrwt>
<rscale>  0 0.53045141E+03</rscale>
<asrwt>0</asrwt>
<pdfrwt beam="1">  1        1 0.24317585E+00 0.53045141E+03</pdfrwt>
<pdfrwt beam="2">  1       -2 0.42807428E-01 0.53045141E+03</pdfrwt>
<totfact> 0.27757341E+01</totfact>
</mgrwt>
</event>
<event>
12    3  0.1201947E-007  0.1031162E+04  0.7818608E-02  0.9275013E-01
          1   -1    0    0  501    0  0.00000000000E+00  0.00000000000E+00  0.15313382875E+04  0.15313382875E+04  0.00000000000E+00 0. -1.
         -2   -1    0    0    0  501 -0.00000000000E+00 -0.00000000000E+00 -0.72299168259E+03  0.72299168259E+03  0.00000000000E+00 0.  1.
        -24    2    1    2    0    0  0.96060977592E+03 -0.23898677628E+02  0.46494259075E+03  0.10704974833E+04  0.80317873159E+02 0.  0.
    5000000    2    1    2    0    0 -0.96060977592E+03  0.23898677628E+02  0.34340401417E+03  0.11838324868E+04  0.60015893842E+03 0.  0.
        -24    2    4    4    0    0 -0.87222892941E+03  0.20481159799E+03  0.35492321772E+03  0.96690379764E+03  0.78748761593E+02 0.  0.
         24    2    4    4    0    0 -0.88380846515E+02 -0.18091292037E+03 -0.11519203550E+02  0.21692868912E+03  0.79904351103E+02 0.  0.
         13    1    3    3    0    0  0.54604345966E+03 -0.30120999469E+02  0.22409847339E+03  0.59100834192E+03  0.00000000000E+00 0. -1.
        -14    1    3    3    0    0  0.41456631626E+03  0.62223218409E+01  0.24084411735E+03  0.47948914141E+03  0.00000000000E+00 0.  1.
         15    1    5    5    0    0 -0.51865813232E+03  0.12332477401E+03  0.25244594594E+03  0.58987063959E+03  0.17770000000E+01 0. -1.
        -16    1    5    5    0    0 -0.35357079709E+03  0.81486823983E+02  0.10247727178E+03  0.37703315805E+03  0.00000000000E+00 0.  1.
          2    1    6    6  502    0 -0.91386795352E+02 -0.16441300952E+03  0.11491156900E+02  0.18845485070E+03  0.00000000000E+00 0. -1.
         -1    1    6    6    0  502  0.30059488367E+01 -0.16499910847E+02 -0.23010360450E+02  0.28473838421E+02  0.00000000000E+00 0.  1.
<mgrwt>
<rscale>  0 0.10311615E+04</rscale>
<asrwt>0</asrwt>
<pdfrwt beam="1">  1        1 0.23559050E+00 0.10311615E+04</pdfrwt>
<pdfrwt beam="2">  1       -2 0.11122949E+00 0.10311615E+04</pdfrwt>
<totfact> 0.34802412E+00</totfact>
</mgrwt>
</event>
<event>
12    3  0.1201947E-007  0.9199644E+03  0.7818608E-02  0.9400963E-01
         -2   -1    0    0    0  501 -0.00000000000E+00  0.00000000000E+00  0.10705069999E+04  0.10705069999E+04  0.00000000000E+00 0.  1.
          1   -1    0    0  501    0  0.00000000000E+00 -0.00000000000E+00 -0.81497224442E+03  0.81497224442E+03  0.00000000000E+00 0. -1.
        -24    2    1    2    0    0  0.16022108746E+03  0.81310189437E+03  0.72987453189E+01  0.83270353234E+03  0.80848089666E+02 0.  0.
    5000000    2    1    2    0    0 -0.16022108746E+03 -0.81310189437E+03  0.24823601021E+03  0.10527757120E+04  0.59992507496E+03 0.  0.
        -24    2    4    4    0    0  0.19810614005E+03 -0.18544608736E+03  0.14632431574E+03  0.31848336154E+03  0.79903392660E+02 0.  0.
         24    2    4    4    0    0 -0.35832722751E+03 -0.62765580701E+03  0.10191169447E+03  0.73429235048E+03  0.80305967750E+02 0.  0.
         11    1    3    3    0    0  0.64147044957E+01  0.18474064183E+03 -0.14546706551E+02  0.18542346089E+03  0.00000000000E+00 0. -1.
        -12    1    3    3    0    0  0.15380638296E+03  0.62836125254E+03  0.21845451870E+02  0.64728007146E+03  0.00000000000E+00 0.  1.
         15    1    5    5    0    0  0.99017601768E+02 -0.43818596489E+02  0.73717053585E+02  0.13100349834E+03  0.17770000000E+01 0. -1.
        -16    1    5    5    0    0  0.99088538282E+02 -0.14162749087E+03  0.72607262154E+02  0.18747986320E+03  0.00000000000E+00 0.  1.
          2    1    6    6  502    0 -0.21382556278E+03 -0.29506844982E+03  0.43279334309E+02  0.36696030052E+03  0.00000000000E+00 0. -1.
         -1    1    6    6    0  502 -0.14450166473E+03 -0.33258735719E+03  0.58632360162E+02  0.36733204996E+03  0.00000000000E+00 0.  1.
<mgrwt>
<rscale>  0 0.91996443E+03</rscale>
<asrwt>0</asrwt>
<pdfrwt beam="1">  1        1 0.12538034E+00 0.91996443E+03</pdfrwt>
<pdfrwt beam="2">  1       -2 0.16469339E+00 0.91996443E+03</pdfrwt>
<totfact> 0.43936583E+00</totfact>
</mgrwt>
</event>
<event>
12    3  0.2044873E-007  0.1330105E+04  0.7818608E-02  0.9006026E-01
          1   -1    0    0  501    0  0.00000000000E+00  0.00000000000E+00  0.12986523060E+04  0.12986523060E+04  0.00000000000E+00 0. -1.
         -2   -1    0    0    0  501 -0.00000000000E+00 -0.00000000000E+00 -0.14469949504E+04  0.14469949504E+04  0.00000000000E+00 0.  1.
        -24    2    1    2    0    0 -0.44005359475E+03 -0.12232698310E+04  0.29570803538E+02  0.13028300375E+04  0.80345682344E+02 0.  0.
    5000000    2    1    2    0    0  0.44005359475E+03  0.12232698310E+04 -0.17791344791E+03  0.14428172189E+04  0.60002673822E+03 0.  0.
        -24    2    4    4    0    0  0.39344623875E+03  0.54229329615E+03 -0.30974060128E+03  0.74283255200E+03  0.83540399827E+02 0.  0.
         24    2    4    4    0    0  0.46607356004E+02  0.68097653483E+03  0.13182715336E+03  0.69998466691E+03  0.81846496008E+02 0.  0.
         13    1    3    3    0    0 -0.22023089252E+03 -0.49640336944E+03  0.66094149017E+01  0.54310370609E+03  0.00000000000E+00 0. -1.
        -14    1    3    3    0    0 -0.21982270223E+03 -0.72686646155E+03  0.22961388637E+02  0.75972633145E+03  0.00000000000E+00 0.  1.
         15    1    5    5    0    0  0.18583684051E+03  0.32652954099E+03 -0.16852988076E+03  0.41177949301E+03  0.17770000000E+01 0. -1.
        -16    1    5    5    0    0  0.20760939823E+03  0.21576375516E+03 -0.14121072052E+03  0.33105305899E+03  0.00000000000E+00 0.  1.
          2    1    6    6  502    0  0.27380143002E+02  0.46175134408E+03  0.50247484392E+02  0.46528355406E+03  0.00000000000E+00 0. -1.
         -1    1    6    6    0  502  0.19227213002E+02  0.21922519075E+03  0.81579668972E+02  0.23470111284E+03  0.00000000000E+00 0.  1.
<mgrwt>
<rscale>  0 0.13301051E+04</rscale>
<asrwt>0</asrwt>
<pdfrwt beam="1">  1        1 0.19979266E+00 0.13301051E+04</pdfrwt>
<pdfrwt beam="2">  1       -2 0.22261461E+00 0.13301051E+04</pdfrwt>
<totfact> 0.72659123E-01</totfact>
</mgrwt>
</event>
<event>
12    3  0.1201947E-007  0.1038921E+04  0.7818608E-02  0.9266858E-01
         -2   -1    0    0    0  501 -0.00000000000E+00  0.00000000000E+00  0.13540412670E+04  0.13540412670E+04  0.00000000000E+00 0.  1.
          1   -1    0    0  501    0  0.00000000000E+00 -0.00000000000E+00 -0.97633188091E+03  0.97633188091E+03  0.00000000000E+00 0. -1.
        -24    2    1    2    0    0 -0.25797015620E+03 -0.98638571705E+03  0.50468330639E+03  0.11405512245E+04  0.81525895798E+02 0.  0.
    5000000    2    1    2    0    0  0.25797015620E+03  0.98638571705E+03 -0.12697392035E+03  0.11898219234E+04  0.60004037246E+03 0.  0.
        -24    2    4    4    0    0  0.27625665934E+03  0.61718662101E+03  0.17822946092E+03  0.70386438088E+03  0.80138997607E+02 0.  0.
         24    2    4    4    0    0 -0.18286503143E+02  0.36919909604E+03 -0.30520338127E+03  0.48595754249E+03  0.79770047330E+02 0.  0.
         11    1    3    3    0    0 -0.80695097667E+02 -0.26384806857E+03  0.98803333181E+02  0.29306927632E+03  0.00000000000E+00 0. -1.
        -12    1    3    3    0    0 -0.17727505853E+03 -0.72253764848E+03  0.40587997321E+03  0.84748194819E+03  0.00000000000E+00 0.  1.
         15    1    5    5    0    0  0.11378377579E+03  0.33980687192E+03  0.11398574703E+03  0.37604702644E+03  0.17770000000E+01 0. -1.
        -16    1    5    5    0    0  0.16247288355E+03  0.27737974909E+03  0.64243713888E+02  0.32781735444E+03  0.00000000000E+00 0.  1.
          2    1    6    6  502    0  0.72690191347E+01  0.33681615473E+03 -0.27320900226E+03  0.43375237133E+03  0.00000000000E+00 0. -1.
         -1    1    6    6    0  502 -0.25555522278E+02  0.32382941311E+02 -0.31994379014E+02  0.52205171155E+02  0.00000000000E+00 0.  1.
<mgrwt>
<rscale>  0 0.10389210E+04</rscale>
<asrwt>0</asrwt>
<pdfrwt beam="1">  1        1 0.15020491E+00 0.10389210E+04</pdfrwt>
<pdfrwt beam="2">  1       -2 0.20831404E+00 0.10389210E+04</pdfrwt>
<totfact> 0.16138439E+00</totfact>
</mgrwt>
</event>
<event>
12    3  0.1201947E-007  0.5633566E+03  0.7818608E-02  0.9984488E-01
         -2   -1    0    0    0  501 -0.00000000000E+00  0.00000000000E+00  0.47864249488E+03  0.47864249488E+03  0.00000000000E+00 0.  1.
          1   -1    0    0  501    0  0.00000000000E+00 -0.00000000000E+00 -0.99079673357E+03  0.99079673357E+03  0.00000000000E+00 0. -1.
        -24    2    1    2    0    0 -0.13644175736E+03  0.43214051500E+03  0.13264690611E+03  0.47897085642E+03  0.80349870830E+02 0.  0.
    5000000    2    1    2    0    0  0.13644175736E+03 -0.43214051500E+03 -0.64480114480E+03  0.99046837203E+03  0.59991441205E+03 0.  0.
        -24    2    4    4    0    0  0.15254671117E+03  0.63750533125E+02 -0.12836207779E+02  0.18307031915E+03  0.77558648524E+02 0.  0.
         24    2    4    4    0    0 -0.16104953809E+02 -0.49589104813E+03 -0.63196493702E+03  0.80739805288E+03  0.79653204692E+02 0.  0.
         13    1    3    3    0    0 -0.93006143915E+02  0.17601504668E+03  0.39245743584E+02  0.20290802806E+03  0.00000000000E+00 0. -1.
        -14    1    3    3    0    0 -0.43435613441E+02  0.25612546833E+03  0.93401162522E+02  0.27606282836E+03  0.00000000000E+00 0.  1.
         15    1    5    5    0    0  0.12172182739E+03  0.30985196801E+02 -0.38366531172E+02  0.13134471488E+03  0.17770000000E+01 0. -1.
        -16    1    5    5    0    0  0.30824883780E+02  0.32765336324E+02  0.25530323393E+02  0.51725604269E+02  0.00000000000E+00 0.  1.
          4    1    6    6  502    0 -0.21610488054E+02 -0.17712698817E+03 -0.28454313407E+03  0.33586571466E+03  0.00000000000E+00 0. -1.
         -3    1    6    6    0  502  0.55055342445E+01 -0.31876405996E+03 -0.34742180295E+03  0.47153233823E+03  0.00000000000E+00 0.  1.
<mgrwt>
<rscale>  0 0.56335659E+03</rscale>
<asrwt>0</asrwt>
<pdfrwt beam="1">  1        1 0.15243026E+00 0.56335659E+03</pdfrwt>
<pdfrwt beam="2">  1       -2 0.73637308E-01 0.56335659E+03</pdfrwt>
<totfact> 0.23458894E+01</totfact>
</mgrwt>
</event>
<event>
12    3  0.1297629E-007  0.5393651E+03  0.7818608E-02  0.1003986E+00
         -2   -1    0    0    0  501 -0.00000000000E+00  0.00000000000E+00  0.19887485180E+03  0.19887485180E+03  0.00000000000E+00 0.  1.
          1   -1    0    0  501    0  0.00000000000E+00 -0.00000000000E+00 -0.20474857593E+04  0.20474857593E+04  0.00000000000E+00 0. -1.
        -24    2    1    2    0    0  0.40434226091E+03  0.84906821741E+02 -0.11975875760E+04  0.12693648042E+04  0.79807089064E+02 0.  0.
    5000000    2    1    2    0    0 -0.40434226091E+03 -0.84906821741E+02 -0.65102333146E+03  0.97699580692E+03  0.59998966350E+03 0.  0.
        -24    2    4    4    0    0  0.63546546102E+02  0.10818531028E+03 -0.35611700060E+03  0.38587742363E+03  0.79623131520E+02 0.  0.
         24    2    4    4    0    0 -0.46788880701E+03 -0.19309213202E+03 -0.29490633086E+03  0.59111838329E+03  0.79036016536E+02 0.  0.
         13    1    3    3    0    0  0.13910952446E+03  0.63109152475E+02 -0.37994542258E+03  0.40950305135E+03  0.00000000000E+00 0. -1.
        -14    1    3    3    0    0  0.26523273645E+03  0.21797669266E+02 -0.81764215344E+03  0.85986175281E+03  0.00000000000E+00 0.  1.
         15    1    5    5    0    0  0.68468978975E+02  0.38409136207E+02 -0.18045311269E+03  0.19679874602E+03  0.17770000000E+01 0. -1.
        -16    1    5    5    0    0 -0.49224328727E+01  0.69776174070E+02 -0.17566388791E+03  0.18907867761E+03  0.00000000000E+00 0.  1.
          2    1    6    6  502    0 -0.22645900821E+03 -0.13280810134E+03 -0.13360829087E+03  0.29457231637E+03  0.00000000000E+00 0. -1.
         -1    1    6    6    0  502 -0.24142979880E+03 -0.60284030682E+02 -0.16129803999E+03  0.29654606692E+03  0.00000000000E+00 0.  1.
<mgrwt>
<rscale>  0 0.53936512E+03</rscale>
<asrwt>0</asrwt>
<pdfrwt beam="1">  1        1 0.31499782E+00 0.53936512E+03</pdfrwt>
<pdfrwt beam="2">  1       -2 0.30596130E-01 0.53936512E+03</pdfrwt>
<totfact> 0.25720100E+01</totfact>
</mgrwt>
</event>
<event>
12    3  0.1201947E-007  0.1253539E+04  0.7818608E-02  0.9067243E-01
         -2   -1    0    0    0  501 -0.00000000000E+00  0.00000000000E+00  0.77238223903E+03  0.77238223903E+03  0.00000000000E+00 0.  1.
          1   -1    0    0  501    0  0.00000000000E+00 -0.00000000000E+00 -0.21360429734E+04  0.21360429734E+04  0.00000000000E+00 0. -1.
        -24    2    1    2    0    0 -0.84200556985E+03 -0.84399181984E+03 -0.89851586022E+03  0.14950779205E+04  0.81435039220E+02 0.  0.
    5000000    2    1    2    0    0  0.84200556985E+03  0.84399181984E+03 -0.46514487418E+03  0.14133472920E+04  0.59991269545E+03 0.  0.
        -24    2    4    4    0    0  0.52841760466E+03  0.83772208656E+03 -0.25011759121E+03  0.10246509040E+04  0.79669357100E+02 0.  0.
         24    2    4    4    0    0  0.31358796519E+03  0.62697332831E+01 -0.21502728297E+03  0.38869638796E+03  0.80445187072E+02 0.  0.
         13    1    3    3    0    0 -0.49873091624E+03 -0.46932800510E+03 -0.55810143764E+03  0.88344695250E+03  0.00000000000E+00 0. -1.
        -14    1    3    3    0    0 -0.34327465360E+03 -0.37466381475E+03 -0.34041442258E+03  0.61163096798E+03  0.00000000000E+00 0.  1.
         15    1    5    5    0    0  0.45440150544E+03  0.71207297389E+03 -0.24157079254E+03  0.87857171240E+03  0.17770000000E+01 0. -1.
        -16    1    5    5    0    0  0.74016099220E+02  0.12564911267E+03 -0.85467986723E+01  0.14607919163E+03  0.00000000000E+00 0.  1.
          2    1    6    6  502    0  0.30732967405E+03  0.20502279986E+02 -0.20777462317E+03  0.37154026171E+03  0.00000000000E+00 0. -1.
         -1    1    6    6    0  502  0.62582911346E+01 -0.14232546703E+02 -0.72526597956E+01  0.17156126244E+02  0.00000000000E+00 0.  1.
<mgrwt>
<rscale>  0 0.12535392E+04</rscale>
<asrwt>0</asrwt>
<pdfrwt beam="1">  1        1 0.32862199E+00 0.12535392E+04</pdfrwt>
<pdfrwt beam="2">  1       -2 0.11882804E+00 0.12535392E+04</pdfrwt>
<totfact> 0.11214602E+00</totfact>
</mgrwt>
</event>
<event>
12    3  0.1201947E-007  0.7963482E+03  0.7818608E-02  0.9565318E-01
         -2   -1    0    0    0  501 -0.00000000000E+00  0.00000000000E+00  0.13066931223E+04  0.13066931223E+04  0.00000000000E+00 0.  1.
          1   -1    0    0  501    0  0.00000000000E+00 -0.00000000000E+00 -0.41072182412E+04  0.41072182412E+04  0.00000000000E+00 0. -1.
        -24    2    1    2    0    0  0.61493479193E+02 -0.77742755847E+03  0.11230629628E+04  0.13688155482E+04  0.64888595323E+02 0.  0.
    5000000    2    1    2    0    0 -0.61493479193E+02  0.77742755847E+03 -0.39235880818E+04  0.40450958153E+04  0.60006804892E+03 0.  0.
        -24    2    4    4    0    0  0.28076160049E+02  0.63314015764E+03 -0.36907441208E+04  0.37455601733E+04  0.77292412293E+02 0.  0.
         24    2    4    4    0    0 -0.89569639242E+02  0.14428740083E+03 -0.23284396100E+03  0.29953564203E+03  0.81631589235E+02 0.  0.
         13    1    3    3    0    0  0.39081366332E+02 -0.54468560428E+03  0.73328019734E+03  0.91428092429E+03  0.00000000000E+00 0. -1.
        -14    1    3    3    0    0  0.22412112862E+02 -0.23274195419E+03  0.38978276550E+03  0.45453462390E+03  0.00000000000E+00 0.  1.
         15    1    5    5    0    0  0.49983545619E+02  0.53355578604E+03 -0.30389773702E+04  0.30858656397E+04  0.17770000000E+01 0. -1.
        -16    1    5    5    0    0 -0.21907385570E+02  0.99584371596E+02 -0.65176675055E+03  0.65969453365E+03  0.00000000000E+00 0.  1.
          2    1    6    6  502    0  0.33263716556E+01  0.17162541114E+02  0.11290274488E+01  0.17518340927E+02  0.00000000000E+00 0. -1.
         -1    1    6    6    0  502 -0.92896010898E+02  0.12712485972E+03 -0.23397298845E+03  0.28201730110E+03  0.00000000000E+00 0.  1.
<mgrwt>
<rscale>  0 0.79634822E+03</rscale>
<asrwt>0</asrwt>
<pdfrwt beam="1">  1        1 0.63187972E+00 0.79634822E+03</pdfrwt>
<pdfrwt beam="2">  1       -2 0.20102972E+00 0.79634822E+03</pdfrwt>
<totfact> 0.98194677E-03</totfact>
</mgrwt>
</event>
<event>
12    3  0.1201947E-007  0.4464500E+03  0.7818608E-02  0.1028786E+00
          1   -1    0    0  501    0  0.00000000000E+00  0.00000000000E+00  0.12638073805E+04  0.12638073805E+04  0.00000000000E+00 0. -1.
         -2   -1    0    0    0  501 -0.00000000000E+00 -0.00000000000E+00 -0.41825904127E+03  0.41825904127E+03  0.00000000000E+00 0.  1.
        -24    2    1    2    0    0  0.21857610034E+03 -0.12239245004E+03 -0.27884992514E+03  0.38319079374E+03  0.79514025108E+02 0.  0.
    5000000    2    1    2    0    0 -0.21857610034E+03  0.12239245004E+03  0.11243982644E+04  0.12988756280E+04  0.60004251244E+03 0.  0.
        -24    2    4    4    0    0  0.18863829695E+03  0.10484315764E+03  0.33096937438E+03  0.40331915270E+03  0.80926617208E+02 0.  0.
         24    2    4    4    0    0 -0.40721439729E+03  0.17549292397E+02  0.79342888999E+03  0.89555647535E+03  0.79752454771E+02 0.  0.
         11    1    3    3    0    0  0.93624459142E+01  0.11183749997E+02 -0.14364474735E+02  0.20471194199E+02  0.00000000000E+00 0. -1.
        -12    1    3    3    0    0  0.20921365442E+03 -0.13357620004E+03 -0.26448545040E+03  0.36271959954E+03  0.00000000000E+00 0.  1.
         15    1    5    5    0    0  0.16855453698E+03  0.93269237222E+02  0.32738966107E+03  0.37986435797E+03  0.17770000000E+01 0. -1.
        -16    1    5    5    0    0  0.20083759970E+02  0.11573920421E+02  0.35797133108E+01  0.23454794730E+02  0.00000000000E+00 0.  1.
          4    1    6    6  502    0 -0.26031614885E+03  0.46789859134E+02  0.47537025538E+03  0.54399509921E+03  0.00000000000E+00 0. -1.
         -3    1    6    6    0  502 -0.14689824844E+03 -0.29240566737E+02  0.31805863461E+03  0.35156137613E+03  0.00000000000E+00 0.  1.
<mgrwt>
<rscale>  0 0.44645004E+03</rscale>
<asrwt>0</asrwt>
<pdfrwt beam="1">  1        1 0.19443190E+00 0.44645004E+03</pdfrwt>
<pdfrwt beam="2">  1       -2 0.64347546E-01 0.44645004E+03</pdfrwt>
<totfact> 0.20193897E+01</totfact>
</mgrwt>
</event>
<event>
12    3  0.1201947E-007  0.8194382E+03  0.7818608E-02  0.9532300E-01
          1   -1    0    0  501    0  0.00000000000E+00  0.00000000000E+00  0.62212147407E+03  0.62212147407E+03  0.00000000000E+00 0. -1.
         -2   -1    0    0    0  501 -0.00000000000E+00 -0.00000000000E+00 -0.13719790339E+04  0.13719790339E+04  0.00000000000E+00 0.  1.
        -24    2    1    2    0    0 -0.80301090812E+03 -0.11337391229E+03 -0.17754574184E+03  0.83427570855E+03  0.82542745724E+02 0.  0.
    5000000    2    1    2    0    0  0.80301090812E+03  0.11337391229E+03 -0.57231181802E+03  0.11598247994E+04  0.59997715441E+03 0.  0.
        -24    2    4    4    0    0  0.48665551449E+03  0.12521438820E+03 -0.82558229785E+01  0.50852061388E+03  0.77542396988E+02 0.  0.
         24    2    4    4    0    0  0.31635539363E+03 -0.11840475910E+02 -0.56405599504E+03  0.65130418557E+03  0.76269552540E+02 0.  0.
         11    1    3    3    0    0 -0.36192809870E+03 -0.65228229991E+02 -0.40997506065E+02  0.37003711452E+03  0.00000000000E+00 0. -1.
        -12    1    3    3    0    0 -0.44108280942E+03 -0.48145682300E+02 -0.13654823578E+03  0.46423859402E+03  0.00000000000E+00 0.  1.
         15    1    5    5    0    0  0.15538458790E+03  0.46356585471E+02 -0.38447391495E+02  0.16665732152E+03  0.17770000000E+01 0. -1.
        -16    1    5    5    0    0  0.33127092659E+03  0.78857802730E+02  0.30191568516E+02  0.34186329237E+03  0.00000000000E+00 0.  1.
          4    1    6    6  502    0  0.68872332250E+02  0.27453463430E+02 -0.10920179979E+03  0.13199289330E+03  0.00000000000E+00 0. -1.
         -3    1    6    6    0  502  0.24748306138E+03 -0.39293939340E+02 -0.45485419525E+03  0.51931129227E+03  0.00000000000E+00 0.  1.
<mgrwt>
<rscale>  0 0.81943822E+03</rscale>
<asrwt>0</asrwt>
<pdfrwt beam="1">  1        1 0.95710996E-01 0.81943822E+03</pdfrwt>
<pdfrwt beam="2">  1       -2 0.21107370E+00 0.81943822E+03</pdfrwt>
<totfact> 0.32677698E+00</totfact>
</mgrwt>
</event>
<event>
12    3  0.1201947E-007  0.5824672E+03  0.7818608E-02  0.9942464E-01
          1   -1    0    0  501    0  0.00000000000E+00  0.00000000000E+00  0.96763546501E+03  0.96763546501E+03  0.00000000000E+00 0. -1.
         -2   -1    0    0    0  501 -0.00000000000E+00 -0.00000000000E+00 -0.48668318793E+03  0.48668318793E+03  0.00000000000E+00 0.  1.
        -24    2    1    2    0    0 -0.34544341402E+03  0.26151878048E+03 -0.16651147381E+03  0.47106070508E+03  0.80304994417E+02 0.  0.
    5000000    2    1    2    0    0  0.34544341402E+03 -0.26151878048E+03  0.64746375089E+03  0.98325794786E+03  0.59988637130E+03 0.  0.
        -24    2    4    4    0    0  0.42574207549E+02 -0.38706817572E+03  0.40297138189E+03  0.56597154823E+03  0.79394728911E+02 0.  0.
         24    2    4    4    0    0  0.30286920647E+03  0.12554939524E+03  0.24449236900E+03  0.41728639963E+03  0.82819164094E+02 0.  0.
         13    1    3    3    0    0 -0.14273500829E+03  0.15414982393E+03 -0.62428530984E+02  0.21916380242E+03  0.00000000000E+00 0. -1.
        -14    1    3    3    0    0 -0.20270840573E+03  0.10736895655E+03 -0.10408294283E+03  0.25189690267E+03  0.00000000000E+00 0.  1.
         15    1    5    5    0    0 -0.17234660739E+02 -0.15105094886E+03  0.18221267780E+03  0.23731422284E+03  0.17770000000E+01 0. -1.
        -16    1    5    5    0    0  0.59808868288E+02 -0.23601722686E+03  0.22075870410E+03  0.32865732539E+03  0.00000000000E+00 0.  1.
          4    1    6    6  502    0  0.10020031354E+03  0.60700920401E+02  0.13235691010E+03  0.17675705423E+03  0.00000000000E+00 0. -1.
         -3    1    6    6    0  502  0.20266889294E+03  0.64848474841E+02  0.11213545890E+03  0.24052934540E+03  0.00000000000E+00 0.  1.
<mgrwt>
<rscale>  0 0.58246724E+03</rscale>
<asrwt>0</asrwt>
<pdfrwt beam="1">  1        1 0.14886699E+00 0.58246724E+03</pdfrwt>
<pdfrwt beam="2">  1       -2 0.74874337E-01 0.58246724E+03</pdfrwt>
<totfact> 0.23508870E+01</totfact>
</mgrwt>
</event>
<event>
12    3  0.1201947E-007  0.6661380E+03  0.7818608E-02  0.9776960E-01
          1   -1    0    0  501    0  0.00000000000E+00  0.00000000000E+00  0.22657249872E+04  0.22657249872E+04  0.00000000000E+00 0. -1.
         -2   -1    0    0    0  501 -0.00000000000E+00 -0.00000000000E+00 -0.24116415198E+03  0.24116415198E+03  0.00000000000E+00 0.  1.
        -24    2    1    2    0    0 -0.42308100019E+03 -0.34345903590E+03  0.36122423853E+03  0.65657569826E+03  0.60390851797E+02 0.  0.
    5000000    2    1    2    0    0  0.42308100019E+03  0.34345903590E+03  0.16633365967E+04  0.18503134410E+04  0.60000796137E+03 0.  0.
        -24    2    4    4    0    0  0.25313189465E+03 -0.12134178848E+03  0.80292638683E+03  0.85441644362E+03  0.80852277315E+02 0.  0.
         24    2    4    4    0    0  0.16994910553E+03  0.46480082438E+03  0.86041020991E+03  0.99589699734E+03  0.81133194060E+02 0.  0.
         13    1    3    3    0    0 -0.29144753108E+03 -0.21085262293E+03  0.21281072415E+03  0.41795800780E+03  0.00000000000E+00 0. -1.
        -14    1    3    3    0    0 -0.13163346910E+03 -0.13260641297E+03  0.14841351438E+03  0.23861769046E+03  0.00000000000E+00 0.  1.
         15    1    5    5    0    0  0.22671711967E+02 -0.40675475784E+02  0.16146147767E+03  0.16805197813E+03  0.17770000000E+01 0. -1.
        -16    1    5    5    0    0  0.23046018269E+03 -0.80666312701E+02  0.64146490916E+03  0.68636446549E+03  0.00000000000E+00 0.  1.
          4    1    6    6  502    0  0.79460935652E+02  0.22633114070E+03  0.49763514462E+03  0.55243150046E+03  0.00000000000E+00 0. -1.
         -3    1    6    6    0  502  0.90488169880E+02  0.23846968368E+03  0.36277506530E+03  0.44346549688E+03  0.00000000000E+00 0.  1.
<mgrwt>
<rscale>  0 0.66613802E+03</rscale>
<asrwt>0</asrwt>
<pdfrwt beam="1">  1        1 0.34857306E+00 0.66613802E+03</pdfrwt>
<pdfrwt beam="2">  1       -2 0.37102179E-01 0.66613802E+03</pdfrwt>
<totfact> 0.12509610E+01</totfact>
</mgrwt>
</event>
<event>
12    3  0.1201947E-007  0.4288870E+03  0.7818608E-02  0.1034212E+00
         -2   -1    0    0    0  501 -0.00000000000E+00  0.00000000000E+00  0.22198042269E+03  0.22198042269E+03  0.00000000000E+00 0.  1.
          1   -1    0    0  501    0  0.00000000000E+00 -0.00000000000E+00 -0.14347147321E+04  0.14347147321E+04  0.00000000000E+00 0. -1.
        -24    2    1    2    0    0 -0.17398946977E+03 -0.13562261154E+03 -0.92766641210E+03  0.95677536686E+03  0.78665762244E+02 0.  0.
    5000000    2    1    2    0    0  0.17398946977E+03  0.13562261154E+03 -0.28506789727E+03  0.69991978789E+03  0.59996514488E+03 0.  0.
        -24    2    4    4    0    0 -0.49711157859E+02  0.32366730686E+03 -0.14858147726E+03  0.36748612937E+03  0.75748763338E+02 0.  0.
         24    2    4    4    0    0  0.22370062763E+03 -0.18804469531E+03 -0.13648642001E+03  0.33243365852E+03  0.80503516915E+02 0.  0.
         11    1    3    3    0    0 -0.11134063497E+03 -0.50677945019E+02 -0.60635447405E+03  0.61857153128E+03  0.00000000000E+00 0. -1.
        -12    1    3    3    0    0 -0.62648834793E+02 -0.84944666526E+02 -0.32131193805E+03  0.33820383559E+03  0.00000000000E+00 0.  1.
         15    1    5    5    0    0 -0.49826297261E+02  0.26423622211E+03 -0.88780573308E+02  0.28317589746E+03  0.17770000000E+01 0. -1.
        -16    1    5    5    0    0  0.11513940197E+00  0.59431084748E+02 -0.59800903950E+02  0.84310231910E+02  0.00000000000E+00 0.  1.
          4    1    6    6  502    0  0.95677187239E+02 -0.12892742223E+03 -0.89420625481E+02  0.18377282885E+03  0.00000000000E+00 0. -1.
         -3    1    6    6    0  502  0.12802344039E+03 -0.59117273083E+02 -0.47065794532E+02  0.14866082968E+03  0.00000000000E+00 0.  1.
<mgrwt>
<rscale>  0 0.42888698E+03</rscale>
<asrwt>0</asrwt>
<pdfrwt beam="1">  1        1 0.22072535E+00 0.42888698E+03</pdfrwt>
<pdfrwt beam="2">  1       -2 0.34150834E-01 0.42888698E+03</pdfrwt>
<totfact> 0.54699675E+01</totfact>
</mgrwt>
</event>
<event>
12    3  0.1201947E-007  0.1048472E+04  0.7818608E-02  0.9256923E-01
          1   -1    0    0  501    0  0.00000000000E+00  0.00000000000E+00  0.13857161741E+04  0.13857161741E+04  0.00000000000E+00 0. -1.
         -2   -1    0    0    0  501 -0.00000000000E+00 -0.00000000000E+00 -0.87435722865E+03  0.87435722865E+03  0.00000000000E+00 0.  1.
        -24    2    1    2    0    0  0.43896694830E+03  0.91771536791E+03  0.23579836348E+03  0.10473104825E+04  0.79780325414E+02 0.  0.
    5000000    2    1    2    0    0 -0.43896694830E+03 -0.91771536791E+03  0.27556058202E+03  0.12127629203E+04  0.59997232295E+03 0.  0.
        -24    2    4    4    0    0 -0.40807387550E+03 -0.90238997213E+03  0.38990857640E+03  0.10673871684E+04  0.80341269939E+02 0.  0.
         24    2    4    4    0    0 -0.30893072808E+02 -0.15325395784E+02 -0.11434799438E+03  0.14537575191E+03  0.82881817799E+02 0.  0.
         11    1    3    3    0    0  0.17442932896E+03  0.45550425853E+03  0.12010671252E+03  0.50232991423E+03  0.00000000000E+00 0. -1.
        -12    1    3    3    0    0  0.26453761934E+03  0.46221110938E+03  0.11569165096E+03  0.54498056826E+03  0.00000000000E+00 0.  1.
         15    1    5    5    0    0 -0.24367902361E+03 -0.61167121527E+03  0.23357785482E+03  0.69862931096E+03  0.17770000000E+01 0. -1.
        -16    1    5    5    0    0 -0.16439485189E+03 -0.29071875685E+03  0.15633072158E+03  0.36875785744E+03  0.00000000000E+00 0.  1.
          2    1    6    6  502    0 -0.55885606411E+02 -0.18850418881E+02 -0.10065239198E+03  0.11665951872E+03  0.00000000000E+00 0. -1.
         -1    1    6    6    0  502  0.24992533603E+02  0.35250230968E+01 -0.13695602396E+02  0.28716233192E+02  0.00000000000E+00 0.  1.
<mgrwt>
<rscale>  0 0.10484722E+04</rscale>
<asrwt>0</asrwt>
<pdfrwt beam="1">  1        1 0.21318711E+00 0.10484722E+04</pdfrwt>
<pdfrwt beam="2">  1       -2 0.13451650E+00 0.10484722E+04</pdfrwt>
<totfact> 0.27251626E+00</totfact>
</mgrwt>
</event>
<event>
12    3  0.1201947E-007  0.1179302E+04  0.7818608E-02  0.9131169E-01
          1   -1    0    0  501    0  0.00000000000E+00  0.00000000000E+00  0.20941936039E+04  0.20941936039E+04  0.00000000000E+00 0. -1.
         -2   -1    0    0    0  501 -0.00000000000E+00 -0.00000000000E+00 -0.87398718729E+03  0.87398718729E+03  0.00000000000E+00 0.  1.
        -24    2    1    2    0    0 -0.44627396342E+03  0.10130843640E+04  0.12965104399E+04  0.17066837441E+04  0.79559428860E+02 0.  0.
    5000000    2    1    2    0    0  0.44627396342E+03 -0.10130843640E+04 -0.76304023246E+02  0.12614970471E+04  0.60004342910E+03 0.  0.
        -24    2    4    4    0    0  0.49586769139E+03 -0.41208734315E+03 -0.38987100463E+02  0.65185590438E+03  0.87723316833E+02 0.  0.
         24    2    4    4    0    0 -0.49593727969E+02 -0.60099702086E+03 -0.37316922784E+02  0.60964114270E+03  0.81319205734E+02 0.  0.
         13    1    3    3    0    0 -0.37296111651E+03  0.88083412518E+03  0.10813923562E+04  0.14437375726E+04  0.00000000000E+00 0. -1.
        -14    1    3    3    0    0 -0.73312846911E+02  0.13225023883E+03  0.21511808362E+03  0.26294617148E+03  0.00000000000E+00 0.  1.
         15    1    5    5    0    0  0.94477317629E+02 -0.10142605394E+03  0.22997165984E+02  0.14051774029E+03  0.17770000000E+01 0. -1.
        -16    1    5    5    0    0  0.40139037376E+03 -0.31066128922E+03 -0.61984266446E+02  0.51133816409E+03  0.00000000000E+00 0.  1.
          2    1    6    6  502    0 -0.51552093851E+01 -0.33047038738E+03  0.13646664970E+02  0.33079220756E+03  0.00000000000E+00 0. -1.
         -1    1    6    6    0  502 -0.44438518584E+02 -0.27052663347E+03 -0.50963587754E+02  0.27884893514E+03  0.00000000000E+00 0.  1.
<mgrwt>
<rscale>  0 0.11793024E+04</rscale>
<asrwt>0</asrwt>
<pdfrwt beam="1">  1        1 0.32218363E+00 0.11793024E+04</pdfrwt>
<pdfrwt beam="2">  1       -2 0.13445957E+00 0.11793024E+04</pdfrwt>
<totfact> 0.88295616E-01</totfact>
</mgrwt>
</event>
<event>
12    3  0.1201947E-007  0.7076034E+03  0.7818608E-02  0.9704317E-01
          1   -1    0    0  501    0  0.00000000000E+00  0.00000000000E+00  0.18183186100E+04  0.18183186100E+04  0.00000000000E+00 0. -1.
         -2   -1    0    0    0  501 -0.00000000000E+00 -0.00000000000E+00 -0.37614461445E+03  0.37614461445E+03  0.00000000000E+00 0.  1.
        -24    2    1    2    0    0 -0.33997071374E+03 -0.48661186595E+03  0.11583573955E+04  0.13040045450E+04  0.79150510907E+02 0.  0.
    5000000    2    1    2    0    0  0.33997071374E+03  0.48661186595E+03  0.28381660002E+03  0.89045867944E+03  0.59999466919E+03 0.  0.
        -24    2    4    4    0    0  0.19829545428E+03  0.59708268606E+03  0.28187836677E+03  0.69408917032E+03  0.80470749470E+02 0.  0.
         24    2    4    4    0    0  0.14167525946E+03 -0.11047082011E+03  0.19382332540E+01  0.19636950912E+03  0.79256205585E+02 0.  0.
         13    1    3    3    0    0 -0.36038646370E+02 -0.10256806781E+03  0.19280341214E+03  0.22134170031E+03  0.00000000000E+00 0. -1.
        -14    1    3    3    0    0 -0.30393206737E+03 -0.38404379813E+03  0.96555398336E+03  0.10826628447E+04  0.00000000000E+00 0.  1.
         15    1    5    5    0    0  0.63739411071E+02  0.28860948445E+03  0.16043863804E+03  0.33630620176E+03  0.17770000000E+01 0. -1.
        -16    1    5    5    0    0  0.13455604321E+03  0.30847320161E+03  0.12143972873E+03  0.35778296855E+03  0.00000000000E+00 0.  1.
          4    1    6    6  502    0  0.43067646230E+02 -0.59970686222E+02 -0.32045794837E+02  0.80487504151E+02  0.00000000000E+00 0. -1.
         -3    1    6    6    0  502  0.98607613228E+02 -0.50500133891E+02  0.33984028091E+02  0.11588200497E+03  0.00000000000E+00 0.  1.
<mgrwt>
<rscale>  0 0.70760335E+03</rscale>
<asrwt>0</asrwt>
<pdfrwt beam="1">  1        1 0.27974132E+00 0.70760335E+03</pdfrwt>
<pdfrwt beam="2">  1       -2 0.57868403E-01 0.70760335E+03</pdfrwt>
<totfact> 0.10147143E+01</totfact>
</mgrwt>
</event>
<event>
12    3  0.1201947E-007  0.7998318E+03  0.7818608E-02  0.9560261E-01
          1   -1    0    0  501    0  0.00000000000E+00  0.00000000000E+00  0.87287865492E+03  0.87287865492E+03  0.00000000000E+00 0. -1.
         -2   -1    0    0    0  501 -0.00000000000E+00 -0.00000000000E+00 -0.94904578012E+03  0.94904578012E+03  0.00000000000E+00 0.  1.
        -24    2    1    2    0    0  0.76365459241E+03  0.19694710155E+03  0.14728907236E+03  0.80611676167E+03  0.78572675281E+02 0.  0.
    5000000    2    1    2    0    0 -0.76365459241E+03 -0.19694710155E+03 -0.22345619756E+03  0.10158076734E+04  0.59998004945E+03 0.  0.
        -24    2    4    4    0    0 -0.30285159712E+03 -0.15729840486E+03  0.18231902468E+03  0.39539455184E+03  0.81453955147E+02 0.  0.
         24    2    4    4    0    0 -0.46080299529E+03 -0.39648696683E+02 -0.40577522224E+03  0.62041312154E+03  0.79671141423E+02 0.  0.
         13    1    3    3    0    0  0.18903179934E+03  0.83315910077E+02  0.30117827159E+02  0.20876217461E+03  0.00000000000E+00 0. -1.
        -14    1    3    3    0    0  0.57462279306E+03  0.11363119147E+03  0.11717124520E+03  0.59735458706E+03  0.00000000000E+00 0.  1.
         15    1    5    5    0    0 -0.16976593616E+03 -0.70139258481E+02  0.13946434602E+03  0.23063705296E+03  0.17770000000E+01 0. -1.
        -16    1    5    5    0    0 -0.13308566096E+03 -0.87159146382E+02  0.42854678667E+02  0.16475749887E+03  0.00000000000E+00 0.  1.
          2    1    6    6  502    0 -0.26531339023E+03 -0.11755758223E+01 -0.18752371363E+03  0.32489647611E+03  0.00000000000E+00 0. -1.
         -1    1    6    6    0  502 -0.19548960505E+03 -0.38473120861E+02 -0.21825150861E+03  0.29551664542E+03  0.00000000000E+00 0.  1.
<mgrwt>
<rscale>  0 0.79983177E+03</rscale>
<asrwt>0</asrwt>
<pdfrwt beam="1">  1        1 0.13428902E+00 0.79983177E+03</pdfrwt>
<pdfrwt beam="2">  1       -2 0.14600704E+00 0.79983177E+03</pdfrwt>
<totfact> 0.54984820E+00</totfact>
</mgrwt>
</event>
<event>
12    3  0.1201947E-007  0.7822079E+03  0.7818608E-02  0.9586134E-01
         -2   -1    0    0    0  501 -0.00000000000E+00  0.00000000000E+00  0.97112038042E+03  0.97112038042E+03  0.00000000000E+00 0.  1.
          1   -1    0    0  501    0  0.00000000000E+00 -0.00000000000E+00 -0.10374222644E+04  0.10374222644E+04  0.00000000000E+00 0. -1.
        -24    2    1    2    0    0 -0.67538472917E+03  0.40085629844E+02 -0.64057105318E+03  0.93730827095E+03  0.10229433269E+03 0.  0.
    5000000    2    1    2    0    0  0.67538472917E+03 -0.40085629844E+02  0.57426916925E+03  0.10712343738E+04  0.60000551231E+03 0.  0.
        -24    2    4    4    0    0  0.74543618724E+03  0.68473003985E+02  0.47608886466E+03  0.89068393590E+03  0.79332244967E+02 0.  0.
         24    2    4    4    0    0 -0.70051458072E+02 -0.10855863383E+03  0.98180304594E+02  0.18055043793E+03  0.79163783829E+02 0.  0.
         13    1    3    3    0    0 -0.10157230750E+03  0.48151200132E+01 -0.15185423164E+03  0.18275619470E+03  0.00000000000E+00 0. -1.
        -14    1    3    3    0    0 -0.57381242167E+03  0.35270509831E+02 -0.48871682154E+03  0.75455207625E+03  0.00000000000E+00 0.  1.
         15    1    5    5    0    0  0.69098364070E+03  0.50360397569E+02  0.41861958627E+03  0.80946900935E+03  0.17770000000E+01 0. -1.
        -16    1    5    5    0    0  0.54452546537E+02  0.18112606416E+02  0.57469278381E+02  0.81214926541E+02  0.00000000000E+00 0.  1.
          2    1    6    6  502    0 -0.49817420561E+02 -0.10614213606E+03  0.10663378074E+03  0.15848877448E+03  0.00000000000E+00 0. -1.
         -1    1    6    6    0  502 -0.20234037511E+02 -0.24164977668E+01 -0.84534761484E+01  0.22061663456E+02  0.00000000000E+00 0.  1.
<mgrwt>
<rscale>  0 0.78220788E+03</rscale>
<asrwt>0</asrwt>
<pdfrwt beam="1">  1        1 0.15960343E+00 0.78220788E+03</pdfrwt>
<pdfrwt beam="2">  1       -2 0.14940313E+00 0.78220788E+03</pdfrwt>
<totfact> 0.38396925E+00</totfact>
</mgrwt>
</event>
<event>
12    3  0.1201947E-007  0.1664730E+04  0.7818608E-02  0.8781740E-01
          1   -1    0    0  501    0  0.00000000000E+00  0.00000000000E+00  0.30080626615E+04  0.30080626615E+04  0.00000000000E+00 0. -1.
         -2   -1    0    0    0  501 -0.00000000000E+00 -0.00000000000E+00 -0.10015435867E+04  0.10015435867E+04  0.00000000000E+00 0.  1.
        -24    2    1    2    0    0 -0.20499193786E+03 -0.16385622317E+04  0.59889991439E+03  0.17583227421E+04  0.78165696473E+02 0.  0.
    5000000    2    1    2    0    0  0.20499193786E+03  0.16385622317E+04  0.14076191604E+04  0.22512835061E+04  0.59998153488E+03 0.  0.
        -24    2    4    4    0    0  0.19398248952E+03  0.49608276558E+03  0.77203019948E+03  0.94135644625E+03  0.79962575305E+02 0.  0.
         24    2    4    4    0    0  0.11009448341E+02  0.11424794661E+04  0.63558896095E+03  0.13099270598E+04  0.80963178777E+02 0.  0.
         13    1    3    3    0    0 -0.11211681120E+03 -0.89343204013E+03  0.36790365085E+03  0.97269938111E+03  0.00000000000E+00 0. -1.
        -14    1    3    3    0    0 -0.92875126663E+02 -0.74513019158E+03  0.23099626354E+03  0.78562336098E+03  0.00000000000E+00 0.  1.
         15    1    5    5    0    0  0.87341929085E+02  0.25636987710E+03  0.45863053742E+03  0.53263425917E+03  0.17770000000E+01 0. -1.
        -16    1    5    5    0    0  0.10664056044E+03  0.23971288848E+03  0.31339966206E+03  0.40872218708E+03  0.00000000000E+00 0.  1.
          2    1    6    6  502    0 -0.30173305867E+02  0.65737609049E+03  0.38404665740E+03  0.76193542233E+03  0.00000000000E+00 0. -1.
         -1    1    6    6    0  502  0.41182754208E+02  0.48510337565E+03  0.25154230355E+03  0.54799163751E+03  0.00000000000E+00 0.  1.
<mgrwt>
<rscale>  0 0.16647303E+04</rscale>
<asrwt>0</asrwt>
<pdfrwt beam="1">  1        1 0.46277887E+00 0.16647303E+04</pdfrwt>
<pdfrwt beam="2">  1       -2 0.15408363E+00 0.16647303E+04</pdfrwt>
<totfact> 0.13433273E-01</totfact>
</mgrwt>
</event>
<event>
12    3  0.1201947E-007  0.5626091E+03  0.7818608E-02  0.9986168E-01
          3   -1    0    0  501    0  0.00000000000E+00  0.00000000000E+00  0.11057267944E+04  0.11057267944E+04  0.00000000000E+00 0. -1.
         -4   -1    0    0    0  501 -0.00000000000E+00 -0.00000000000E+00 -0.33075773684E+03  0.33075773684E+03  0.00000000000E+00 0.  1.
        -24    2    1    2    0    0 -0.40162783201E+03  0.20413797383E+03  0.34140073383E+03  0.56995307879E+03  0.72902833671E+02 0.  0.
    5000000    2    1    2    0    0  0.40162783201E+03 -0.20413797383E+03  0.43356832372E+03  0.86653145243E+03  0.59993169521E+03 0.  0.
        -24    2    4    4    0    0  0.27356732801E+03 -0.36886152482E+03  0.12434135981E+03  0.48225210250E+03  0.78793458853E+02 0.  0.
         24    2    4    4    0    0  0.12806050400E+03  0.16472355099E+03  0.30922696390E+03  0.38427934993E+03  0.92281973541E+02 0.  0.
         11    1    3    3    0    0 -0.57259703749E+02  0.61161481789E+01  0.59828677202E+02  0.83039457836E+02  0.00000000000E+00 0. -1.
        -12    1    3    3    0    0 -0.34436812826E+03  0.19802182565E+03  0.28157205663E+03  0.48691362096E+03  0.00000000000E+00 0.  1.
         15    1    5    5    0    0  0.27059267414E+03 -0.35913062922E+03  0.10711774395E+03  0.46224730712E+03  0.17770000000E+01 0. -1.
        -16    1    5    5    0    0  0.29746538701E+01 -0.97308956076E+01  0.17223615864E+02  0.20004795385E+02  0.00000000000E+00 0.  1.
          2    1    6    6  502    0  0.11746296694E+03  0.16104576515E+03  0.23040572406E+03  0.30466388817E+03  0.00000000000E+00 0. -1.
         -1    1    6    6    0  502  0.10597537062E+02  0.36777858410E+01  0.78821239849E+02  0.79615461763E+02  0.00000000000E+00 0.  1.
<mgrwt>
<rscale>  0 0.56260914E+03</rscale>
<asrwt>0</asrwt>
<pdfrwt beam="1">  1        3 0.17011181E+00 0.56260914E+03</pdfrwt>
<pdfrwt beam="2">  1       -4 0.50885806E-01 0.56260914E+03</pdfrwt>
<totfact> 0.19625336E+00</totfact>
</mgrwt>
</event>
<event>
12    3  0.1201947E-007  0.1024694E+04  0.7818608E-02  0.9281868E-01
          1   -1    0    0  501    0  0.00000000000E+00  0.00000000000E+00  0.75866447923E+03  0.75866447923E+03  0.00000000000E+00 0. -1.
         -2   -1    0    0    0  501 -0.00000000000E+00 -0.00000000000E+00 -0.16581491428E+04  0.16581491428E+04  0.00000000000E+00 0.  1.
        -24    2    1    2    0    0  0.10021425759E+04  0.18876178606E+03 -0.19998662697E+03  0.10424009014E+04  0.81757164266E+02 0.  0.
    5000000    2    1    2    0    0 -0.10021425759E+04 -0.18876178606E+03 -0.69949803661E+03  0.13744127206E+04  0.59982669922E+03 0.  0.
        -24    2    4    4    0    0 -0.48718299258E+03 -0.50550242704E+02 -0.63643119910E+01  0.49627543532E+03  0.79663090215E+02 0.  0.
         24    2    4    4    0    0 -0.51495958335E+03 -0.13821154335E+03 -0.69313372462E+03  0.87813728533E+03  0.80030797022E+02 0.  0.
         11    1    3    3    0    0  0.38552146910E+03  0.83586132563E+02 -0.11653776556E+03  0.41133258501E+03  0.00000000000E+00 0. -1.
        -12    1    3    3    0    0  0.61662110683E+03  0.10517565350E+03 -0.83448861415E+02  0.63106831638E+03  0.00000000000E+00 0.  1.
         15    1    5    5    0    0 -0.33880623919E+03  0.72451335478E-02 -0.16339556791E+02  0.33920466773E+03  0.17770000000E+01 0. -1.
        -16    1    5    5    0    0 -0.14837675339E+03 -0.50557487838E+02  0.99752447996E+01  0.15707076759E+03  0.00000000000E+00 0.  1.
          4    1    6    6  502    0 -0.36958469738E+03 -0.11123141917E+03 -0.44279640696E+03  0.58739589304E+03  0.00000000000E+00 0. -1.
         -3    1    6    6    0  502 -0.14537488597E+03 -0.26980124184E+02 -0.25033731767E+03  0.29074139228E+03  0.00000000000E+00 0.  1.
<mgrwt>
<rscale>  0 0.10246937E+04</rscale>
<asrwt>0</asrwt>
<pdfrwt beam="1">  1        1 0.11671761E+00 0.10246937E+04</pdfrwt>
<pdfrwt beam="2">  1       -2 0.25509987E+00 0.10246937E+04</pdfrwt>
<totfact> 0.12593994E+00</totfact>
</mgrwt>
</event>
<event>
12    3  0.1201947E-007  0.5042603E+03  0.7818608E-02  0.1012673E+00
         -4   -1    0    0    0  501 -0.00000000000E+00  0.00000000000E+00  0.11697966000E+04  0.11697966000E+04  0.00000000000E+00 0.  1.
          3   -1    0    0  501    0  0.00000000000E+00 -0.00000000000E+00 -0.24885607628E+03  0.24885607628E+03  0.00000000000E+00 0. -1.
        -24    2    1    2    0    0 -0.30678879894E+03 -0.11405465945E+03  0.53899814351E+03  0.63572025183E+03  0.80581681496E+02 0.  0.
    5000000    2    1    2    0    0  0.30678879894E+03  0.11405465945E+03  0.38194238026E+03  0.78293242449E+03  0.59997947214E+03 0.  0.
        -24    2    4    4    0    0  0.41125377462E+03  0.24165839443E+03  0.24688095915E+03  0.54299636348E+03  0.79789698740E+02 0.  0.
         24    2    4    4    0    0 -0.10446497569E+03 -0.12760373498E+03  0.13506142111E+03  0.23993606101E+03  0.11014572880E+03 0.  0.
         11    1    3    3    0    0 -0.24039487052E+03 -0.54803093010E+02  0.36819781610E+03  0.44312831613E+03  0.00000000000E+00 0. -1.
        -12    1    3    3    0    0 -0.66393928421E+02 -0.59251566437E+02  0.17080032741E+03  0.19259193571E+03  0.00000000000E+00 0.  1.
         15    1    5    5    0    0  0.32029488411E+03  0.20309780362E+03  0.16073535149E+03  0.41191812483E+03  0.17770000000E+01 0. -1.
        -16    1    5    5    0    0  0.90958890518E+02  0.38560590810E+02  0.86145607665E+02  0.13107823865E+03  0.00000000000E+00 0.  1.
          2    1    6    6  502    0 -0.28417284307E+02 -0.11421155960E+03  0.59421891188E+02  0.13184378463E+03  0.00000000000E+00 0. -1.
         -1    1    6    6    0  502 -0.76047691381E+02 -0.13392175383E+02  0.75639529918E+02  0.10809227638E+03  0.00000000000E+00 0.  1.
<mgrwt>
<rscale>  0 0.50426033E+03</rscale>
<asrwt>0</asrwt>
<pdfrwt beam="1">  1        3 0.38285551E-01 0.50426033E+03</pdfrwt>
<pdfrwt beam="2">  1       -4 0.17996870E+00 0.50426033E+03</pdfrwt>
<totfact> 0.27820234E+00</totfact>
</mgrwt>
</event>
<event>
12    3  0.1201947E-007  0.1073786E+04  0.7818608E-02  0.9231125E-01
         -2   -1    0    0    0  501 -0.00000000000E+00  0.00000000000E+00  0.29566928536E+03  0.29566928536E+03  0.00000000000E+00 0.  1.
          1   -1    0    0  501    0  0.00000000000E+00 -0.00000000000E+00 -0.43895610958E+04  0.43895610958E+04  0.00000000000E+00 0. -1.
        -24    2    1    2    0    0 -0.37244581793E+03 -0.92916746125E+03 -0.11993597601E+04  0.15642727361E+04  0.80108055061E+02 0.  0.
    5000000    2    1    2    0    0  0.37244581793E+03  0.92916746125E+03 -0.28945320504E+04  0.31209576451E+04  0.59999397778E+03 0.  0.
        -24    2    4    4    0    0 -0.40202911327E+02  0.62649855014E+03 -0.18497340938E+04  0.19549117087E+04  0.77761583733E+02 0.  0.
         24    2    4    4    0    0  0.41264872926E+03  0.30266891111E+03 -0.10447979566E+04  0.11660459363E+04  0.78567881545E+02 0.  0.
         11    1    3    3    0    0 -0.19571450216E+03 -0.55661891540E+03 -0.65866999834E+03  0.88429347507E+03  0.00000000000E+00 0. -1.
        -12    1    3    3    0    0 -0.17673131577E+03 -0.37254854586E+03 -0.54068976178E+03  0.67997926107E+03  0.00000000000E+00 0.  1.
         15    1    5    5    0    0 -0.10143865237E+02  0.39624489111E+03 -0.12693455903E+04  0.13297948327E+04  0.17770000000E+01 0. -1.
        -16    1    5    5    0    0 -0.30059046089E+02  0.23025365903E+03 -0.58038850345E+03  0.62511687602E+03  0.00000000000E+00 0.  1.
          2    1    6    6  502    0  0.32782858377E+03  0.27346436525E+03 -0.83273617038E+03  0.93579050479E+03  0.00000000000E+00 0. -1.
         -1    1    6    6    0  502  0.84820145488E+02  0.29204545863E+02 -0.21206178622E+03  0.23025543154E+03  0.00000000000E+00 0.  1.
<mgrwt>
<rscale>  0 0.10737864E+04</rscale>
<asrwt>0</asrwt>
<pdfrwt beam="1">  1        1 0.67531713E+00 0.10737864E+04</pdfrwt>
<pdfrwt beam="2">  1       -2 0.45487580E-01 0.10737864E+04</pdfrwt>
<totfact> 0.17617762E-01</totfact>
</mgrwt>
</event>
<event>
12    3  0.1201947E-007  0.3677977E+03  0.7818608E-02  0.1055538E+00
         -2   -1    0    0    0  501 -0.00000000000E+00  0.00000000000E+00  0.10611671734E+04  0.10611671734E+04  0.00000000000E+00 0.  1.
          1   -1    0    0  501    0  0.00000000000E+00 -0.00000000000E+00 -0.19383142926E+03  0.19383142926E+03  0.00000000000E+00 0. -1.
        -24    2    1    2    0    0  0.63210697057E+02  0.16043592218E+03  0.48948423726E+03  0.52476256502E+03  0.77753802301E+02 0.  0.
    5000000    2    1    2    0    0 -0.63210697057E+02 -0.16043592218E+03  0.37785150685E+03  0.73023603761E+03  0.60061437881E+03 0.  0.
        -24    2    4    4    0    0 -0.29535821378E+03 -0.11609484492E+03  0.70659946025E+02  0.33483627848E+03  0.80050096527E+02 0.  0.
         24    2    4    4    0    0  0.23214751672E+03 -0.44341077266E+02  0.30719156083E+03  0.39539975912E+03  0.78203029451E+02 0.  0.
         13    1    3    3    0    0  0.32752331427E+02  0.62853580165E+02  0.31195423262E+03  0.31990425287E+03  0.00000000000E+00 0. -1.
        -14    1    3    3    0    0  0.30458365630E+02  0.97582342017E+02  0.17753000463E+03  0.20485831215E+03  0.00000000000E+00 0.  1.
         15    1    5    5    0    0 -0.27379560233E+03 -0.83505554533E+02  0.73862828610E+02  0.29562828801E+03  0.17770000000E+01 0. -1.
        -16    1    5    5    0    0 -0.21562611452E+02 -0.32589290382E+02 -0.32028825859E+01  0.39207990476E+02  0.00000000000E+00 0.  1.
          2    1    6    6  502    0  0.13304680416E+03 -0.15459092663E+02  0.23128986928E+03  0.26727409016E+03  0.00000000000E+00 0. -1.
         -1    1    6    6    0  502  0.99100712568E+02 -0.28881984603E+02  0.75901691555E+02  0.12812566896E+03  0.00000000000E+00 0.  1.
<mgrwt>
<rscale>  0 0.36779765E+03</rscale>
<asrwt>0</asrwt>
<pdfrwt beam="1">  1        1 0.29820220E-01 0.36779765E+03</pdfrwt>
<pdfrwt beam="2">  1       -2 0.16325648E+00 0.36779765E+03</pdfrwt>
<totfact> 0.33824455E+01</totfact>
</mgrwt>
</event>
<event>
12    3  0.1201947E-007  0.8956192E+03  0.7818608E-02  0.9431074E-01
          1   -1    0    0  501    0  0.00000000000E+00  0.00000000000E+00  0.98387168142E+03  0.98387168142E+03  0.00000000000E+00 0. -1.
         -2   -1    0    0    0  501 -0.00000000000E+00 -0.00000000000E+00 -0.84076099261E+03  0.84076099261E+03  0.00000000000E+00 0.  1.
        -24    2    1    2    0    0 -0.63041226027E+03 -0.50472236449E+03  0.10255094631E+03  0.81776569683E+03  0.77844429496E+02 0.  0.
    5000000    2    1    2    0    0  0.63041226027E+03  0.50472236449E+03  0.40559742496E+02  0.10068669772E+04  0.59997644450E+03 0.  0.
        -24    2    4    4    0    0  0.65170438059E+03  0.58451223129E+03  0.81158160576E+02  0.88272416742E+03  0.79007344591E+02 0.  0.
         24    2    4    4    0    0 -0.21292120325E+02 -0.79789866801E+02 -0.40598418080E+02  0.12414280978E+03  0.83327237073E+02 0.  0.
         13    1    3    3    0    0 -0.42660907433E+03 -0.37599798041E+03  0.48438727723E+02  0.57071542288E+03  0.00000000000E+00 0. -1.
        -14    1    3    3    0    0 -0.20380318594E+03 -0.12872438409E+03  0.54112218582E+02  0.24705027395E+03  0.00000000000E+00 0.  1.
         15    1    5    5    0    0  0.94222766616E+02  0.52755798736E+02  0.20388063911E+02  0.10990875729E+03  0.17770000000E+01 0. -1.
        -16    1    5    5    0    0  0.55748161398E+03  0.53175643256E+03  0.60770096665E+02  0.77281541013E+03  0.00000000000E+00 0.  1.
          4    1    6    6  502    0  0.21489705792E+02 -0.35728529888E+02 -0.46489506857E+02  0.62446853810E+02  0.00000000000E+00 0. -1.
         -1    1    6    6    0  502 -0.42781826117E+02 -0.44061336913E+02  0.58910887767E+01  0.61695955973E+02  0.00000000000E+00 0.  1.
<mgrwt>
<rscale>  0 0.89561919E+03</rscale>
<asrwt>0</asrwt>
<pdfrwt beam="1">  1        1 0.15136487E+00 0.89561919E+03</pdfrwt>
<pdfrwt beam="2">  1       -2 0.12934784E+00 0.89561919E+03</pdfrwt>
<totfact> 0.60511200E+00</totfact>
</mgrwt>
</event>
<event>
12    3  0.1201947E-007  0.9511831E+03  0.7818608E-02  0.9363769E-01
          1   -1    0    0  501    0  0.00000000000E+00  0.00000000000E+00  0.94498333562E+03  0.94498333562E+03  0.00000000000E+00 0. -1.
         -2   -1    0    0    0  501 -0.00000000000E+00 -0.00000000000E+00 -0.20293506921E+04  0.20293506921E+04  0.00000000000E+00 0.  1.
        -24    2    1    2    0    0 -0.69560911452E+03 -0.55253182984E+03 -0.15635851803E+04  0.18000820036E+04  0.79581029035E+02 0.  0.
    5000000    2    1    2    0    0  0.69560911452E+03  0.55253182984E+03  0.47921782388E+03  0.11742520241E+04  0.60004552350E+03 0.  0.
        -24    2    4    4    0    0  0.59151975532E+03  0.16960993280E+03  0.11695063517E+03  0.63138827835E+03  0.79439012695E+02 0.  0.
         24    2    4    4    0    0  0.10408935920E+03  0.38292189704E+03  0.36226718872E+03  0.54286374579E+03  0.77458095366E+02 0.  0.
         13    1    3    3    0    0 -0.39401938194E+03 -0.33322952438E+03 -0.97935776796E+03  0.11069935984E+04  0.00000000000E+00 0. -1.
        -14    1    3    3    0    0 -0.30158973258E+03 -0.21930230546E+03 -0.58422741239E+03  0.69308840516E+03  0.00000000000E+00 0.  1.
         15    1    5    5    0    0  0.27851253656E+03  0.71765436584E+02  0.15178014429E+02  0.28801569534E+03  0.17770000000E+01 0. -1.
        -16    1    5    5    0    0  0.31300721876E+03  0.97844496217E+02  0.10177262074E+03  0.34337258301E+03  0.00000000000E+00 0.  1.
          2    1    6    6  502    0  0.70893574470E+02  0.30587741068E+03  0.24293543759E+03  0.39699435273E+03  0.00000000000E+00 0. -1.
         -1    1    6    6    0  502  0.33195784735E+02  0.77044486357E+02  0.11933175113E+03  0.14586939305E+03  0.00000000000E+00 0.  1.
<mgrwt>
<rscale>  0 0.95118314E+03</rscale>
<asrwt>0</asrwt>
<pdfrwt beam="1">  1        1 0.14538205E+00 0.95118314E+03</pdfrwt>
<pdfrwt beam="2">  1       -2 0.31220780E+00 0.95118314E+03</pdfrwt>
<totfact> 0.39937293E-01</totfact>
</mgrwt>
</event>
<event>
12    3  0.1201947E-007  0.1141704E+04  0.7818608E-02  0.9165472E-01
          1   -1    0    0  501    0  0.00000000000E+00  0.00000000000E+00  0.74424380748E+03  0.74424380748E+03  0.00000000000E+00 0. -1.
         -2   -1    0    0    0  501 -0.00000000000E+00 -0.00000000000E+00 -0.26806646911E+04  0.26806646911E+04  0.00000000000E+00 0.  1.
        -24    2    1    2    0    0 -0.99503678206E+03  0.43387250076E+03  0.42647599075E+02  0.10892809855E+04  0.79816684523E+02 0.  0.
    5000000    2    1    2    0    0  0.99503678206E+03 -0.43387250076E+03 -0.19790684827E+04  0.23356275131E+04  0.60008355754E+03 0.  0.
        -24    2    4    4    0    0  0.43292144301E+03 -0.45704023355E+03 -0.75606401376E+03  0.98703569974E+03  0.79372090543E+02 0.  0.
         24    2    4    4    0    0  0.56211533904E+03  0.23167732797E+02 -0.12230044690E+04  0.13485918133E+04  0.80309088452E+02 0.  0.
         11    1    3    3    0    0 -0.36013224339E+03  0.19400798170E+03  0.34650610103E+02  0.41053013833E+03  0.00000000000E+00 0. -1.
        -12    1    3    3    0    0 -0.63490453866E+03  0.23986451905E+03  0.79969889727E+01  0.67875084718E+03  0.00000000000E+00 0.  1.
         15    1    5    5    0    0  0.28669467498E+03 -0.26460860739E+03 -0.51016040482E+03  0.64224477277E+03  0.17770000000E+01 0. -1.
        -16    1    5    5    0    0  0.14622676804E+03 -0.19243162616E+03 -0.24590360893E+03  0.34479092697E+03  0.00000000000E+00 0.  1.
          2    1    6    6  502    0  0.37554200890E+03 -0.19624659897E+01 -0.89130977657E+03  0.96719634487E+03  0.00000000000E+00 0. -1.
         -1    1    6    6    0  502  0.18657333014E+03  0.25130198787E+02 -0.33169469239E+03  0.38139546847E+03  0.00000000000E+00 0.  1.
<mgrwt>
<rscale>  0 0.11417037E+04</rscale>
<asrwt>0</asrwt>
<pdfrwt beam="1">  1        1 0.11449905E+00 0.11417037E+04</pdfrwt>
<pdfrwt beam="2">  1       -2 0.41240995E+00 0.11417037E+04</pdfrwt>
<totfact> 0.13368113E-01</totfact>
</mgrwt>
</event>
<event>
12    3  0.1201947E-007  0.8943814E+03  0.7818608E-02  0.9432632E-01
         -2   -1    0    0    0  501 -0.00000000000E+00  0.00000000000E+00  0.33069529541E+03  0.33069529541E+03  0.00000000000E+00 0.  1.
          1   -1    0    0  501    0  0.00000000000E+00 -0.00000000000E+00 -0.27468274448E+04  0.27468274448E+04  0.00000000000E+00 0. -1.
        -24    2    1    2    0    0  0.44803552023E+02  0.80197569666E+03 -0.15710187879E+04  0.17662399752E+04  0.79569099947E+02 0.  0.
    5000000    2    1    2    0    0 -0.44803552023E+02 -0.80197569666E+03 -0.84511336144E+03  0.13112827650E+04  0.60006126335E+03 0.  0.
        -24    2    4    4    0    0 -0.23254470001E+03 -0.94662912000E+02 -0.17120292770E+03  0.31417366733E+03  0.79727952315E+02 0.  0.
         24    2    4    4    0    0  0.18774114799E+03 -0.70731278466E+03 -0.67391043374E+03  0.99710909766E+03  0.67328789820E+02 0.  0.
         13    1    3    3    0    0  0.31796054146E+02  0.71625265788E+03 -0.13449132642E+04  0.15240802299E+04  0.00000000000E+00 0. -1.
        -14    1    3    3    0    0  0.13007497877E+02  0.85723038778E+02 -0.22610552374E+03  0.24215974530E+03  0.00000000000E+00 0.  1.
         15    1    5    5    0    0 -0.70124137105E+02 -0.42455560779E+02 -0.99971301931E+02  0.12929535253E+03  0.17770000000E+01 0. -1.
        -16    1    5    5    0    0 -0.16242056291E+03 -0.52207351221E+02 -0.71231625769E+02  0.18487831481E+03  0.00000000000E+00 0.  1.
          4    1    6    6  502    0  0.12639319999E+03 -0.53047612540E+03 -0.53574484375E+03  0.76446235893E+03  0.00000000000E+00 0. -1.
         -3    1    6    6    0  502  0.61347947997E+02 -0.17683665926E+03 -0.13816559000E+03  0.23264673873E+03  0.00000000000E+00 0.  1.
<mgrwt>
<rscale>  0 0.89438144E+03</rscale>
<asrwt>0</asrwt>
<pdfrwt beam="1">  1        1 0.42258883E+00 0.89438144E+03</pdfrwt>
<pdfrwt beam="2">  1       -2 0.50876200E-01 0.89438144E+03</pdfrwt>
<totfact> 0.30222306E+00</totfact>
</mgrwt>
</event>
<event>
12    3  0.1201947E-007  0.8097709E+03  0.7818608E-02  0.9545981E-01
          1   -1    0    0  501    0  0.00000000000E+00  0.00000000000E+00  0.15607765945E+04  0.15607765945E+04  0.00000000000E+00 0. -1.
         -2   -1    0    0    0  501 -0.00000000000E+00 -0.00000000000E+00 -0.45103837366E+03  0.45103837366E+03  0.00000000000E+00 0.  1.
        -24    2    1    2    0    0  0.38199089090E+03  0.61386415815E+03  0.60074392885E+03  0.94332751036E+03  0.78913106473E+02 0.  0.
    5000000    2    1    2    0    0 -0.38199089090E+03 -0.61386415815E+03  0.50899429198E+03  0.10684874578E+04  0.59986999657E+03 0.  0.
        -24    2    4    4    0    0 -0.10741667159E+03 -0.60528320834E+03  0.21236699798E+03  0.65536479517E+03  0.80605020186E+02 0.  0.
         24    2    4    4    0    0 -0.27457421930E+03 -0.85809498109E+01  0.29662729400E+03  0.41312266261E+03  0.84958508793E+02 0.  0.
         13    1    3    3    0    0  0.32227835418E+03  0.52167719075E+03  0.54388280083E+03  0.81964561242E+03  0.00000000000E+00 0. -1.
        -14    1    3    3    0    0  0.59712536715E+02  0.92186967401E+02  0.56861128020E+02  0.12368189794E+03  0.00000000000E+00 0.  1.
         15    1    5    5    0    0 -0.77256221905E+02 -0.25359528348E+03  0.65700538922E+02  0.27312782753E+03  0.17770000000E+01 0. -1.
        -16    1    5    5    0    0 -0.30160449690E+02 -0.35168792486E+03  0.14666645906E+03  0.38223696764E+03  0.00000000000E+00 0.  1.
          2    1    6    6  502    0 -0.44557255494E+02 -0.18372456031E+02  0.97365141905E+02  0.10864100062E+03  0.00000000000E+00 0. -1.
         -1    1    6    6    0  502 -0.23001696381E+03  0.97915062199E+01  0.19926215209E+03  0.30448166199E+03  0.00000000000E+00 0.  1.
<mgrwt>
<rscale>  0 0.80977088E+03</rscale>
<asrwt>0</asrwt>
<pdfrwt beam="1">  1        1 0.24011947E+00 0.80977088E+03</pdfrwt>
<pdfrwt beam="2">  1       -2 0.69390520E-01 0.80977088E+03</pdfrwt>
<totfact> 0.10123745E+01</totfact>
</mgrwt>
</event>
<event>
12    3  0.1201947E-007  0.1119264E+04  0.7818608E-02  0.9186617E-01
          1   -1    0    0  501    0  0.00000000000E+00  0.00000000000E+00  0.10076126295E+04  0.10076126295E+04  0.00000000000E+00 0. -1.
         -2   -1    0    0    0  501 -0.00000000000E+00 -0.00000000000E+00 -0.13890732329E+04  0.13890732329E+04  0.00000000000E+00 0.  1.
        -24    2    1    2    0    0  0.91787285885E+03 -0.59654270957E+03 -0.33411941779E+03  0.11473973496E+04  0.80815241379E+02 0.  0.
    5000000    2    1    2    0    0 -0.91787285885E+03  0.59654270957E+03 -0.47341185614E+02  0.12492885127E+04  0.60010566636E+03 0.  0.
        -24    2    4    4    0    0 -0.81308582390E+02  0.16080637910E+03 -0.21033707572E+03  0.28878545633E+03  0.81765379181E+02 0.  0.
         24    2    4    4    0    0 -0.83656427646E+03  0.43573633046E+03  0.16299589011E+03  0.96050305639E+03  0.79325423449E+02 0.  0.
         13    1    3    3    0    0  0.40232169368E+03 -0.30566849944E+03 -0.13736045335E+03  0.52360659937E+03  0.00000000000E+00 0. -1.
        -14    1    3    3    0    0  0.51555116517E+03 -0.29087421013E+03 -0.19675896443E+03  0.62379075026E+03  0.00000000000E+00 0.  1.
         15    1    5    5    0    0 -0.71466808364E+02  0.54624672329E+02 -0.11264675470E+03  0.14416590651E+03  0.17770000000E+01 0. -1.
        -16    1    5    5    0    0 -0.98417740254E+01  0.10618170678E+03 -0.97690321017E+02  0.14461954982E+03  0.00000000000E+00 0.  1.
          4    1    6    6  502    0 -0.43146319787E+03  0.25432545477E+03  0.56316100653E+02  0.50399745164E+03  0.00000000000E+00 0. -1.
         -3    1    6    6    0  502 -0.40510107859E+03  0.18141087569E+03  0.10667978946E+03  0.45650560475E+03  0.00000000000E+00 0.  1.
<mgrwt>
<rscale>  0 0.11192641E+04</rscale>
<asrwt>0</asrwt>
<pdfrwt beam="1">  1        1 0.15501733E+00 0.11192641E+04</pdfrwt>
<pdfrwt beam="2">  1       -2 0.21370357E+00 0.11192641E+04</pdfrwt>
<totfact> 0.13957156E+00</totfact>
</mgrwt>
</event>
<event>
12    3  0.1201947E-007  0.8248755E+03  0.7818608E-02  0.9524693E-01
         -2   -1    0    0    0  501 -0.00000000000E+00  0.00000000000E+00  0.82245036026E+03  0.82245036026E+03  0.00000000000E+00 0.  1.
          1   -1    0    0  501    0  0.00000000000E+00 -0.00000000000E+00 -0.99111731478E+03  0.99111731478E+03  0.00000000000E+00 0. -1.
        -24    2    1    2    0    0 -0.25886453247E+03  0.75728410203E+03 -0.40985538281E+02  0.80518978536E+03  0.78490246174E+02 0.  0.
    5000000    2    1    2    0    0  0.25886453247E+03 -0.75728410203E+03 -0.12768141624E+03  0.10083778897E+04  0.60002780517E+03 0.  0.
        -24    2    4    4    0    0  0.94089353629E+02 -0.61697514162E+03 -0.32251389072E+03  0.70668373985E+03  0.76652244664E+02 0.  0.
         24    2    4    4    0    0  0.16477517884E+03 -0.14030896041E+03  0.19483247449E+03  0.30169414983E+03  0.78880941883E+02 0.  0.
         11    1    3    3    0    0 -0.10182159753E+03  0.20808791500E+03 -0.32385518880E+02  0.23391673717E+03  0.00000000000E+00 0. -1.
        -12    1    3    3    0    0 -0.15704293494E+03  0.54919618703E+03 -0.86000194006E+01  0.57127304820E+03  0.00000000000E+00 0.  1.
         15    1    5    5    0    0  0.81894817734E+02 -0.50029067358E+03 -0.29367324410E+03  0.58587084863E+03  0.17770000000E+01 0. -1.
        -16    1    5    5    0    0  0.12194535895E+02 -0.11668446804E+03 -0.28840646627E+02  0.12081289122E+03  0.00000000000E+00 0.  1.
          4    1    6    6  502    0  0.71449052701E+02 -0.28392148084E+02  0.10628574815E+03  0.13117828122E+03  0.00000000000E+00 0. -1.
         -3    1    6    6    0  502  0.93326126143E+02 -0.11191681232E+03  0.88546726338E+02  0.17051586861E+03  0.00000000000E+00 0.  1.
<mgrwt>
<rscale>  0 0.82487550E+03</rscale>
<asrwt>0</asrwt>
<pdfrwt beam="1">  1        1 0.15247959E+00 0.82487550E+03</pdfrwt>
<pdfrwt beam="2">  1       -2 0.12653083E+00 0.82487550E+03</pdfrwt>
<totfact> 0.63642277E+00</totfact>
</mgrwt>
</event>
<event>
12    3  0.1201947E-007  0.9640883E+03  0.7818608E-02  0.9348833E-01
         -2   -1    0    0    0  501 -0.00000000000E+00  0.00000000000E+00  0.84701333232E+03  0.84701333232E+03  0.00000000000E+00 0.  1.
          1   -1    0    0  501    0  0.00000000000E+00 -0.00000000000E+00 -0.17714036049E+04  0.17714036049E+04  0.00000000000E+00 0. -1.
        -24    2    1    2    0    0 -0.85219814669E+03  0.35555826568E+03 -0.11674406381E+04  0.14906052993E+04  0.79518256823E+02 0.  0.
    5000000    2    1    2    0    0  0.85219814669E+03 -0.35555826568E+03  0.24305036554E+03  0.11278116379E+04  0.60018517889E+03 0.  0.
        -24    2    4    4    0    0 -0.20151474765E+02 -0.57350552476E+01  0.16122635381E+03  0.18102862608E+03  0.79614405137E+02 0.  0.
         24    2    4    4    0    0  0.87234962145E+03 -0.34982321044E+03  0.81824011739E+02  0.94678301185E+03  0.79578653110E+02 0.  0.
         11    1    3    3    0    0 -0.71051604545E+03  0.29579547856E+03 -0.10179421642E+04  0.12761403785E+04  0.00000000000E+00 0. -1.
        -12    1    3    3    0    0 -0.14168210124E+03  0.59762787120E+02 -0.14949847388E+03  0.21446492074E+03  0.00000000000E+00 0.  1.
         15    1    5    5    0    0 -0.39543654725E+02  0.78642324098E+01  0.37615789226E+02  0.55169304042E+02  0.17770000000E+01 0. -1.
        -16    1    5    5    0    0  0.19392179960E+02 -0.13599287657E+02  0.12361056458E+03  0.12585932204E+03  0.00000000000E+00 0.  1.
          2    1    6    6  502    0  0.39760208580E+03 -0.13793419723E+03  0.23358761903E+01  0.42085474658E+03  0.00000000000E+00 0. -1.
         -1    1    6    6    0  502  0.47474753565E+03 -0.21188901320E+03  0.79488135549E+02  0.52592826527E+03  0.00000000000E+00 0.  1.
<mgrwt>
<rscale>  0 0.96408834E+03</rscale>
<asrwt>0</asrwt>
<pdfrwt beam="1">  1        1 0.27252363E+00 0.96408834E+03</pdfrwt>
<pdfrwt beam="2">  1       -2 0.13030974E+00 0.96408834E+03</pdfrwt>
<totfact> 0.16239663E+00</totfact>
</mgrwt>
</event>
<event>
12    3  0.1201947E-007  0.1283369E+04  0.7818608E-02  0.9042858E-01
          3   -1    0    0  501    0  0.00000000000E+00  0.00000000000E+00  0.19705727629E+04  0.19705727629E+04  0.00000000000E+00 0. -1.
         -4   -1    0    0    0  501 -0.00000000000E+00 -0.00000000000E+00 -0.21035188342E+04  0.21035188342E+04  0.00000000000E+00 0.  1.
        -24    2    1    2    0    0  0.12649822690E+04  0.96111497383E+02 -0.16002956461E+04  0.20436987703E+04  0.79630071102E+02 0.  0.
    5000000    2    1    2    0    0 -0.12649822690E+04 -0.96111497383E+02  0.14673495747E+04  0.20303928267E+04  0.59996891218E+03 0.  0.
        -24    2    4    4    0    0 -0.85624377563E+03 -0.17515698086E+03  0.13127864028E+04  0.15791286266E+04  0.80035671666E+02 0.  0.
         24    2    4    4    0    0 -0.40873849334E+03  0.79045483475E+02  0.15456317193E+03  0.45126420011E+03  0.80213837879E+02 0.  0.
         11    1    3    3    0    0  0.62621650425E+03  0.62076630791E+02 -0.85326458466E+03  0.10602174634E+04  0.00000000000E+00 0. -1.
        -12    1    3    3    0    0  0.63876576472E+03  0.34034866592E+02 -0.74703106142E+03  0.98348130691E+03  0.00000000000E+00 0.  1.
         15    1    5    5    0    0 -0.57714649539E+03 -0.11510870312E+03  0.94944674980E+03  0.11170498552E+04  0.17770000000E+01 0. -1.
        -16    1    5    5    0    0 -0.27909728025E+03 -0.60048277733E+02  0.36333965301E+03  0.46207877137E+03  0.00000000000E+00 0.  1.
          2    1    6    6  502    0 -0.14310591488E+03  0.66633858245E+02  0.64085074403E+02  0.17037097963E+03  0.00000000000E+00 0. -1.
         -1    1    6    6    0  502 -0.26563257846E+03  0.12411625230E+02  0.90478097528E+02  0.28089322048E+03  0.00000000000E+00 0.  1.
<mgrwt>
<rscale>  0 0.12833694E+04</rscale>
<asrwt>0</asrwt>
<pdfrwt beam="1">  1        3 0.30316504E+00 0.12833694E+04</pdfrwt>
<pdfrwt beam="2">  1       -4 0.32361828E+00 0.12833694E+04</pdfrwt>
<totfact> 0.17415111E-03</totfact>
</mgrwt>
</event>
<event>
12    3  0.1201947E-007  0.4656041E+03  0.7818608E-02  0.1023168E+00
         -2   -1    0    0    0  501 -0.00000000000E+00  0.00000000000E+00  0.23673304676E+03  0.23673304676E+03  0.00000000000E+00 0.  1.
          1   -1    0    0  501    0  0.00000000000E+00 -0.00000000000E+00 -0.13837695031E+04  0.13837695031E+04  0.00000000000E+00 0. -1.
        -24    2    1    2    0    0 -0.36029116098E+03  0.58697835396E+02 -0.15603659483E+03  0.40569853841E+03  0.83598615936E+02 0.  0.
    5000000    2    1    2    0    0  0.36029116098E+03 -0.58697835396E+02 -0.99099986148E+03  0.12148040114E+04  0.60034398816E+03 0.  0.
        -24    2    4    4    0    0  0.29704328094E+03 -0.22632141408E+03 -0.93647479869E+03  0.10113248961E+04  0.79604671238E+02 0.  0.
         24    2    4    4    0    0  0.63247880034E+02  0.16762357869E+03 -0.54525062784E+02  0.20347911529E+03  0.79578950918E+02 0.  0.
         11    1    3    3    0    0 -0.19068347714E+03  0.34031189570E+02 -0.12763910395E+03  0.23196993593E+03  0.00000000000E+00 0. -1.
        -12    1    3    3    0    0 -0.16960768384E+03  0.24666645826E+02 -0.28397490878E+02  0.17372860248E+03  0.00000000000E+00 0.  1.
         15    1    5    5    0    0  0.88967561000E+02 -0.36449892778E+02 -0.30676147440E+03  0.32148029721E+03  0.17770000000E+01 0. -1.
        -16    1    5    5    0    0  0.20807571994E+03 -0.18987152130E+03 -0.62971332430E+03  0.68984459890E+03  0.00000000000E+00 0.  1.
          2    1    6    6  502    0  0.39503208924E+02  0.32715882341E+02 -0.41316060724E+02  0.65862351510E+02  0.00000000000E+00 0. -1.
         -1    1    6    6    0  502  0.23744671111E+02  0.13490769634E+03 -0.13209002060E+02  0.13761676378E+03  0.00000000000E+00 0.  1.
<mgrwt>
<rscale>  0 0.46560405E+03</rscale>
<asrwt>0</asrwt>
<pdfrwt beam="1">  1        1 0.21288761E+00 0.46560405E+03</pdfrwt>
<pdfrwt beam="2">  1       -2 0.36420469E-01 0.46560405E+03</pdfrwt>
<totfact> 0.52151004E+01</totfact>
</mgrwt>
</event>
<event>
12    3  0.1201947E-007  0.1642042E+04  0.7818608E-02  0.8795128E-01
         -2   -1    0    0    0  501 -0.00000000000E+00  0.00000000000E+00  0.19693519123E+04  0.19693519123E+04  0.00000000000E+00 0.  1.
          1   -1    0    0  501    0  0.00000000000E+00 -0.00000000000E+00 -0.17114755989E+04  0.17114755989E+04  0.00000000000E+00 0. -1.
        -24    2    1    2    0    0  0.14023175257E+04 -0.83651468527E+03 -0.59968657861E+03  0.17412908496E+04  0.78857901352E+02 0.  0.
    5000000    2    1    2    0    0 -0.14023175257E+04  0.83651468527E+03  0.85756289202E+03  0.19395366616E+04  0.60011422764E+03 0.  0.
        -24    2    4    4    0    0 -0.47298309204E+03  0.18995095508E+03  0.56859101295E+03  0.76763894179E+03  0.78609377619E+02 0.  0.
         24    2    4    4    0    0 -0.92933443367E+03  0.64656373019E+03  0.28897187907E+03  0.11718977198E+04  0.90179664752E+02 0.  0.
         13    1    3    3    0    0  0.90248668000E+03 -0.49401241237E+03 -0.37787673373E+03  0.10960480359E+04  0.00000000000E+00 0. -1.
        -14    1    3    3    0    0  0.49983084571E+03 -0.34250227290E+03 -0.22180984488E+03  0.64524281364E+03  0.00000000000E+00 0.  1.
         15    1    5    5    0    0 -0.14376225697E+03  0.93443627701E+02  0.16543796449E+03  0.23826912496E+03  0.17770000000E+01 0. -1.
        -16    1    5    5    0    0 -0.32922083508E+03  0.96507327378E+02  0.40315304846E+03  0.52936981683E+03  0.00000000000E+00 0.  1.
          4    1    6    6  502    0 -0.73515780099E+03  0.54854594453E+03  0.21464951088E+03  0.94203718512E+03  0.00000000000E+00 0. -1.
         -3    1    6    6    0  502 -0.19417663268E+03  0.98017785664E+02  0.74322368191E+02  0.22986053467E+03  0.00000000000E+00 0.  1.
<mgrwt>
<rscale>  0 0.16420423E+04</rscale>
<asrwt>0</asrwt>
<pdfrwt beam="1">  1        1 0.26330394E+00 0.16420423E+04</pdfrwt>
<pdfrwt beam="2">  1       -2 0.30297722E+00 0.16420423E+04</pdfrwt>
<totfact> 0.11588913E-01</totfact>
</mgrwt>
</event>
<event>
12    3  0.1545979E-007  0.6955075E+03  0.7818608E-02  0.9724946E-01
          1   -1    0    0  501    0  0.00000000000E+00  0.00000000000E+00  0.19487011061E+04  0.19487011061E+04  0.00000000000E+00 0. -1.
         -2   -1    0    0    0  501 -0.00000000000E+00 -0.00000000000E+00 -0.26638039676E+03  0.26638039676E+03  0.00000000000E+00 0.  1.
        -24    2    1    2    0    0  0.25833350755E+03 -0.50523361542E+03  0.43744217875E+03  0.72107105018E+03  0.81182463519E+02 0.  0.
    5000000    2    1    2    0    0 -0.25833350755E+03  0.50523361542E+03  0.12448785306E+04  0.14940104527E+04  0.60028948813E+03 0.  0.
        -24    2    4    4    0    0 -0.41230930793E+03  0.49842788253E+03  0.95109483027E+03  0.11529632966E+04  0.79458591153E+02 0.  0.
         24    2    4    4    0    0  0.15397580038E+03  0.68057328827E+01  0.29378370035E+03  0.34104715609E+03  0.79053367940E+02 0.  0.
         13    1    3    3    0    0  0.92231971825E+02 -0.17662999057E+03  0.20365462173E+03  0.28492120867E+03  0.00000000000E+00 0. -1.
        -14    1    3    3    0    0  0.16610153573E+03 -0.32860362484E+03  0.23378755702E+03  0.43614984151E+03  0.00000000000E+00 0.  1.
         15    1    5    5    0    0 -0.11530468052E+03  0.19867810659E+03  0.33003376133E+03  0.40211142825E+03  0.17770000000E+01 0. -1.
        -16    1    5    5    0    0 -0.29700462741E+03  0.29974977594E+03  0.62106106894E+03  0.75085186837E+03  0.00000000000E+00 0.  1.
          2    1    6    6  502    0  0.81208315206E+02  0.41555458355E+02  0.17704799596E+03  0.19916736543E+03  0.00000000000E+00 0. -1.
         -1    1    6    6    0  502  0.72767485176E+02 -0.34749725472E+02  0.11673570439E+03  0.14187979066E+03  0.00000000000E+00 0.  1.
<mgrwt>
<rscale>  0 0.69550748E+03</rscale>
<asrwt>0</asrwt>
<pdfrwt beam="1">  1        1 0.29980016E+00 0.69550748E+03</pdfrwt>
<pdfrwt beam="2">  1       -2 0.40981601E-01 0.69550748E+03</pdfrwt>
<totfact> 0.16725244E+01</totfact>
</mgrwt>
</event>
<event>
12    3  0.1201947E-007  0.1606170E+04  0.7818608E-02  0.8816767E-01
         -2   -1    0    0    0  501 -0.00000000000E+00  0.00000000000E+00  0.14224593459E+04  0.14224593459E+04  0.00000000000E+00 0.  1.
          1   -1    0    0  501    0  0.00000000000E+00 -0.00000000000E+00 -0.20434396463E+04  0.20434396463E+04  0.00000000000E+00 0. -1.
        -24    2    1    2    0    0  0.14796059274E+04  0.48367950256E+03 -0.86067437882E+03  0.17805366604E+04  0.79817610008E+02 0.  0.
    5000000    2    1    2    0    0 -0.14796059274E+04 -0.48367950256E+03  0.23969407837E+03  0.16853623318E+04  0.59984446036E+03 0.  0.
        -24    2    4    4    0    0 -0.82864167565E+03  0.15171221223E+02  0.21000381164E+03  0.86088301028E+03  0.10070135999E+03 0.  0.
         24    2    4    4    0    0 -0.65096425178E+03 -0.49885072378E+03  0.29690266731E+02  0.82447932154E+03  0.79234701968E+02 0.  0.
         11    1    3    3    0    0  0.55352060444E+03  0.21482492573E+03 -0.30342255477E+03  0.66678336437E+03  0.00000000000E+00 0. -1.
        -12    1    3    3    0    0  0.92608532299E+03  0.26885457683E+03 -0.55725182405E+03  0.11137532960E+04  0.00000000000E+00 0.  1.
         15    1    5    5    0    0 -0.73534731391E+03  0.37107869297E+02  0.20768768166E+03  0.76501633766E+03  0.17770000000E+01 0. -1.
        -16    1    5    5    0    0 -0.93294361738E+02 -0.21936648073E+02  0.23161299755E+01  0.95866672618E+02  0.00000000000E+00 0.  1.
          2    1    6    6  502    0 -0.39911895805E+03 -0.34072607279E+03  0.45090315295E+02  0.52670991626E+03  0.00000000000E+00 0. -1.
         -1    1    6    6    0  502 -0.25184529373E+03 -0.15812465099E+03 -0.15400048564E+02  0.29776940528E+03  0.00000000000E+00 0.  1.
<mgrwt>
<rscale>  0 0.16061697E+04</rscale>
<asrwt>0</asrwt>
<pdfrwt beam="1">  1        1 0.31437533E+00 0.16061697E+04</pdfrwt>
<pdfrwt beam="2">  1       -2 0.21883990E+00 0.16061697E+04</pdfrwt>
<totfact> 0.22830435E-01</totfact>
</mgrwt>
</event>
<event>
12    3  0.1201947E-007  0.5939435E+03  0.7818608E-02  0.9918052E-01
         -2   -1    0    0    0  501 -0.00000000000E+00  0.00000000000E+00  0.64714600964E+03  0.64714600964E+03  0.00000000000E+00 0.  1.
          1   -1    0    0  501    0  0.00000000000E+00 -0.00000000000E+00 -0.70290839798E+03  0.70290839798E+03  0.00000000000E+00 0. -1.
        -24    2    1    2    0    0 -0.49131256353E+03 -0.14923670271E+03  0.13627734736E+03  0.53733072071E+03  0.80580143305E+02 0.  0.
    5000000    2    1    2    0    0  0.49131256353E+03  0.14923670271E+03 -0.19203973571E+03  0.81272368691E+03  0.59998408534E+03 0.  0.
        -24    2    4    4    0    0  0.15359635412E+03  0.26759510747E+03 -0.29296168510E+03  0.43255061215E+03  0.77939088955E+02 0.  0.
         24    2    4    4    0    0  0.33771620941E+03 -0.11835840476E+03  0.10092194939E+03  0.38017307477E+03  0.79280368530E+02 0.  0.
         11    1    3    3    0    0 -0.11572094938E+03 -0.55529289581E+02  0.45777449882E+01  0.12843596022E+03  0.00000000000E+00 0. -1.
        -12    1    3    3    0    0 -0.37559161414E+03 -0.93707413134E+02  0.13169960238E+03  0.40889476049E+03  0.00000000000E+00 0.  1.
         15    1    5    5    0    0  0.12673175467E+02  0.62719896577E+02 -0.30189939138E+02  0.70774182844E+02  0.17770000000E+01 0. -1.
        -16    1    5    5    0    0  0.14092317865E+03  0.20487521090E+03 -0.26277174596E+03  0.36177642930E+03  0.00000000000E+00 0.  1.
          2    1    6    6  502    0  0.26961809093E+03 -0.78349056421E+02  0.10810811691E+03  0.30086517669E+03  0.00000000000E+00 0. -1.
         -1    1    6    6    0  502  0.68098118473E+02 -0.40009348338E+02 -0.71861675193E+01  0.79307898079E+02  0.00000000000E+00 0.  1.
<mgrwt>
<rscale>  0 0.59394350E+03</rscale>
<asrwt>0</asrwt>
<pdfrwt beam="1">  1        1 0.10813975E+00 0.59394350E+03</pdfrwt>
<pdfrwt beam="2">  1       -2 0.99560925E-01 0.59394350E+03</pdfrwt>
<totfact> 0.20520331E+01</totfact>
</mgrwt>
</event>
<event>
12    3  0.1201947E-007  0.5003149E+03  0.7818608E-02  0.1013697E+00
         -2   -1    0    0    0  501 -0.00000000000E+00  0.00000000000E+00  0.17186033725E+03  0.17186033725E+03  0.00000000000E+00 0.  1.
          1   -1    0    0  501    0  0.00000000000E+00 -0.00000000000E+00 -0.15124423724E+04  0.15124423724E+04  0.00000000000E+00 0. -1.
        -24    2    1    2    0    0  0.75808467296E+02  0.31691718257E+03 -0.48391099581E+03  0.58880030127E+03  0.79577123471E+02 0.  0.
    5000000    2    1    2    0    0 -0.75808467296E+02 -0.31691718257E+03 -0.85667103936E+03  0.10955024084E+04  0.60004735883E+03 0.  0.
        -24    2    4    4    0    0 -0.11751040788E+03 -0.47229044196E+03 -0.53856106689E+03  0.73031913250E+03  0.80318459878E+02 0.  0.
         24    2    4    4    0    0  0.41701940585E+02  0.15537325939E+03 -0.31810997247E+03  0.36518327591E+03  0.79277795370E+02 0.  0.
         11    1    3    3    0    0  0.51241544286E+00  0.11738729725E+03 -0.22124739180E+03  0.25046047293E+03  0.00000000000E+00 0. -1.
        -12    1    3    3    0    0  0.75296051853E+02  0.19952988533E+03 -0.26266360401E+03  0.33833982833E+03  0.00000000000E+00 0.  1.
         15    1    5    5    0    0 -0.35634438212E+01 -0.13018230309E+03 -0.17626249009E+03  0.21916147771E+03  0.17770000000E+01 0. -1.
        -16    1    5    5    0    0 -0.11394696406E+03 -0.34210813887E+03 -0.36229857680E+03  0.51115765479E+03  0.00000000000E+00 0.  1.
          2    1    6    6  502    0  0.20249609117E+01  0.13412444604E+03 -0.24544582652E+03  0.27970899386E+03  0.00000000000E+00 0. -1.
         -1    1    6    6    0  502  0.39676979673E+02  0.21248813345E+02 -0.72664145953E+02  0.85474282047E+02  0.00000000000E+00 0.  1.
<mgrwt>
<rscale>  0 0.50031487E+03</rscale>
<asrwt>0</asrwt>
<pdfrwt beam="1">  1        1 0.23268345E+00 0.50031487E+03</pdfrwt>
<pdfrwt beam="2">  1       -2 0.26440051E-01 0.50031487E+03</pdfrwt>
<totfact> 0.76767065E+01</totfact>
</mgrwt>
</event>
<event>
12    3  0.1201947E-007  0.6478518E+03  0.7818608E-02  0.9810818E-01
          1   -1    0    0  501    0  0.00000000000E+00  0.00000000000E+00  0.90069538983E+03  0.90069538983E+03  0.00000000000E+00 0. -1.
         -4   -1    0    0    0  501 -0.00000000000E+00 -0.00000000000E+00 -0.56416898548E+03  0.56416898548E+03  0.00000000000E+00 0.  1.
        -24    2    1    2    0    0 -0.40500916494E+03 -0.39070394194E+03  0.29680252556E+03  0.64132644710E+03  0.80782910516E+02 0.  0.
    5000000    2    1    2    0    0  0.40500916494E+03  0.39070394194E+03  0.39723878778E+02  0.82353792822E+03  0.59996228109E+03 0.  0.
        -24    2    4    4    0    0  0.21780532367E+03  0.46756353183E+03 -0.14151781181E+03  0.54036009753E+03  0.76856545751E+02 0.  0.
         24    2    4    4    0    0  0.18720384127E+03 -0.76859589892E+02  0.18124169059E+03  0.28317783069E+03  0.79927833952E+02 0.  0.
         11    1    3    3    0    0 -0.28938870645E+03 -0.32443894124E+03  0.23844715723E+03  0.49584624311E+03  0.00000000000E+00 0. -1.
        -12    1    3    3    0    0 -0.11562045849E+03 -0.66265000701E+02  0.58355368332E+02  0.14548020399E+03  0.00000000000E+00 0.  1.
         15    1    5    5    0    0  0.49781725192E+02  0.17302533900E+03 -0.73689526413E+02  0.19454894533E+03  0.17770000000E+01 0. -1.
        -16    1    5    5    0    0  0.16802359848E+03  0.29453819283E+03 -0.67828285399E+02  0.34581115220E+03  0.00000000000E+00 0.  1.
          2    1    6    6  502    0  0.10303970989E+03 -0.69011509975E+02  0.14609245165E+03  0.19163187301E+03  0.00000000000E+00 0. -1.
         -1    1    6    6    0  502  0.84164131378E+02 -0.78480799169E+01  0.35149238937E+02  0.91545957676E+02  0.00000000000E+00 0.  1.
<mgrwt>
<rscale>  0 0.64785184E+03</rscale>
<asrwt>0</asrwt>
<pdfrwt beam="1">  1        1 0.13856852E+00 0.64785184E+03</pdfrwt>
<pdfrwt beam="2">  1       -4 0.86795228E-01 0.64785184E+03</pdfrwt>
<totfact> 0.10228258E+01</totfact>
</mgrwt>
</event>
<event>
12    3  0.1201947E-007  0.6933871E+03  0.7818608E-02  0.9728608E-01
          1   -1    0    0  501    0  0.00000000000E+00  0.00000000000E+00  0.84761680441E+03  0.84761680441E+03  0.00000000000E+00 0. -1.
         -2   -1    0    0    0  501 -0.00000000000E+00 -0.00000000000E+00 -0.61482676961E+03  0.61482676961E+03  0.00000000000E+00 0.  1.
        -24    2    1    2    0    0 -0.18161055090E+03 -0.56137615816E+03  0.16287137626E+03  0.61809978436E+03  0.85992296622E+02 0.  0.
    5000000    2    1    2    0    0  0.18161055090E+03  0.56137615816E+03  0.69918658540E+02  0.84434378966E+03  0.59991852211E+03 0.  0.
        -24    2    4    4    0    0  0.24820232617E+03  0.45458207712E+02  0.15567283047E+03  0.31077199080E+03  0.93136226853E+02 0.  0.
         24    2    4    4    0    0 -0.66591775269E+02  0.51591795044E+03 -0.85754171930E+02  0.53357179886E+03  0.82093181256E+02 0.  0.
         13    1    3    3    0    0  0.33347271644E+01 -0.78508326657E+02  0.31011325097E+02  0.84477097749E+02  0.00000000000E+00 0. -1.
        -14    1    3    3    0    0 -0.18494527807E+03 -0.48286783150E+03  0.13186005116E+03  0.53362268661E+03  0.00000000000E+00 0.  1.
         15    1    5    5    0    0  0.95161716425E+02  0.63029541798E+02  0.77933189628E+02  0.13822161621E+03  0.17770000000E+01 0. -1.
        -16    1    5    5    0    0  0.15304060975E+03 -0.17571334086E+02  0.77739640842E+02  0.17255037459E+03  0.00000000000E+00 0.  1.
          2    1    6    6  502    0 -0.98051454125E+01  0.28328664456E+03 -0.14901698589E+02  0.28384771354E+03  0.00000000000E+00 0. -1.
         -1    1    6    6    0  502 -0.56786629857E+02  0.23263130589E+03 -0.70852473341E+02  0.24972408532E+03  0.00000000000E+00 0.  1.
<mgrwt>
<rscale>  0 0.69338708E+03</rscale>
<asrwt>0</asrwt>
<pdfrwt beam="1">  1        1 0.13040258E+00 0.69338708E+03</pdfrwt>
<pdfrwt beam="2">  1       -2 0.94588734E-01 0.69338708E+03</pdfrwt>
<totfact> 0.17064176E+01</totfact>
</mgrwt>
</event>
<event>
12    3  0.1201947E-007  0.1205425E+04  0.7818608E-02  0.9108121E-01
          3   -1    0    0  501    0  0.00000000000E+00  0.00000000000E+00  0.11231460770E+04  0.11231460770E+04  0.00000000000E+00 0. -1.
         -4   -1    0    0    0  501 -0.00000000000E+00 -0.00000000000E+00 -0.14123352028E+04  0.14123352028E+04  0.00000000000E+00 0.  1.
        -24    2    1    2    0    0 -0.70257230040E+03 -0.92019786081E+03  0.12497051730E+03  0.11672855450E+04  0.81030691552E+02 0.  0.
    5000000    2    1    2    0    0  0.70257230040E+03  0.92019786081E+03 -0.41415964308E+03  0.13681957349E+04  0.60004951345E+03 0.  0.
        -24    2    4    4    0    0  0.32110688068E+03  0.85619243699E+02 -0.27055447764E+03  0.43596598394E+03  0.80164394016E+02 0.  0.
         24    2    4    4    0    0  0.38146541971E+03  0.83457861711E+03 -0.14360516544E+03  0.93222975091E+03  0.79953301238E+02 0.  0.
         11    1    3    3    0    0 -0.52107723709E+03 -0.70540916072E+03  0.62453721980E+02  0.87921785607E+03  0.00000000000E+00 0. -1.
        -12    1    3    3    0    0 -0.18149506330E+03 -0.21478870009E+03  0.62516795316E+02  0.28806768890E+03  0.00000000000E+00 0.  1.
         15    1    5    5    0    0  0.12518218875E+03  0.18162999618E+02 -0.58152150096E+02  0.13923112162E+03  0.17770000000E+01 0. -1.
        -16    1    5    5    0    0  0.19592469193E+03  0.67456244081E+02 -0.21240232754E+03  0.29673486232E+03  0.00000000000E+00 0.  1.
          2    1    6    6  502    0  0.28609267943E+03  0.67336176325E+03 -0.88338927738E+02  0.73693205357E+03  0.00000000000E+00 0. -1.
         -1    1    6    6    0  502  0.95372740279E+02  0.16121685386E+03 -0.55266237707E+02  0.19529769734E+03  0.00000000000E+00 0.  1.
<mgrwt>
<rscale>  0 0.12054247E+04</rscale>
<asrwt>0</asrwt>
<pdfrwt beam="1">  1        3 0.17279170E+00 0.12054247E+04</pdfrwt>
<pdfrwt beam="2">  1       -4 0.21728234E+00 0.12054247E+04</pdfrwt>
<totfact> 0.48905808E-02</totfact>
</mgrwt>
</event>
<event>
12    3  0.1201947E-007  0.4537677E+03  0.7818608E-02  0.1026604E+00
          1   -1    0    0  501    0  0.00000000000E+00  0.00000000000E+00  0.16494607847E+04  0.16494607847E+04  0.00000000000E+00 0. -1.
         -2   -1    0    0    0  501 -0.00000000000E+00 -0.00000000000E+00 -0.26496638828E+03  0.26496638828E+03  0.00000000000E+00 0.  1.
        -24    2    1    2    0    0  0.17988869347E+03 -0.24691445659E+03 -0.59304971731E+02  0.32136312735E+03  0.80190330058E+02 0.  0.
    5000000    2    1    2    0    0 -0.17988869347E+03  0.24691445659E+03  0.14437993681E+04  0.15930640456E+04  0.59997478870E+03 0.  0.
        -24    2    4    4    0    0 -0.28377951902E+03 -0.44939938638E+02  0.10165414757E+04  0.10592630690E+04  0.78302389029E+02 0.  0.
         24    2    4    4    0    0  0.10389082555E+03  0.29185439523E+03  0.42725789241E+03  0.53380097654E+03  0.80136660024E+02 0.  0.
         11    1    3    3    0    0  0.79573060342E+02 -0.73267642047E+02 -0.53655361865E+02  0.12074318681E+03  0.00000000000E+00 0. -1.
        -12    1    3    3    0    0  0.10031563313E+03 -0.17364681455E+03 -0.56496098664E+01  0.20061994054E+03  0.00000000000E+00 0.  1.
         15    1    5    5    0    0 -0.73331439205E+02 -0.12165310203E+02  0.40307973531E+03  0.40988037950E+03  0.17770000000E+01 0. -1.
        -16    1    5    5    0    0 -0.21044807981E+03 -0.32774628435E+02  0.61346174038E+03  0.64938268954E+03  0.00000000000E+00 0.  1.
          4    1    6    6  502    0  0.36417076662E+02  0.15068079912E+03  0.27380271757E+03  0.31464080289E+03  0.00000000000E+00 0. -1.
         -3    1    6    6    0  502  0.67473748886E+02  0.14117359612E+03  0.15345517484E+03  0.21916017365E+03  0.00000000000E+00 0.  1.
<mgrwt>
<rscale>  0 0.45376766E+03</rscale>
<asrwt>0</asrwt>
<pdfrwt beam="1">  1        1 0.25376319E+00 0.45376766E+03</pdfrwt>
<pdfrwt beam="2">  1       -2 0.40764061E-01 0.45376766E+03</pdfrwt>
<totfact> 0.27856051E+01</totfact>
</mgrwt>
</event>
<event>
12    3  0.1367651E-007  0.6780602E+03  0.7818608E-02  0.9755506E-01
         -2   -1    0    0    0  501 -0.00000000000E+00  0.00000000000E+00  0.23214494135E+03  0.23214494135E+03  0.00000000000E+00 0.  1.
          1   -1    0    0  501    0  0.00000000000E+00 -0.00000000000E+00 -0.22886126849E+04  0.22886126849E+04  0.00000000000E+00 0. -1.
        -24    2    1    2    0    0 -0.57590291445E+03 -0.15874374657E+03 -0.73142823748E+03  0.94828022578E+03  0.85932392413E+02 0.  0.
    5000000    2    1    2    0    0  0.57590291445E+03  0.15874374657E+03 -0.13250395061E+04  0.15724774005E+04  0.60007644382E+03 0.  0.
        -24    2    4    4    0    0 -0.50830499582E+02  0.10585019291E+03 -0.56617949433E+03  0.58369373091E+03  0.79694094377E+02 0.  0.
         24    2    4    4    0    0  0.62673341403E+03  0.52893553663E+02 -0.75886001179E+03  0.98878366961E+03  0.78943825060E+02 0.  0.
         13    1    3    3    0    0 -0.24779457234E+03 -0.24487317764E+02 -0.30502486290E+03  0.39375366131E+03  0.00000000000E+00 0. -1.
        -14    1    3    3    0    0 -0.32810834211E+03 -0.13425642880E+03 -0.42640337458E+03  0.55452656446E+03  0.00000000000E+00 0.  1.
         15    1    5    5    0    0 -0.34649647839E+02  0.49442685626E+02 -0.44469744386E+03  0.44878073885E+03  0.17770000000E+01 0. -1.
        -16    1    5    5    0    0 -0.16180851743E+02  0.56407507279E+02 -0.12148205047E+03  0.13491299206E+03  0.00000000000E+00 0.  1.
          4    1    6    6  502    0  0.44509565862E+03  0.28068753010E+01 -0.51743899240E+03  0.68254020741E+03  0.00000000000E+00 0. -1.
         -3    1    6    6    0  502  0.18163775541E+03  0.50086678362E+02 -0.24142101938E+03  0.30624346220E+03  0.00000000000E+00 0.  1.
<mgrwt>
<rscale>  0 0.67806024E+03</rscale>
<asrwt>0</asrwt>
<pdfrwt beam="1">  1        1 0.35209425E+00 0.67806024E+03</pdfrwt>
<pdfrwt beam="2">  1       -2 0.35714607E-01 0.67806024E+03</pdfrwt>
<totfact> 0.12962573E+01</totfact>
</mgrwt>
</event>
<event>
12    3  0.1201947E-007  0.6343772E+03  0.7818608E-02  0.9836544E-01
          1   -1    0    0  501    0  0.00000000000E+00  0.00000000000E+00  0.10429857340E+04  0.10429857340E+04  0.00000000000E+00 0. -1.
         -2   -1    0    0    0  501 -0.00000000000E+00 -0.00000000000E+00 -0.51000715814E+03  0.51000715814E+03  0.00000000000E+00 0.  1.
        -24    2    1    2    0    0 -0.27952281972E+03 -0.41765164462E+03 -0.13237641299E+03  0.52577275027E+03  0.79671621168E+02 0.  0.
    5000000    2    1    2    0    0  0.27952281972E+03  0.41765164462E+03  0.66535498880E+03  0.10272201418E+04  0.59993170916E+03 0.  0.
        -24    2    4    4    0    0 -0.12859750720E+03  0.30422139912E+03  0.20437797186E+03  0.39634149553E+03  0.78919244525E+02 0.  0.
         24    2    4    4    0    0  0.40812032692E+03  0.11343024550E+03  0.46097701694E+03  0.63087864630E+03  0.77970727636E+02 0.  0.
         13    1    3    3    0    0 -0.14887275679E+03 -0.28179440786E+03 -0.10350835273E+03  0.33508978663E+03  0.00000000000E+00 0. -1.
        -14    1    3    3    0    0 -0.13065006293E+03 -0.13585723676E+03 -0.28868060259E+02  0.19068296365E+03  0.00000000000E+00 0.  1.
         15    1    5    5    0    0 -0.11143757365E+03  0.17541699891E+03  0.14539964434E+03  0.25364082998E+03  0.17770000000E+01 0. -1.
        -16    1    5    5    0    0 -0.17159933550E+02  0.12880440020E+03  0.58978327522E+02  0.14270066555E+03  0.00000000000E+00 0.  1.
          4    1    6    6  502    0  0.18028769310E+03  0.43305351050E+02  0.25845075085E+03  0.31808143034E+03  0.00000000000E+00 0. -1.
         -3    1    6    6    0  502  0.22783263381E+03  0.70124894448E+02  0.20252626610E+03  0.31279721596E+03  0.00000000000E+00 0.  1.
<mgrwt>
<rscale>  0 0.63437718E+03</rscale>
<asrwt>0</asrwt>
<pdfrwt beam="1">  1        1 0.16045934E+00 0.63437718E+03</pdfrwt>
<pdfrwt beam="2">  1       -2 0.78462640E-01 0.63437718E+03</pdfrwt>
<totfact> 0.18416997E+01</totfact>
</mgrwt>
</event>
<event>
12    3  0.1201947E-007  0.7356468E+03  0.7818608E-02  0.9658141E-01
          1   -1    0    0  501    0  0.00000000000E+00  0.00000000000E+00  0.66795472139E+03  0.66795472139E+03  0.00000000000E+00 0. -1.
         -2   -1    0    0    0  501 -0.00000000000E+00 -0.00000000000E+00 -0.84992838396E+03  0.84992838396E+03  0.00000000000E+00 0.  1.
        -24    2    1    2    0    0  0.34444427743E+03  0.52063919512E+03 -0.16996928963E+03  0.65189603066E+03  0.79823828700E+02 0.  0.
    5000000    2    1    2    0    0 -0.34444427743E+03 -0.52063919512E+03 -0.12004372935E+02  0.86598707468E+03  0.60006872673E+03 0.  0.
        -24    2    4    4    0    0  0.12775258468E+03 -0.26569562152E+03  0.83456968895E+02  0.31503070196E+03  0.73242005221E+02 0.  0.
         24    2    4    4    0    0 -0.47219686211E+03 -0.25494357360E+03 -0.95461341829E+02  0.55095637272E+03  0.80460888367E+02 0.  0.
         11    1    3    3    0    0  0.15483874834E+03  0.30582941498E+03 -0.96050025011E+02  0.35599477013E+03  0.00000000000E+00 0. -1.
        -12    1    3    3    0    0  0.18960552908E+03  0.21480978014E+03 -0.73919264622E+02  0.29590126053E+03  0.00000000000E+00 0.  1.
         15    1    5    5    0    0  0.46959316163E+02 -0.36844122868E+02  0.28617256887E+02  0.66217610083E+02  0.17770000000E+01 0. -1.
        -16    1    5    5    0    0  0.80793268520E+02 -0.22885149865E+03  0.54839712008E+02  0.24881309187E+03  0.00000000000E+00 0.  1.
          4    1    6    6  502    0 -0.21155877199E+03 -0.82624468096E+02 -0.69074061526E+02  0.23739238133E+03  0.00000000000E+00 0. -1.
         -3    1    6    6    0  502 -0.26063809011E+03 -0.17231910550E+03 -0.26387280304E+02  0.31356399140E+03  0.00000000000E+00 0.  1.
<mgrwt>
<rscale>  0 0.73564683E+03</rscale>
<asrwt>0</asrwt>
<pdfrwt beam="1">  1        1 0.10276227E+00 0.73564683E+03</pdfrwt>
<pdfrwt beam="2">  1       -2 0.13075821E+00 0.73564683E+03</pdfrwt>
<totfact> 0.11199909E+01</totfact>
</mgrwt>
</event>
<event>
12    3  0.1201947E-007  0.7046803E+03  0.7818608E-02  0.9709262E-01
         -2   -1    0    0    0  501 -0.00000000000E+00  0.00000000000E+00  0.54004384624E+03  0.54004384624E+03  0.00000000000E+00 0.  1.
          1   -1    0    0  501    0  0.00000000000E+00 -0.00000000000E+00 -0.10446964252E+04  0.10446964252E+04  0.00000000000E+00 0. -1.
        -24    2    1    2    0    0  0.51088864941E+02  0.58022118174E+03  0.36231674484E+02  0.58888035505E+03  0.78744183673E+02 0.  0.
    5000000    2    1    2    0    0 -0.51088864941E+02 -0.58022118174E+03 -0.54088425348E+03  0.99585991642E+03  0.59992875044E+03 0.  0.
        -24    2    4    4    0    0 -0.30785225306E+03 -0.23929941818E+03 -0.31251670106E+03  0.50583507541E+03  0.78518875537E+02 0.  0.
         24    2    4    4    0    0  0.25676338812E+03 -0.34092176356E+03 -0.22836755242E+03  0.49002484101E+03  0.76272665239E+02 0.  0.
         13    1    3    3    0    0  0.79936488026E+01  0.37242864282E+03  0.51785767200E+02  0.37609674035E+03  0.00000000000E+00 0. -1.
        -14    1    3    3    0    0  0.43095216138E+02  0.20779253892E+03 -0.15554092715E+02  0.21278361470E+03  0.00000000000E+00 0.  1.
         15    1    5    5    0    0 -0.12629828123E+03 -0.11708511576E+03 -0.92476907751E+02  0.19548738162E+03  0.17770000000E+01 0. -1.
        -16    1    5    5    0    0 -0.18155397183E+03 -0.12221430242E+03 -0.22003979331E+03  0.31034769379E+03  0.00000000000E+00 0.  1.
          2    1    6    6  502    0  0.76812119493E+02 -0.16444576777E+03 -0.97494898769E+02  0.20602855997E+03  0.00000000000E+00 0. -1.
         -1    1    6    6    0  502  0.17995126863E+03 -0.17647599579E+03 -0.13087265365E+03  0.28399628104E+03  0.00000000000E+00 0.  1.
<mgrwt>
<rscale>  0 0.70468032E+03</rscale>
<asrwt>0</asrwt>
<pdfrwt beam="1">  1        1 0.16072253E+00 0.70468032E+03</pdfrwt>
<pdfrwt beam="2">  1       -2 0.83083669E-01 0.70468032E+03</pdfrwt>
<totfact> 0.16004265E+01</totfact>
</mgrwt>
</event>
<event>
12    3  0.1201947E-007  0.6375065E+03  0.7818608E-02  0.9830509E-01
          1   -1    0    0  501    0  0.00000000000E+00  0.00000000000E+00  0.11279119963E+04  0.11279119963E+04  0.00000000000E+00 0. -1.
         -2   -1    0    0    0  501 -0.00000000000E+00 -0.00000000000E+00 -0.58825340692E+03  0.58825340692E+03  0.00000000000E+00 0.  1.
        -24    2    1    2    0    0  0.16125914654E+03  0.49912985211E+03 -0.25567085216E+03  0.59024245589E+03  0.88788797038E+02 0.  0.
    5000000    2    1    2    0    0 -0.16125914654E+03 -0.49912985211E+03  0.79532944151E+03  0.11259229473E+04  0.60001536740E+03 0.  0.
        -24    2    4    4    0    0  0.32495692104E+02 -0.54125191655E+03  0.70978439528E+03  0.89679266730E+03  0.80209682488E+02 0.  0.
         24    2    4    4    0    0 -0.19375483864E+03  0.42122064434E+02  0.85545046230E+02  0.22913028000E+03  0.76599768089E+02 0.  0.
         13    1    3    3    0    0  0.70025016828E+02  0.32654224740E+03 -0.19024729179E+03  0.38435318960E+03  0.00000000000E+00 0. -1.
        -14    1    3    3    0    0  0.91234129709E+02  0.17258760471E+03 -0.65423560373E+02  0.20588926629E+03  0.00000000000E+00 0.  1.
         15    1    5    5    0    0  0.25540887321E+02 -0.11949991054E+03  0.20823989111E+03  0.24145305034E+03  0.17770000000E+01 0. -1.
        -16    1    5    5    0    0  0.69548047833E+01 -0.42175200600E+03  0.50154450418E+03  0.65533961695E+03  0.00000000000E+00 0.  1.
          2    1    6    6  502    0 -0.12516136309E+03  0.85874424784E+01  0.17146823693E+02  0.12662197495E+03  0.00000000000E+00 0. -1.
         -1    1    6    6    0  502 -0.68593475553E+02  0.33534621955E+02  0.68398222536E+02  0.10250830505E+03  0.00000000000E+00 0.  1.
<mgrwt>
<rscale>  0 0.63750655E+03</rscale>
<asrwt>0</asrwt>
<pdfrwt beam="1">  1        1 0.17352492E+00 0.63750655E+03</pdfrwt>
<pdfrwt beam="2">  1       -2 0.90500524E-01 0.63750655E+03</pdfrwt>
<totfact> 0.11508451E+01</totfact>
</mgrwt>
</event>
<event>
12    3  0.1201947E-007  0.6049631E+03  0.7818608E-02  0.9895162E-01
          1   -1    0    0  501    0  0.00000000000E+00  0.00000000000E+00  0.25474735580E+04  0.25474735580E+04  0.00000000000E+00 0. -1.
         -2   -1    0    0    0  501 -0.00000000000E+00 -0.00000000000E+00 -0.15501097501E+03  0.15501097501E+03  0.00000000000E+00 0.  1.
        -24    2    1    2    0    0  0.44491374109E+03 -0.91570456236E+02  0.58616862657E+03  0.74581946269E+03  0.79496079605E+02 0.  0.
    5000000    2    1    2    0    0 -0.44491374109E+03  0.91570456236E+02  0.18062939564E+04  0.19566650703E+04  0.59958898835E+03 0.  0.
        -24    2    4    4    0    0 -0.27976933242E+03 -0.23716558990E+03  0.90586824297E+03  0.98061213476E+03  0.80526323690E+02 0.  0.
         24    2    4    4    0    0 -0.16514440868E+03  0.32873604613E+03  0.90042571347E+03  0.97605293559E+03  0.81072830524E+02 0.  0.
         11    1    3    3    0    0  0.30727546882E+03 -0.36205222256E+02  0.43695193478E+03  0.53540267572E+03  0.00000000000E+00 0. -1.
        -12    1    3    3    0    0  0.13763827228E+03 -0.55365233980E+02  0.14921669179E+03  0.21041678697E+03  0.00000000000E+00 0.  1.
         15    1    5    5    0    0 -0.20678328420E+03 -0.12490408328E+03  0.58723389217E+03  0.63498595141E+03  0.17770000000E+01 0. -1.
        -16    1    5    5    0    0 -0.72986048219E+02 -0.11226150661E+03  0.31863435080E+03  0.34562618334E+03  0.00000000000E+00 0.  1.
          4    1    6    6  502    0 -0.16388981593E+03  0.25620193544E+03  0.72200539151E+03  0.78344820432E+03  0.00000000000E+00 0. -1.
         -3    1    6    6    0  502 -0.12545927431E+01  0.72534110697E+02  0.17842032196E+03  0.19260473127E+03  0.00000000000E+00 0.  1.
<mgrwt>
<rscale>  0 0.60496314E+03</rscale>
<asrwt>0</asrwt>
<pdfrwt beam="1">  1        1 0.39191898E+00 0.60496314E+03</pdfrwt>
<pdfrwt beam="2">  1       -2 0.23847844E-01 0.60496314E+03</pdfrwt>
<totfact> 0.18471367E+01</totfact>
</mgrwt>
</event>
<event>
12    3  0.1201947E-007  0.1195610E+04  0.7818608E-02  0.9116708E-01
          1   -1    0    0  501    0  0.00000000000E+00  0.00000000000E+00  0.18123811619E+04  0.18123811619E+04  0.00000000000E+00 0. -1.
         -2   -1    0    0    0  501 -0.00000000000E+00 -0.00000000000E+00 -0.10322999245E+04  0.10322999245E+04  0.00000000000E+00 0.  1.
        -24    2    1    2    0    0 -0.13903236198E+03 -0.11844715743E+04 -0.16844439234E+03  0.12070565103E+04  0.79429199588E+02 0.  0.
    5000000    2    1    2    0    0  0.13903236198E+03  0.11844715743E+04  0.94852562974E+03  0.16376245761E+04  0.59984204088E+03 0.  0.
        -24    2    4    4    0    0  0.91539863227E+02  0.69174894093E+03  0.88864197249E+03  0.11324629692E+04  0.76757264182E+02 0.  0.
         24    2    4    4    0    0  0.47492498749E+02  0.49272263338E+03  0.59883657249E+02  0.50516160687E+03  0.81062110572E+02 0.  0.
         13    1    3    3    0    0 -0.57782661051E+02 -0.57900777352E+03 -0.43409308492E+02  0.58350081901E+03  0.00000000000E+00 0. -1.
        -14    1    3    3    0    0 -0.81249700925E+02 -0.60546380078E+03 -0.12503508385E+03  0.62355569130E+03  0.00000000000E+00 0.  1.
         15    1    5    5    0    0  0.26832797579E+01  0.16955198456E+03  0.25987434161E+03  0.31031098372E+03  0.17770000000E+01 0. -1.
        -16    1    5    5    0    0  0.88856583469E+02  0.52219695637E+03  0.62876763088E+03  0.82215198553E+03  0.00000000000E+00 0.  1.
          2    1    6    6  502    0 -0.14871755309E+02  0.15623844727E+03  0.42061157394E+02  0.16248311442E+03  0.00000000000E+00 0. -1.
         -1    1    6    6    0  502  0.62364254058E+02  0.33648418611E+03  0.17822499855E+02  0.34267849245E+03  0.00000000000E+00 0.  1.
<mgrwt>
<rscale>  0 0.11956099E+04</rscale>
<asrwt>0</asrwt>
<pdfrwt beam="1">  1        1 0.27882787E+00 0.11956099E+04</pdfrwt>
<pdfrwt beam="2">  1       -2 0.15881537E+00 0.11956099E+04</pdfrwt>
<totfact> 0.87973246E-01</totfact>
</mgrwt>
</event>
<event>
12    3  0.1201947E-007  0.2732796E+03  0.7818608E-02  0.1099417E+00
          1   -1    0    0  501    0  0.00000000000E+00  0.00000000000E+00  0.42268194923E+04  0.42268194923E+04  0.00000000000E+00 0. -1.
         -2   -1    0    0    0  501 -0.00000000000E+00 -0.00000000000E+00 -0.29393605666E+02  0.29393605666E+02  0.00000000000E+00 0.  1.
        -24    2    1    2    0    0 -0.51161249136E+02  0.30611265460E+02  0.49607008234E+03  0.50606285313E+03  0.80371398794E+02 0.  0.
    5000000    2    1    2    0    0  0.51161249136E+02 -0.30611265460E+02  0.37013558043E+04  0.37501502449E+04  0.60003128738E+03 0.  0.
        -24    2    4    4    0    0  0.13764272009E+03 -0.20583842623E+03  0.31281463872E+04  0.31389745835E+04  0.80911308511E+02 0.  0.
         24    2    4    4    0    0 -0.86481470959E+02  0.17522716077E+03  0.57320941715E+03  0.61117566141E+03  0.82359276948E+02 0.  0.
         13    1    3    3    0    0  0.13762031602E+02  0.22165685810E+02  0.64859042826E+02  0.69909989111E+02  0.00000000000E+00 0. -1.
        -14    1    3    3    0    0 -0.64923280737E+02  0.84455796497E+01  0.43121103951E+03  0.43615286402E+03  0.00000000000E+00 0.  1.
         15    1    5    5    0    0  0.40014335179E+01 -0.52483430723E+02  0.90916078184E+03  0.91068491090E+03  0.17770000000E+01 0. -1.
        -16    1    5    5    0    0  0.13364128658E+03 -0.15335499551E+03  0.22189856053E+04  0.22282896726E+04  0.00000000000E+00 0.  1.
          4    1    6    6  502    0 -0.82162094539E+02  0.13204623435E+03  0.51863194669E+03  0.54144797895E+03  0.00000000000E+00 0. -1.
         -3    1    6    6    0  502 -0.43193764206E+01  0.43180926420E+02  0.54577470469E+02  0.69727682465E+02  0.00000000000E+00 0.  1.
<mgrwt>
<rscale>  0 0.27327961E+03</rscale>
<asrwt>0</asrwt>
<pdfrwt beam="1">  1        1 0.65027944E+00 0.27327961E+03</pdfrwt>
<pdfrwt beam="2">  1       -2 0.45220965E-02 0.27327961E+03</pdfrwt>
<totfact> 0.15959417E+01</totfact>
</mgrwt>
</event>
<event>
12    3  0.1201947E-007  0.6234814E+03  0.7818608E-02  0.9857852E-01
         -2   -1    0    0    0  501 -0.00000000000E+00  0.00000000000E+00  0.35129733908E+03  0.35129733908E+03  0.00000000000E+00 0.  1.
          1   -1    0    0  501    0  0.00000000000E+00 -0.00000000000E+00 -0.14042877308E+04  0.14042877308E+04  0.00000000000E+00 0. -1.
        -24    2    1    2    0    0  0.47001167334E+03  0.11313336249E+03 -0.81188263573E+03  0.94829153089E+03  0.79958005058E+02 0.  0.
    5000000    2    1    2    0    0 -0.47001167334E+03 -0.11313336249E+03 -0.24110775598E+03  0.80729353898E+03  0.59989980605E+03 0.  0.
        -24    2    4    4    0    0 -0.52178560051E+02  0.21175317343E+03 -0.46971557080E+02  0.23774804479E+03  0.82193655706E+02 0.  0.
         24    2    4    4    0    0 -0.41783311329E+03 -0.32488653592E+03 -0.19413619890E+03  0.56954549419E+03  0.80977987417E+02 0.  0.
         11    1    3    3    0    0  0.13488245032E+03  0.42959903029E+02 -0.17387193426E+03  0.22421034364E+03  0.00000000000E+00 0. -1.
        -12    1    3    3    0    0  0.33512922302E+03  0.70173459457E+02 -0.63801070148E+03  0.72408118725E+03  0.00000000000E+00 0.  1.
         15    1    5    5    0    0 -0.60140099143E+02  0.21560621820E+03 -0.42521115113E+02  0.22784660588E+03  0.17770000000E+01 0. -1.
        -16    1    5    5    0    0  0.79615390920E+01 -0.38530447699E+01 -0.44504419666E+01  0.99014389060E+01  0.00000000000E+00 0.  1.
          4    1    6    6  502    0 -0.28170371572E+03 -0.19899272386E+03 -0.16320399543E+03  0.38156340459E+03  0.00000000000E+00 0. -1.
         -3    1    6    6    0  502 -0.13612939757E+03 -0.12589381206E+03 -0.30932203463E+02  0.18798208960E+03  0.00000000000E+00 0.  1.
<mgrwt>
<rscale>  0 0.62348144E+03</rscale>
<asrwt>0</asrwt>
<pdfrwt beam="1">  1        1 0.21604426E+00 0.62348144E+03</pdfrwt>
<pdfrwt beam="2">  1       -2 0.54045745E-01 0.62348144E+03</pdfrwt>
<totfact> 0.22567003E+01</totfact>
</mgrwt>
</event>
<event>
12    3  0.1237717E-007  0.5098230E+03  0.7818608E-02  0.1011246E+00
          1   -1    0    0  501    0  0.00000000000E+00  0.00000000000E+00  0.14793551602E+04  0.14793551602E+04  0.00000000000E+00 0. -1.
         -2   -1    0    0    0  501 -0.00000000000E+00 -0.00000000000E+00 -0.37533039068E+03  0.37533039068E+03  0.00000000000E+00 0.  1.
        -24    2    1    2    0    0 -0.48327619845E+03  0.14790797733E+03  0.91415623415E+03  0.10475931351E+04  0.79605919844E+02 0.  0.
    5000000    2    1    2    0    0  0.48327619845E+03 -0.14790797733E+03  0.18986853540E+03  0.80709241584E+03  0.59992954021E+03 0.  0.
        -24    2    4    4    0    0  0.34677156591E+03 -0.12124330848E+03 -0.17042927262E+03  0.41265836700E+03  0.79311614027E+02 0.  0.
         24    2    4    4    0    0  0.13650463254E+03 -0.26664668849E+02  0.36029780802E+03  0.39443404883E+03  0.80119842405E+02 0.  0.
         13    1    3    3    0    0 -0.30985991950E+03  0.11745396506E+03  0.65843119530E+03  0.73711616626E+03  0.00000000000E+00 0. -1.
        -14    1    3    3    0    0 -0.17341627896E+03  0.30454012272E+02  0.25572503886E+03  0.31047696882E+03  0.00000000000E+00 0.  1.
         15    1    5    5    0    0  0.17025617273E+03 -0.48521821281E+02 -0.40169027454E+02  0.18154404422E+03  0.17770000000E+01 0. -1.
        -16    1    5    5    0    0  0.17651539317E+03 -0.72721487199E+02 -0.13026024516E+03  0.23111432279E+03  0.00000000000E+00 0.  1.
          2    1    6    6  502    0  0.12141980709E+03 -0.10090685615E+02  0.21253221598E+03  0.24497864053E+03  0.00000000000E+00 0. -1.
         -1    1    6    6    0  502  0.15084825454E+02 -0.16573983234E+02  0.14776559204E+03  0.14945540830E+03  0.00000000000E+00 0.  1.
<mgrwt>
<rscale>  0 0.50982303E+03</rscale>
<asrwt>0</asrwt>
<pdfrwt beam="1">  1        1 0.22759310E+00 0.50982303E+03</pdfrwt>
<pdfrwt beam="2">  1       -2 0.57743138E-01 0.50982303E+03</pdfrwt>
<totfact> 0.17801416E+01</totfact>
</mgrwt>
</event>
<event>
12    3  0.1201947E-007  0.8418930E+03  0.7818608E-02  0.9501283E-01
          1   -1    0    0  501    0  0.00000000000E+00  0.00000000000E+00  0.71321007668E+03  0.71321007668E+03  0.00000000000E+00 0. -1.
         -2   -1    0    0    0  501 -0.00000000000E+00 -0.00000000000E+00 -0.15073961662E+04  0.15073961662E+04  0.00000000000E+00 0.  1.
        -24    2    1    2    0    0  0.67252076134E+03  0.32695010348E+03  0.26002353891E+03  0.79564316015E+03  0.79090156783E+02 0.  0.
    5000000    2    1    2    0    0 -0.67252076134E+03 -0.32695010348E+03 -0.10542096284E+04  0.14249630827E+04  0.59998441801E+03 0.  0.
        -24    2    4    4    0    0 -0.19065488056E+03  0.15069473141E+03 -0.42387300385E+03  0.49534501788E+03  0.81487286044E+02 0.  0.
         24    2    4    4    0    0 -0.48186588078E+03 -0.47764483489E+03 -0.63033662453E+03  0.92961806481E+03  0.80784719113E+02 0.  0.
         11    1    3    3    0    0  0.38131540597E+03  0.18818412927E+03  0.18902582774E+03  0.46534446262E+03  0.00000000000E+00 0. -1.
        -12    1    3    3    0    0  0.29120535537E+03  0.13876597422E+03  0.70997711166E+02  0.33029869753E+03  0.00000000000E+00 0.  1.
         15    1    5    5    0    0 -0.12456408472E+03  0.48221352802E+02 -0.24101229895E+03  0.27555688350E+03  0.17770000000E+01 0. -1.
        -16    1    5    5    0    0 -0.66090795839E+02  0.10247337860E+03 -0.18286070490E+03  0.21978813438E+03  0.00000000000E+00 0.  1.
          2    1    6    6  502    0 -0.34137901805E+02 -0.17203387272E+02 -0.57404813660E+02  0.68968583461E+02  0.00000000000E+00 0. -1.
         -1    1    6    6    0  502 -0.44772797897E+03 -0.46044144762E+03 -0.57293181087E+03  0.86064948135E+03  0.00000000000E+00 0.  1.
<mgrwt>
<rscale>  0 0.84189300E+03</rscale>
<asrwt>0</asrwt>
<pdfrwt beam="1">  1        1 0.10972463E+00 0.84189300E+03</pdfrwt>
<pdfrwt beam="2">  1       -2 0.23190710E+00 0.84189300E+03</pdfrwt>
<totfact> 0.19676970E+00</totfact>
</mgrwt>
</event>
<event>
12    3  0.1201947E-007  0.1306411E+04  0.7818608E-02  0.9024497E-01
         -2   -1    0    0    0  501 -0.00000000000E+00  0.00000000000E+00  0.19176906652E+04  0.19176906652E+04  0.00000000000E+00 0.  1.
          1   -1    0    0  501    0  0.00000000000E+00 -0.00000000000E+00 -0.12073917010E+04  0.12073917010E+04  0.00000000000E+00 0. -1.
        -24    2    1    2    0    0 -0.33631879454E+03 -0.12105223353E+04  0.11081545296E+04  0.16770468024E+04  0.77491033723E+02 0.  0.
    5000000    2    1    2    0    0  0.33631879454E+03  0.12105223353E+04 -0.39785556541E+03  0.14480355637E+04  0.60003607147E+03 0.  0.
        -24    2    4    4    0    0  0.21060726424E+03  0.11863652130E+04 -0.24315095262E+03  0.12317624156E+04  0.79362612880E+02 0.  0.
         24    2    4    4    0    0  0.12571153030E+03  0.24157122273E+02 -0.15470461279E+03  0.21627314811E+03  0.80334313770E+02 0.  0.
         13    1    3    3    0    0 -0.12279724004E+03 -0.43120060230E+03  0.44536324171E+03  0.63195058244E+03  0.00000000000E+00 0. -1.
        -14    1    3    3    0    0 -0.21352155450E+03 -0.77932173301E+03  0.66279128788E+03  0.10450962200E+04  0.00000000000E+00 0.  1.
         15    1    5    5    0    0  0.99015994575E+02  0.66045488389E+03 -0.17047809976E+03  0.68925377116E+03  0.17770000000E+01 0. -1.
        -16    1    5    5    0    0  0.11159126967E+03  0.52591032915E+03 -0.72672852857E+02  0.54250864446E+03  0.00000000000E+00 0.  1.
          2    1    6    6  502    0  0.13017493104E+02  0.35404424127E+02 -0.42977878882E+02  0.57184145073E+02  0.00000000000E+00 0. -1.
         -1    1    6    6    0  502  0.11269403719E+03 -0.11247301854E+02 -0.11172673391E+03  0.15908900304E+03  0.00000000000E+00 0.  1.
<mgrwt>
<rscale>  0 0.13064105E+04</rscale>
<asrwt>0</asrwt>
<pdfrwt beam="1">  1        1 0.18575257E+00 0.13064105E+04</pdfrwt>
<pdfrwt beam="2">  1       -2 0.29502933E+00 0.13064105E+04</pdfrwt>
<totfact> 0.30485795E-01</totfact>
</mgrwt>
</event>
<event>
12    3  0.1201947E-007  0.4230750E+03  0.7818608E-02  0.1036070E+00
          1   -1    0    0  501    0  0.00000000000E+00  0.00000000000E+00  0.22041408624E+04  0.22041408624E+04  0.00000000000E+00 0. -1.
         -2   -1    0    0    0  501 -0.00000000000E+00 -0.00000000000E+00 -0.28054128560E+03  0.28054128560E+03  0.00000000000E+00 0.  1.
        -24    2    1    2    0    0 -0.46597882224E+02 -0.32192970015E+03 -0.10034450171E+03  0.34876930827E+03  0.75900704200E+02 0.  0.
    5000000    2    1    2    0    0  0.46597882224E+02  0.32192970015E+03  0.20239440785E+04  0.21359128397E+04  0.59996994216E+03 0.  0.
        -24    2    4    4    0    0 -0.14907938173E+03  0.25507568644E+03  0.43662579771E+03  0.53318679300E+03  0.79735820934E+02 0.  0.
         24    2    4    4    0    0  0.19567726395E+03  0.66854013717E+02  0.15873182808E+04  0.16027260467E+04  0.79952520289E+02 0.  0.
         11    1    3    3    0    0  0.20658048965E+02 -0.82789798455E+02 -0.31889286084E+02  0.91092438118E+02  0.00000000000E+00 0. -1.
        -12    1    3    3    0    0 -0.67255931189E+02 -0.23913990170E+03 -0.68455215630E+02  0.25767687015E+03  0.00000000000E+00 0.  1.
         15    1    5    5    0    0 -0.93340434822E+02  0.17634625521E+03  0.22572843508E+03  0.30127549292E+03  0.17770000000E+01 0. -1.
        -16    1    5    5    0    0 -0.55738946904E+02  0.78729431224E+02  0.21089736263E+03  0.23191130008E+03  0.00000000000E+00 0.  1.
          2    1    6    6  502    0  0.12568538060E+03  0.74326522010E+02  0.89430204739E+03  0.90614424831E+03  0.00000000000E+00 0. -1.
         -1    1    6    6    0  502  0.69991883348E+02 -0.74725082935E+01  0.69301623338E+03  0.69658179838E+03  0.00000000000E+00 0.  1.
<mgrwt>
<rscale>  0 0.42307500E+03</rscale>
<asrwt>0</asrwt>
<pdfrwt beam="1">  1        1 0.33909858E+00 0.42307500E+03</pdfrwt>
<pdfrwt beam="2">  1       -2 0.43160199E-01 0.42307500E+03</pdfrwt>
<totfact> 0.10798621E+01</totfact>
</mgrwt>
</event>
<event>
12    3  0.1201947E-007  0.8933779E+03  0.7818608E-02  0.9433897E-01
          1   -1    0    0  501    0  0.00000000000E+00  0.00000000000E+00  0.13887431679E+04  0.13887431679E+04  0.00000000000E+00 0. -1.
         -2   -1    0    0    0  501 -0.00000000000E+00 -0.00000000000E+00 -0.75307125554E+03  0.75307125554E+03  0.00000000000E+00 0.  1.
        -24    2    1    2    0    0 -0.46006051849E+03 -0.73476655924E+03 -0.69686569713E+02  0.87333083694E+03  0.79454109381E+02 0.  0.
    5000000    2    1    2    0    0  0.46006051849E+03  0.73476655924E+03  0.70535848207E+03  0.12684835865E+04  0.59998536960E+03 0.  0.
        -24    2    4    4    0    0  0.14996899760E+03  0.69093996528E+02 -0.71190026828E+02  0.19663381159E+03  0.79574841143E+02 0.  0.
         24    2    4    4    0    0  0.31009152089E+03  0.66567256272E+03  0.77654850890E+03  0.10718497749E+04  0.80979264191E+02 0.  0.
         13    1    3    3    0    0 -0.39732936326E+03 -0.62006552519E+03 -0.86547197939E+02  0.74151351701E+03  0.00000000000E+00 0. -1.
        -14    1    3    3    0    0 -0.62731155228E+02 -0.11470103406E+03  0.16860628226E+02  0.13181731993E+03  0.00000000000E+00 0.  1.
         15    1    5    5    0    0  0.41391717919E+02 -0.16056025023E+02 -0.25781221550E+02  0.51370218663E+02  0.17770000000E+01 0. -1.
        -16    1    5    5    0    0  0.10857727968E+03  0.85150021552E+02 -0.45408805277E+02  0.14526359293E+03  0.00000000000E+00 0.  1.
          4    1    6    6  502    0  0.19628095014E+03  0.34551715941E+03  0.45412536009E+03  0.60343861454E+03  0.00000000000E+00 0. -1.
         -3    1    6    6    0  502  0.11381057075E+03  0.32015540330E+03  0.32242314881E+03  0.46841116038E+03  0.00000000000E+00 0.  1.
<mgrwt>
<rscale>  0 0.89337786E+03</rscale>
<asrwt>0</asrwt>
<pdfrwt beam="1">  1        1 0.21365279E+00 0.89337786E+03</pdfrwt>
<pdfrwt beam="2">  1       -2 0.11585712E+00 0.89337786E+03</pdfrwt>
<totfact> 0.40197887E+00</totfact>
</mgrwt>
</event>
<event>
12    3  0.1201947E-007  0.1264285E+04  0.7818608E-02  0.9058377E-01
         -2   -1    0    0    0  501 -0.00000000000E+00  0.00000000000E+00  0.94837023032E+03  0.94837023032E+03  0.00000000000E+00 0.  1.
          1   -1    0    0  501    0  0.00000000000E+00 -0.00000000000E+00 -0.18201451001E+04  0.18201451001E+04  0.00000000000E+00 0. -1.
        -24    2    1    2    0    0 -0.23767674938E+03  0.11747410940E+04 -0.76462300064E+03  0.14239101187E+04  0.79779808633E+02 0.  0.
    5000000    2    1    2    0    0  0.23767674938E+03 -0.11747410940E+04 -0.10715186918E+03  0.13446052118E+04  0.59997898079E+03 0.  0.
        -24    2    4    4    0    0  0.63600620302E+02 -0.11312873511E+04 -0.34968691495E+02  0.11364072970E+04  0.79640602686E+02 0.  0.
         24    2    4    4    0    0  0.17407612908E+03 -0.43453742887E+02 -0.72183177687E+02  0.20819791480E+03  0.77105344178E+02 0.  0.
         11    1    3    3    0    0 -0.34052117687E+02  0.34883763049E+03 -0.22989588878E+03  0.41916507350E+03  0.00000000000E+00 0. -1.
        -12    1    3    3    0    0 -0.20362463169E+03  0.82590346350E+03 -0.53472711185E+03  0.10047450452E+04  0.00000000000E+00 0.  1.
         15    1    5    5    0    0  0.18558135945E+02 -0.80190253056E+03  0.36131806680E-01  0.80211921307E+03  0.17770000000E+01 0. -1.
        -16    1    5    5    0    0  0.45042484357E+02 -0.32938482054E+03 -0.35004823301E+02  0.33428808392E+03  0.00000000000E+00 0.  1.
          4    1    6    6  502    0  0.21410981464E+02  0.18321462342E+02 -0.22843468325E+02  0.36275751607E+02  0.00000000000E+00 0. -1.
         -3    1    6    6    0  502  0.15266514761E+03 -0.61775205229E+02 -0.49339709362E+02  0.17192216319E+03  0.00000000000E+00 0.  1.
<mgrwt>
<rscale>  0 0.12642850E+04</rscale>
<asrwt>0</asrwt>
<pdfrwt beam="1">  1        1 0.28002232E+00 0.12642850E+04</pdfrwt>
<pdfrwt beam="2">  1       -2 0.14590311E+00 0.12642850E+04</pdfrwt>
<totfact> 0.10827654E+00</totfact>
</mgrwt>
</event>
<event>
12    3  0.1201947E-007  0.5192927E+03  0.7818608E-02  0.1008862E+00
         -2   -1    0    0    0  501 -0.00000000000E+00  0.00000000000E+00  0.25554343429E+03  0.25554343429E+03  0.00000000000E+00 0.  1.
          1   -1    0    0  501    0  0.00000000000E+00 -0.00000000000E+00 -0.13360835333E+04  0.13360835333E+04  0.00000000000E+00 0. -1.
        -24    2    1    2    0    0  0.39293932447E+03  0.63783996171E+02 -0.19732987736E+03  0.45209226640E+03  0.83538170681E+02 0.  0.
    5000000    2    1    2    0    0 -0.39293932447E+03 -0.63783996171E+02 -0.88321022166E+03  0.11395347012E+04  0.60000777387E+03 0.  0.
        -24    2    4    4    0    0  0.10534393191E+03 -0.52080068683E+02 -0.24860525894E+02  0.14373575340E+03  0.78944559745E+02 0.  0.
         24    2    4    4    0    0 -0.49828325638E+03 -0.11703927489E+02 -0.85834969577E+03  0.99579894780E+03  0.80175798809E+02 0.  0.
         13    1    3    3    0    0  0.14083485850E+03  0.30635967059E+01 -0.31683466873E+02  0.14438727460E+03  0.00000000000E+00 0. -1.
        -14    1    3    3    0    0  0.25210446597E+03  0.60720399465E+02 -0.16564641049E+03  0.30770499180E+03  0.00000000000E+00 0.  1.
         15    1    5    5    0    0 -0.10168546999E+02 -0.41523744776E+01  0.88435402311E+01  0.14212934064E+02  0.17770000000E+01 0. -1.
        -16    1    5    5    0    0  0.11551247891E+03 -0.47927694205E+02 -0.33704066125E+02  0.12952281933E+03  0.00000000000E+00 0.  1.
          4    1    6    6  502    0 -0.46327797262E+02 -0.19323912847E+02 -0.58715646653E+02  0.77247689731E+02  0.00000000000E+00 0. -1.
         -3    1    6    6    0  502 -0.45195545911E+03  0.76199853578E+01 -0.79963404912E+03  0.91855125807E+03  0.00000000000E+00 0.  1.
<mgrwt>
<rscale>  0 0.51929266E+03</rscale>
<asrwt>0</asrwt>
<pdfrwt beam="1">  1        1 0.20555131E+00 0.51929266E+03</pdfrwt>
<pdfrwt beam="2">  1       -2 0.39314374E-01 0.51929266E+03</pdfrwt>
<totfact> 0.48190912E+01</totfact>
</mgrwt>
</event>
<event>
12    3  0.1201947E-007  0.2486812E+03  0.7818608E-02  0.1114141E+00
          1   -1    0    0  501    0  0.00000000000E+00  0.00000000000E+00  0.17900286349E+04  0.17900286349E+04  0.00000000000E+00 0. -1.
         -2   -1    0    0    0  501 -0.00000000000E+00 -0.00000000000E+00 -0.15156550049E+03  0.15156550049E+03  0.00000000000E+00 0.  1.
        -24    2    1    2    0    0 -0.19125243374E+03 -0.52872240639E+02  0.33993622510E+02  0.21720329566E+03  0.81539794160E+02 0.  0.
    5000000    2    1    2    0    0  0.19125243374E+03  0.52872240639E+02  0.16044695119E+04  0.17243908397E+04  0.59985697151E+03 0.  0.
        -24    2    4    4    0    0 -0.15708878367E+02 -0.21439798151E+01  0.14423341175E+04  0.14443513672E+04  0.74644491053E+02 0.  0.
         24    2    4    4    0    0  0.20696131210E+03  0.55016220454E+02  0.16213539441E+03  0.28003947250E+03  0.79211431081E+02 0.  0.
         13    1    3    3    0    0 -0.14514441539E+03 -0.28846830070E+02  0.59246959604E+02  0.15940277020E+03  0.00000000000E+00 0. -1.
        -14    1    3    3    0    0 -0.46108018342E+02 -0.24025410570E+02 -0.25253337094E+02  0.57800525455E+02  0.00000000000E+00 0.  1.
         15    1    5    5    0    0 -0.34545683400E+02 -0.24579557003E+02  0.10806416527E+04  0.10814745018E+04  0.17770000000E+01 0. -1.
        -16    1    5    5    0    0  0.18836805032E+02  0.22435577188E+02  0.36169246480E+03  0.36287686540E+03  0.00000000000E+00 0.  1.
          4    1    6    6  502    0  0.11770101987E+03 -0.54792634822E+01  0.63239942031E+02  0.13372674630E+03  0.00000000000E+00 0. -1.
         -3    1    6    6    0  502  0.89260292233E+02  0.60495483937E+02  0.98895452382E+02  0.14631272620E+03  0.00000000000E+00 0.  1.
<mgrwt>
<rscale>  0 0.24868118E+03</rscale>
<asrwt>0</asrwt>
<pdfrwt beam="1">  1        1 0.27538901E+00 0.24868118E+03</pdfrwt>
<pdfrwt beam="2">  1       -2 0.23317771E-01 0.24868118E+03</pdfrwt>
<totfact> 0.66296090E+01</totfact>
</mgrwt>
</event>
<event>
12    3  0.1201947E-007  0.4381136E+03  0.7818608E-02  0.1031327E+00
          1   -1    0    0  501    0  0.00000000000E+00  0.00000000000E+00  0.58812952841E+03  0.58812952841E+03  0.00000000000E+00 0. -1.
         -2   -1    0    0    0  501 -0.00000000000E+00 -0.00000000000E+00 -0.58006029394E+03  0.58006029394E+03  0.00000000000E+00 0.  1.
        -24    2    1    2    0    0 -0.16757487853E+02 -0.38004324654E+03  0.19296088322E+03  0.43398567650E+03  0.79974885503E+02 0.  0.
    5000000    2    1    2    0    0  0.16757487853E+02  0.38004324654E+03 -0.18489164876E+03  0.73420414585E+03  0.60013092186E+03 0.  0.
        -24    2    4    4    0    0 -0.12752176467E+03  0.80866373803E+02 -0.32150888776E+03  0.36597595369E+03  0.88143422331E+02 0.  0.
         24    2    4    4    0    0  0.14427925252E+03  0.29917687274E+03  0.13661723900E+03  0.36822819216E+03  0.81267629595E+02 0.  0.
         11    1    3    3    0    0 -0.72483491287E+01 -0.23186552804E+02  0.37362072469E+02  0.44565449120E+02  0.00000000000E+00 0. -1.
        -12    1    3    3    0    0 -0.95091387245E+01 -0.35685669374E+03  0.15559881075E+03  0.38942022738E+03  0.00000000000E+00 0.  1.
         15    1    5    5    0    0 -0.11979861510E+03  0.82410780988E+02 -0.21729087302E+03  0.26146075467E+03  0.17770000000E+01 0. -1.
        -16    1    5    5    0    0 -0.77231495675E+01 -0.15444071847E+01 -0.10421801473E+03  0.10451519903E+03  0.00000000000E+00 0.  1.
          4    1    6    6  502    0  0.43875788423E+02  0.18262486679E+03  0.67543630553E+02  0.19959726653E+03  0.00000000000E+00 0. -1.
         -3    1    6    6    0  502  0.10040346410E+03  0.11655200595E+03  0.69073608448E+02  0.16863092563E+03  0.00000000000E+00 0.  1.
<mgrwt>
<rscale>  0 0.43811357E+03</rscale>
<asrwt>0</asrwt>
<pdfrwt beam="1">  1        1 0.90481466E-01 0.43811357E+03</pdfrwt>
<pdfrwt beam="2">  1       -2 0.89240045E-01 0.43811357E+03</pdfrwt>
<totfact> 0.34956314E+01</totfact>
</mgrwt>
</event>
<event>
12    3  0.1201947E-007  0.8889098E+03  0.7818608E-02  0.9439552E-01
          3   -1    0    0  501    0  0.00000000000E+00  0.00000000000E+00  0.16291522542E+04  0.16291522542E+04  0.00000000000E+00 0. -1.
         -4   -1    0    0    0  501 -0.00000000000E+00 -0.00000000000E+00 -0.16095646968E+04  0.16095646968E+04  0.00000000000E+00 0.  1.
        -24    2    1    2    0    0  0.29827802616E+03 -0.79722414315E+03  0.13206433629E+04  0.15721736412E+04  0.55632281976E+02 0.  0.
    5000000    2    1    2    0    0 -0.29827802616E+03  0.79722414315E+03 -0.13010558055E+04  0.16665433098E+04  0.60007022856E+03 0.  0.
        -24    2    4    4    0    0 -0.44102022215E+02  0.59605448566E+03 -0.44286040094E+03  0.74578015207E+03  0.53261264109E+02 0.  0.
         24    2    4    4    0    0 -0.25417600394E+03  0.20116965750E+03 -0.85819540456E+03  0.92076315777E+03  0.78935215336E+02 0.  0.
         13    1    3    3    0    0  0.10758535137E+03 -0.23254101364E+03  0.36673762284E+03  0.44737726234E+03  0.00000000000E+00 0. -1.
        -14    1    3    3    0    0  0.19069267479E+03 -0.56468312951E+03  0.95390574002E+03  0.11247963788E+04  0.00000000000E+00 0.  1.
         15    1    5    5    0    0 -0.45882283270E+02  0.37263784053E+03 -0.25488521284E+03  0.45379926572E+03  0.17770000000E+01 0. -1.
        -16    1    5    5    0    0  0.17802610553E+01  0.22341664513E+03 -0.18797518810E+03  0.29198088635E+03  0.00000000000E+00 0.  1.
          2    1    6    6  502    0 -0.75281810434E+02  0.36932417405E+02 -0.31084468578E+03  0.32195616645E+03  0.00000000000E+00 0. -1.
         -1    1    6    6    0  502 -0.17889419351E+03  0.16423724009E+03 -0.54735071878E+03  0.59880699132E+03  0.00000000000E+00 0.  1.
<mgrwt>
<rscale>  0 0.88890982E+03</rscale>
<asrwt>0</asrwt>
<pdfrwt beam="1">  1        3 0.25063881E+00 0.88890982E+03</pdfrwt>
<pdfrwt beam="2">  1       -4 0.24762534E+00 0.88890982E+03</pdfrwt>
<totfact> 0.10715852E-02</totfact>
</mgrwt>
</event>
<event>
12    3  0.1201947E-007  0.6487482E+03  0.7818608E-02  0.9809131E-01
          1   -1    0    0  501    0  0.00000000000E+00  0.00000000000E+00  0.13338514145E+04  0.13338514145E+04  0.00000000000E+00 0. -1.
         -2   -1    0    0    0  501 -0.00000000000E+00 -0.00000000000E+00 -0.40121808030E+03  0.40121808030E+03  0.00000000000E+00 0.  1.
        -24    2    1    2    0    0  0.48979659538E+03  0.19538980037E+03  0.74302611982E+03  0.91404080438E+03  0.72834733492E+02 0.  0.
    5000000    2    1    2    0    0 -0.48979659538E+03 -0.19538980037E+03  0.18960721436E+03  0.82102869041E+03  0.60004944446E+03 0.  0.
        -24    2    4    4    0    0 -0.60084023362E+03 -0.18268944752E+03  0.22880562198E+03  0.67315635779E+03  0.80019052790E+02 0.  0.
         24    2    4    4    0    0  0.11104363824E+03 -0.12700352851E+02 -0.39198407618E+02  0.14787233262E+03  0.88530915723E+02 0.  0.
         13    1    3    3    0    0  0.17722666007E+03  0.33628091053E+02  0.25264873376E+03  0.31043762694E+03  0.00000000000E+00 0. -1.
        -14    1    3    3    0    0  0.31256993531E+03  0.16176170932E+03  0.49037738606E+03  0.60360317744E+03  0.00000000000E+00 0.  1.
         15    1    5    5    0    0 -0.11083387786E+03 -0.33395973722E+01  0.31302149025E+02  0.11523143518E+03  0.17770000000E+01 0. -1.
        -16    1    5    5    0    0 -0.49000635576E+03 -0.17934985015E+03  0.19750347296E+03  0.55792492260E+03  0.00000000000E+00 0.  1.
          2    1    6    6  502    0  0.75523847201E+02  0.26057164429E+02 -0.49936415805E+02  0.94215035623E+02  0.00000000000E+00 0. -1.
         -1    1    6    6    0  502  0.35519791036E+02 -0.38757517281E+02  0.10738008187E+02  0.53657296995E+02  0.00000000000E+00 0.  1.
<mgrwt>
<rscale>  0 0.64874819E+03</rscale>
<asrwt>0</asrwt>
<pdfrwt beam="1">  1        1 0.20520791E+00 0.64874819E+03</pdfrwt>
<pdfrwt beam="2">  1       -2 0.61725859E-01 0.64874819E+03</pdfrwt>
<totfact> 0.19065364E+01</totfact>
</mgrwt>
</event>
<event>
12    3  0.1201947E-007  0.9666676E+03  0.7818608E-02  0.9345878E-01
         -2   -1    0    0    0  501 -0.00000000000E+00  0.00000000000E+00  0.24961045841E+04  0.24961045841E+04  0.00000000000E+00 0.  1.
          1   -1    0    0  501    0  0.00000000000E+00 -0.00000000000E+00 -0.40337680965E+03  0.40337680965E+03  0.00000000000E+00 0. -1.
        -24    2    1    2    0    0 -0.51906982749E+03 -0.71407561305E+03  0.12849846100E+04  0.15610498956E+04  0.79711114240E+02 0.  0.
    5000000    2    1    2    0    0  0.51906982749E+03  0.71407561305E+03  0.80774316439E+03  0.13384314981E+04  0.59967690339E+03 0.  0.
        -24    2    4    4    0    0 -0.12020942972E+03  0.10313750824E+03  0.16833198605E+03  0.24431564693E+03  0.79163281929E+02 0.  0.
         24    2    4    4    0    0  0.63927925721E+03  0.61093810481E+03  0.63941117834E+03  0.10941158511E+04  0.79495308886E+02 0.  0.
         11    1    3    3    0    0 -0.14491964179E+03 -0.24416803783E+03  0.45966396737E+03  0.54028760505E+03  0.00000000000E+00 0. -1.
        -12    1    3    3    0    0 -0.37415018570E+03 -0.46990757522E+03  0.82532064266E+03  0.10207622906E+04  0.00000000000E+00 0.  1.
         15    1    5    5    0    0 -0.28461471883E+02  0.74052791638E+01 -0.71163181866E+00  0.29471302823E+02  0.17770000000E+01 0. -1.
        -16    1    5    5    0    0 -0.91747957840E+02  0.95732229073E+02  0.16904361787E+03  0.21484434410E+03  0.00000000000E+00 0.  1.
          4    1    6    6  502    0  0.37251842461E+03  0.31106267189E+03  0.32206709208E+03  0.58245787342E+03  0.00000000000E+00 0. -1.
         -3    1    6    6    0  502  0.26676083260E+03  0.29987543292E+03  0.31734408626E+03  0.51165797772E+03  0.00000000000E+00 0.  1.
<mgrwt>
<rscale>  0 0.96666755E+03</rscale>
<asrwt>0</asrwt>
<pdfrwt beam="1">  1        1 0.62057972E-01 0.96666755E+03</pdfrwt>
<pdfrwt beam="2">  1       -2 0.38401608E+00 0.96666755E+03</pdfrwt>
<totfact> 0.50312876E-01</totfact>
</mgrwt>
</event>
<event>
12    3  0.1317116E-007  0.9603978E+03  0.7818608E-02  0.9353079E-01
          1   -1    0    0  501    0  0.00000000000E+00  0.00000000000E+00  0.14408921016E+04  0.14408921016E+04  0.00000000000E+00 0. -1.
         -2   -1    0    0    0  501 -0.00000000000E+00 -0.00000000000E+00 -0.69204764925E+03  0.69204764925E+03  0.00000000000E+00 0.  1.
        -24    2    1    2    0    0  0.89272365783E+03  0.15020255023E+03  0.29358079782E+03  0.95529824114E+03  0.82998248968E+02 0.  0.
    5000000    2    1    2    0    0 -0.89272365783E+03 -0.15020255023E+03  0.45526365455E+03  0.11776415097E+04  0.60004849381E+03 0.  0.
        -24    2    4    4    0    0 -0.20977251237E+03  0.13977039810E+03  0.32355852252E+03  0.41978131853E+03  0.89364236496E+02 0.  0.
         24    2    4    4    0    0 -0.68295114546E+03 -0.28997294833E+03  0.13170513203E+03  0.75786019119E+03  0.80617924425E+02 0.  0.
         11    1    3    3    0    0  0.57716938360E+03  0.64129528280E+02  0.16350598492E+03  0.60330034051E+03  0.00000000000E+00 0. -1.
        -12    1    3    3    0    0  0.31555427424E+03  0.86073021951E+02  0.13007481291E+03  0.35199790063E+03  0.00000000000E+00 0.  1.
         15    1    5    5    0    0 -0.63982810491E+02  0.94339548862E+02  0.15382659442E+03  0.19146678406E+03  0.17770000000E+01 0. -1.
        -16    1    5    5    0    0 -0.14578970188E+03  0.45430849241E+02  0.16973192809E+03  0.22831453447E+03  0.00000000000E+00 0.  1.
          4    1    6    6  502    0 -0.44747699788E+03 -0.23078219173E+03  0.92740433333E+02  0.51195397413E+03  0.00000000000E+00 0. -1.
         -3    1    6    6    0  502 -0.23547414758E+03 -0.59190756609E+02  0.38964698700E+02  0.24590621707E+03  0.00000000000E+00 0.  1.
<mgrwt>
<rscale>  0 0.96039780E+03</rscale>
<asrwt>0</asrwt>
<pdfrwt beam="1">  1        1 0.22167571E+00 0.96039780E+03</pdfrwt>
<pdfrwt beam="2">  1       -2 0.10646887E+00 0.96039780E+03</pdfrwt>
<totfact> 0.45053281E+00</totfact>
</mgrwt>
</event>
<event>
12    3  0.1201947E-007  0.1051012E+04  0.7818608E-02  0.9254300E-01
         -2   -1    0    0    0  501 -0.00000000000E+00  0.00000000000E+00  0.13587644962E+04  0.13587644962E+04  0.00000000000E+00 0.  1.
          1   -1    0    0  501    0  0.00000000000E+00 -0.00000000000E+00 -0.81604924480E+03  0.81604924480E+03  0.00000000000E+00 0. -1.
        -24    2    1    2    0    0  0.93062792314E+03 -0.25741680882E+03  0.22989695689E+03  0.99575971365E+03  0.79706033394E+02 0.  0.
    5000000    2    1    2    0    0 -0.93062792314E+03  0.25741680882E+03  0.31281829448E+03  0.11790540273E+04  0.59998447411E+03 0.  0.
        -24    2    4    4    0    0 -0.30009547569E+03  0.37846011625E+03  0.15120337215E+03  0.51227754372E+03  0.79224162504E+02 0.  0.
         24    2    4    4    0    0 -0.63053244745E+03 -0.12104330743E+03  0.16161492233E+03  0.66677648360E+03  0.79049645137E+02 0.  0.
         11    1    3    3    0    0  0.61720991103E+03 -0.20375630852E+03  0.13407559959E+03  0.66365727145E+03  0.00000000000E+00 0. -1.
        -12    1    3    3    0    0  0.31341801210E+03 -0.53660500295E+02  0.95821357291E+02  0.33210244220E+03  0.00000000000E+00 0.  1.
         15    1    5    5    0    0 -0.26144544468E+03  0.27925984337E+03  0.10921119015E+03  0.39783165089E+03  0.17770000000E+01 0. -1.
        -16    1    5    5    0    0 -0.38650031006E+02  0.99200272878E+02  0.41992182003E+02  0.11444589283E+03  0.00000000000E+00 0.  1.
          2    1    6    6  502    0 -0.24251006232E+03 -0.15828847049E+02  0.85314565663E+02  0.25756602618E+03  0.00000000000E+00 0. -1.
         -1    1    6    6    0  502 -0.38802238513E+03 -0.10521446038E+03  0.76300356669E+02  0.40921045742E+03  0.00000000000E+00 0.  1.
<mgrwt>
<rscale>  0 0.10510116E+04</rscale>
<asrwt>0</asrwt>
<pdfrwt beam="1">  1        1 0.12554604E+00 0.10510116E+04</pdfrwt>
<pdfrwt beam="2">  1       -2 0.20904069E+00 0.10510116E+04</pdfrwt>
<totfact> 0.21618656E+00</totfact>
</mgrwt>
</event>
<event>
12    3  0.1201947E-007  0.3138103E+03  0.7818608E-02  0.1078534E+00
          1   -1    0    0  501    0  0.00000000000E+00  0.00000000000E+00  0.18051776928E+04  0.18051776928E+04  0.00000000000E+00 0. -1.
         -2   -1    0    0    0  501 -0.00000000000E+00 -0.00000000000E+00 -0.21971454168E+03  0.21971454168E+03  0.00000000000E+00 0.  1.
        -24    2    1    2    0    0 -0.96602871364E+02  0.94445677003E+02  0.13613329381E+04  0.13702194755E+04  0.77601171415E+02 0.  0.
    5000000    2    1    2    0    0  0.96602871364E+02 -0.94445677003E+02  0.22413021299E+03  0.65467275904E+03  0.60009163333E+03 0.  0.
        -24    2    4    4    0    0  0.26884180964E+03  0.91421776451E+01  0.31402142082E+03  0.42122554927E+03  0.80386644407E+02 0.  0.
         24    2    4    4    0    0 -0.17223893828E+03 -0.10358785465E+03 -0.89891207831E+02  0.23344720977E+03  0.77591720002E+02 0.  0.
         13    1    3    3    0    0 -0.15557661007E+02 -0.30709061960E+01  0.43026559220E+03  0.43055772100E+03  0.00000000000E+00 0. -1.
        -14    1    3    3    0    0 -0.81045210357E+02  0.97516583199E+02  0.93106734594E+03  0.93966175446E+03  0.00000000000E+00 0.  1.
         15    1    5    5    0    0  0.25457999561E+02  0.62089677699E+01  0.77517698839E+02  0.81846272882E+02  0.17770000000E+01 0. -1.
        -16    1    5    5    0    0  0.24338381008E+03  0.29332098752E+01  0.23650372198E+03  0.33937927639E+03  0.00000000000E+00 0.  1.
          4    1    6    6  502    0 -0.16122671526E+03 -0.62759235690E+02 -0.68760716702E+02  0.18617414305E+03  0.00000000000E+00 0. -1.
         -3    1    6    6    0  502 -0.11012223020E+02 -0.40828618958E+02 -0.21130491129E+02  0.47273066721E+02  0.00000000000E+00 0.  1.
<mgrwt>
<rscale>  0 0.31381030E+03</rscale>
<asrwt>0</asrwt>
<pdfrwt beam="1">  1        1 0.27771963E+00 0.31381030E+03</pdfrwt>
<pdfrwt beam="2">  1       -2 0.33802238E-01 0.31381030E+03</pdfrwt>
<totfact> 0.32486864E+01</totfact>
</mgrwt>
</event>
<event>
12    3  0.1201947E-007  0.5057082E+03  0.7818608E-02  0.1012300E+00
         -2   -1    0    0    0  501 -0.00000000000E+00  0.00000000000E+00  0.50956280959E+03  0.50956280959E+03  0.00000000000E+00 0.  1.
          1   -1    0    0  501    0  0.00000000000E+00 -0.00000000000E+00 -0.15248080515E+04  0.15248080515E+04  0.00000000000E+00 0. -1.
        -24    2    1    2    0    0 -0.28909355318E+03 -0.19699473463E+03 -0.12503776913E+04  0.13010985922E+04  0.83852057404E+02 0.  0.
    5000000    2    1    2    0    0  0.28909355318E+03  0.19699473463E+03  0.23513244940E+03  0.73327226897E+03  0.60001578623E+03 0.  0.
        -24    2    4    4    0    0 -0.82547837210E+02 -0.13241219794E+03  0.12911944951E+03  0.21840790546E+03  0.81749895023E+02 0.  0.
         24    2    4    4    0    0  0.37164139039E+03  0.32940693257E+03  0.10601299990E+03  0.51486436351E+03  0.84972386056E+02 0.  0.
         13    1    3    3    0    0 -0.18658267098E+03 -0.11100906196E+03 -0.62703276580E+03  0.66355572060E+03  0.00000000000E+00 0. -1.
        -14    1    3    3    0    0 -0.10251088220E+03 -0.85985672670E+02 -0.62334492554E+03  0.63754287156E+03  0.00000000000E+00 0.  1.
         15    1    5    5    0    0 -0.48785293480E+02 -0.99552693794E+02  0.40499541377E+02  0.11804284935E+03  0.17770000000E+01 0. -1.
        -16    1    5    5    0    0 -0.33762543730E+02 -0.32859504145E+02  0.88619908129E+02  0.10036505611E+03  0.00000000000E+00 0.  1.
          2    1    6    6  502    0  0.20046940685E+03  0.12645764416E+03  0.68565069473E+02  0.24674012159E+03  0.00000000000E+00 0. -1.
         -1    1    6    6    0  502  0.17117198354E+03  0.20294928841E+03  0.37447930422E+02  0.26812424193E+03  0.00000000000E+00 0.  1.
<mgrwt>
<rscale>  0 0.50570824E+03</rscale>
<asrwt>0</asrwt>
<pdfrwt beam="1">  1        1 0.23458585E+00 0.50570824E+03</pdfrwt>
<pdfrwt beam="2">  1       -2 0.78394279E-01 0.50570824E+03</pdfrwt>
<totfact> 0.85940290E+00</totfact>
</mgrwt>
</event>
<event>
12    3  0.1201947E-007  0.4591763E+03  0.7818608E-02  0.1025020E+00
         -2   -1    0    0    0  501 -0.00000000000E+00  0.00000000000E+00  0.37511839832E+03  0.37511839832E+03  0.00000000000E+00 0.  1.
          1   -1    0    0  501    0  0.00000000000E+00 -0.00000000000E+00 -0.10213624284E+04  0.10213624284E+04  0.00000000000E+00 0. -1.
        -24    2    1    2    0    0  0.26297830889E+03 -0.68925816235E+02  0.18266768281E+03  0.33745391055E+03  0.81236077653E+02 0.  0.
    5000000    2    1    2    0    0 -0.26297830889E+03  0.68925816235E+02 -0.82891171285E+03  0.10590269161E+04  0.60044568636E+03 0.  0.
        -24    2    4    4    0    0 -0.27257310358E+03 -0.20738757992E+03 -0.58031734709E+03  0.67835954927E+03  0.78088089029E+02 0.  0.
         24    2    4    4    0    0  0.95947946875E+01  0.27631339616E+03 -0.24859436577E+03  0.38066736685E+03  0.81653735460E+02 0.  0.
         11    1    3    3    0    0  0.19506835377E+03 -0.13304775147E+02  0.13461536752E+03  0.23738150067E+03  0.00000000000E+00 0. -1.
        -12    1    3    3    0    0  0.67909955121E+02 -0.55621041088E+02  0.48052315290E+02  0.10007240989E+03  0.00000000000E+00 0.  1.
         15    1    5    5    0    0 -0.34358474549E+02 -0.57848066109E+02 -0.14821808273E+03  0.16278409413E+03  0.17770000000E+01 0. -1.
        -16    1    5    5    0    0 -0.23821462903E+03 -0.14953951381E+03 -0.43209926436E+03  0.51557545513E+03  0.00000000000E+00 0.  1.
          2    1    6    6  502    0  0.39874294533E+02  0.10122979132E+03 -0.74146165180E+02  0.13166276552E+03  0.00000000000E+00 0. -1.
         -1    1    6    6    0  502 -0.30279499846E+02  0.17508360484E+03 -0.17444820059E+03  0.24900460133E+03  0.00000000000E+00 0.  1.
<mgrwt>
<rscale>  0 0.45917628E+03</rscale>
<asrwt>0</asrwt>
<pdfrwt beam="1">  1        1 0.15713268E+00 0.45917628E+03</pdfrwt>
<pdfrwt beam="2">  1       -2 0.57710524E-01 0.45917628E+03</pdfrwt>
<totfact> 0.37999880E+01</totfact>
</mgrwt>
</event>
<event>
12    3  0.1201947E-007  0.1244658E+04  0.7818608E-02  0.9074641E-01
          1   -1    0    0  501    0  0.00000000000E+00  0.00000000000E+00  0.29045580529E+04  0.29045580529E+04  0.00000000000E+00 0. -1.
         -2   -1    0    0    0  501 -0.00000000000E+00 -0.00000000000E+00 -0.65572283084E+03  0.65572283084E+03  0.00000000000E+00 0.  1.
        -24    2    1    2    0    0  0.89011386143E+03  0.76350192719E+03  0.30936642975E+03  0.12157191902E+04  0.83831272984E+02 0.  0.
    5000000    2    1    2    0    0 -0.89011386143E+03 -0.76350192719E+03  0.19394687924E+04  0.23445616936E+04  0.60016036151E+03 0.  0.
        -24    2    4    4    0    0 -0.32934458851E+03 -0.65735180983E+03  0.10553853796E+04  0.12888833145E+04  0.82478111580E+02 0.  0.
         24    2    4    4    0    0 -0.56076927292E+03 -0.10615011736E+03  0.88408341272E+03  0.10556783792E+04  0.84399850122E+02 0.  0.
         13    1    3    3    0    0  0.58414866627E+03  0.49270630023E+03  0.24214155071E+03  0.80163688361E+03  0.00000000000E+00 0. -1.
        -14    1    3    3    0    0  0.30596519516E+03  0.27079562696E+03  0.67224879036E+02  0.41408230654E+03  0.00000000000E+00 0.  1.
         15    1    5    5    0    0 -0.25554630782E+03 -0.42608616215E+03  0.69309271990E+03  0.85278016460E+03  0.17770000000E+01 0. -1.
        -16    1    5    5    0    0 -0.73798280686E+02 -0.23126564768E+03  0.36229265973E+03  0.43610314986E+03  0.00000000000E+00 0.  1.
          4    1    6    6  502    0 -0.39815886187E+03 -0.35823689355E+02  0.61178805622E+03  0.73082038952E+03  0.00000000000E+00 0. -1.
         -3    1    6    6    0  502 -0.16261041105E+03 -0.70326428007E+02  0.27229535651E+03  0.32485798964E+03  0.00000000000E+00 0.  1.
<mgrwt>
<rscale>  0 0.12446580E+04</rscale>
<asrwt>0</asrwt>
<pdfrwt beam="1">  1        1 0.44685508E+00 0.12446580E+04</pdfrwt>
<pdfrwt beam="2">  1       -2 0.10088044E+00 0.12446580E+04</pdfrwt>
<totfact> 0.49048737E-01</totfact>
</mgrwt>
</event>
<event>
12    3  0.1201947E-007  0.2010478E+04  0.7818608E-02  0.8601738E-01
          1   -1    0    0  501    0  0.00000000000E+00  0.00000000000E+00  0.20691445062E+04  0.20691445062E+04  0.00000000000E+00 0. -1.
         -2   -1    0    0    0  501 -0.00000000000E+00 -0.00000000000E+00 -0.26895875390E+04  0.26895875390E+04  0.00000000000E+00 0.  1.
        -24    2    1    2    0    0  0.17537249913E+04 -0.89247449981E+03  0.93459641373E+03  0.21799439047E+04  0.81381158027E+02 0.  0.
    5000000    2    1    2    0    0 -0.17537249913E+04  0.89247449981E+03 -0.15550394466E+04  0.25787881405E+04  0.59994876052E+03 0.  0.
        -24    2    4    4    0    0 -0.66829901015E+03  0.39224729998E+02 -0.50575153246E+03  0.84289455608E+03  0.80774214247E+02 0.  0.
         24    2    4    4    0    0 -0.10854259812E+04  0.85324976981E+03 -0.10492879141E+04  0.17358935844E+04  0.78336960953E+02 0.  0.
         13    1    3    3    0    0  0.12579367032E+04 -0.66295661312E+03  0.64143914149E+03  0.15599232008E+04  0.00000000000E+00 0. -1.
        -14    1    3    3    0    0  0.49578828816E+03 -0.22951788669E+03  0.29315727223E+03  0.62002070389E+03  0.00000000000E+00 0.  1.
         15    1    5    5    0    0 -0.36848653980E+01  0.41353269215E+01  0.15921008249E+01  0.60308934484E+01  0.17770000000E+01 0. -1.
        -16    1    5    5    0    0 -0.66461414475E+03  0.35089403076E+02 -0.50734363328E+03  0.83686366264E+03  0.00000000000E+00 0.  1.
          4    1    6    6  502    0 -0.14806872593E+03  0.13573426193E+03 -0.12445100279E+03  0.23629682511E+03  0.00000000000E+00 0. -1.
         -3    1    6    6    0  502 -0.93735725525E+03  0.71751550788E+03 -0.92483691134E+03  0.14995967593E+04  0.00000000000E+00 0.  1.
<mgrwt>
<rscale>  0 0.20104778E+04</rscale>
<asrwt>0</asrwt>
<pdfrwt beam="1">  1        1 0.31832993E+00 0.20104778E+04</pdfrwt>
<pdfrwt beam="2">  1       -2 0.41378270E+00 0.20104778E+04</pdfrwt>
<totfact> 0.12489952E-02</totfact>
</mgrwt>
</event>
<event>
12    3  0.1201947E-007  0.6758919E+03  0.7818608E-02  0.9759372E-01
         -4   -1    0    0    0  501 -0.00000000000E+00  0.00000000000E+00  0.18067315305E+04  0.18067315305E+04  0.00000000000E+00 0.  1.
          3   -1    0    0  501    0  0.00000000000E+00 -0.00000000000E+00 -0.39282835645E+03  0.39282835645E+03  0.00000000000E+00 0. -1.
        -24    2    1    2    0    0  0.13292922687E+03  0.60268897281E+03  0.10113333755E+03  0.62980368511E+03  0.74300420677E+02 0.  0.
    5000000    2    1    2    0    0 -0.13292922687E+03 -0.60268897281E+03  0.13127698365E+04  0.15697562019E+04  0.59988808313E+03 0.  0.
        -24    2    4    4    0    0  0.12261006319E+03 -0.12512724320E+03  0.57331631937E+02  0.20036545197E+03  0.78545170031E+02 0.  0.
         24    2    4    4    0    0 -0.25553929007E+03 -0.47756172961E+03  0.12554382046E+04  0.13693907499E+04  0.75765467003E+02 0.  0.
         11    1    3    3    0    0  0.16724212012E+02  0.24419275467E+03  0.38432364193E+02  0.24776369250E+03  0.00000000000E+00 0. -1.
        -12    1    3    3    0    0  0.11620501486E+03  0.35849621814E+03  0.62700973356E+02  0.38203999261E+03  0.00000000000E+00 0.  1.
         15    1    5    5    0    0  0.24711894693E+02 -0.66527044035E+02 -0.34776238036E+01  0.71075853309E+02  0.17770000000E+01 0. -1.
        -16    1    5    5    0    0  0.97898168502E+02 -0.58600199165E+02  0.60809255741E+02  0.12928959866E+03  0.00000000000E+00 0.  1.
          2    1    6    6  502    0 -0.61422259255E+02 -0.66766281011E+02  0.25360262063E+03  0.26934126940E+03  0.00000000000E+00 0. -1.
         -1    1    6    6    0  502 -0.19411703081E+03 -0.41079544860E+03  0.10018355840E+04  0.11000494805E+04  0.00000000000E+00 0.  1.
<mgrwt>
<rscale>  0 0.67589193E+03</rscale>
<asrwt>0</asrwt>
<pdfrwt beam="1">  1        3 0.60435132E-01 0.67589193E+03</pdfrwt>
<pdfrwt beam="2">  1       -4 0.27795869E+00 0.67589193E+03</pdfrwt>
<totfact> 0.26282870E-01</totfact>
</mgrwt>
</event>
<event>
12    3  0.1201947E-007  0.4252955E+03  0.7818608E-02  0.1035356E+00
         -2   -1    0    0    0  501 -0.00000000000E+00  0.00000000000E+00  0.13456962232E+04  0.13456962232E+04  0.00000000000E+00 0.  1.
          1   -1    0    0  501    0  0.00000000000E+00 -0.00000000000E+00 -0.17949876598E+03  0.17949876598E+03  0.00000000000E+00 0. -1.
        -24    2    1    2    0    0  0.11493603524E+03 -0.18958512549E+03  0.68588410142E+03  0.72531190103E+03  0.80545274126E+02 0.  0.
    5000000    2    1    2    0    0 -0.11493603524E+03  0.18958512549E+03  0.48031335584E+03  0.79988308819E+03  0.59996601818E+03 0.  0.
        -24    2    4    4    0    0  0.21469713499E+03 -0.36914786236E+02  0.17381464823E+03  0.28986874567E+03  0.79716977874E+02 0.  0.
         24    2    4    4    0    0 -0.32963317023E+03  0.22649991173E+03  0.30649870761E+03  0.51001434252E+03  0.78822172516E+02 0.  0.
         11    1    3    3    0    0  0.52397687752E+02 -0.97328148436E+02  0.21907580672E+03  0.24538234502E+03  0.00000000000E+00 0. -1.
        -12    1    3    3    0    0  0.62538347486E+02 -0.92256977055E+02  0.46680829471E+03  0.47992955601E+03  0.00000000000E+00 0.  1.
         15    1    5    5    0    0  0.12627576151E+03 -0.56056351106E+02  0.80556606943E+02  0.15993876046E+03  0.17770000000E+01 0. -1.
        -16    1    5    5    0    0  0.88421373481E+02  0.19141564870E+02  0.93258041284E+02  0.12992998522E+03  0.00000000000E+00 0.  1.
          4    1    6    6  502    0 -0.67343252231E+02  0.47560574269E+02  0.26281273702E+02  0.86532232106E+02  0.00000000000E+00 0. -1.
         -1    1    6    6    0  502 -0.26228991800E+03  0.17893933746E+03  0.28021743391E+03  0.42348211041E+03  0.00000000000E+00 0.  1.
<mgrwt>
<rscale>  0 0.42529546E+03</rscale>
<asrwt>0</asrwt>
<pdfrwt beam="1">  1        1 0.27615196E-01 0.42529546E+03</pdfrwt>
<pdfrwt beam="2">  1       -2 0.20703018E+00 0.42529546E+03</pdfrwt>
<totfact> 0.18886983E+01</totfact>
</mgrwt>
</event>
<event>
12    3  0.1201947E-007  0.3459011E+03  0.7818608E-02  0.1064310E+00
         -2   -1    0    0    0  501 -0.00000000000E+00  0.00000000000E+00  0.58935707112E+03  0.58935707112E+03  0.00000000000E+00 0.  1.
          1   -1    0    0  501    0  0.00000000000E+00 -0.00000000000E+00 -0.56029876428E+03  0.56029876428E+03  0.00000000000E+00 0. -1.
        -24    2    1    2    0    0 -0.69603646737E+02  0.26642009200E+03 -0.29784170769E+03  0.41297240013E+03  0.77538296151E+02 0.  0.
    5000000    2    1    2    0    0  0.69603646737E+02 -0.26642009200E+03  0.32690001453E+03  0.73668343527E+03  0.60001210924E+03 0.  0.
        -24    2    4    4    0    0 -0.36696876436E+02 -0.28406579950E+03 -0.79726450423E+02  0.30813238845E+03  0.80927268111E+02 0.  0.
         24    2    4    4    0    0  0.10630052317E+03  0.17645707501E+02  0.40662646496E+03  0.42855104683E+03  0.81851973181E+02 0.  0.
         11    1    3    3    0    0 -0.73237785341E+01  0.35791137081E+02 -0.86949948102E+02  0.94312972069E+02  0.00000000000E+00 0. -1.
        -12    1    3    3    0    0 -0.62279868203E+02  0.23062895492E+03 -0.21089175958E+03  0.31865942806E+03  0.00000000000E+00 0.  1.
         15    1    5    5    0    0 -0.34355642836E+02 -0.15208604861E+03 -0.81869855370E+02  0.17611447222E+03  0.17770000000E+01 0. -1.
        -16    1    5    5    0    0 -0.23412335999E+01 -0.13197975090E+03  0.21434049469E+01  0.13201791623E+03  0.00000000000E+00 0.  1.
          2    1    6    6  502    0  0.46512216214E+02  0.43154042646E+02  0.13370653085E+03  0.14799693932E+03  0.00000000000E+00 0. -1.
         -1    1    6    6    0  502  0.59788306959E+02 -0.25508335145E+02  0.27291993410E+03  0.28055410751E+03  0.00000000000E+00 0.  1.
<mgrwt>
<rscale>  0 0.34590111E+03</rscale>
<asrwt>0</asrwt>
<pdfrwt beam="1">  1        1 0.86199810E-01 0.34590111E+03</pdfrwt>
<pdfrwt beam="2">  1       -2 0.90670319E-01 0.34590111E+03</pdfrwt>
<totfact> 0.36560490E+01</totfact>
</mgrwt>
</event>
<event>
12    3  0.1201947E-007  0.1060814E+04  0.7818608E-02  0.9244250E-01
          1   -1    0    0  501    0  0.00000000000E+00  0.00000000000E+00  0.21907375679E+04  0.21907375679E+04  0.00000000000E+00 0. -1.
         -2   -1    0    0    0  501 -0.00000000000E+00 -0.00000000000E+00 -0.63527640722E+03  0.63527640722E+03  0.00000000000E+00 0.  1.
        -24    2    1    2    0    0  0.85808700614E+02  0.10367877511E+04  0.29326289106E+03  0.10837864829E+04  0.79360211931E+02 0.  0.
    5000000    2    1    2    0    0 -0.85808700614E+02 -0.10367877511E+04  0.12621982697E+04  0.17422274923E+04  0.59993348725E+03 0.  0.
        -24    2    4    4    0    0  0.62939102554E+02 -0.66229455625E+03  0.11212297884E+04  0.13061880883E+04  0.79847815833E+02 0.  0.
         24    2    4    4    0    0 -0.14874780317E+03 -0.37449319484E+03  0.14096848125E+03  0.43603940403E+03  0.88809837467E+02 0.  0.
         13    1    3    3    0    0 -0.83579653517E+01  0.30294850438E+03  0.71060730520E+02  0.31128327824E+03  0.00000000000E+00 0. -1.
        -14    1    3    3    0    0  0.94166665966E+02  0.73383924671E+03  0.22220216054E+03  0.77250320461E+03  0.00000000000E+00 0.  1.
         15    1    5    5    0    0  0.98316986491E+01 -0.37122307390E+03  0.68296452750E+03  0.77739754080E+03  0.17770000000E+01 0. -1.
        -16    1    5    5    0    0  0.53107403904E+02 -0.29107148235E+03  0.43826526091E+03  0.52879054749E+03  0.00000000000E+00 0.  1.
          4    1    6    6  502    0 -0.15565559584E+03 -0.31274639510E+03  0.13109141809E+03  0.37312723307E+03  0.00000000000E+00 0. -1.
         -3    1    6    6    0  502  0.69077926700E+01 -0.61746799737E+02  0.98770631589E+01  0.62912170953E+02  0.00000000000E+00 0.  1.
<mgrwt>
<rscale>  0 0.10608135E+04</rscale>
<asrwt>0</asrwt>
<pdfrwt beam="1">  1        1 0.33703655E+00 0.10608135E+04</pdfrwt>
<pdfrwt beam="2">  1       -2 0.97734833E-01 0.10608135E+04</pdfrwt>
<totfact> 0.16928208E+00</totfact>
</mgrwt>
</event>
<event>
12    3  0.1201947E-007  0.4658110E+03  0.7818608E-02  0.1023109E+00
         -4   -1    0    0    0  501 -0.00000000000E+00  0.00000000000E+00  0.54892009720E+02  0.54892009720E+02  0.00000000000E+00 0.  1.
          1   -1    0    0  501    0  0.00000000000E+00 -0.00000000000E+00 -0.42916856458E+04  0.42916856458E+04  0.00000000000E+00 0. -1.
        -24    2    1    2    0    0 -0.28467454831E+03 -0.58452040795E+02 -0.14704720723E+04  0.15010582548E+04  0.80196817622E+02 0.  0.
    5000000    2    1    2    0    0  0.28467454831E+03  0.58452040795E+02 -0.27663215639E+04  0.28455194007E+04  0.59999118806E+03 0.  0.
        -24    2    4    4    0    0  0.14868882017E+03  0.30657717702E+03 -0.17944912376E+04  0.18282606692E+04  0.78995835603E+02 0.  0.
         24    2    4    4    0    0  0.13598572814E+03 -0.24812513623E+03 -0.97183032624E+03  0.10172587315E+04  0.10150341048E+03 0.  0.
         11    1    3    3    0    0 -0.22104183470E+03 -0.74026614474E+02 -0.10544152410E+04  0.10798754247E+04  0.00000000000E+00 0. -1.
        -12    1    3    3    0    0 -0.63632713610E+02  0.15574573679E+02 -0.41605683122E+03  0.42118283012E+03  0.00000000000E+00 0.  1.
         15    1    5    5    0    0  0.10459782685E+03  0.13572883107E+03 -0.78772390939E+03  0.80614833382E+03  0.17770000000E+01 0. -1.
        -16    1    5    5    0    0  0.44090993312E+02  0.17084834595E+03 -0.10067673282E+04  0.10221123354E+04  0.00000000000E+00 0.  1.
          2    1    6    6  502    0  0.11489075191E+03 -0.17712463495E+03 -0.55302387990E+03  0.59195306648E+03  0.00000000000E+00 0. -1.
         -1    1    6    6    0  502  0.21094976232E+02 -0.71000501278E+02 -0.41880644634E+03  0.42530566502E+03  0.00000000000E+00 0.  1.
<mgrwt>
<rscale>  0 0.46581100E+03</rscale>
<asrwt>0</asrwt>
<pdfrwt beam="1">  1        1 0.66025924E+00 0.46581100E+03</pdfrwt>
<pdfrwt beam="2">  1       -4 0.84449258E-02 0.46581100E+03</pdfrwt>
<totfact> 0.32005270E+00</totfact>
</mgrwt>
</event>
<event>
12    3  0.1201947E-007  0.5570123E+03  0.7818608E-02  0.9998838E-01
          1   -1    0    0  501    0  0.00000000000E+00  0.00000000000E+00  0.34393467286E+03  0.34393467286E+03  0.00000000000E+00 0. -1.
         -2   -1    0    0    0  501 -0.00000000000E+00 -0.00000000000E+00 -0.11892119055E+04  0.11892119055E+04  0.00000000000E+00 0.  1.
        -24    2    1    2    0    0  0.32765672244E+03 -0.36984427516E+03 -0.33009466178E+03  0.60038150122E+03  0.85742321161E+02 0.  0.
    5000000    2    1    2    0    0 -0.32765672244E+03  0.36984427516E+03 -0.51518257085E+03  0.93276507713E+03  0.60041143575E+03 0.  0.
        -24    2    4    4    0    0 -0.21886138215E+03  0.42356880804E+03 -0.59568118761E+03  0.76707978762E+03  0.79148490560E+02 0.  0.
         24    2    4    4    0    0 -0.10879534030E+03 -0.53724532884E+02  0.80498616764E+02  0.16568528951E+03  0.79049581628E+02 0.  0.
         13    1    3    3    0    0  0.26864818889E+03 -0.33811482708E+03 -0.26336136622E+03  0.50581883604E+03  0.00000000000E+00 0. -1.
        -14    1    3    3    0    0  0.59008533558E+02 -0.31729448085E+02 -0.66733295562E+02  0.94562665175E+02  0.00000000000E+00 0.  1.
         15    1    5    5    0    0 -0.13903698627E+03  0.24390896837E+03 -0.40811069032E+03  0.49535882114E+03  0.17770000000E+01 0. -1.
        -16    1    5    5    0    0 -0.79824395880E+02  0.17965983968E+03 -0.18757049730E+03  0.27172096648E+03  0.00000000000E+00 0.  1.
          2    1    6    6  502    0 -0.65744356376E+02 -0.65896315540E+02  0.29064011786E+02  0.97515955506E+02  0.00000000000E+00 0. -1.
         -1    1    6    6    0  502 -0.43050983920E+02  0.12171782656E+02  0.51434604978E+02  0.68169334006E+02  0.00000000000E+00 0.  1.
<mgrwt>
<rscale>  0 0.55701226E+03</rscale>
<asrwt>0</asrwt>
<pdfrwt beam="1">  1        1 0.52913026E-01 0.55701226E+03</pdfrwt>
<pdfrwt beam="2">  1       -2 0.18295568E+00 0.55701226E+03</pdfrwt>
<totfact> 0.11554392E+01</totfact>
</mgrwt>
</event>
<event>
12    3  0.1201947E-007  0.1189209E+04  0.7818608E-02  0.9122355E-01
          1   -1    0    0  501    0  0.00000000000E+00  0.00000000000E+00  0.95258547716E+03  0.95258547716E+03  0.00000000000E+00 0. -1.
         -2   -1    0    0    0  501 -0.00000000000E+00 -0.00000000000E+00 -0.17336854642E+04  0.17336854642E+04  0.00000000000E+00 0.  1.
        -24    2    1    2    0    0 -0.89458733678E+03  0.77228389553E+03 -0.81332465275E+02  0.11872986029E+04  0.79712509619E+02 0.  0.
    5000000    2    1    2    0    0  0.89458733678E+03 -0.77228389553E+03 -0.69976752178E+03  0.14989723384E+04  0.60044530843E+03 0.  0.
        -24    2    4    4    0    0  0.72913112472E+03 -0.59287083196E+03 -0.78683306957E+03  0.12288882367E+04  0.89061767576E+02 0.  0.
         24    2    4    4    0    0  0.16545621206E+03 -0.17941306358E+03  0.87065547798E+02  0.27008410175E+03  0.76159089504E+02 0.  0.
         13    1    3    3    0    0 -0.37178906783E+03  0.27948020220E+03 -0.89043467562E+01  0.46520488150E+03  0.00000000000E+00 0. -1.
        -14    1    3    3    0    0 -0.52279826895E+03  0.49280369334E+03 -0.72428118519E+02  0.72209372144E+03  0.00000000000E+00 0.  1.
         15    1    5    5    0    0  0.22037717961E+03 -0.12847788633E+03 -0.20854372496E+03  0.32949402350E+03  0.17770000000E+01 0. -1.
        -16    1    5    5    0    0  0.50875394512E+03 -0.46439294562E+03 -0.57828934461E+03  0.89939421318E+03  0.00000000000E+00 0.  1.
          2    1    6    6  502    0  0.68373426736E+02 -0.11695432193E+03  0.72718402985E+02  0.15375696743E+03  0.00000000000E+00 0. -1.
         -1    1    6    6    0  502  0.97082785324E+02 -0.62458741650E+02  0.14347144813E+02  0.11632713432E+03  0.00000000000E+00 0.  1.
<mgrwt>
<rscale>  0 0.11892090E+04</rscale>
<asrwt>0</asrwt>
<pdfrwt beam="1">  1        1 0.14655161E+00 0.11892090E+04</pdfrwt>
<pdfrwt beam="2">  1       -2 0.26672084E+00 0.11892090E+04</pdfrwt>
<totfact> 0.71920963E-01</totfact>
</mgrwt>
</event>
<event>
12    3  0.1201947E-007  0.8160927E+03  0.7818608E-02  0.9537011E-01
          1   -1    0    0  501    0  0.00000000000E+00  0.00000000000E+00  0.17025139815E+04  0.17025139815E+04  0.00000000000E+00 0. -1.
         -4   -1    0    0    0  501 -0.00000000000E+00 -0.00000000000E+00 -0.49436156795E+03  0.49436156795E+03  0.00000000000E+00 0.  1.
        -24    2    1    2    0    0  0.67144337850E+03 -0.41457148326E+03  0.79491519880E+03  0.11229117229E+04  0.79591700882E+02 0.  0.
    5000000    2    1    2    0    0 -0.67144337850E+03  0.41457148326E+03  0.41323721471E+03  0.10739638265E+04  0.59993964679E+03 0.  0.
        -24    2    4    4    0    0 -0.11338046195E+03  0.19357553347E+03 -0.11963408246E+03  0.26752118518E+03  0.83238539882E+02 0.  0.
         24    2    4    4    0    0 -0.55806291656E+03  0.22099594979E+03  0.53287129717E+03  0.80644264135E+03  0.78259093917E+02 0.  0.
         11    1    3    3    0    0  0.14455279303E+03 -0.55338054723E+02  0.13780224671E+03  0.20723722994E+03  0.00000000000E+00 0. -1.
        -12    1    3    3    0    0  0.52689058547E+03 -0.35923342854E+03  0.65711295208E+03  0.91567449295E+03  0.00000000000E+00 0.  1.
         15    1    5    5    0    0 -0.21768189438E+02  0.11123309379E+03 -0.77574267073E+02  0.13735930935E+03  0.17770000000E+01 0. -1.
        -16    1    5    5    0    0 -0.91612272509E+02  0.82342439685E+02 -0.42059815387E+02  0.13016187582E+03  0.00000000000E+00 0.  1.
          2    1    6    6  502    0 -0.44675646010E+03  0.15055770445E+03  0.44349515719E+03  0.64726108446E+03  0.00000000000E+00 0. -1.
         -1    1    6    6    0  502 -0.11130645646E+03  0.70438245333E+02  0.89376139981E+02  0.15918155689E+03  0.00000000000E+00 0.  1.
<mgrwt>
<rscale>  0 0.81609273E+03</rscale>
<asrwt>0</asrwt>
<pdfrwt beam="1">  1        1 0.26192523E+00 0.81609273E+03</pdfrwt>
<pdfrwt beam="2">  1       -4 0.76055627E-01 0.81609273E+03</pdfrwt>
<totfact> 0.36302426E+00</totfact>
</mgrwt>
</event>
<event>
12    3  0.1201947E-007  0.1396183E+04  0.7818608E-02  0.8956586E-01
         -2   -1    0    0    0  501 -0.00000000000E+00  0.00000000000E+00  0.80687929473E+03  0.80687929473E+03  0.00000000000E+00 0.  1.
          1   -1    0    0  501    0  0.00000000000E+00 -0.00000000000E+00 -0.29773542963E+04  0.29773542963E+04  0.00000000000E+00 0. -1.
        -24    2    1    2    0    0 -0.21015963197E+03  0.13686782590E+04 -0.17194196536E+04  0.22091153618E+04  0.79620909529E+02 0.  0.
    5000000    2    1    2    0    0  0.21015963197E+03 -0.13686782590E+04 -0.45105534802E+03  0.15751182292E+04  0.60008271212E+03 0.  0.
        -24    2    4    4    0    0  0.19027568329E+03 -0.51910551108E+03  0.88160069068E+02  0.56543245923E+03  0.79159970234E+02 0.  0.
         24    2    4    4    0    0  0.19883948683E+02 -0.84957274794E+03 -0.53921541709E+03  0.10096857700E+04  0.80887963344E+02 0.  0.
         13    1    3    3    0    0 -0.39679453678E+02  0.18775616667E+03 -0.28036927048E+03  0.33975544881E+03  0.00000000000E+00 0. -1.
        -14    1    3    3    0    0 -0.17048017830E+03  0.11809220923E+04 -0.14390503831E+04  0.18693599130E+04  0.00000000000E+00 0.  1.
         15    1    5    5    0    0  0.56416110901E+01 -0.91807776211E+02  0.27466145107E+02  0.96010636935E+02  0.17770000000E+01 0. -1.
        -16    1    5    5    0    0  0.18463407220E+03 -0.42729773486E+03  0.60693923961E+02  0.46942182229E+03  0.00000000000E+00 0.  1.
          2    1    6    6  502    0  0.64787325197E+01 -0.19348802792E+03 -0.16428814863E+03  0.25390980033E+03  0.00000000000E+00 0. -1.
         -1    1    6    6    0  502  0.13405216164E+02 -0.65608472002E+03 -0.37492726846E+03  0.75577596965E+03  0.00000000000E+00 0.  1.
<mgrwt>
<rscale>  0 0.13961825E+04</rscale>
<asrwt>0</asrwt>
<pdfrwt beam="1">  1        1 0.45805450E+00 0.13961825E+04</pdfrwt>
<pdfrwt beam="2">  1       -2 0.12413528E+00 0.13961825E+04</pdfrwt>
<totfact> 0.25632243E-01</totfact>
</mgrwt>
</event>
<event>
12    3  0.1201947E-007  0.5080463E+03  0.7818608E-02  0.1011700E+00
         -2   -1    0    0    0  501 -0.00000000000E+00  0.00000000000E+00  0.44533967478E+03  0.44533967478E+03  0.00000000000E+00 0.  1.
          1   -1    0    0  501    0  0.00000000000E+00 -0.00000000000E+00 -0.59188278682E+03  0.59188278682E+03  0.00000000000E+00 0. -1.
        -24    2    1    2    0    0  0.32851773455E+03  0.43407330221E+02 -0.65503943240E+02  0.34698747095E+03  0.79381611121E+02 0.  0.
    5000000    2    1    2    0    0 -0.32851773455E+03 -0.43407330221E+02 -0.81039168805E+02  0.69023499066E+03  0.60004074629E+03 0.  0.
        -24    2    4    4    0    0 -0.15113535819E+03 -0.31071663679E+03 -0.48931230433E+02  0.35806455432E+03  0.80182509757E+02 0.  0.
         24    2    4    4    0    0 -0.17738237636E+03  0.26730930657E+03 -0.32107938372E+02  0.33217043634E+03  0.79921875904E+02 0.  0.
         11    1    3    3    0    0  0.73300095828E+02  0.16834665709E+02 -0.49201898880E+02  0.89872892862E+02  0.00000000000E+00 0. -1.
        -12    1    3    3    0    0  0.25521763872E+03  0.26572664513E+02 -0.16302044359E+02  0.25711457809E+03  0.00000000000E+00 0.  1.
         15    1    5    5    0    0 -0.13860620779E+03 -0.20386172506E+03 -0.24505334508E+02  0.24773968784E+03  0.17770000000E+01 0. -1.
        -16    1    5    5    0    0 -0.12529150400E+02 -0.10685491174E+03 -0.24425895924E+02  0.11032486648E+03  0.00000000000E+00 0.  1.
          4    1    6    6  502    0 -0.15454009084E+03  0.16798301859E+03 -0.14267328065E+02  0.22870175089E+03  0.00000000000E+00 0. -1.
         -3    1    6    6    0  502 -0.22842285520E+02  0.99326287978E+02 -0.17840610307E+02  0.10346868544E+03  0.00000000000E+00 0.  1.
<mgrwt>
<rscale>  0 0.50804633E+03</rscale>
<asrwt>0</asrwt>
<pdfrwt beam="1">  1        1 0.91058889E-01 0.50804633E+03</pdfrwt>
<pdfrwt beam="2">  1       -2 0.68513797E-01 0.50804633E+03</pdfrwt>
<totfact> 0.61823070E+01</totfact>
</mgrwt>
</event>
<event>
12    3  0.1201947E-007  0.4990809E+03  0.7818608E-02  0.1014019E+00
          1   -1    0    0  501    0  0.00000000000E+00  0.00000000000E+00  0.22665089362E+04  0.22665089362E+04  0.00000000000E+00 0. -1.
         -2   -1    0    0    0  501 -0.00000000000E+00 -0.00000000000E+00 -0.85283105338E+03  0.85283105338E+03  0.00000000000E+00 0.  1.
        -24    2    1    2    0    0 -0.31910323186E+03 -0.29869751663E+03  0.20768461608E+04  0.21239227632E+04  0.81919772058E+02 0.  0.
    5000000    2    1    2    0    0  0.31910323186E+03  0.29869751663E+03 -0.66316827804E+03  0.99541722641E+03  0.60001350870E+03 0.  0.
        -24    2    4    4    0    0  0.56213117220E+02 -0.80233890803E+02 -0.47415769113E+03  0.49080310870E+03  0.80403878478E+02 0.  0.
         24    2    4    4    0    0  0.26289011464E+03  0.37893140743E+03 -0.18901058691E+03  0.50461411771E+03  0.78804707459E+02 0.  0.
         11    1    3    3    0    0 -0.14876158266E+03 -0.14244300180E+03  0.78560492996E+03  0.81215461780E+03  0.00000000000E+00 0. -1.
        -12    1    3    3    0    0 -0.17034164920E+03 -0.15625451482E+03  0.12912412309E+04  0.13117681454E+04  0.00000000000E+00 0.  1.
         15    1    5    5    0    0  0.16160993051E+02 -0.33960332353E+02 -0.35362153024E+03  0.35562034004E+03  0.17770000000E+01 0. -1.
        -16    1    5    5    0    0  0.40052124169E+02 -0.46273558451E+02 -0.12053616089E+03  0.13518276866E+03  0.00000000000E+00 0.  1.
          2    1    6    6  502    0  0.10761566796E+03  0.12944529026E+03 -0.10722519330E+03  0.19958571401E+03  0.00000000000E+00 0. -1.
         -1    1    6    6    0  502  0.15527444668E+03  0.24948611717E+03 -0.81785393604E+02  0.30502840370E+03  0.00000000000E+00 0.  1.
<mgrwt>
<rscale>  0 0.49908094E+03</rscale>
<asrwt>0</asrwt>
<pdfrwt beam="1">  1        1 0.34869368E+00 0.49908094E+03</pdfrwt>
<pdfrwt beam="2">  1       -2 0.13120478E+00 0.49908094E+03</pdfrwt>
<totfact> 0.81895416E-01</totfact>
</mgrwt>
</event>
<event>
12    3  0.1201947E-007  0.6512015E+03  0.7818608E-02  0.9804527E-01
          1   -1    0    0  501    0  0.00000000000E+00  0.00000000000E+00  0.89165349279E+03  0.89165349279E+03  0.00000000000E+00 0. -1.
         -2   -1    0    0    0  501 -0.00000000000E+00 -0.00000000000E+00 -0.63414090175E+03  0.63414090175E+03  0.00000000000E+00 0.  1.
        -24    2    1    2    0    0  0.46686740409E+03 -0.35701934776E+03 -0.12067150307E+03  0.60499896725E+03  0.77679798185E+02 0.  0.
    5000000    2    1    2    0    0 -0.46686740409E+03  0.35701934776E+03  0.37818409411E+03  0.92079542729E+03  0.59951065229E+03 0.  0.
        -24    2    4    4    0    0 -0.44389442976E+03  0.12847897564E+03 -0.24089448661E+01  0.46911833526E+03  0.80728542079E+02 0.  0.
         24    2    4    4    0    0 -0.22972974323E+02  0.22854037212E+03  0.38059303898E+03  0.45167709203E+03  0.80016716460E+02 0.  0.
         11    1    3    3    0    0  0.19968958781E+03 -0.11397652951E+03 -0.24488819806E+02  0.23122777311E+03  0.00000000000E+00 0. -1.
        -12    1    3    3    0    0  0.26717781627E+03 -0.24304281825E+03 -0.96182683262E+02  0.37377119414E+03  0.00000000000E+00 0.  1.
         15    1    5    5    0    0 -0.31334886305E+03  0.53431255339E+02 -0.13214758850E+02  0.31815121657E+03  0.17770000000E+01 0. -1.
        -16    1    5    5    0    0 -0.13054556671E+03  0.75047720303E+02  0.10805813984E+02  0.15096711869E+03  0.00000000000E+00 0.  1.
          2    1    6    6  502    0  0.20608172652E+02  0.16192017949E+03  0.26769805257E+03  0.31353642318E+03  0.00000000000E+00 0. -1.
         -1    1    6    6    0  502 -0.43581146975E+02  0.66620192626E+02  0.11289498640E+03  0.13814066886E+03  0.00000000000E+00 0.  1.
<mgrwt>
<rscale>  0 0.65120148E+03</rscale>
<asrwt>0</asrwt>
<pdfrwt beam="1">  1        1 0.13717746E+00 0.65120148E+03</pdfrwt>
<pdfrwt beam="2">  1       -2 0.97560139E-01 0.65120148E+03</pdfrwt>
<totfact> 0.14671219E+01</totfact>
</mgrwt>
</event>
<event>
12    3  0.1201947E-007  0.6602223E+03  0.7818608E-02  0.9787785E-01
          1   -1    0    0  501    0  0.00000000000E+00  0.00000000000E+00  0.21115818934E+04  0.21115818934E+04  0.00000000000E+00 0. -1.
         -2   -1    0    0    0  501 -0.00000000000E+00 -0.00000000000E+00 -0.20968912985E+03  0.20968912985E+03  0.00000000000E+00 0.  1.
        -24    2    1    2    0    0  0.13820085310E+02  0.52624619348E+03  0.76275428185E+03  0.93022587333E+03  0.80000187594E+02 0.  0.
    5000000    2    1    2    0    0 -0.13820085310E+02 -0.52624619348E+03  0.11391384817E+04  0.13910451499E+04  0.60020336364E+03 0.  0.
        -24    2    4    4    0    0  0.18246921391E+03 -0.55225525920E+03  0.77103530512E+03  0.96911302164E+03  0.80023256787E+02 0.  0.
         24    2    4    4    0    0 -0.19628929922E+03  0.26009065721E+02  0.36810317656E+03  0.42193212827E+03  0.57626485104E+02 0.  0.
         13    1    3    3    0    0  0.43884620151E+02  0.23236139184E+03  0.36084314960E+03  0.43142259435E+03  0.00000000000E+00 0. -1.
        -14    1    3    3    0    0 -0.30064534841E+02  0.29388480163E+03  0.40191113226E+03  0.49880327898E+03  0.00000000000E+00 0.  1.
         15    1    5    5    0    0  0.13391529595E+02 -0.51674289492E+01  0.17902833829E+02  0.23015311750E+02  0.17770000000E+01 0. -1.
        -16    1    5    5    0    0  0.16907768431E+03 -0.54708783025E+03  0.75313247129E+03  0.94609770989E+03  0.00000000000E+00 0.  1.
          2    1    6    6  502    0 -0.13163065108E+03  0.34972998072E+02  0.20363740252E+03  0.24498557224E+03  0.00000000000E+00 0. -1.
         -1    1    6    6    0  502 -0.64658648136E+02 -0.89639323505E+01  0.16446577403E+03  0.17694655603E+03  0.00000000000E+00 0.  1.
<mgrwt>
<rscale>  0 0.66022232E+03</rscale>
<asrwt>0</asrwt>
<pdfrwt beam="1">  1        1 0.32485874E+00 0.66022232E+03</pdfrwt>
<pdfrwt beam="2">  1       -2 0.32259868E-01 0.66022232E+03</pdfrwt>
<totfact> 0.20702409E+01</totfact>
</mgrwt>
</event>
<event>
12    3  0.1201947E-007  0.5501436E+03  0.7818608E-02  0.1001461E+00
          1   -1    0    0  501    0  0.00000000000E+00  0.00000000000E+00  0.30679011852E+03  0.30679011852E+03  0.00000000000E+00 0. -1.
         -2   -1    0    0    0  501 -0.00000000000E+00 -0.00000000000E+00 -0.10246584921E+04  0.10246584921E+04  0.00000000000E+00 0.  1.
        -24    2    1    2    0    0 -0.10493693255E+03 -0.37596256202E+03 -0.33102873169E+03  0.51779164619E+03  0.78540179575E+02 0.  0.
    5000000    2    1    2    0    0  0.10493693255E+03  0.37596256202E+03 -0.38683964189E+03  0.81365696442E+03  0.60002761550E+03 0.  0.
        -24    2    4    4    0    0  0.23577815312E+02 -0.15176810866E+03 -0.62018211162E+02  0.18372020931E+03  0.79481976652E+02 0.  0.
         24    2    4    4    0    0  0.81359117239E+02  0.52773067068E+03 -0.32482143072E+03  0.62993675511E+03  0.78691720303E+02 0.  0.
         13    1    3    3    0    0 -0.29159385715E+02 -0.11348489776E+03 -0.55043964948E+02  0.12945628557E+03  0.00000000000E+00 0. -1.
        -14    1    3    3    0    0 -0.75777546836E+02 -0.26247766426E+03 -0.27598476674E+03  0.38833536063E+03  0.00000000000E+00 0.  1.
         15    1    5    5    0    0 -0.20375677071E+02 -0.11109519815E+03 -0.37718657995E+02  0.11909309870E+03  0.17770000000E+01 0. -1.
        -16    1    5    5    0    0  0.43953492382E+02 -0.40672910514E+02 -0.24299553167E+02  0.64627110615E+02  0.00000000000E+00 0.  1.
          4    1    6    6  502    0  0.85955523520E+01  0.24425998836E+03 -0.11685101296E+03  0.27090770507E+03  0.00000000000E+00 0. -1.
         -3    1    6    6    0  502  0.72763564887E+02  0.28347068232E+03 -0.20797041776E+03  0.35902905004E+03  0.00000000000E+00 0.  1.
<mgrwt>
<rscale>  0 0.55014363E+03</rscale>
<asrwt>0</asrwt>
<pdfrwt beam="1">  1        1 0.47198479E-01 0.55014363E+03</pdfrwt>
<pdfrwt beam="2">  1       -2 0.15763977E+00 0.55014363E+03</pdfrwt>
<totfact> 0.20214252E+01</totfact>
</mgrwt>
</event>
<event>
12    3  0.1201947E-007  0.2028593E+04  0.7818608E-02  0.8593368E-01
         -2   -1    0    0    0  501 -0.00000000000E+00  0.00000000000E+00  0.17431511089E+04  0.17431511089E+04  0.00000000000E+00 0.  1.
          1   -1    0    0  501    0  0.00000000000E+00 -0.00000000000E+00 -0.24702102678E+04  0.24702102678E+04  0.00000000000E+00 0. -1.
        -24    2    1    2    0    0  0.15265179658E+02 -0.20256011801E+04 -0.20856244714E+03  0.20379773163E+04  0.80994326137E+02 0.  0.
    5000000    2    1    2    0    0 -0.15265179658E+02  0.20256011801E+04 -0.51849671181E+03  0.21753840604E+04  0.60013648751E+03 0.  0.
        -24    2    4    4    0    0  0.21295872739E+02  0.49071262846E+03 -0.39061087527E+03  0.63295209229E+03  0.82456639106E+02 0.  0.
         24    2    4    4    0    0 -0.36561052397E+02  0.15348885516E+04 -0.12788583654E+03  0.15424319681E+04  0.74310245652E+02 0.  0.
         13    1    3    3    0    0  0.26301830335E+02 -0.17863272247E+04 -0.20672849210E+03  0.17984419394E+04  0.00000000000E+00 0. -1.
        -14    1    3    3    0    0 -0.11036650677E+02 -0.23927395541E+03 -0.18339550399E+01  0.23953537690E+03  0.00000000000E+00 0.  1.
         15    1    5    5    0    0 -0.17941699115E+02  0.87839404670E+02 -0.43226435370E+02  0.99545708214E+02  0.17770000000E+01 0. -1.
        -16    1    5    5    0    0  0.39237571854E+02  0.40287322379E+03 -0.34738443990E+03  0.53340638408E+03  0.00000000000E+00 0.  1.
          4    1    6    6  502    0 -0.45228811629E+02  0.58063040474E+03 -0.30687685633E+02  0.58319726196E+03  0.00000000000E+00 0. -1.
         -3    1    6    6    0  502  0.86677592322E+01  0.95425814690E+03 -0.97198150908E+02  0.95923470616E+03  0.00000000000E+00 0.  1.
<mgrwt>
<rscale>  0 0.20285931E+04</rscale>
<asrwt>0</asrwt>
<pdfrwt beam="1">  1        1 0.38003235E+00 0.20285931E+04</pdfrwt>
<pdfrwt beam="2">  1       -2 0.26817709E+00 0.20285931E+04</pdfrwt>
<totfact> 0.54925908E-02</totfact>
</mgrwt>
</event>
<event>
12    3  0.1201947E-007  0.4647147E+03  0.7818608E-02  0.1023423E+00
         -2   -1    0    0    0  501 -0.00000000000E+00  0.00000000000E+00  0.67862782026E+03  0.67862782026E+03  0.00000000000E+00 0.  1.
          1   -1    0    0  501    0  0.00000000000E+00 -0.00000000000E+00 -0.53658416459E+03  0.53658416459E+03  0.00000000000E+00 0. -1.
        -24    2    1    2    0    0  0.11861627645E+03 -0.41378620052E+03 -0.79802911169E+02  0.44465471542E+03  0.77849024009E+02 0.  0.
    5000000    2    1    2    0    0 -0.11861627645E+03  0.41378620052E+03  0.22184656684E+03  0.77055726943E+03  0.59937781530E+03 0.  0.
        -24    2    4    4    0    0 -0.23782663933E+01  0.31528369700E+03  0.40453841601E+03  0.51971049855E+03  0.83894019622E+02 0.  0.
         24    2    4    4    0    0 -0.11623801005E+03  0.98502503522E+02 -0.18269184917E+03  0.25084677088E+03  0.79585001917E+02 0.  0.
         13    1    3    3    0    0  0.61125913925E+02 -0.96315299938E+02 -0.32163602130E+02  0.11852219901E+03  0.00000000000E+00 0. -1.
        -14    1    3    3    0    0  0.57490362520E+02 -0.31747090058E+03 -0.47639309039E+02  0.32613251642E+03  0.00000000000E+00 0.  1.
         15    1    5    5    0    0 -0.27888804196E+02  0.91646388932E+02  0.16652378649E+03  0.19212021029E+03  0.17770000000E+01 0. -1.
        -16    1    5    5    0    0  0.25510537803E+02  0.22363730807E+03  0.23801462952E+03  0.32759028826E+03  0.00000000000E+00 0.  1.
          2    1    6    6  502    0 -0.11082601554E+03  0.47574277328E+02 -0.13157368884E+03  0.17848628289E+03  0.00000000000E+00 0. -1.
         -1    1    6    6    0  502 -0.54119945102E+01  0.50928226195E+02 -0.51118160325E+02  0.72360487995E+02  0.00000000000E+00 0.  1.
<mgrwt>
<rscale>  0 0.46471474E+03</rscale>
<asrwt>0</asrwt>
<pdfrwt beam="1">  1        1 0.82551410E-01 0.46471474E+03</pdfrwt>
<pdfrwt beam="2">  1       -2 0.10440428E+00 0.46471474E+03</pdfrwt>
<totfact> 0.27457059E+01</totfact>
</mgrwt>
</event>
<event>
12    3  0.1201947E-007  0.4967453E+03  0.7818608E-02  0.1014632E+00
          3   -1    0    0  501    0  0.00000000000E+00  0.00000000000E+00  0.14745306604E+04  0.14745306604E+04  0.00000000000E+00 0. -1.
         -4   -1    0    0    0  501 -0.00000000000E+00 -0.00000000000E+00 -0.25413791880E+03  0.25413791880E+03  0.00000000000E+00 0.  1.
        -24    2    1    2    0    0  0.32615626737E+03 -0.18123573397E+03  0.84825959729E+03  0.93008857341E+03  0.79348018171E+02 0.  0.
    5000000    2    1    2    0    0 -0.32615626737E+03  0.18123573397E+03  0.37213314434E+03  0.79858000581E+03  0.60001887183E+03 0.  0.
        -24    2    4    4    0    0 -0.44993506578E+03  0.90731243814E+02  0.10040918150E+03  0.47658758804E+03  0.79874923013E+02 0.  0.
         24    2    4    4    0    0  0.12377879841E+03  0.90504490152E+02  0.27172396284E+03  0.32199241777E+03  0.79579843204E+02 0.  0.
         13    1    3    3    0    0  0.10134168318E+03 -0.99003531421E+02  0.29466989134E+03  0.32695898955E+03  0.00000000000E+00 0. -1.
        -14    1    3    3    0    0  0.22481458419E+03 -0.82232202545E+02  0.55358970595E+03  0.60312958387E+03  0.00000000000E+00 0.  1.
         15    1    5    5    0    0 -0.76336662768E+02  0.14490647100E+02  0.48904848535E+02  0.91826504209E+02  0.17770000000E+01 0. -1.
        -16    1    5    5    0    0 -0.37359840301E+03  0.76240596715E+02  0.51504332962E+02  0.38476108384E+03  0.00000000000E+00 0.  1.
          2    1    6    6  502    0  0.37876506823E+02  0.24930454859E+02  0.16102631668E+03  0.16728906722E+03  0.00000000000E+00 0. -1.
         -1    1    6    6    0  502  0.85902291584E+02  0.65574035293E+02  0.11069764616E+03  0.15470335054E+03  0.00000000000E+00 0.  1.
<mgrwt>
<rscale>  0 0.49674528E+03</rscale>
<asrwt>0</asrwt>
<pdfrwt beam="1">  1        3 0.22685087E+00 0.49674528E+03</pdfrwt>
<pdfrwt beam="2">  1       -4 0.39098142E-01 0.49674528E+03</pdfrwt>
<totfact> 0.14861040E+00</totfact>
</mgrwt>
</event>
<event>
12    3  0.1201947E-007  0.6821097E+03  0.7818608E-02  0.9748326E-01
          1   -1    0    0  501    0  0.00000000000E+00  0.00000000000E+00  0.61118494006E+03  0.61118494006E+03  0.00000000000E+00 0. -1.
         -2   -1    0    0    0  501 -0.00000000000E+00 -0.00000000000E+00 -0.84597212629E+03  0.84597212629E+03  0.00000000000E+00 0.  1.
        -24    2    1    2    0    0  0.15222031362E+03 -0.53321744806E+03  0.10926852248E+03  0.57069858248E+03  0.79154224440E+02 0.  0.
    5000000    2    1    2    0    0 -0.15222031362E+03  0.53321744806E+03 -0.34405570871E+03  0.88645848387E+03  0.59995203319E+03 0.  0.
        -24    2    4    4    0    0  0.16353094602E+03  0.43750872930E+03 -0.23993128147E+03  0.53138433989E+03  0.81523237999E+02 0.  0.
         24    2    4    4    0    0 -0.31575125964E+03  0.95708718760E+02 -0.10412442725E+03  0.35507414398E+03  0.79854458613E+02 0.  0.
         13    1    3    3    0    0  0.81154157553E+02 -0.35016829616E+03  0.36538293389E+02  0.36130164656E+03  0.00000000000E+00 0. -1.
        -14    1    3    3    0    0  0.71066156067E+02 -0.18304915190E+03  0.72730229087E+02  0.20939693592E+03  0.00000000000E+00 0.  1.
         15    1    5    5    0    0  0.89572075277E+02  0.13224431825E+03 -0.71946867132E+02  0.17518911438E+03  0.17770000000E+01 0. -1.
        -16    1    5    5    0    0  0.73958870747E+02  0.30526441105E+03 -0.16798441433E+03  0.35619522551E+03  0.00000000000E+00 0.  1.
          4    1    6    6  502    0 -0.30363640108E+03  0.78650380842E+02 -0.81118594234E+02  0.32397711770E+03  0.00000000000E+00 0. -1.
         -3    1    6    6    0  502 -0.12114858567E+02  0.17058337918E+02 -0.23005833012E+02  0.31097026276E+02  0.00000000000E+00 0.  1.
<mgrwt>
<rscale>  0 0.68210972E+03</rscale>
<asrwt>0</asrwt>
<pdfrwt beam="1">  1        1 0.94028453E-01 0.68210972E+03</pdfrwt>
<pdfrwt beam="2">  1       -2 0.13014956E+00 0.68210972E+03</pdfrwt>
<totfact> 0.12981902E+01</totfact>
</mgrwt>
</event>
<event>
12    3  0.1201947E-007  0.7973965E+03  0.7818608E-02  0.9563793E-01
          1   -1    0    0  501    0  0.00000000000E+00  0.00000000000E+00  0.24666677959E+04  0.24666677959E+04  0.00000000000E+00 0. -1.
         -2   -1    0    0    0  501 -0.00000000000E+00 -0.00000000000E+00 -0.30405295572E+03  0.30405295572E+03  0.00000000000E+00 0.  1.
        -24    2    1    2    0    0  0.26968626264E+03 -0.65687832382E+03  0.13849687773E+04  0.15587309621E+04  0.85345681532E+02 0.  0.
    5000000    2    1    2    0    0 -0.26968626264E+03  0.65687832382E+03  0.77764606285E+03  0.12119897896E+04  0.59997169796E+03 0.  0.
        -24    2    4    4    0    0 -0.25723058244E+03  0.72833596308E+03  0.52528031610E+03  0.93757966568E+03  0.80593866801E+02 0.  0.
         24    2    4    4    0    0 -0.12455680205E+02 -0.71457639251E+02  0.25236574676E+03  0.27441012388E+03  0.79693837743E+02 0.  0.
         11    1    3    3    0    0  0.18398863333E+03 -0.33744627325E+03  0.75869004520E+03  0.85048949976E+03  0.00000000000E+00 0. -1.
        -12    1    3    3    0    0  0.85697629313E+02 -0.31943205058E+03  0.62627873214E+03  0.70824146231E+03  0.00000000000E+00 0.  1.
         15    1    5    5    0    0 -0.44376829877E+02  0.20432026261E+03  0.17172446611E+03  0.27057073517E+03  0.17770000000E+01 0. -1.
        -16    1    5    5    0    0 -0.21285375256E+03  0.52401570047E+03  0.35355584999E+03  0.66700893051E+03  0.00000000000E+00 0.  1.
          4    1    6    6  502    0  0.31122156414E+02 -0.17607685493E+02  0.58767827644E+02  0.68791545805E+02  0.00000000000E+00 0. -1.
         -3    1    6    6    0  502 -0.43577836619E+02 -0.53849953758E+02  0.19359791911E+03  0.20561857807E+03  0.00000000000E+00 0.  1.
<mgrwt>
<rscale>  0 0.79739652E+03</rscale>
<asrwt>0</asrwt>
<pdfrwt beam="1">  1        1 0.37948734E+00 0.79739652E+03</pdfrwt>
<pdfrwt beam="2">  1       -2 0.46777379E-01 0.79739652E+03</pdfrwt>
<totfact> 0.56801547E+00</totfact>
</mgrwt>
</event>
<event>
12    3  0.1201947E-007  0.4814832E+03  0.7818608E-02  0.1018728E+00
         -2   -1    0    0    0  501 -0.00000000000E+00  0.00000000000E+00  0.15252025314E+03  0.15252025314E+03  0.00000000000E+00 0.  1.
          1   -1    0    0  501    0  0.00000000000E+00 -0.00000000000E+00 -0.18676553038E+04  0.18676553038E+04  0.00000000000E+00 0. -1.
        -24    2    1    2    0    0  0.20104008428E+03 -0.29655272967E+03 -0.65052776993E+03  0.74690137048E+03  0.79464714246E+02 0.  0.
    5000000    2    1    2    0    0 -0.20104008428E+03  0.29655272967E+03 -0.10646072807E+04  0.12732741864E+04  0.59956472106E+03 0.  0.
        -24    2    4    4    0    0 -0.33162394419E+03  0.10435921581E+03 -0.92135048428E+03  0.98771627300E+03  0.76363831659E+02 0.  0.
         24    2    4    4    0    0  0.13058385990E+03  0.19219351386E+03 -0.14325679642E+03  0.28555791343E+03  0.83847009257E+02 0.  0.
         11    1    3    3    0    0  0.14928180194E+02 -0.78898389474E+02 -0.13012149209E+03  0.15290326723E+03  0.00000000000E+00 0. -1.
        -12    1    3    3    0    0  0.18611190409E+03 -0.21765434020E+03 -0.52040627784E+03  0.59399810326E+03  0.00000000000E+00 0.  1.
         15    1    5    5    0    0 -0.32252446542E+03  0.94238178506E+02 -0.83127188272E+03  0.89661528306E+03  0.17770000000E+01 0. -1.
        -16    1    5    5    0    0 -0.90994787720E+01  0.10121037305E+02 -0.90078601559E+02  0.91100989944E+02  0.00000000000E+00 0.  1.
          4    1    6    6  502    0  0.14054455276E+03  0.15996916659E+03 -0.12879555413E+03  0.24885980056E+03  0.00000000000E+00 0. -1.
         -3    1    6    6    0  502 -0.99606928586E+01  0.32224347271E+02 -0.14461242284E+02  0.36698112863E+02  0.00000000000E+00 0.  1.
<mgrwt>
<rscale>  0 0.48148321E+03</rscale>
<asrwt>0</asrwt>
<pdfrwt beam="1">  1        1 0.28733158E+00 0.48148321E+03</pdfrwt>
<pdfrwt beam="2">  1       -2 0.23464655E-01 0.48148321E+03</pdfrwt>
<totfact> 0.55276357E+01</totfact>
</mgrwt>
</event>
<event>
12    3  0.1201947E-007  0.1457416E+04  0.7818608E-02  0.8913275E-01
         -2   -1    0    0    0  501 -0.00000000000E+00  0.00000000000E+00  0.11276410648E+04  0.11276410648E+04  0.00000000000E+00 0.  1.
          1   -1    0    0  501    0  0.00000000000E+00 -0.00000000000E+00 -0.33547817435E+04  0.33547817435E+04  0.00000000000E+00 0. -1.
        -24    2    1    2    0    0  0.14334611750E+04  0.15446649358E+03 -0.25097592283E+04  0.28955186663E+04  0.80412220610E+02 0.  0.
    5000000    2    1    2    0    0 -0.14334611750E+04 -0.15446649358E+03  0.28261854959E+03  0.15869041420E+04  0.59976718256E+03 0.  0.
        -24    2    4    4    0    0 -0.17452927223E+03  0.76421439601E+02  0.22171313382E+03  0.30297038498E+03  0.79584151496E+02 0.  0.
         24    2    4    4    0    0 -0.12589319028E+04 -0.23088793318E+03  0.60905415768E+02  0.12839337570E+04  0.80979312795E+02 0.  0.
         11    1    3    3    0    0  0.51143129248E+03  0.19886703966E+02 -0.85810792804E+03  0.99915297332E+03  0.00000000000E+00 0. -1.
        -12    1    3    3    0    0  0.92202988254E+03  0.13457978962E+03 -0.16516513002E+04  0.18963656930E+04  0.00000000000E+00 0.  1.
         15    1    5    5    0    0 -0.79460774968E+02  0.27260119448E+02  0.15652786520E+03  0.17765488787E+03  0.17770000000E+01 0. -1.
        -16    1    5    5    0    0 -0.95068497265E+02  0.49161320153E+02  0.65185268628E+02  0.12531549712E+03  0.00000000000E+00 0.  1.
          2    1    6    6  502    0 -0.69518031299E+03 -0.13983998819E+03 -0.46981116049E+01  0.70912126052E+03  0.00000000000E+00 0. -1.
         -1    1    6    6    0  502 -0.56375158980E+03 -0.91047944991E+02  0.65603527373E+02  0.57481249647E+03  0.00000000000E+00 0.  1.
<mgrwt>
<rscale>  0 0.14574163E+04</rscale>
<asrwt>0</asrwt>
<pdfrwt beam="1">  1        1 0.51612026E+00 0.14574163E+04</pdfrwt>
<pdfrwt beam="2">  1       -2 0.17348324E+00 0.14574163E+04</pdfrwt>
<totfact> 0.54644511E-02</totfact>
</mgrwt>
</event>
<event>
12    3  0.1201947E-007  0.1273040E+04  0.7818608E-02  0.9051222E-01
         -2   -1    0    0    0  501 -0.00000000000E+00  0.00000000000E+00  0.79669114833E+03  0.79669114833E+03  0.00000000000E+00 0.  1.
          1   -1    0    0  501    0  0.00000000000E+00 -0.00000000000E+00 -0.25179603624E+04  0.25179603624E+04  0.00000000000E+00 0. -1.
        -24    2    1    2    0    0  0.15888293887E+03  0.12453062056E+04 -0.14087868615E+04  0.18885561717E+04  0.77023752427E+02 0.  0.
    5000000    2    1    2    0    0 -0.15888293887E+03 -0.12453062056E+04 -0.31248235251E+03  0.14260953390E+04  0.60005946498E+03 0.  0.
        -24    2    4    4    0    0  0.56576069041E+02 -0.16476373333E+03 -0.25665731419E+03  0.32004267578E+03  0.78780695506E+02 0.  0.
         24    2    4    4    0    0 -0.21545900792E+03 -0.10805424722E+04 -0.55825038325E+02  0.11060526633E+04  0.79002788583E+02 0.  0.
         11    1    3    3    0    0  0.84421887678E+02  0.90477761089E+03 -0.10413097992E+04  0.13820548752E+04  0.00000000000E+00 0. -1.
        -12    1    3    3    0    0  0.74461051196E+02  0.34052859467E+03 -0.36747706237E+03  0.50650129644E+03  0.00000000000E+00 0.  1.
         15    1    5    5    0    0 -0.14151292539E+01  0.57263706817E+01 -0.29635534598E+02  0.30269069228E+02  0.17770000000E+01 0. -1.
        -16    1    5    5    0    0  0.57991198295E+02 -0.17049010401E+03 -0.22702177959E+03  0.28977360655E+03  0.00000000000E+00 0.  1.
          4    1    6    6  502    0 -0.38764242798E+02 -0.12722413798E+03  0.15388006359E+02  0.13388591616E+03  0.00000000000E+00 0. -1.
         -3    1    6    6    0  502 -0.17669476512E+03 -0.95331833425E+03 -0.71213044684E+02  0.97216674710E+03  0.00000000000E+00 0.  1.
<mgrwt>
<rscale>  0 0.12730396E+04</rscale>
<asrwt>0</asrwt>
<pdfrwt beam="1">  1        1 0.38737852E+00 0.12730396E+04</pdfrwt>
<pdfrwt beam="2">  1       -2 0.12256787E+00 0.12730396E+04</pdfrwt>
<totfact> 0.56729865E-01</totfact>
</mgrwt>
</event>
<event>
12    3  0.1201947E-007  0.6213288E+03  0.7818608E-02  0.9862118E-01
          1   -1    0    0  501    0  0.00000000000E+00  0.00000000000E+00  0.12343078844E+04  0.12343078844E+04  0.00000000000E+00 0. -1.
         -2   -1    0    0    0  501 -0.00000000000E+00 -0.00000000000E+00 -0.32707283779E+03  0.32707283779E+03  0.00000000000E+00 0.  1.
        -24    2    1    2    0    0 -0.28505362178E+03  0.39072844916E+03  0.26210705464E+03  0.55623856626E+03  0.82322209791E+02 0.  0.
    5000000    2    1    2    0    0  0.28505362178E+03 -0.39072844916E+03  0.64512799202E+03  0.10051421560E+04  0.60016359384E+03 0.  0.
        -24    2    4    4    0    0  0.33592632208E+03  0.13031468521E+02  0.37749722334E+03  0.51147334688E+03  0.78003319821E+02 0.  0.
         24    2    4    4    0    0 -0.50872700292E+02 -0.40375991768E+03  0.26763076867E+03  0.49366880910E+03  0.80452234098E+02 0.  0.
         11    1    3    3    0    0 -0.22014226504E+03  0.25858305559E+03  0.15031931382E+03  0.37138081480E+03  0.00000000000E+00 0. -1.
        -12    1    3    3    0    0 -0.64911356745E+02  0.13214539357E+03  0.11178774082E+03  0.18485775146E+03  0.00000000000E+00 0.  1.
         15    1    5    5    0    0  0.74821728109E+02 -0.23282786992E+02  0.59442406404E+02  0.98371421538E+02  0.17770000000E+01 0. -1.
        -16    1    5    5    0    0  0.26110459397E+03  0.36314255513E+02  0.31805481694E+03  0.41310192535E+03  0.00000000000E+00 0.  1.
          4    1    6    6  502    0  0.70133863629E+01 -0.24070278508E+03  0.13875938920E+03  0.27792298650E+03  0.00000000000E+00 0. -1.
         -3    1    6    6    0  502 -0.57886086655E+02 -0.16305713261E+03  0.12887137947E+03  0.21574582260E+03  0.00000000000E+00 0.  1.
<mgrwt>
<rscale>  0 0.62132875E+03</rscale>
<asrwt>0</asrwt>
<pdfrwt beam="1">  1        1 0.18989352E+00 0.62132875E+03</pdfrwt>
<pdfrwt beam="2">  1       -2 0.50318899E-01 0.62132875E+03</pdfrwt>
<totfact> 0.34378375E+01</totfact>
</mgrwt>
</event>
<event>
12    3  0.1201947E-007  0.6056487E+03  0.7818608E-02  0.9893756E-01
         -2   -1    0    0    0  501 -0.00000000000E+00  0.00000000000E+00  0.50212088285E+03  0.50212088285E+03  0.00000000000E+00 0.  1.
          1   -1    0    0  501    0  0.00000000000E+00 -0.00000000000E+00 -0.15755654128E+04  0.15755654128E+04  0.00000000000E+00 0. -1.
        -24    2    1    2    0    0 -0.32556030952E+03 -0.33376111105E+03  0.26236345729E+03  0.54093344071E+03  0.79927524509E+02 0.  0.
    5000000    2    1    2    0    0  0.32556030952E+03  0.33376111105E+03 -0.13358079872E+04  0.15367528549E+04  0.59986695524E+03 0.  0.
        -24    2    4    4    0    0  0.32568783152E+03  0.47959701370E+03 -0.11187899440E+04  0.12626583148E+04  0.80803601246E+02 0.  0.
         24    2    4    4    0    0 -0.12752199672E+00 -0.14583590264E+03 -0.21701804316E+03  0.27409454008E+03  0.82236604260E+02 0.  0.
         11    1    3    3    0    0 -0.70781534859E+02 -0.36585679594E+02  0.63435629699E+02  0.10184604432E+03  0.00000000000E+00 0. -1.
        -12    1    3    3    0    0 -0.25477877466E+03 -0.29717543146E+03  0.19892782759E+03  0.43908739639E+03  0.00000000000E+00 0.  1.
         15    1    5    5    0    0  0.15563363312E+03  0.15994048777E+03 -0.41619831168E+03  0.47225732367E+03  0.17770000000E+01 0. -1.
        -16    1    5    5    0    0  0.17005419839E+03  0.31965652592E+03 -0.70259163236E+03  0.79040099115E+03  0.00000000000E+00 0.  1.
          2    1    6    6  502    0 -0.25986510807E+02 -0.83319145186E+02 -0.68689917918E+02  0.11106612230E+03  0.00000000000E+00 0. -1.
         -1    1    6    6    0  502  0.25858988810E+02 -0.62516757456E+02 -0.14832812525E+03  0.16302841778E+03  0.00000000000E+00 0.  1.
<mgrwt>
<rscale>  0 0.60564867E+03</rscale>
<asrwt>0</asrwt>
<pdfrwt beam="1">  1        1 0.24239467E+00 0.60564867E+03</pdfrwt>
<pdfrwt beam="2">  1       -2 0.77249368E-01 0.60564867E+03</pdfrwt>
<totfact> 0.80501143E+00</totfact>
</mgrwt>
</event>
<event>
12    3  0.1201947E-007  0.1330189E+04  0.7818608E-02  0.9005962E-01
         -2   -1    0    0    0  501 -0.00000000000E+00  0.00000000000E+00  0.10487726578E+04  0.10487726578E+04  0.00000000000E+00 0.  1.
          1   -1    0    0  501    0  0.00000000000E+00 -0.00000000000E+00 -0.26380212569E+04  0.26380212569E+04  0.00000000000E+00 0. -1.
        -24    2    1    2    0    0 -0.46166854419E+02 -0.12778068280E+04 -0.18498652108E+04  0.22504519956E+04  0.87242295919E+02 0.  0.
    5000000    2    1    2    0    0  0.46166854419E+02  0.12778068280E+04  0.26061661175E+03  0.14363419191E+04  0.60019615300E+03 0.  0.
        -24    2    4    4    0    0 -0.20121115471E+03  0.23844583230E+03  0.15915630559E+03  0.35968598665E+03  0.81859242964E+02 0.  0.
         24    2    4    4    0    0  0.24737800913E+03  0.10393609957E+04  0.10146030616E+03  0.10766559325E+04  0.86177980702E+02 0.  0.
         13    1    3    3    0    0 -0.31682201502E+02 -0.33874120586E+03 -0.55189625281E+03  0.64833543811E+03  0.00000000000E+00 0. -1.
        -14    1    3    3    0    0 -0.14484652917E+02 -0.93906562217E+03 -0.12979689580E+04  0.16021165575E+04  0.00000000000E+00 0.  1.
         15    1    5    5    0    0 -0.24844594803E+02  0.37784384562E+02  0.59042568557E+02  0.74391506494E+02  0.17770000000E+01 0. -1.
        -16    1    5    5    0    0 -0.17636655991E+03  0.20066144774E+03  0.10011373703E+03  0.28529448015E+03  0.00000000000E+00 0.  1.
          2    1    6    6  502    0  0.17124104089E+03  0.75715029309E+03  0.11117495784E+03  0.78419381002E+03  0.00000000000E+00 0. -1.
         -1    1    6    6    0  502  0.76136968241E+02  0.28221070263E+03 -0.97146516758E+01  0.29246212246E+03  0.00000000000E+00 0.  1.
<mgrwt>
<rscale>  0 0.13301892E+04</rscale>
<asrwt>0</asrwt>
<pdfrwt beam="1">  1        1 0.40584942E+00 0.13301892E+04</pdfrwt>
<pdfrwt beam="2">  1       -2 0.16134964E+00 0.13301892E+04</pdfrwt>
<totfact> 0.22615903E-01</totfact>
</mgrwt>
</event>
<event>
12    3  0.1201947E-007  0.7887142E+03  0.7818608E-02  0.9576498E-01
          1   -1    0    0  501    0  0.00000000000E+00  0.00000000000E+00  0.39605238924E+04  0.39605238924E+04  0.00000000000E+00 0. -1.
         -2   -1    0    0    0  501 -0.00000000000E+00 -0.00000000000E+00 -0.42760869002E+03  0.42760869002E+03  0.00000000000E+00 0.  1.
        -24    2    1    2    0    0 -0.69005663332E+03  0.22686056540E+03  0.33492629377E+04  0.34280738541E+04  0.80524836991E+02 0.  0.
    5000000    2    1    2    0    0  0.69005663332E+03 -0.22686056540E+03  0.18365226466E+03  0.96005872839E+03  0.60028387812E+03 0.  0.
        -24    2    4    4    0    0  0.58436596570E+03 -0.34631574339E+03 -0.26542510093E+02  0.68435640222E+03  0.78873344203E+02 0.  0.
         24    2    4    4    0    0  0.10569066762E+03  0.11945517799E+03  0.21019477475E+03  0.27570232617E+03  0.79936678407E+02 0.  0.
         13    1    3    3    0    0 -0.16076122898E+03  0.88523468325E+02  0.88023515723E+03  0.89916322724E+03  0.00000000000E+00 0. -1.
        -14    1    3    3    0    0 -0.52929540435E+03  0.13833709707E+03  0.24690277805E+04  0.25289106268E+04  0.00000000000E+00 0.  1.
         15    1    5    5    0    0  0.25342356723E+03 -0.11385579465E+03 -0.33700097776E+02  0.27986693396E+03  0.17770000000E+01 0. -1.
        -16    1    5    5    0    0  0.33094239847E+03 -0.23245994873E+03  0.71575876825E+01  0.40448946826E+03  0.00000000000E+00 0.  1.
          2    1    6    6  502    0  0.40422898203E+02  0.76249058637E+02  0.56288305364E+02  0.10303544518E+03  0.00000000000E+00 0. -1.
         -1    1    6    6    0  502  0.65267769416E+02  0.43206119355E+02  0.15390646939E+03  0.17266688100E+03  0.00000000000E+00 0.  1.
<mgrwt>
<rscale>  0 0.78871421E+03</rscale>
<asrwt>0</asrwt>
<pdfrwt beam="1">  1        1 0.60931134E+00 0.78871421E+03</pdfrwt>
<pdfrwt beam="2">  1       -2 0.65785955E-01 0.78871421E+03</pdfrwt>
<totfact> 0.21318426E-01</totfact>
</mgrwt>
</event>
<event>
12    3  0.1201947E-007  0.1425107E+04  0.7818608E-02  0.8935843E-01
         -2   -1    0    0    0  501 -0.00000000000E+00  0.00000000000E+00  0.11233696120E+04  0.11233696120E+04  0.00000000000E+00 0.  1.
          1   -1    0    0  501    0  0.00000000000E+00 -0.00000000000E+00 -0.22776723494E+04  0.22776723494E+04  0.00000000000E+00 0. -1.
        -24    2    1    2    0    0 -0.95434229817E+03  0.10178395978E+04  0.14137228483E+03  0.14046458669E+04  0.79228906197E+02 0.  0.
    5000000    2    1    2    0    0  0.95434229817E+03 -0.10178395978E+04 -0.12956750222E+04  0.19963960945E+04  0.60004744336E+03 0.  0.
        -24    2    4    4    0    0  0.78074901553E+03 -0.99353807049E+03 -0.12901452866E+04  0.18076273491E+04  0.79717312704E+02 0.  0.
         24    2    4    4    0    0  0.17359328264E+03 -0.24301527292E+02 -0.55297355803E+01  0.18876874543E+03  0.69841744451E+02 0.  0.
         13    1    3    3    0    0 -0.42437792219E+03  0.39562683543E+03  0.60861972975E+02  0.58337071705E+03  0.00000000000E+00 0. -1.
        -14    1    3    3    0    0 -0.52996437599E+03  0.62221276235E+03  0.80510311854E+02  0.82127514985E+03  0.00000000000E+00 0.  1.
         15    1    5    5    0    0  0.62999376539E+03 -0.78007804843E+03 -0.98019754615E+03  0.14022140683E+04  0.17770000000E+01 0. -1.
        -16    1    5    5    0    0  0.15075525014E+03 -0.21346002207E+03 -0.30994774045E+03  0.40541328083E+03  0.00000000000E+00 0.  1.
          2    1    6    6  502    0  0.11917786099E+02 -0.24225982339E+02 -0.13135292994E-02  0.26998737887E+02  0.00000000000E+00 0. -1.
         -1    1    6    6    0  502  0.16167549654E+03 -0.75544952949E-01 -0.55284220510E+01  0.16177000754E+03  0.00000000000E+00 0.  1.
<mgrwt>
<rscale>  0 0.14251069E+04</rscale>
<asrwt>0</asrwt>
<pdfrwt beam="1">  1        1 0.35041113E+00 0.14251069E+04</pdfrwt>
<pdfrwt beam="2">  1       -2 0.17282610E+00 0.14251069E+04</pdfrwt>
<totfact> 0.32749441E-01</totfact>
</mgrwt>
</event>
<event>
12    3  0.1201947E-007  0.1148400E+04  0.7818608E-02  0.9159261E-01
          3   -1    0    0  501    0  0.00000000000E+00  0.00000000000E+00  0.23020425415E+04  0.23020425415E+04  0.00000000000E+00 0. -1.
         -4   -1    0    0    0  501 -0.00000000000E+00 -0.00000000000E+00 -0.66267614698E+03  0.66267614698E+03  0.00000000000E+00 0.  1.
        -24    2    1    2    0    0  0.65082805565E+03  0.88462023826E+03  0.32085381578E+03  0.11468840598E+04  0.79156500170E+02 0.  0.
    5000000    2    1    2    0    0 -0.65082805565E+03 -0.88462023826E+03  0.13185125787E+04  0.18178346287E+04  0.59993099021E+03 0.  0.
        -24    2    4    4    0    0 -0.57340065639E+03 -0.39193592968E+03  0.10006991770E+04  0.12208361576E+04  0.81486165080E+02 0.  0.
         24    2    4    4    0    0 -0.77427399263E+02 -0.49268430858E+03  0.31781340167E+03  0.59699847105E+03  0.81663860299E+02 0.  0.
         11    1    3    3    0    0  0.10212460477E+03  0.12663110644E+03  0.76435701069E+02  0.17974228333E+03  0.00000000000E+00 0. -1.
        -12    1    3    3    0    0  0.54870345088E+03  0.75798913182E+03  0.24441811472E+03  0.96714177646E+03  0.00000000000E+00 0.  1.
         15    1    5    5    0    0 -0.26388267886E+03 -0.14492102515E+03  0.48111034783E+03  0.56754426810E+03  0.17770000000E+01 0. -1.
        -16    1    5    5    0    0 -0.30951797753E+03 -0.24701490453E+03  0.51958882920E+03  0.65329188951E+03  0.00000000000E+00 0.  1.
          2    1    6    6  502    0  0.34452740268E+00 -0.14622257362E+03  0.59349311108E+02  0.15780842963E+03  0.00000000000E+00 0. -1.
         -1    1    6    6    0  502 -0.77771926666E+02 -0.34646173497E+03  0.25846409056E+03  0.43919004142E+03  0.00000000000E+00 0.  1.
<mgrwt>
<rscale>  0 0.11483999E+04</rscale>
<asrwt>0</asrwt>
<pdfrwt beam="1">  1        3 0.35416039E+00 0.11483999E+04</pdfrwt>
<pdfrwt beam="2">  1       -4 0.10195018E+00 0.11483999E+04</pdfrwt>
<totfact> 0.34116469E-02</totfact>
</mgrwt>
</event>
<event>
12    3  0.1201947E-007  0.4972052E+03  0.7818608E-02  0.1014511E+00
         -2   -1    0    0    0  501 -0.00000000000E+00  0.00000000000E+00  0.14845995606E+04  0.14845995606E+04  0.00000000000E+00 0.  1.
          1   -1    0    0  501    0  0.00000000000E+00 -0.00000000000E+00 -0.17929440168E+03  0.17929440168E+03  0.00000000000E+00 0. -1.
        -24    2    1    2    0    0 -0.29991807239E+03  0.10577860906E+03  0.26457488909E+03  0.42119789733E+03  0.79169643829E+02 0.  0.
    5000000    2    1    2    0    0  0.29991807239E+03 -0.10577860906E+03  0.10407302698E+04  0.12426960649E+04  0.60002837514E+03 0.  0.
        -24    2    4    4    0    0  0.20086237942E+03 -0.34384477439E+03  0.70108991214E+03  0.81028457809E+03  0.80368577434E+02 0.  0.
         24    2    4    4    0    0  0.99055692970E+02  0.23806616533E+03  0.33964035764E+03  0.43241148681E+03  0.71670021620E+02 0.  0.
         13    1    3    3    0    0 -0.23508717902E+03  0.50540246741E+02  0.21552980267E+03  0.32291391131E+03  0.00000000000E+00 0. -1.
        -14    1    3    3    0    0 -0.64830893373E+02  0.55238362321E+02  0.49045086414E+02  0.98283986024E+02  0.00000000000E+00 0.  1.
         15    1    5    5    0    0  0.17489350131E+03 -0.23337767114E+03  0.53089599933E+03  0.60572815191E+03  0.17770000000E+01 0. -1.
        -16    1    5    5    0    0  0.25968878107E+02 -0.11046710325E+03  0.17019391282E+03  0.20455642618E+03  0.00000000000E+00 0.  1.
          2    1    6    6  502    0  0.54388587317E+02  0.64179916751E+02  0.75518031392E+02  0.11304933971E+03  0.00000000000E+00 0. -1.
         -1    1    6    6    0  502  0.44667105653E+02  0.17388624858E+03  0.26412232625E+03  0.31936214709E+03  0.00000000000E+00 0.  1.
<mgrwt>
<rscale>  0 0.49720525E+03</rscale>
<asrwt>0</asrwt>
<pdfrwt beam="1">  1        1 0.27583755E-01 0.49720525E+03</pdfrwt>
<pdfrwt beam="2">  1       -2 0.22839992E+00 0.49720525E+03</pdfrwt>
<totfact> 0.13797578E+01</totfact>
</mgrwt>
</event>
<event>
12    3  0.1772355E-007  0.1150621E+04  0.7818608E-02  0.9157211E-01
          1   -1    0    0  501    0  0.00000000000E+00  0.00000000000E+00  0.18434667390E+04  0.18434667390E+04  0.00000000000E+00 0. -1.
         -2   -1    0    0    0  501 -0.00000000000E+00 -0.00000000000E+00 -0.80158834636E+03  0.80158834636E+03  0.00000000000E+00 0.  1.
        -24    2    1    2    0    0  0.16660019133E+03  0.11275668452E+04  0.45841873495E+03  0.12309780244E+04  0.77437366880E+02 0.  0.
    5000000    2    1    2    0    0 -0.16660019133E+03 -0.11275668452E+04  0.58345965769E+03  0.14140770610E+04  0.60002178966E+03 0.  0.
        -24    2    4    4    0    0 -0.44792953614E+02 -0.73452288068E+03  0.59055048490E+02  0.74257105353E+03  0.79962490219E+02 0.  0.
         24    2    4    4    0    0 -0.12180723772E+03 -0.39304396452E+03  0.52440460919E+03  0.67150600745E+03  0.81237692512E+02 0.  0.
         13    1    3    3    0    0  0.12340582967E+03  0.58073134958E+03  0.24972771095E+03  0.64408215997E+03  0.00000000000E+00 0. -1.
        -14    1    3    3    0    0  0.43194361663E+02  0.54683549563E+03  0.20869102400E+03  0.58689586441E+03  0.00000000000E+00 0.  1.
         15    1    5    5    0    0  0.21054263942E+02 -0.21503324667E+03  0.48056592284E+01  0.21612226006E+03  0.17770000000E+01 0. -1.
        -16    1    5    5    0    0 -0.65847217556E+02 -0.51948963401E+03  0.54249389262E+02  0.52644879346E+03  0.00000000000E+00 0.  1.
          4    1    6    6  502    0 -0.35396778760E+02 -0.24756709419E+03  0.30427574108E+03  0.39386053963E+03  0.00000000000E+00 0. -1.
         -1    1    6    6    0  502 -0.86410458956E+02 -0.14547687033E+03  0.22012886812E+03  0.27764546781E+03  0.00000000000E+00 0.  1.
<mgrwt>
<rscale>  0 0.11506210E+04</rscale>
<asrwt>0</asrwt>
<pdfrwt beam="1">  1        1 0.28361027E+00 0.11506210E+04</pdfrwt>
<pdfrwt beam="2">  1       -2 0.12332128E+00 0.11506210E+04</pdfrwt>
<totfact> 0.16307056E+00</totfact>
</mgrwt>
</event>
<event>
12    3  0.1201947E-007  0.9191963E+03  0.7818608E-02  0.9401898E-01
          1   -1    0    0  501    0  0.00000000000E+00  0.00000000000E+00  0.83159456834E+03  0.83159456834E+03  0.00000000000E+00 0. -1.
         -2   -1    0    0    0  501 -0.00000000000E+00 -0.00000000000E+00 -0.12389454487E+04  0.12389454487E+04  0.00000000000E+00 0.  1.
        -24    2    1    2    0    0 -0.40080307202E+03  0.73148329316E+03  0.22042549605E+03  0.86640951893E+03  0.79794388736E+02 0.  0.
    5000000    2    1    2    0    0  0.40080307202E+03 -0.73148329316E+03 -0.62777637640E+03  0.12041304981E+04  0.60009679799E+03 0.  0.
        -24    2    4    4    0    0  0.62659125426E+02  0.89668406412E+02 -0.72852687261E+02  0.15393105679E+03  0.80129065237E+02 0.  0.
         24    2    4    4    0    0  0.33814394659E+03 -0.82115169957E+03 -0.55492368914E+03  0.10501994413E+04  0.79668835934E+02 0.  0.
         13    1    3    3    0    0 -0.12087368866E+03  0.17426367140E+03  0.28665671577E+02  0.21400933743E+03  0.00000000000E+00 0. -1.
        -14    1    3    3    0    0 -0.27992938336E+03  0.55721962175E+03  0.19175982447E+03  0.65240018150E+03  0.00000000000E+00 0.  1.
         15    1    5    5    0    0  0.30518547235E+02  0.21595199723E+02 -0.69066968083E+02  0.78556592248E+02  0.17770000000E+01 0. -1.
        -16    1    5    5    0    0  0.32140578190E+02  0.68073206689E+02 -0.37857191783E+01  0.75374464542E+02  0.00000000000E+00 0.  1.
          4    1    6    6  502    0  0.16239525397E+03 -0.47156715556E+03 -0.27969555328E+03  0.57181937991E+03  0.00000000000E+00 0. -1.
         -3    1    6    6    0  502  0.17574869263E+03 -0.34958454401E+03 -0.27522813586E+03  0.47838006139E+03  0.00000000000E+00 0.  1.
<mgrwt>
<rscale>  0 0.91919633E+03</rscale>
<asrwt>0</asrwt>
<pdfrwt beam="1">  1        1 0.12793763E+00 0.91919633E+03</pdfrwt>
<pdfrwt beam="2">  1       -2 0.19060699E+00 0.91919633E+03</pdfrwt>
<totfact> 0.28093964E+00</totfact>
</mgrwt>
</event>
<event>
12    3  0.1201947E-007  0.6694162E+03  0.7818608E-02  0.9771013E-01
          1   -1    0    0  501    0  0.00000000000E+00  0.00000000000E+00  0.11842633242E+04  0.11842633242E+04  0.00000000000E+00 0. -1.
         -4   -1    0    0    0  501 -0.00000000000E+00 -0.00000000000E+00 -0.70694963500E+03  0.70694963500E+03  0.00000000000E+00 0.  1.
        -24    2    1    2    0    0  0.28625198025E+03 -0.45841826603E+03 -0.41619791322E+03  0.68682469975E+03  0.80124667779E+02 0.  0.
    5000000    2    1    2    0    0 -0.28625198025E+03  0.45841826603E+03  0.89351160241E+03  0.12043882594E+04  0.60008382166E+03 0.  0.
        -24    2    4    4    0    0 -0.38331078185E+03  0.51726314435E+03  0.79595447293E+03  0.10270146067E+04  0.82019286292E+02 0.  0.
         24    2    4    4    0    0  0.97058801600E+02 -0.58844878319E+02  0.97557129482E+02  0.17737365279E+03  0.95188699534E+02 0.  0.
         13    1    3    3    0    0  0.19175437695E+03 -0.36193644016E+03 -0.33583761186E+03  0.52967407840E+03  0.00000000000E+00 0. -1.
        -14    1    3    3    0    0  0.94497603309E+02 -0.96481825873E+02 -0.80360301359E+02  0.15715062135E+03  0.00000000000E+00 0.  1.
         15    1    5    5    0    0 -0.15264056507E+03  0.14252194371E+03  0.24683320497E+03  0.32332868006E+03  0.17770000000E+01 0. -1.
        -16    1    5    5    0    0 -0.23067021679E+03  0.37474120064E+03  0.54912126796E+03  0.70368592660E+03  0.00000000000E+00 0.  1.
          2    1    6    6  502    0  0.44439884309E+02 -0.77612839201E+02  0.42805041199E+02  0.99151034681E+02  0.00000000000E+00 0. -1.
         -1    1    6    6    0  502  0.52618917291E+02  0.18767960882E+02  0.54752088283E+02  0.78222618109E+02  0.00000000000E+00 0.  1.
<mgrwt>
<rscale>  0 0.66941622E+03</rscale>
<asrwt>0</asrwt>
<pdfrwt beam="1">  1        1 0.18219436E+00 0.66941622E+03</pdfrwt>
<pdfrwt beam="2">  1       -4 0.10876148E+00 0.66941622E+03</pdfrwt>
<totfact> 0.36315285E+00</totfact>
</mgrwt>
</event>
<event>
12    3  0.1201947E-007  0.1104223E+04  0.7818608E-02  0.9201086E-01
          1   -1    0    0  501    0  0.00000000000E+00  0.00000000000E+00  0.19747993221E+04  0.19747993221E+04  0.00000000000E+00 0. -1.
         -2   -1    0    0    0  501 -0.00000000000E+00 -0.00000000000E+00 -0.88580621556E+03  0.88580621556E+03  0.00000000000E+00 0.  1.
        -24    2    1    2    0    0 -0.74572360453E+03  0.71159013318E+03 -0.25388616148E+03  0.10645542039E+04  0.79707327389E+02 0.  0.
    5000000    2    1    2    0    0  0.74572360453E+03 -0.71159013318E+03  0.13428792680E+04  0.17960513338E+04  0.60000954418E+03 0.  0.
        -24    2    4    4    0    0  0.78329711308E+03 -0.46132025019E+03  0.91062140891E+03  0.12890998884E+04  0.78590274893E+02 0.  0.
         24    2    4    4    0    0 -0.37573508555E+02 -0.25026988299E+03  0.43225785911E+03  0.50695144538E+03  0.78141719541E+02 0.  0.
         11    1    3    3    0    0 -0.14102319368E+03  0.18021331500E+03 -0.57474227446E+02  0.23593996457E+03  0.00000000000E+00 0. -1.
        -12    1    3    3    0    0 -0.60470041085E+03  0.53137681817E+03 -0.19641193403E+03  0.82861423932E+03  0.00000000000E+00 0.  1.
         15    1    5    5    0    0  0.46644737193E+03 -0.31366273441E+03  0.58702953029E+03  0.81275106207E+03  0.17770000000E+01 0. -1.
        -16    1    5    5    0    0  0.31684974115E+03 -0.14765751578E+03  0.32359187862E+03  0.47634882633E+03  0.00000000000E+00 0.  1.
          2    1    6    6  502    0  0.16901701387E+02 -0.12769075806E+03  0.18134290928E+03  0.22243167030E+03  0.00000000000E+00 0. -1.
         -1    1    6    6    0  502 -0.54475209942E+02 -0.12257912493E+03  0.25091494982E+03  0.28451977508E+03  0.00000000000E+00 0.  1.
<mgrwt>
<rscale>  0 0.11042225E+04</rscale>
<asrwt>0</asrwt>
<pdfrwt beam="1">  1        1 0.30381528E+00 0.11042225E+04</pdfrwt>
<pdfrwt beam="2">  1       -2 0.13627788E+00 0.11042225E+04</pdfrwt>
<totfact> 0.10366732E+00</totfact>
</mgrwt>
</event>
<event>
12    3  0.1201947E-007  0.7243279E+03  0.7818608E-02  0.9676510E-01
          1   -1    0    0  501    0  0.00000000000E+00  0.00000000000E+00  0.27136938678E+04  0.27136938678E+04  0.00000000000E+00 0. -1.
         -2   -1    0    0    0  501 -0.00000000000E+00 -0.00000000000E+00 -0.26654433620E+03  0.26654433620E+03  0.00000000000E+00 0.  1.
        -24    2    1    2    0    0 -0.54894419153E+03 -0.26894680328E+03  0.18117804033E+04  0.19137579651E+04  0.79051950527E+02 0.  0.
    5000000    2    1    2    0    0  0.54894419153E+03  0.26894680328E+03  0.63536912832E+03  0.10664802389E+04  0.60001171849E+03 0.  0.
        -24    2    4    4    0    0 -0.24386308542E+01  0.27693132504E+03  0.28031658100E+03  0.40214459070E+03  0.80286864010E+02 0.  0.
         24    2    4    4    0    0  0.55138282238E+03 -0.79845217620E+01  0.35505254731E+03  0.66433564820E+03  0.10579590119E+03 0.  0.
         13    1    3    3    0    0 -0.26022313392E+03 -0.11356305904E+03  0.72568551627E+03  0.77925099701E+03  0.00000000000E+00 0. -1.
        -14    1    3    3    0    0 -0.28872105761E+03 -0.15538374423E+03  0.10860948870E+04  0.11345069681E+04  0.00000000000E+00 0.  1.
         15    1    5    5    0    0  0.11917332207E+01  0.16716951600E+02 -0.33555259511E+01  0.17184120061E+02  0.17770000000E+01 0. -1.
        -16    1    5    5    0    0 -0.36303640748E+01  0.26021437344E+03  0.28367210696E+03  0.38496047063E+03  0.00000000000E+00 0.  1.
          2    1    6    6  502    0  0.38869422354E+03  0.38407585074E+02  0.22332454481E+03  0.44992465405E+03  0.00000000000E+00 0. -1.
         -1    1    6    6    0  502  0.16268859884E+03 -0.46392106836E+02  0.13172800250E+03  0.21441099415E+03  0.00000000000E+00 0.  1.
<mgrwt>
<rscale>  0 0.72432786E+03</rscale>
<asrwt>0</asrwt>
<pdfrwt beam="1">  1        1 0.41749135E+00 0.72432786E+03</pdfrwt>
<pdfrwt beam="2">  1       -2 0.41006823E-01 0.72432786E+03</pdfrwt>
<totfact> 0.50489490E+00</totfact>
</mgrwt>
</event>
<event>
12    3  0.1201947E-007  0.4250232E+03  0.7818608E-02  0.1035444E+00
          3   -1    0    0  501    0  0.00000000000E+00  0.00000000000E+00  0.32619629962E+03  0.32619629962E+03  0.00000000000E+00 0. -1.
         -4   -1    0    0    0  501 -0.00000000000E+00 -0.00000000000E+00 -0.82449845457E+03  0.82449845457E+03  0.00000000000E+00 0.  1.
        -24    2    1    2    0    0  0.24527663409E+03  0.61798385371E+02 -0.41736817606E+03  0.49452114108E+03  0.79845456458E+02 0.  0.
    5000000    2    1    2    0    0 -0.24527663409E+03 -0.61798385371E+02 -0.80933978886E+02  0.65617361312E+03  0.60002819430E+03 0.  0.
        -24    2    4    4    0    0 -0.29571176897E+03  0.15927033426E+03  0.90205478908E+02  0.35821522485E+03  0.85840719982E+02 0.  0.
         24    2    4    4    0    0  0.50435134882E+02 -0.22106871963E+03 -0.17113945779E+03  0.29795838827E+03  0.89863259978E+02 0.  0.
         11    1    3    3    0    0  0.12048376911E+02 -0.13532165367E+02 -0.15663835890E+02  0.23950754487E+02  0.00000000000E+00 0. -1.
        -12    1    3    3    0    0  0.23322825718E+03  0.75330550738E+02 -0.40170434017E+03  0.47057038659E+03  0.00000000000E+00 0.  1.
         15    1    5    5    0    0 -0.10085171519E+03  0.98558377227E+02  0.20309493853E+02  0.14247966679E+03  0.17770000000E+01 0. -1.
        -16    1    5    5    0    0 -0.19486005378E+03  0.60711957034E+02  0.69895985055E+02  0.21573555807E+03  0.00000000000E+00 0.  1.
          2    1    6    6  502    0  0.69450522443E+02 -0.11814090892E+03 -0.11658877455E+03  0.17992662888E+03  0.00000000000E+00 0. -1.
         -1    1    6    6    0  502 -0.19015387561E+02 -0.10292781071E+03 -0.54550683244E+02  0.11803175939E+03  0.00000000000E+00 0.  1.
<mgrwt>
<rscale>  0 0.42502320E+03</rscale>
<asrwt>0</asrwt>
<pdfrwt beam="1">  1        3 0.50184046E-01 0.42502320E+03</pdfrwt>
<pdfrwt beam="2">  1       -4 0.12684592E+00 0.42502320E+03</pdfrwt>
<totfact> 0.40877955E+00</totfact>
</mgrwt>
</event>
<event>
12    3  0.1201947E-007  0.5742776E+03  0.7818608E-02  0.9960257E-01
         -4   -1    0    0    0  501 -0.00000000000E+00  0.00000000000E+00  0.83777274353E+03  0.83777274353E+03  0.00000000000E+00 0.  1.
          3   -1    0    0  501    0  0.00000000000E+00 -0.00000000000E+00 -0.47591240010E+03  0.47591240010E+03  0.00000000000E+00 0. -1.
        -24    2    1    2    0    0  0.37962672561E+02  0.41949083664E+03  0.39107355461E+03  0.58044091776E+03  0.80990168291E+02 0.  0.
    5000000    2    1    2    0    0 -0.37962672561E+02 -0.41949083664E+03 -0.29213211183E+02  0.73324422587E+03  0.59948307443E+03 0.  0.
        -24    2    4    4    0    0  0.17117074249E+03 -0.45806264791E+03  0.36639977849E+02  0.49681800546E+03  0.79779885194E+02 0.  0.
         24    2    4    4    0    0 -0.20913341506E+03  0.38571811265E+02 -0.65853189031E+02  0.23642622040E+03  0.79599907484E+02 0.  0.
         13    1    3    3    0    0  0.28796315774E+02  0.55841389042E+02  0.37578469637E+02  0.73209493323E+02  0.00000000000E+00 0. -1.
        -14    1    3    3    0    0  0.91663567874E+01  0.36364944760E+03  0.35349508497E+03  0.50723142444E+03  0.00000000000E+00 0.  1.
         15    1    5    5    0    0  0.37600332428E+02 -0.21191768908E+03  0.92955996655E+01  0.21543550740E+03  0.17770000000E+01 0. -1.
        -16    1    5    5    0    0  0.13357041007E+03 -0.24614495882E+03  0.27344378183E+02  0.28138249807E+03  0.00000000000E+00 0.  1.
          2    1    6    6  502    0 -0.10314199692E+03  0.58867185221E+02 -0.41450420257E+02  0.12578455534E+03  0.00000000000E+00 0. -1.
         -1    1    6    6    0  502 -0.10599141814E+03 -0.20295373955E+02 -0.24402768774E+02  0.11064166506E+03  0.00000000000E+00 0.  1.
<mgrwt>
<rscale>  0 0.57427762E+03</rscale>
<asrwt>0</asrwt>
<pdfrwt beam="1">  1        3 0.73217292E-01 0.57427762E+03</pdfrwt>
<pdfrwt beam="2">  1       -4 0.12888811E+00 0.57427762E+03</pdfrwt>
<totfact> 0.17711397E+00</totfact>
</mgrwt>
</event>
<event>
12    3  0.1201947E-007  0.3445285E+03  0.7818608E-02  0.1064883E+00
          1   -1    0    0  501    0  0.00000000000E+00  0.00000000000E+00  0.25580023197E+04  0.25580023197E+04  0.00000000000E+00 0. -1.
         -2   -1    0    0    0  501 -0.00000000000E+00 -0.00000000000E+00 -0.55153689958E+02  0.55153689958E+02  0.00000000000E+00 0.  1.
        -24    2    1    2    0    0 -0.11640908372E+03  0.10910417106E+02  0.45844887939E+03  0.47933494475E+03  0.76918803078E+02 0.  0.
    5000000    2    1    2    0    0  0.11640908372E+03 -0.10910417106E+02  0.20443997504E+04  0.21338210650E+04  0.59995990354E+03 0.  0.
        -24    2    4    4    0    0 -0.16349658151E+03 -0.14386062348E+03  0.13411566971E+04  0.13611720599E+04  0.81615436433E+02 0.  0.
         24    2    4    4    0    0  0.27990566523E+03  0.13295020637E+03  0.70324305331E+03  0.77264900502E+03  0.80079673593E+02 0.  0.
         11    1    3    3    0    0 -0.12315310167E+02  0.31072706587E+02  0.12802757955E+03  0.13231871026E+03  0.00000000000E+00 0. -1.
        -12    1    3    3    0    0 -0.10409377356E+03 -0.20162289481E+02  0.33042129984E+03  0.34701623449E+03  0.00000000000E+00 0.  1.
         15    1    5    5    0    0 -0.14451875809E+02  0.92659789846E+01  0.65190009386E+02  0.67435970622E+02  0.17770000000E+01 0. -1.
        -16    1    5    5    0    0 -0.14904470570E+03 -0.15312660246E+03  0.12759666877E+04  0.12937360893E+04  0.00000000000E+00 0.  1.
          4    1    6    6  502    0  0.29804971026E+01  0.18955559626E+02  0.62450710108E+02  0.65332134487E+02  0.00000000000E+00 0. -1.
         -3    1    6    6    0  502  0.27692516813E+03  0.11399464675E+03  0.64079234321E+03  0.70731687053E+03  0.00000000000E+00 0.  1.
<mgrwt>
<rscale>  0 0.34452854E+03</rscale>
<asrwt>0</asrwt>
<pdfrwt beam="1">  1        1 0.39353873E+00 0.34452854E+03</pdfrwt>
<pdfrwt beam="2">  1       -2 0.84851851E-02 0.34452854E+03</pdfrwt>
<totfact> 0.10794829E+02</totfact>
</mgrwt>
</event>
<event>
12    3  0.1201947E-007  0.1666860E+04  0.7818608E-02  0.8780494E-01
         -2   -1    0    0    0  501 -0.00000000000E+00  0.00000000000E+00  0.19539391733E+04  0.19539391733E+04  0.00000000000E+00 0.  1.
          1   -1    0    0  501    0  0.00000000000E+00 -0.00000000000E+00 -0.14347288617E+04  0.14347288617E+04  0.00000000000E+00 0. -1.
        -24    2    1    2    0    0  0.13815787726E+04  0.84366779926E+03  0.19879721764E+03  0.16327726134E+04  0.76751630768E+02 0.  0.
    5000000    2    1    2    0    0 -0.13815787726E+04 -0.84366779926E+03  0.32041309393E+03  0.17558954216E+04  0.59997409962E+03 0.  0.
        -24    2    4    4    0    0 -0.10789671543E+04 -0.35584014832E+03  0.29759446729E+03  0.11771282089E+04  0.79221348020E+02 0.  0.
         24    2    4    4    0    0 -0.30261161831E+03 -0.48782765094E+03  0.22818626635E+02  0.57876721266E+03  0.70008486409E+02 0.  0.
         13    1    3    3    0    0  0.57221393976E+03  0.32423189236E+03  0.11195828082E+03  0.66715048491E+03  0.00000000000E+00 0. -1.
        -14    1    3    3    0    0  0.80936483287E+03  0.51943590690E+03  0.86838936825E+02  0.96562212848E+03  0.00000000000E+00 0.  1.
         15    1    5    5    0    0 -0.86925066660E+03 -0.29814283923E+03  0.21003887386E+03  0.94265866581E+03  0.17770000000E+01 0. -1.
        -16    1    5    5    0    0 -0.20971648772E+03 -0.57697309092E+02  0.87555593431E+02  0.23446954309E+03  0.00000000000E+00 0.  1.
          4    1    6    6  502    0 -0.18683528236E+03 -0.23860539273E+03  0.23549413698E+02  0.30396468719E+03  0.00000000000E+00 0. -1.
         -3    1    6    6    0  502 -0.11577633595E+03 -0.24922225821E+03 -0.73078706269E+00  0.27480252547E+03  0.00000000000E+00 0.  1.
<mgrwt>
<rscale>  0 0.16668604E+04</rscale>
<asrwt>0</asrwt>
<pdfrwt beam="1">  1        1 0.22072752E+00 0.16668604E+04</pdfrwt>
<pdfrwt beam="2">  1       -2 0.30060603E+00 0.16668604E+04</pdfrwt>
<totfact> 0.18604992E-01</totfact>
</mgrwt>
</event>
<event>
12    3  0.1201947E-007  0.8137400E+03  0.7818608E-02  0.9540339E-01
         -4   -1    0    0    0  501 -0.00000000000E+00  0.00000000000E+00  0.19879585850E+04  0.19879585850E+04  0.00000000000E+00 0.  1.
          3   -1    0    0  501    0  0.00000000000E+00 -0.00000000000E+00 -0.40995121323E+03  0.40995121323E+03  0.00000000000E+00 0. -1.
        -24    2    1    2    0    0  0.62301375694E+03 -0.50308982761E+03  0.69028245567E+03  0.10603077109E+04  0.80728291940E+02 0.  0.
    5000000    2    1    2    0    0 -0.62301375694E+03  0.50308982761E+03  0.88772491610E+03  0.13376020874E+04  0.59989857600E+03 0.  0.
        -24    2    4    4    0    0 -0.37371504209E+03  0.39791546228E+03  0.18770485716E+03  0.58260821478E+03  0.78737352780E+02 0.  0.
         24    2    4    4    0    0 -0.24929871485E+03  0.10517436533E+03  0.70002005894E+03  0.75499387259E+03  0.82317485259E+02 0.  0.
         13    1    3    3    0    0  0.43061876751E+03 -0.29968412277E+03  0.46181567053E+03  0.69893977561E+03  0.00000000000E+00 0. -1.
        -14    1    3    3    0    0  0.19239498943E+03 -0.20340570484E+03  0.22846678514E+03  0.36136793525E+03  0.00000000000E+00 0.  1.
         15    1    5    5    0    0 -0.37283492075E+03  0.37601380770E+03  0.18237655482E+03  0.56005055771E+03  0.17770000000E+01 0. -1.
        -16    1    5    5    0    0 -0.88012134392E+00  0.21901654578E+02  0.53283023363E+01  0.22557657073E+02  0.00000000000E+00 0.  1.
          2    1    6    6  502    0 -0.36343354836E+02  0.73926376880E+01  0.19179042132E+03  0.19534343153E+03  0.00000000000E+00 0. -1.
         -1    1    6    6    0  502 -0.21295536001E+03  0.97781727646E+02  0.50822963762E+03  0.55965044106E+03  0.00000000000E+00 0.  1.
<mgrwt>
<rscale>  0 0.81373999E+03</rscale>
<asrwt>0</asrwt>
<pdfrwt beam="1">  1        3 0.63069418E-01 0.81373999E+03</pdfrwt>
<pdfrwt beam="2">  1       -4 0.30583978E+00 0.81373999E+03</pdfrwt>
<totfact> 0.15987593E-01</totfact>
</mgrwt>
</event>
<event>
12    3  0.1201947E-007  0.4754366E+03  0.7818608E-02  0.1020397E+00
          1   -1    0    0  501    0  0.00000000000E+00  0.00000000000E+00  0.27650619815E+04  0.27650619815E+04  0.00000000000E+00 0. -1.
         -2   -1    0    0    0  501 -0.00000000000E+00 -0.00000000000E+00 -0.12037291981E+03  0.12037291981E+03  0.00000000000E+00 0.  1.
        -24    2    1    2    0    0 -0.34292826720E+03  0.21762074473E+03  0.74469166753E+03  0.85197678414E+03  0.79625222476E+02 0.  0.
    5000000    2    1    2    0    0  0.34292826720E+03 -0.21762074473E+03  0.18999973942E+04  0.20334581172E+04  0.60000269292E+03 0.  0.
        -24    2    4    4    0    0 -0.63725150179E+02 -0.92297732531E+02  0.12159210159E+04  0.12237453050E+04  0.80677682915E+02 0.  0.
         24    2    4    4    0    0  0.40665341738E+03 -0.12532301220E+03  0.68407637829E+03  0.80971281216E+03  0.81249539017E+02 0.  0.
         11    1    3    3    0    0 -0.23412664599E+02  0.34287597600E+02  0.44937139873E+02  0.61181196072E+02  0.00000000000E+00 0. -1.
        -12    1    3    3    0    0 -0.31951560260E+03  0.18333314713E+03  0.69975452766E+03  0.79079558807E+03  0.00000000000E+00 0.  1.
         15    1    5    5    0    0 -0.28075182755E+02 -0.19913982478E+02  0.11982393244E+03  0.12468245707E+03  0.17770000000E+01 0. -1.
        -16    1    5    5    0    0 -0.35649967423E+02 -0.72383750053E+02  0.10960970834E+04  0.10990628479E+04  0.00000000000E+00 0.  1.
          2    1    6    6  502    0  0.14050394602E+03 -0.51263295106E+02  0.17251205394E+03  0.22831927870E+03  0.00000000000E+00 0. -1.
         -3    1    6    6    0  502  0.26614947136E+03 -0.74059717089E+02  0.51156432435E+03  0.58139353345E+03  0.00000000000E+00 0.  1.
<mgrwt>
<rscale>  0 0.47543665E+03</rscale>
<asrwt>0</asrwt>
<pdfrwt beam="1">  1        1 0.42539410E+00 0.47543665E+03</pdfrwt>
<pdfrwt beam="2">  1       -2 0.18518913E-01 0.47543665E+03</pdfrwt>
<totfact> 0.20947963E+01</totfact>
</mgrwt>
</event>
<event>
12    3  0.1201947E-007  0.1049134E+04  0.7818608E-02  0.9256239E-01
         -2   -1    0    0    0  501 -0.00000000000E+00  0.00000000000E+00  0.15733673126E+04  0.15733673126E+04  0.00000000000E+00 0.  1.
          1   -1    0    0  501    0  0.00000000000E+00 -0.00000000000E+00 -0.18263046964E+04  0.18263046964E+04  0.00000000000E+00 0. -1.
        -24    2    1    2    0    0 -0.93063574835E+03 -0.45483219977E+03 -0.13989266731E+04  0.17424471356E+04  0.78555443051E+02 0.  0.
    5000000    2    1    2    0    0  0.93063574835E+03  0.45483219977E+03  0.11459892893E+04  0.16572248734E+04  0.60012299056E+03 0.  0.
        -24    2    4    4    0    0  0.87841595832E+03  0.40938633920E+03  0.69646323008E+03  0.11961435998E+04  0.80540113672E+02 0.  0.
         24    2    4    4    0    0  0.52219790028E+02  0.45445860570E+02  0.44952605926E+03  0.46108127364E+03  0.75696963200E+02 0.  0.
         13    1    3    3    0    0 -0.90902250447E+02 -0.69998585158E+02 -0.14045595108E+03  0.18135847169E+03  0.00000000000E+00 0. -1.
        -14    1    3    3    0    0 -0.83973349790E+03 -0.38483361461E+03 -0.12584707220E+04  0.15610886639E+04  0.00000000000E+00 0.  1.
         15    1    5    5    0    0  0.52785310939E+03  0.28913477191E+03  0.43100012924E+03  0.74026487865E+03  0.17770000000E+01 0. -1.
        -16    1    5    5    0    0  0.35056284893E+03  0.12025156729E+03  0.26546310084E+03  0.45587872114E+03  0.00000000000E+00 0.  1.
          2    1    6    6  502    0  0.48978204281E+02  0.57115892773E+02  0.24729232844E+03  0.25848517444E+03  0.00000000000E+00 0. -1.
         -1    1    6    6    0  502  0.32415857476E+01 -0.11670032203E+02  0.20223373082E+03  0.20259609920E+03  0.00000000000E+00 0.  1.
<mgrwt>
<rscale>  0 0.10491338E+04</rscale>
<asrwt>0</asrwt>
<pdfrwt beam="1">  1        1 0.28096995E+00 0.10491338E+04</pdfrwt>
<pdfrwt beam="2">  1       -2 0.24205651E+00 0.10491338E+04</pdfrwt>
<totfact> 0.24622183E-01</totfact>
</mgrwt>
</event>
<event>
12    3  0.1201947E-007  0.4094647E+03  0.7818608E-02  0.1040551E+00
         -2   -1    0    0    0  501 -0.00000000000E+00  0.00000000000E+00  0.19339753648E+03  0.19339753648E+03  0.00000000000E+00 0.  1.
          1   -1    0    0  501    0  0.00000000000E+00 -0.00000000000E+00 -0.10740370928E+04  0.10740370928E+04  0.00000000000E+00 0. -1.
        -24    2    1    2    0    0  0.20421989042E+03  0.89295609430E+02 -0.95598155684E+02  0.25453806152E+03  0.77273202900E+02 0.  0.
    5000000    2    1    2    0    0 -0.20421989042E+03 -0.89295609430E+02 -0.78504140062E+03  0.10128965677E+04  0.59999165555E+03 0.  0.
        -24    2    4    4    0    0 -0.35493646310E+03 -0.19203024169E+03 -0.37350666849E+03  0.55566739644E+03  0.80021981344E+02 0.  0.
         24    2    4    4    0    0  0.15071657268E+03  0.10273463226E+03 -0.41153473213E+03  0.45722917130E+03  0.80173495542E+02 0.  0.
         13    1    3    3    0    0  0.38417346973E+02  0.41570896022E+02  0.13715182668E+01  0.56620782464E+02  0.00000000000E+00 0. -1.
        -14    1    3    3    0    0  0.16580254345E+03  0.47724713408E+02 -0.96969673950E+02  0.19791727906E+03  0.00000000000E+00 0.  1.
         15    1    5    5    0    0 -0.86775393676E+02 -0.75314705942E+02 -0.14197084228E+03  0.18265035359E+03  0.17770000000E+01 0. -1.
        -16    1    5    5    0    0 -0.26816106943E+03 -0.11671553574E+03 -0.23153582621E+03  0.37301704285E+03  0.00000000000E+00 0.  1.
          4    1    6    6  502    0  0.25699008973E+02  0.18607150298E+02 -0.16705126913E+03  0.17003761825E+03  0.00000000000E+00 0. -1.
         -3    1    6    6    0  502  0.12501756371E+03  0.84127481959E+02 -0.24448346301E+03  0.28719155304E+03  0.00000000000E+00 0.  1.
<mgrwt>
<rscale>  0 0.40946468E+03</rscale>
<asrwt>0</asrwt>
<pdfrwt beam="1">  1        1 0.16523648E+00 0.40946468E+03</pdfrwt>
<pdfrwt beam="2">  1       -2 0.29753466E-01 0.40946468E+03</pdfrwt>
<totfact> 0.12718843E+02</totfact>
</mgrwt>
</event>
<event>
12    3  0.1201947E-007  0.7261825E+03  0.7818608E-02  0.9673475E-01
          1   -1    0    0  501    0  0.00000000000E+00  0.00000000000E+00  0.15457868514E+04  0.15457868514E+04  0.00000000000E+00 0. -1.
         -4   -1    0    0    0  501 -0.00000000000E+00 -0.00000000000E+00 -0.44430833260E+03  0.44430833260E+03  0.00000000000E+00 0.  1.
        -24    2    1    2    0    0  0.68991565199E+03 -0.38891462962E+02  0.71163841171E+03  0.99516808187E+03  0.80213025068E+02 0.  0.
    5000000    2    1    2    0    0 -0.68991565199E+03  0.38891462962E+02  0.38984010705E+03  0.99492710211E+03  0.60034030074E+03 0.  0.
        -24    2    4    4    0    0 -0.23084813622E+02  0.48927121797E+02 -0.11853824236E+03  0.15271818864E+03  0.79653991569E+02 0.  0.
         24    2    4    4    0    0 -0.66683083836E+03 -0.10035658835E+02  0.50837834942E+03  0.84220891346E+03  0.78123148406E+02 0.  0.
         11    1    3    3    0    0  0.13206585401E+03 -0.37799961278E+01  0.18393338508E+03  0.22646670465E+03  0.00000000000E+00 0. -1.
        -12    1    3    3    0    0  0.55784979798E+03 -0.35111466834E+02  0.52770502663E+03  0.76870137722E+03  0.00000000000E+00 0.  1.
         15    1    5    5    0    0 -0.49295705208E+02  0.43462672651E+02 -0.10166582359E+03  0.12107092087E+03  0.17770000000E+01 0. -1.
        -16    1    5    5    0    0  0.26210891586E+02  0.54644491464E+01 -0.16872418778E+02  0.31647267775E+02  0.00000000000E+00 0.  1.
          4    1    6    6  502    0 -0.27457069566E+03  0.20443369943E+02  0.24674809408E+03  0.36971829846E+03  0.00000000000E+00 0. -1.
         -3    1    6    6    0  502 -0.39226014271E+03 -0.30479028778E+02  0.26163025534E+03  0.47249061500E+03  0.00000000000E+00 0.  1.
<mgrwt>
<rscale>  0 0.72618246E+03</rscale>
<asrwt>0</asrwt>
<pdfrwt beam="1">  1        1 0.23781336E+00 0.72618246E+03</pdfrwt>
<pdfrwt beam="2">  1       -4 0.68355129E-01 0.72618246E+03</pdfrwt>
<totfact> 0.59362718E+00</totfact>
</mgrwt>
</event>
<event>
12    3  0.1201947E-007  0.9146329E+03  0.7818608E-02  0.9407472E-01
         -2   -1    0    0    0  501 -0.00000000000E+00  0.00000000000E+00  0.55662502250E+03  0.55662502250E+03  0.00000000000E+00 0.  1.
          1   -1    0    0  501    0  0.00000000000E+00 -0.00000000000E+00 -0.18393262548E+04  0.18393262548E+04  0.00000000000E+00 0. -1.
        -24    2    1    2    0    0  0.29739276181E+03  0.85777561207E+03 -0.76965746716E+03  0.11928719759E+04  0.79683616359E+02 0.  0.
    5000000    2    1    2    0    0 -0.29739276181E+03 -0.85777561207E+03 -0.51304376511E+03  0.12030793014E+04  0.59997037011E+03 0.  0.
        -24    2    4    4    0    0 -0.17857378435E+03 -0.64546527455E+03 -0.62992819572E+03  0.92117816489E+03  0.56970717123E+02 0.  0.
         24    2    4    4    0    0 -0.11881897745E+03 -0.21231033753E+03  0.11688443061E+03  0.28190113647E+03  0.81318213223E+02 0.  0.
         13    1    3    3    0    0  0.26287257985E+03  0.66862965524E+03 -0.58863236766E+03  0.92879258898E+03  0.00000000000E+00 0. -1.
        -14    1    3    3    0    0  0.34520181963E+02  0.18914595684E+03 -0.18102509950E+03  0.26407938693E+03  0.00000000000E+00 0.  1.
         15    1    5    5    0    0 -0.46665624355E+02 -0.25476042856E+03 -0.26441484822E+03  0.37013365984E+03  0.17770000000E+01 0. -1.
        -16    1    5    5    0    0 -0.13190816000E+03 -0.39070484599E+03 -0.36551334750E+03  0.55104450506E+03  0.00000000000E+00 0.  1.
          4    1    6    6  502    0 -0.45566101863E+02 -0.12588505276E+03  0.25362553758E+02  0.13625922090E+03  0.00000000000E+00 0. -1.
         -3    1    6    6    0  502 -0.73252875592E+02 -0.86425284769E+02  0.91521876849E+02  0.14564191557E+03  0.00000000000E+00 0.  1.
<mgrwt>
<rscale>  0 0.91463289E+03</rscale>
<asrwt>0</asrwt>
<pdfrwt beam="1">  1        1 0.28297327E+00 0.91463289E+03</pdfrwt>
<pdfrwt beam="2">  1       -2 0.85634618E-01 0.91463289E+03</pdfrwt>
<totfact> 0.40462844E+00</totfact>
</mgrwt>
</event>
<event>
12    3  0.1201947E-007  0.6057543E+03  0.7818608E-02  0.9893539E-01
          1   -1    0    0  501    0  0.00000000000E+00  0.00000000000E+00  0.13287082600E+04  0.13287082600E+04  0.00000000000E+00 0. -1.
         -2   -1    0    0    0  501 -0.00000000000E+00 -0.00000000000E+00 -0.29364380759E+03  0.29364380759E+03  0.00000000000E+00 0.  1.
        -24    2    1    2    0    0  0.41286233206E+03  0.20206454541E+03  0.56322235049E+03  0.73131994482E+03  0.79523957678E+02 0.  0.
    5000000    2    1    2    0    0 -0.41286233206E+03 -0.20206454541E+03  0.47184210189E+03  0.89103212275E+03  0.60001490723E+03 0.  0.
        -24    2    4    4    0    0 -0.46728277607E+03  0.58026743474E+02  0.31950028960E+03  0.57455188556E+03  0.79430084818E+02 0.  0.
         24    2    4    4    0    0  0.54420444012E+02 -0.26009128888E+03  0.15234181229E+03  0.31648023719E+03  0.79640752613E+02 0.  0.
         11    1    3    3    0    0  0.17045023420E+03  0.90161381094E+02  0.17667109701E+03  0.26152444149E+03  0.00000000000E+00 0. -1.
        -12    1    3    3    0    0  0.24241209786E+03  0.11190316432E+03  0.38655125348E+03  0.46979550332E+03  0.00000000000E+00 0.  1.
         15    1    5    5    0    0 -0.25845251440E+03  0.67358371667E+02  0.15734356611E+03  0.30999194822E+03  0.17770000000E+01 0. -1.
        -16    1    5    5    0    0 -0.20883026167E+03 -0.93316281929E+01  0.16215672349E+03  0.26455993734E+03  0.00000000000E+00 0.  1.
          2    1    6    6  502    0  0.70477872441E+02 -0.16974738328E+03  0.84086939068E+02  0.20211857400E+03  0.00000000000E+00 0. -1.
         -1    1    6    6    0  502 -0.16057428429E+02 -0.90343905599E+02  0.68254873225E+02  0.11436166318E+03  0.00000000000E+00 0.  1.
<mgrwt>
<rscale>  0 0.60575434E+03</rscale>
<asrwt>0</asrwt>
<pdfrwt beam="1">  1        1 0.20441665E+00 0.60575434E+03</pdfrwt>
<pdfrwt beam="2">  1       -2 0.45175971E-01 0.60575434E+03</pdfrwt>
<totfact> 0.36697242E+01</totfact>
</mgrwt>
</event>
<event>
12    3  0.1201947E-007  0.1564496E+04  0.7818608E-02  0.8842661E-01
         -2   -1    0    0    0  501 -0.00000000000E+00  0.00000000000E+00  0.15876072181E+04  0.15876072181E+04  0.00000000000E+00 0.  1.
          1   -1    0    0  501    0  0.00000000000E+00 -0.00000000000E+00 -0.18264834891E+04  0.18264834891E+04  0.00000000000E+00 0. -1.
        -24    2    1    2    0    0  0.87484119581E+03 -0.12893342508E+04  0.42539956957E+03  0.16171404972E+04  0.80303584843E+02 0.  0.
    5000000    2    1    2    0    0 -0.87484119581E+03  0.12893342508E+04 -0.66427584061E+03  0.17969502100E+04  0.60003144629E+03 0.  0.
        -24    2    4    4    0    0 -0.69579055333E+03  0.11084015513E+04 -0.30053727148E+03  0.13451583312E+04  0.80310594069E+02 0.  0.
         24    2    4    4    0    0 -0.17905064248E+03  0.18093269949E+03 -0.36373856912E+03  0.45179187873E+03  0.83751899683E+02 0.  0.
         13    1    3    3    0    0  0.61960178476E+03 -0.87879598686E+03  0.32621035443E+03  0.11236556205E+04  0.00000000000E+00 0. -1.
        -14    1    3    3    0    0  0.25523941105E+03 -0.41053826394E+03  0.99189215133E+02  0.49348487668E+03  0.00000000000E+00 0.  1.
         15    1    5    5    0    0 -0.51279255387E+03  0.78187020094E+03 -0.24639176409E+03  0.96694843377E+03  0.17770000000E+01 0. -1.
        -16    1    5    5    0    0 -0.18299799946E+03  0.32653135036E+03 -0.54145507392E+02  0.37820989747E+03  0.00000000000E+00 0.  1.
          4    1    6    6  502    0 -0.10828777567E+03  0.68532950196E+02 -0.12748986289E+03  0.18076690173E+03  0.00000000000E+00 0. -1.
         -3    1    6    6    0  502 -0.70762866815E+02  0.11239974930E+03 -0.23624870623E+03  0.27102497700E+03  0.00000000000E+00 0.  1.
<mgrwt>
<rscale>  0 0.15644958E+04</rscale>
<asrwt>0</asrwt>
<pdfrwt beam="1">  1        1 0.28099746E+00 0.15644958E+04</pdfrwt>
<pdfrwt beam="2">  1       -2 0.24424726E+00 0.15644958E+04</pdfrwt>
<totfact> 0.22322483E-01</totfact>
</mgrwt>
</event>
<event>
12    3  0.1201947E-007  0.5292897E+03  0.7818608E-02  0.1006405E+00
          1   -1    0    0  501    0  0.00000000000E+00  0.00000000000E+00  0.17662248289E+03  0.17662248289E+03  0.00000000000E+00 0. -1.
         -2   -1    0    0    0  501 -0.00000000000E+00 -0.00000000000E+00 -0.19243327665E+04  0.19243327665E+04  0.00000000000E+00 0.  1.
        -24    2    1    2    0    0 -0.34781386799E+03 -0.10325986780E+03 -0.10412483770E+04  0.11056343283E+04  0.81191122999E+02 0.  0.
    5000000    2    1    2    0    0  0.34781386799E+03  0.10325986780E+03 -0.70646190665E+03  0.99532092103E+03  0.59994851714E+03 0.  0.
        -24    2    4    4    0    0  0.43441435435E+03 -0.11194957517E+03 -0.44076428392E+03  0.63383018277E+03  0.78860687062E+02 0.  0.
         24    2    4    4    0    0 -0.86600486357E+02  0.21520944297E+03 -0.26569762273E+03  0.36149073826E+03  0.79155407544E+02 0.  0.
         11    1    3    3    0    0 -0.14793078508E+03 -0.26028698087E+02 -0.32524649689E+03  0.35825451014E+03  0.00000000000E+00 0. -1.
        -12    1    3    3    0    0 -0.19988308291E+03 -0.77231169714E+02 -0.71600188006E+03  0.74737981821E+03  0.00000000000E+00 0.  1.
         15    1    5    5    0    0  0.12062350790E+03 -0.42992940410E+02 -0.81199356240E+02  0.15164074903E+03  0.17770000000E+01 0. -1.
        -16    1    5    5    0    0  0.31379084645E+03 -0.68956634757E+02 -0.35956492768E+03  0.48218943374E+03  0.00000000000E+00 0.  1.
          4    1    6    6  502    0 -0.67282001352E+02  0.65860008452E+02 -0.92666050281E+02  0.13210376715E+03  0.00000000000E+00 0. -1.
         -3    1    6    6    0  502 -0.19318485005E+02  0.14934943452E+03 -0.17303157245E+03  0.22938697112E+03  0.00000000000E+00 0.  1.
<mgrwt>
<rscale>  0 0.52928972E+03</rscale>
<asrwt>0</asrwt>
<pdfrwt beam="1">  1        1 0.27172688E-01 0.52928972E+03</pdfrwt>
<pdfrwt beam="2">  1       -2 0.29605121E+00 0.52928972E+03</pdfrwt>
<totfact> 0.55100975E+00</totfact>
</mgrwt>
</event>
<event>
12    3  0.1201947E-007  0.8504778E+03  0.7818608E-02  0.9489696E-01
          1   -1    0    0  501    0  0.00000000000E+00  0.00000000000E+00  0.18663410677E+04  0.18663410677E+04  0.00000000000E+00 0. -1.
         -2   -1    0    0    0  501 -0.00000000000E+00 -0.00000000000E+00 -0.52672803624E+03  0.52672803624E+03  0.00000000000E+00 0.  1.
        -24    2    1    2    0    0 -0.77654774216E+03  0.69800542355E+02  0.70603990170E+02  0.78720223881E+03  0.82485936865E+02 0.  0.
    5000000    2    1    2    0    0  0.77654774216E+03 -0.69800542355E+02  0.12690090413E+04  0.16058668652E+04  0.60043811514E+03 0.  0.
        -24    2    4    4    0    0  0.14805243994E+03 -0.21740263040E+03  0.65859341388E+03  0.71374560420E+03  0.80647839555E+02 0.  0.
         24    2    4    4    0    0  0.62849530222E+03  0.14760208805E+03  0.61041562742E+03  0.89212126096E+03  0.80500836895E+02 0.  0.
         13    1    3    3    0    0 -0.55567452017E+03  0.29834035354E+02  0.18542369358E+02  0.55678367567E+03  0.00000000000E+00 0. -1.
        -14    1    3    3    0    0 -0.22087322199E+03  0.39966507001E+02  0.52061620812E+02  0.23041856313E+03  0.00000000000E+00 0.  1.
         15    1    5    5    0    0  0.84300738937E+02 -0.59962894049E+02  0.28978570667E+03  0.30770290341E+03  0.17770000000E+01 0. -1.
        -16    1    5    5    0    0  0.63751701007E+02 -0.15743973635E+03  0.36880770721E+03  0.40604270078E+03  0.00000000000E+00 0.  1.
          2    1    6    6  502    0  0.37665925835E+03  0.69410104037E+02  0.31291542370E+03  0.49457660866E+03  0.00000000000E+00 0. -1.
         -1    1    6    6    0  502  0.25183604387E+03  0.78191984008E+02  0.29750020373E+03  0.39754465230E+03  0.00000000000E+00 0.  1.
<mgrwt>
<rscale>  0 0.85047785E+03</rscale>
<asrwt>0</asrwt>
<pdfrwt beam="1">  1        1 0.28712939E+00 0.85047785E+03</pdfrwt>
<pdfrwt beam="2">  1       -2 0.81035083E-01 0.85047785E+03</pdfrwt>
<totfact> 0.44375894E+00</totfact>
</mgrwt>
</event>
<event>
12    3  0.1201947E-007  0.4094164E+03  0.7818608E-02  0.1040567E+00
         -2   -1    0    0    0  501 -0.00000000000E+00  0.00000000000E+00  0.17874419852E+03  0.17874419852E+03  0.00000000000E+00 0.  1.
          1   -1    0    0  501    0  0.00000000000E+00 -0.00000000000E+00 -0.10188409682E+04  0.10188409682E+04  0.00000000000E+00 0. -1.
        -24    2    1    2    0    0 -0.10419009677E+03  0.16282003439E+03 -0.30962422998E+03  0.37363245159E+03  0.79800408677E+02 0.  0.
    5000000    2    1    2    0    0  0.10419009677E+03 -0.16282003439E+03 -0.53047253966E+03  0.82395271510E+03  0.60010917467E+03 0.  0.
        -24    2    4    4    0    0  0.18536668156E+03 -0.34760155999E+03 -0.26533928497E+03  0.48150370772E+03  0.79077387793E+02 0.  0.
         24    2    4    4    0    0 -0.81176584782E+02  0.18478152560E+03 -0.26513325469E+03  0.34244900739E+03  0.79005251700E+02 0.  0.
         13    1    3    3    0    0 -0.73690322754E+02  0.45392330189E+02 -0.10908055644E+03  0.13924544912E+03  0.00000000000E+00 0. -1.
        -14    1    3    3    0    0 -0.30499774019E+02  0.11742770420E+03 -0.20054367354E+03  0.23438700246E+03  0.00000000000E+00 0.  1.
         15    1    5    5    0    0  0.16762221872E+03 -0.28244755221E+03 -0.24863231261E+03  0.41194054494E+03  0.17770000000E+01 0. -1.
        -16    1    5    5    0    0  0.17744462833E+02 -0.65154007779E+02 -0.16706972360E+02  0.69563162782E+02  0.00000000000E+00 0.  1.
          4    1    6    6  502    0 -0.64533187205E+02  0.56928243188E+02 -0.85253227130E+02  0.12113409867E+03  0.00000000000E+00 0. -1.
         -3    1    6    6    0  502 -0.16643397577E+02  0.12785328241E+03 -0.17988002756E+03  0.22131490872E+03  0.00000000000E+00 0.  1.
<mgrwt>
<rscale>  0 0.40941639E+03</rscale>
<asrwt>0</asrwt>
<pdfrwt beam="1">  1        1 0.15674476E+00 0.40941639E+03</pdfrwt>
<pdfrwt beam="2">  1       -2 0.27499108E-01 0.40941639E+03</pdfrwt>
<totfact> 0.16146387E+02</totfact>
</mgrwt>
</event>
<event>
12    3  0.1201947E-007  0.1043560E+04  0.7818608E-02  0.9262019E-01
          1   -1    0    0  501    0  0.00000000000E+00  0.00000000000E+00  0.17807373623E+04  0.17807373623E+04  0.00000000000E+00 0. -1.
         -2   -1    0    0    0  501 -0.00000000000E+00 -0.00000000000E+00 -0.62945600985E+03  0.62945600985E+03  0.00000000000E+00 0.  1.
        -24    2    1    2    0    0 -0.14301345124E+02  0.96792563275E+03  0.62940226255E+03  0.11574057385E+04  0.79726258948E+02 0.  0.
    5000000    2    1    2    0    0  0.14301345124E+02 -0.96792563275E+03  0.52187908994E+03  0.12527876337E+04  0.60002875903E+03 0.  0.
        -24    2    4    4    0    0 -0.23609377592E+03 -0.71572104835E+03  0.44896389722E+03  0.88075321664E+03  0.78490493354E+02 0.  0.
         24    2    4    4    0    0  0.25039512104E+03 -0.25220458440E+03  0.72915192728E+02  0.37203441707E+03  0.82390006182E+02 0.  0.
         13    1    3    3    0    0 -0.21903467068E+02  0.12974467515E+03  0.10826180268E+03  0.17039383944E+03  0.00000000000E+00 0. -1.
        -14    1    3    3    0    0  0.76021219442E+01  0.83818095760E+03  0.52114045987E+03  0.98701189905E+03  0.00000000000E+00 0.  1.
         15    1    5    5    0    0 -0.12747734057E+03 -0.36255701726E+03  0.27359999664E+03  0.47176072220E+03  0.17770000000E+01 0. -1.
        -16    1    5    5    0    0 -0.10861643535E+03 -0.35316403109E+03  0.17536390057E+03  0.40899249444E+03  0.00000000000E+00 0.  1.
          4    1    6    6  502    0  0.13005820078E+03 -0.77570023806E+02  0.14920609993E+02  0.15216723953E+03  0.00000000000E+00 0. -1.
         -3    1    6    6    0  502  0.12033692026E+03 -0.17463456059E+03  0.57994582735E+02  0.21986717754E+03  0.00000000000E+00 0.  1.
<mgrwt>
<rscale>  0 0.10435595E+04</rscale>
<asrwt>0</asrwt>
<pdfrwt beam="1">  1        1 0.27395959E+00 0.10435595E+04</pdfrwt>
<pdfrwt beam="2">  1       -2 0.96839387E-01 0.10435595E+04</pdfrwt>
<totfact> 0.32784189E+00</totfact>
</mgrwt>
</event>
<event>
12    3  0.1201947E-007  0.9649305E+03  0.7818608E-02  0.9347867E-01
          1   -1    0    0  501    0  0.00000000000E+00  0.00000000000E+00  0.17742933517E+04  0.17742933517E+04  0.00000000000E+00 0. -1.
         -2   -1    0    0    0  501 -0.00000000000E+00 -0.00000000000E+00 -0.53325877600E+03  0.53325877600E+03  0.00000000000E+00 0.  1.
        -24    2    1    2    0    0  0.64524960966E+03  0.59391065277E+03  0.61161427060E+03  0.10725430945E+04  0.84851348842E+02 0.  0.
    5000000    2    1    2    0    0 -0.64524960966E+03 -0.59391065277E+03  0.62942030511E+03  0.12350090332E+04  0.60000039109E+03 0.  0.
        -24    2    4    4    0    0 -0.42810404455E+03 -0.18160451989E+02  0.19476977378E+03  0.47749378361E+03  0.80387646014E+02 0.  0.
         24    2    4    4    0    0 -0.21714556511E+03 -0.57575020078E+03  0.43465053133E+03  0.75751524957E+03  0.79169304611E+02 0.  0.
         11    1    3    3    0    0  0.25143356856E+03  0.17664932610E+03  0.21702801161E+03  0.37619806171E+03  0.00000000000E+00 0. -1.
        -12    1    3    3    0    0  0.39381604110E+03  0.41726132668E+03  0.39458625899E+03  0.69634503283E+03  0.00000000000E+00 0.  1.
         15    1    5    5    0    0 -0.14424014908E+03 -0.11122532668E+02  0.25474945471E+02  0.14690494176E+03  0.17770000000E+01 0. -1.
        -16    1    5    5    0    0 -0.28386389548E+03 -0.70379193205E+01  0.16929482831E+03  0.33058884185E+03  0.00000000000E+00 0.  1.
          2    1    6    6  502    0 -0.14089360504E+03 -0.46386122723E+03  0.34803514220E+03  0.59678028308E+03  0.00000000000E+00 0. -1.
         -3    1    6    6    0  502 -0.76251960066E+02 -0.11188897355E+03  0.86615389138E+02  0.16073496649E+03  0.00000000000E+00 0.  1.
<mgrwt>
<rscale>  0 0.96493046E+03</rscale>
<asrwt>0</asrwt>
<pdfrwt beam="1">  1        1 0.27296821E+00 0.96493046E+03</pdfrwt>
<pdfrwt beam="2">  1       -2 0.82039812E-01 0.96493046E+03</pdfrwt>
<totfact> 0.49045330E+00</totfact>
</mgrwt>
</event>
<event>
12    3  0.1201947E-007  0.1137793E+04  0.7818608E-02  0.9169119E-01
         -2   -1    0    0    0  501 -0.00000000000E+00  0.00000000000E+00  0.48694299039E+03  0.48694299039E+03  0.00000000000E+00 0.  1.
          1   -1    0    0  501    0  0.00000000000E+00 -0.00000000000E+00 -0.27206558996E+04  0.27206558996E+04  0.00000000000E+00 0. -1.
        -24    2    1    2    0    0 -0.99797509332E+03  0.38924206634E+03 -0.10620283384E+04  0.15104715288E+04  0.78462568991E+02 0.  0.
    5000000    2    1    2    0    0  0.99797509332E+03 -0.38924206634E+03 -0.11716845708E+04  0.16971273611E+04  0.59994405856E+03 0.  0.
        -24    2    4    4    0    0  0.42105626426E+03  0.11272153195E+03 -0.56266290901E+03  0.71630119464E+03  0.80643231761E+02 0.  0.
         24    2    4    4    0    0  0.57691882906E+03 -0.50196359829E+03 -0.60902166176E+03  0.98082616649E+03  0.79434218294E+02 0.  0.
         13    1    3    3    0    0 -0.20213593200E+03  0.10860832416E+03 -0.25032474410E+03  0.33958383440E+03  0.00000000000E+00 0. -1.
        -14    1    3    3    0    0 -0.79583916133E+03  0.28063374219E+03 -0.81170359433E+03  0.11708876944E+04  0.00000000000E+00 0.  1.
         15    1    5    5    0    0  0.21584215497E+03  0.63876962390E+02 -0.35456243825E+03  0.41998307410E+03  0.17770000000E+01 0. -1.
        -16    1    5    5    0    0  0.20521410930E+03  0.48844569561E+02 -0.20810047076E+03  0.29631812054E+03  0.00000000000E+00 0.  1.
          2    1    6    6  502    0  0.37182417354E+03 -0.35316064969E+03 -0.44511408960E+03  0.67904507456E+03  0.00000000000E+00 0. -1.
         -1    1    6    6    0  502  0.20509465552E+03 -0.14880294861E+03 -0.16390757216E+03  0.30178109193E+03  0.00000000000E+00 0.  1.
<mgrwt>
<rscale>  0 0.11377930E+04</rscale>
<asrwt>0</asrwt>
<pdfrwt beam="1">  1        1 0.41856245E+00 0.11377930E+04</pdfrwt>
<pdfrwt beam="2">  1       -2 0.74914305E-01 0.11377930E+04</pdfrwt>
<totfact> 0.13338219E+00</totfact>
</mgrwt>
</event>
<event>
12    3  0.1201947E-007  0.5038418E+03  0.7818608E-02  0.1012781E+00
          3   -1    0    0  501    0  0.00000000000E+00  0.00000000000E+00  0.39882858520E+03  0.39882858520E+03  0.00000000000E+00 0. -1.
         -4   -1    0    0    0  501 -0.00000000000E+00 -0.00000000000E+00 -0.87715149836E+03  0.87715149836E+03  0.00000000000E+00 0.  1.
        -24    2    1    2    0    0 -0.37987542678E+03 -0.86194607474E+01 -0.40655896419E+03  0.56221856827E+03  0.80124229590E+02 0.  0.
    5000000    2    1    2    0    0  0.37987542678E+03  0.86194607474E+01 -0.71763948972E+02  0.71376151529E+03  0.59993816462E+03 0.  0.
        -24    2    4    4    0    0  0.37367279287E+03 -0.17892981182E+03  0.11893087057E+03  0.43551024549E+03  0.62268677985E+02 0.  0.
         24    2    4    4    0    0  0.62026339057E+01  0.18754927257E+03 -0.19069481954E+03  0.27825126981E+03  0.76459483653E+02 0.  0.
         13    1    3    3    0    0 -0.16281558671E+03  0.35451820894E+02 -0.16543043482E+03  0.23480412187E+03  0.00000000000E+00 0. -1.
        -14    1    3    3    0    0 -0.21705984007E+03 -0.44071281642E+02 -0.24112852937E+03  0.32741444640E+03  0.00000000000E+00 0.  1.
         15    1    5    5    0    0  0.90441594753E+02 -0.71282788592E+02  0.44794508992E+02  0.12357436537E+03  0.17770000000E+01 0. -1.
        -16    1    5    5    0    0  0.28323119812E+03 -0.10764702323E+03  0.74136361577E+02  0.31193588012E+03  0.00000000000E+00 0.  1.
          2    1    6    6  502    0 -0.33464023291E+02  0.77479132346E+02 -0.95232932558E+02  0.12724845087E+03  0.00000000000E+00 0. -1.
         -1    1    6    6    0  502  0.39666657197E+02  0.11007014022E+03 -0.95461886983E+02  0.15100281894E+03  0.00000000000E+00 0.  1.
<mgrwt>
<rscale>  0 0.50384178E+03</rscale>
<asrwt>0</asrwt>
<pdfrwt beam="1">  1        3 0.61358245E-01 0.50384178E+03</pdfrwt>
<pdfrwt beam="2">  1       -4 0.13494638E+00 0.50384178E+03</pdfrwt>
<totfact> 0.23062683E+00</totfact>
</mgrwt>
</event>
<event>
12    3  0.1201947E-007  0.5738450E+03  0.7818608E-02  0.9961206E-01
         -2   -1    0    0    0  501 -0.00000000000E+00  0.00000000000E+00  0.25786038822E+03  0.25786038822E+03  0.00000000000E+00 0.  1.
          1   -1    0    0  501    0  0.00000000000E+00 -0.00000000000E+00 -0.14241339441E+04  0.14241339441E+04  0.00000000000E+00 0. -1.
        -24    2    1    2    0    0  0.61432384808E+02  0.41810396841E+03 -0.21555916679E+03  0.48095372513E+03  0.79157217153E+02 0.  0.
    5000000    2    1    2    0    0 -0.61432384808E+02 -0.41810396841E+03 -0.95071438907E+03  0.12010406072E+04  0.60004651836E+03 0.  0.
        -24    2    4    4    0    0  0.24840783753E+03 -0.99469075500E+02 -0.32223761120E+03  0.42644087366E+03  0.80088637950E+02 0.  0.
         24    2    4    4    0    0 -0.30984022234E+03 -0.31863489291E+03 -0.62847677787E+03  0.77459973351E+03  0.86559392787E+02 0.  0.
         13    1    3    3    0    0  0.72002906466E+02  0.25314640396E+03 -0.15151429292E+03  0.30368421318E+03  0.00000000000E+00 0. -1.
        -14    1    3    3    0    0 -0.10570521657E+02  0.16495756445E+03 -0.64044873865E+02  0.17726951195E+03  0.00000000000E+00 0.  1.
         15    1    5    5    0    0  0.16168230223E+03 -0.37223753708E+02 -0.14927771223E+03  0.22318998139E+03  0.17770000000E+01 0. -1.
        -16    1    5    5    0    0  0.86725535305E+02 -0.62245321791E+02 -0.17295989897E+03  0.20325089227E+03  0.00000000000E+00 0.  1.
          4    1    6    6  502    0 -0.17776620757E+03 -0.21284451718E+03 -0.45053809631E+03  0.52904460046E+03  0.00000000000E+00 0. -1.
         -3    1    6    6    0  502 -0.13207401478E+03 -0.10579037573E+03 -0.17793868156E+03  0.24555513306E+03  0.00000000000E+00 0.  1.
<mgrwt>
<rscale>  0 0.57384497E+03</rscale>
<asrwt>0</asrwt>
<pdfrwt beam="1">  1        1 0.21909753E+00 0.57384497E+03</pdfrwt>
<pdfrwt beam="2">  1       -2 0.39670830E-01 0.57384497E+03</pdfrwt>
<totfact> 0.40855760E+01</totfact>
</mgrwt>
</event>
<event>
12    3  0.1201947E-007  0.1224862E+04  0.7818608E-02  0.9091369E-01
          1   -1    0    0  501    0  0.00000000000E+00  0.00000000000E+00  0.22822425860E+04  0.22822425860E+04  0.00000000000E+00 0. -1.
         -2   -1    0    0    0  501 -0.00000000000E+00 -0.00000000000E+00 -0.19972474137E+04  0.19972474137E+04  0.00000000000E+00 0.  1.
        -24    2    1    2    0    0 -0.21791396444E+03 -0.11790570529E+04  0.18579578729E+04  0.22126892251E+04  0.79524334926E+02 0.  0.
    5000000    2    1    2    0    0  0.21791396444E+03  0.11790570529E+04 -0.15729627006E+04  0.20668007746E+04  0.59982643677E+03 0.  0.
        -24    2    4    4    0    0  0.10533672788E+02 -0.11709396216E+02 -0.29744580147E+03  0.30780550874E+03  0.77602565533E+02 0.  0.
         24    2    4    4    0    0  0.20738029166E+03  0.11907664491E+04 -0.12755168992E+04  0.17589952658E+04  0.78674413949E+02 0.  0.
         13    1    3    3    0    0 -0.93055851209E+02 -0.66479499226E+03  0.99000573873E+03  0.11961283944E+04  0.00000000000E+00 0. -1.
        -14    1    3    3    0    0 -0.12485811324E+03 -0.51426206066E+03  0.86795213412E+03  0.10165608307E+04  0.00000000000E+00 0.  1.
         15    1    5    5    0    0  0.23355028932E+02 -0.74483485852E+01 -0.25117670559E+02  0.35142429858E+02  0.17770000000E+01 0. -1.
        -16    1    5    5    0    0 -0.12821356144E+02 -0.42610476310E+01 -0.27232813091E+03  0.27266307888E+03  0.00000000000E+00 0.  1.
          4    1    6    6  502    0  0.20520517290E+03  0.10230904567E+04 -0.10914132986E+04  0.15099689513E+04  0.00000000000E+00 0. -1.
         -3    1    6    6    0  502  0.21751187546E+01  0.16767599246E+03 -0.18410360056E+03  0.24902631453E+03  0.00000000000E+00 0.  1.
<mgrwt>
<rscale>  0 0.12248623E+04</rscale>
<asrwt>0</asrwt>
<pdfrwt beam="1">  1        1 0.35111424E+00 0.12248623E+04</pdfrwt>
<pdfrwt beam="2">  1       -2 0.30726883E+00 0.12248623E+04</pdfrwt>
<totfact> 0.47178340E-02</totfact>
</mgrwt>
</event>
<event>
12    3  0.1201947E-007  0.4619139E+03  0.7818608E-02  0.1024228E+00
          1   -1    0    0  501    0  0.00000000000E+00  0.00000000000E+00  0.63743011411E+03  0.63743011411E+03  0.00000000000E+00 0. -1.
         -2   -1    0    0    0  501 -0.00000000000E+00 -0.00000000000E+00 -0.39462269722E+03  0.39462269722E+03  0.00000000000E+00 0.  1.
        -24    2    1    2    0    0 -0.19628698803E+03  0.21507659498E+03 -0.46151690604E+02  0.30520258716E+03  0.78943760260E+02 0.  0.
    5000000    2    1    2    0    0  0.19628698803E+03 -0.21507659498E+03  0.28895910750E+03  0.72685022417E+03  0.60002279889E+03 0.  0.
        -24    2    4    4    0    0 -0.16673829579E+03  0.40009530740E+02  0.18637352568E+03  0.26534719706E+03  0.79193573454E+02 0.  0.
         24    2    4    4    0    0  0.36302528383E+03 -0.25508612572E+03  0.10258558181E+03  0.46150302711E+03  0.74866242087E+02 0.  0.
         13    1    3    3    0    0 -0.13024304465E+03  0.95263533508E+02 -0.17700628589E+01  0.16137386597E+03  0.00000000000E+00 0. -1.
        -14    1    3    3    0    0 -0.66043943382E+02  0.11981306148E+03 -0.44381627745E+02  0.14382872119E+03  0.00000000000E+00 0.  1.
         15    1    5    5    0    0 -0.72905524332E+02  0.44510970189E+02  0.47703025207E+02  0.97852839960E+02  0.17770000000E+01 0. -1.
        -16    1    5    5    0    0 -0.93832771462E+02 -0.45014394483E+01  0.13867050048E+03  0.16749435710E+03  0.00000000000E+00 0.  1.
          4    1    6    6  502    0  0.24774065580E+03 -0.14600321400E+03  0.94085621441E+02  0.30256317555E+03  0.00000000000E+00 0. -1.
         -3    1    6    6    0  502  0.11528462802E+03 -0.10908291173E+03  0.84999603724E+01  0.15893985157E+03  0.00000000000E+00 0.  1.
<mgrwt>
<rscale>  0 0.46191387E+03</rscale>
<asrwt>0</asrwt>
<pdfrwt beam="1">  1        1 0.98066172E-01 0.46191387E+03</pdfrwt>
<pdfrwt beam="2">  1       -2 0.60711184E-01 0.46191387E+03</pdfrwt>
<totfact> 0.72284007E+01</totfact>
</mgrwt>
</event>
<event>
12    3  0.1201947E-007  0.1713205E+04  0.7818608E-02  0.8753869E-01
         -2   -1    0    0    0  501 -0.00000000000E+00  0.00000000000E+00  0.11213920145E+04  0.11213920145E+04  0.00000000000E+00 0.  1.
          1   -1    0    0  501    0  0.00000000000E+00 -0.00000000000E+00 -0.27867641436E+04  0.27867641436E+04  0.00000000000E+00 0. -1.
        -24    2    1    2    0    0 -0.41513370396E+03  0.16389958866E+04 -0.11319950566E+04  0.20363013460E+04  0.80416759138E+02 0.  0.
    5000000    2    1    2    0    0  0.41513370396E+03 -0.16389958866E+04 -0.53337707253E+03  0.18718548121E+04  0.60058790160E+03 0.  0.
        -24    2    4    4    0    0 -0.33082671381E+02 -0.94451119949E+02 -0.18464947056E+03  0.22414348058E+03  0.78290457282E+02 0.  0.
         24    2    4    4    0    0  0.44821637534E+03 -0.15445447667E+04 -0.34872760197E+03  0.16477113315E+04  0.82614988187E+02 0.  0.
         13    1    3    3    0    0 -0.28005193889E+03  0.12464260903E+04 -0.85599723179E+03  0.15377705772E+04  0.00000000000E+00 0. -1.
        -14    1    3    3    0    0 -0.13508176507E+03  0.39256979627E+03 -0.27599782483E+03  0.49853076887E+03  0.00000000000E+00 0.  1.
         15    1    5    5    0    0 -0.50059120217E+02 -0.29220982171E+02 -0.67522523813E+02  0.89006911344E+02  0.17770000000E+01 0. -1.
        -16    1    5    5    0    0  0.16976448835E+02 -0.65230137777E+02 -0.11712694675E+03  0.13513656923E+03  0.00000000000E+00 0.  1.
          2    1    6    6  502    0  0.29739512866E+03 -0.99544890440E+03 -0.26468546414E+03  0.10721104322E+04  0.00000000000E+00 0. -1.
         -1    1    6    6    0  502  0.15082124668E+03 -0.54909586227E+03 -0.84042137833E+02  0.57560089936E+03  0.00000000000E+00 0.  1.
<mgrwt>
<rscale>  0 0.17132054E+04</rscale>
<asrwt>0</asrwt>
<pdfrwt beam="1">  1        1 0.42873294E+00 0.17132054E+04</pdfrwt>
<pdfrwt beam="2">  1       -2 0.17252185E+00 0.17132054E+04</pdfrwt>
<totfact> 0.14108113E-01</totfact>
</mgrwt>
</event>
<event>
12    3  0.1201947E-007  0.1273767E+04  0.7818608E-02  0.9050631E-01
         -4   -1    0    0    0  501 -0.00000000000E+00  0.00000000000E+00  0.14053055606E+04  0.14053055606E+04  0.00000000000E+00 0.  1.
          1   -1    0    0  501    0  0.00000000000E+00 -0.00000000000E+00 -0.24779378909E+04  0.24779378909E+04  0.00000000000E+00 0. -1.
        -24    2    1    2    0    0 -0.11222413754E+04 -0.47190173730E+03 -0.19260446225E+04  0.22799797108E+04  0.80886582859E+02 0.  0.
    5000000    2    1    2    0    0  0.11222413754E+04  0.47190173730E+03  0.85341229223E+03  0.16032637407E+04  0.60002093903E+03 0.  0.
        -24    2    4    4    0    0  0.10213050355E+04  0.22194391339E+03  0.79764084796E+03  0.13171747273E+04  0.79970391455E+02 0.  0.
         24    2    4    4    0    0  0.10093633988E+03  0.24995782391E+03  0.55771444266E+02  0.28608901341E+03  0.77906425625E+02 0.  0.
         13    1    3    3    0    0 -0.40971121676E+03 -0.13080716202E+03 -0.66858929460E+03  0.79497511888E+03  0.00000000000E+00 0. -1.
        -14    1    3    3    0    0 -0.71253015863E+03 -0.34109457528E+03 -0.12574553279E+04  0.14850045919E+04  0.00000000000E+00 0.  1.
         15    1    5    5    0    0  0.31199477508E+03  0.38019933534E+02  0.26770203996E+03  0.41286050302E+03  0.17770000000E+01 0. -1.
        -16    1    5    5    0    0  0.70931026044E+03  0.18392397985E+03  0.52993880800E+03  0.90431422423E+03  0.00000000000E+00 0.  1.
          4    1    6    6  502    0  0.34560034194E+01  0.10883268603E+03  0.26847010847E+02  0.11214838162E+03  0.00000000000E+00 0. -1.
         -3    1    6    6    0  502  0.97480336457E+02  0.14112513788E+03  0.28924433420E+02  0.17394063178E+03  0.00000000000E+00 0.  1.
<mgrwt>
<rscale>  0 0.12737666E+04</rscale>
<asrwt>0</asrwt>
<pdfrwt beam="1">  1        1 0.38122122E+00 0.12737666E+04</pdfrwt>
<pdfrwt beam="2">  1       -4 0.21620085E+00 0.12737666E+04</pdfrwt>
<totfact> 0.66910643E-02</totfact>
</mgrwt>
</event>
<event>
12    3  0.1201947E-007  0.8329588E+03  0.7818608E-02  0.9513499E-01
         -2   -1    0    0    0  501 -0.00000000000E+00  0.00000000000E+00  0.10937460535E+04  0.10937460535E+04  0.00000000000E+00 0.  1.
          1   -1    0    0  501    0  0.00000000000E+00 -0.00000000000E+00 -0.10083040126E+04  0.10083040126E+04  0.00000000000E+00 0. -1.
        -24    2    1    2    0    0  0.46909368314E+03 -0.66673301412E+03 -0.47335052372E+03  0.94593970243E+03  0.78481887404E+02 0.  0.
    5000000    2    1    2    0    0 -0.46909368314E+03  0.66673301412E+03  0.55879256460E+03  0.11561103637E+04  0.59980017264E+03 0.  0.
        -24    2    4    4    0    0 -0.44726294256E+03  0.55249497455E+03  0.16198773102E+03  0.73366901895E+03  0.82069285818E+02 0.  0.
         24    2    4    4    0    0 -0.21830740578E+02  0.11423803957E+03  0.39680483358E+03  0.42244134474E+03  0.86462147052E+02 0.  0.
         13    1    3    3    0    0  0.24990903268E+03 -0.39590034489E+03 -0.23542838937E+03  0.52404020287E+03  0.00000000000E+00 0. -1.
        -14    1    3    3    0    0  0.21918465046E+03 -0.27083266923E+03 -0.23792213435E+03  0.42189949956E+03  0.00000000000E+00 0.  1.
         15    1    5    5    0    0 -0.33636721090E+03  0.35563520524E+03  0.11664527528E+03  0.50321822080E+03  0.17770000000E+01 0. -1.
        -16    1    5    5    0    0 -0.11089573166E+03  0.19685976931E+03  0.45342455744E+02  0.23045079814E+03  0.00000000000E+00 0.  1.
          2    1    6    6  502    0 -0.43714458583E+02  0.52228900502E+02  0.28228396619E+03  0.29038431346E+03  0.00000000000E+00 0. -1.
         -1    1    6    6    0  502  0.21883718005E+02  0.62009139070E+02  0.11452086739E+03  0.13205703128E+03  0.00000000000E+00 0.  1.
<mgrwt>
<rscale>  0 0.83295883E+03</rscale>
<asrwt>0</asrwt>
<pdfrwt beam="1">  1        1 0.15512369E+00 0.83295883E+03</pdfrwt>
<pdfrwt beam="2">  1       -2 0.16826862E+00 0.83295883E+03</pdfrwt>
<totfact> 0.29115179E+00</totfact>
</mgrwt>
</event>
<event>
12    3  0.1201947E-007  0.4243912E+03  0.7818608E-02  0.1035647E+00
         -2   -1    0    0    0  501 -0.00000000000E+00  0.00000000000E+00  0.16642705643E+03  0.16642705643E+03  0.00000000000E+00 0.  1.
          1   -1    0    0  501    0  0.00000000000E+00 -0.00000000000E+00 -0.11339299329E+04  0.11339299329E+04  0.00000000000E+00 0. -1.
        -24    2    1    2    0    0 -0.10436908836E+03 -0.18852042441E+03 -0.24601939121E+03  0.33754844355E+03  0.83549708941E+02 0.  0.
    5000000    2    1    2    0    0  0.10436908836E+03  0.18852042441E+03 -0.72148348525E+03  0.96280854576E+03  0.60002418225E+03 0.  0.
        -24    2    4    4    0    0  0.11864318580E+03 -0.19373902531E+03 -0.34228596108E+03  0.41847394924E+03  0.79685328445E+02 0.  0.
         24    2    4    4    0    0 -0.14274097448E+02  0.38225944972E+03 -0.37919752416E+03  0.54433459653E+03  0.78634304730E+02 0.  0.
         13    1    3    3    0    0  0.38237026502E+01 -0.34952628528E+02 -0.11341707570E+02  0.36945111633E+02  0.00000000000E+00 0. -1.
        -14    1    3    3    0    0 -0.10819279101E+03 -0.15356779589E+03 -0.23467768364E+03  0.30060333191E+03  0.00000000000E+00 0.  1.
         15    1    5    5    0    0  0.12266782624E+03 -0.14317159087E+03 -0.28750191536E+03  0.34381100781E+03  0.17770000000E+01 0. -1.
        -16    1    5    5    0    0 -0.40246404378E+01 -0.50567434440E+02 -0.54784045718E+02  0.74662941422E+02  0.00000000000E+00 0.  1.
          2    1    6    6  502    0  0.62310913708E+01  0.33405185341E+03 -0.35196248192E+03  0.48529069221E+03  0.00000000000E+00 0. -1.
         -1    1    6    6    0  502 -0.20505188818E+02  0.48207596311E+02 -0.27235042248E+02  0.59043904315E+02  0.00000000000E+00 0.  1.
<mgrwt>
<rscale>  0 0.42439116E+03</rscale>
<asrwt>0</asrwt>
<pdfrwt beam="1">  1        1 0.17445075E+00 0.42439116E+03</pdfrwt>
<pdfrwt beam="2">  1       -2 0.25604164E-01 0.42439116E+03</pdfrwt>
<totfact> 0.15069326E+02</totfact>
</mgrwt>
</event>
<event>
12    3  0.1201947E-007  0.7896300E+03  0.7818608E-02  0.9575150E-01
         -2   -1    0    0    0  501 -0.00000000000E+00  0.00000000000E+00  0.22919851153E+03  0.22919851153E+03  0.00000000000E+00 0.  1.
          1   -1    0    0  501    0  0.00000000000E+00 -0.00000000000E+00 -0.33447639962E+04  0.33447639962E+04  0.00000000000E+00 0. -1.
        -24    2    1    2    0    0  0.23994362028E+03 -0.72650916191E+03 -0.15634613249E+04  0.17424193408E+04  0.78900832948E+02 0.  0.
    5000000    2    1    2    0    0 -0.23994362028E+03  0.72650916191E+03 -0.15521041597E+04  0.18315431669E+04  0.60011211144E+03 0.  0.
        -24    2    4    4    0    0 -0.23144166573E+03  0.31105927004E+03 -0.26425879022E+03  0.47592690581E+03  0.79690635247E+02 0.  0.
         24    2    4    4    0    0 -0.85019545535E+01  0.41544989187E+03 -0.12878453695E+04  0.13556162611E+04  0.80491339219E+02 0.  0.
         11    1    3    3    0    0  0.44716609233E+02 -0.18723654162E+03 -0.46437146595E+03  0.50269071609E+03  0.00000000000E+00 0. -1.
        -12    1    3    3    0    0  0.19522701105E+03 -0.53927262029E+03 -0.10990898590E+04  0.12397286247E+04  0.00000000000E+00 0.  1.
         15    1    5    5    0    0 -0.20574455651E+03  0.23794284712E+03 -0.18432595462E+03  0.36459132779E+03  0.17770000000E+01 0. -1.
        -16    1    5    5    0    0 -0.25697109221E+02  0.73116422924E+02 -0.79932835608E+02  0.11133557801E+03  0.00000000000E+00 0.  1.
          4    1    6    6  502    0  0.25165606025E+02  0.29594179549E+03 -0.96701181185E+03  0.10115961142E+04  0.00000000000E+00 0. -1.
         -3    1    6    6    0  502 -0.33667560579E+02  0.11950809637E+03 -0.32083355763E+03  0.34402014684E+03  0.00000000000E+00 0.  1.
<mgrwt>
<rscale>  0 0.78963000E+03</rscale>
<asrwt>0</asrwt>
<pdfrwt beam="1">  1        1 0.51457909E+00 0.78963000E+03</pdfrwt>
<pdfrwt beam="2">  1       -2 0.35261308E-01 0.78963000E+03</pdfrwt>
<totfact> 0.23415398E+00</totfact>
</mgrwt>
</event>
<event>
12    3  0.1201947E-007  0.8278891E+03  0.7818608E-02  0.9520504E-01
         -2   -1    0    0    0  501 -0.00000000000E+00  0.00000000000E+00  0.68478913026E+03  0.68478913026E+03  0.00000000000E+00 0.  1.
          1   -1    0    0  501    0  0.00000000000E+00 -0.00000000000E+00 -0.11331295635E+04  0.11331295635E+04  0.00000000000E+00 0. -1.
        -24    2    1    2    0    0  0.25580179503E+02  0.77444947000E+03 -0.14720419893E+03  0.79274510139E+03  0.79683074959E+02 0.  0.
    5000000    2    1    2    0    0 -0.25580179503E+02 -0.77444947000E+03 -0.30113623433E+03  0.10251735924E+04  0.59989293692E+03 0.  0.
        -24    2    4    4    0    0  0.15621399757E+03 -0.12471070901E+03 -0.27035658539E+03  0.34588131198E+03  0.81151862191E+02 0.  0.
         24    2    4    4    0    0 -0.18179417707E+03 -0.64973876098E+03 -0.30779648941E+02  0.67929228042E+03  0.72670730704E+02 0.  0.
         13    1    3    3    0    0  0.17982280282E+02  0.34623060106E+03 -0.26162190721E+02  0.34768297591E+03  0.00000000000E+00 0. -1.
        -14    1    3    3    0    0  0.75978992215E+01  0.42821886894E+03 -0.12104200821E+03  0.44506212548E+03  0.00000000000E+00 0.  1.
         15    1    5    5    0    0  0.35407077014E+01 -0.11870286660E+02  0.31862490659E+01  0.12913180419E+02  0.17770000000E+01 0. -1.
        -16    1    5    5    0    0  0.15267328987E+03 -0.11284042235E+03 -0.27354283445E+03  0.33296813156E+03  0.00000000000E+00 0.  1.
          4    1    6    6  502    0 -0.65897439022E+02 -0.12788460166E+03 -0.47382249062E+00  0.14386510459E+03  0.00000000000E+00 0. -1.
         -1    1    6    6    0  502 -0.11589673805E+03 -0.52185415932E+03 -0.30305826450E+02  0.53542717582E+03  0.00000000000E+00 0.  1.
<mgrwt>
<rscale>  0 0.82788907E+03</rscale>
<asrwt>0</asrwt>
<pdfrwt beam="1">  1        1 0.17432762E+00 0.82788907E+03</pdfrwt>
<pdfrwt beam="2">  1       -2 0.10535217E+00 0.82788907E+03</pdfrwt>
<totfact> 0.77840321E+00</totfact>
</mgrwt>
</event>
<event>
12    3  0.1201947E-007  0.6090882E+03  0.7818608E-02  0.9886728E-01
         -2   -1    0    0    0  501 -0.00000000000E+00  0.00000000000E+00  0.23503864490E+03  0.23503864490E+03  0.00000000000E+00 0.  1.
          1   -1    0    0  501    0  0.00000000000E+00 -0.00000000000E+00 -0.21329161114E+04  0.21329161114E+04  0.00000000000E+00 0. -1.
        -24    2    1    2    0    0 -0.49399554423E+03  0.10802422994E+03 -0.31409750904E+03  0.60069929361E+03  0.80508162195E+02 0.  0.
    5000000    2    1    2    0    0  0.49399554423E+03 -0.10802422994E+03 -0.15837799574E+04  0.17672554627E+04  0.59927630088E+03 0.  0.
        -24    2    4    4    0    0  0.39380711494E+02 -0.21862057948E+03 -0.93053569167E+03  0.95993786609E+03  0.78982498506E+02 0.  0.
         24    2    4    4    0    0  0.45461483274E+03  0.11059634953E+03 -0.65324426577E+03  0.80731759659E+03  0.78277917212E+02 0.  0.
         11    1    3    3    0    0 -0.40836410985E+03  0.59075172919E+02 -0.26636074806E+03  0.49112032169E+03  0.00000000000E+00 0. -1.
        -12    1    3    3    0    0 -0.85631434382E+02  0.48949057024E+02 -0.47736760978E+02  0.10957897192E+03  0.00000000000E+00 0.  1.
         15    1    5    5    0    0 -0.20099872814E+02 -0.11067270393E+03 -0.43863661943E+03  0.45283296470E+03  0.17770000000E+01 0. -1.
        -16    1    5    5    0    0  0.59480584307E+02 -0.10794787554E+03 -0.49189907224E+03  0.50710490139E+03  0.00000000000E+00 0.  1.
          2    1    6    6  502    0  0.34011390612E+03  0.57396493743E+02 -0.51768814586E+03  0.62207141310E+03  0.00000000000E+00 0. -1.
         -3    1    6    6    0  502  0.11450092662E+03  0.53199855788E+02 -0.13555611991E+03  0.18524618349E+03  0.00000000000E+00 0.  1.
<mgrwt>
<rscale>  0 0.60908821E+03</rscale>
<asrwt>0</asrwt>
<pdfrwt beam="1">  1        1 0.32814094E+00 0.60908821E+03</pdfrwt>
<pdfrwt beam="2">  1       -2 0.36159791E-01 0.60908821E+03</pdfrwt>
<totfact> 0.16280444E+01</totfact>
</mgrwt>
</event>
<event>
12    3  0.1201947E-007  0.7425896E+03  0.7818608E-02  0.9647048E-01
          1   -1    0    0  501    0  0.00000000000E+00  0.00000000000E+00  0.19970816231E+04  0.19970816231E+04  0.00000000000E+00 0. -1.
         -2   -1    0    0    0  501 -0.00000000000E+00 -0.00000000000E+00 -0.30964809771E+03  0.30964809771E+03  0.00000000000E+00 0.  1.
        -24    2    1    2    0    0  0.62784785605E+03 -0.16865442292E+03  0.49211485934E+03  0.81966498475E+03  0.83883298212E+02 0.  0.
    5000000    2    1    2    0    0 -0.62784785605E+03  0.16865442292E+03  0.11953186660E+04  0.14870647360E+04  0.59994797366E+03 0.  0.
        -24    2    4    4    0    0 -0.69843706857E+03  0.58702470719E+02  0.11030018395E+04  0.13091674039E+04  0.77755479781E+02 0.  0.
         24    2    4    4    0    0  0.70589212516E+02  0.10995195220E+03  0.92316826523E+02  0.17789733215E+03  0.77799714722E+02 0.  0.
         11    1    3    3    0    0  0.78959696910E+02 -0.14667399699E+02  0.97571635658E+02  0.12637242751E+03  0.00000000000E+00 0. -1.
        -12    1    3    3    0    0  0.54888815914E+03 -0.15398702322E+03  0.39454322369E+03  0.69329255724E+03  0.00000000000E+00 0.  1.
         15    1    5    5    0    0 -0.13496062849E+03 -0.14940687123E+02  0.24314403872E+03  0.27849555951E+03  0.17770000000E+01 0. -1.
        -16    1    5    5    0    0 -0.56347644008E+03  0.73643157842E+02  0.85985780077E+03  0.10306718444E+04  0.00000000000E+00 0.  1.
          4    1    6    6  502    0  0.50976670376E+02  0.75942303251E+02  0.17098108700E+02  0.93049447429E+02  0.00000000000E+00 0. -1.
         -3    1    6    6    0  502  0.19612542140E+02  0.34009648948E+02  0.75218717823E+02  0.84847884721E+02  0.00000000000E+00 0.  1.
<mgrwt>
<rscale>  0 0.74258964E+03</rscale>
<asrwt>0</asrwt>
<pdfrwt beam="1">  1        1 0.30724332E+00 0.74258964E+03</pdfrwt>
<pdfrwt beam="2">  1       -2 0.47638170E-01 0.74258964E+03</pdfrwt>
<totfact> 0.11435802E+01</totfact>
</mgrwt>
</event>
<event>
12    3  0.1201947E-007  0.6066462E+03  0.7818608E-02  0.9891712E-01
          1   -1    0    0  501    0  0.00000000000E+00  0.00000000000E+00  0.32506423091E+03  0.32506423091E+03  0.00000000000E+00 0. -1.
         -4   -1    0    0    0  501 -0.00000000000E+00 -0.00000000000E+00 -0.12645446016E+04  0.12645446016E+04  0.00000000000E+00 0.  1.
        -24    2    1    2    0    0 -0.25952622692E+03 -0.38397143944E+03 -0.14579680831E+03  0.49200432503E+03  0.77611969264E+02 0.  0.
    5000000    2    1    2    0    0  0.25952622692E+03  0.38397143944E+03 -0.79368356237E+03  0.10976045075E+04  0.60001177393E+03 0.  0.
        -24    2    4    4    0    0  0.35885487776E+03  0.24212257082E+02 -0.47142451985E+03  0.59819192363E+03  0.78926819872E+02 0.  0.
         24    2    4    4    0    0 -0.99328650838E+02  0.35975918236E+03 -0.32225904252E+03  0.49941258383E+03  0.79178205552E+02 0.  0.
         11    1    3    3    0    0 -0.11594796259E+03 -0.11813638813E+03 -0.28826019730E+02  0.16802105714E+03  0.00000000000E+00 0. -1.
        -12    1    3    3    0    0 -0.14357826433E+03 -0.26583505131E+03 -0.11697078858E+03  0.32398326789E+03  0.00000000000E+00 0.  1.
         15    1    5    5    0    0  0.18893419988E+03  0.50686907588E+02 -0.23330718135E+03  0.30446788514E+03  0.17770000000E+01 0. -1.
        -16    1    5    5    0    0  0.16992067788E+03 -0.26474650506E+02 -0.23811733851E+03  0.29372403849E+03  0.00000000000E+00 0.  1.
          2    1    6    6  502    0 -0.70258422529E+02  0.32600986063E+03 -0.26004778393E+03  0.42289895376E+03  0.00000000000E+00 0. -1.
         -3    1    6    6    0  502 -0.29070228309E+02  0.33749321723E+02 -0.62211258590E+02  0.76513630067E+02  0.00000000000E+00 0.  1.
<mgrwt>
<rscale>  0 0.60664622E+03</rscale>
<asrwt>0</asrwt>
<pdfrwt beam="1">  1        1 0.50009882E-01 0.60664622E+03</pdfrwt>
<pdfrwt beam="2">  1       -4 0.19454532E+00 0.60664622E+03</pdfrwt>
<totfact> 0.54758446E+00</totfact>
</mgrwt>
</event>
<event>
12    3  0.1201947E-007  0.6506994E+03  0.7818608E-02  0.9805468E-01
         -2   -1    0    0    0  501 -0.00000000000E+00  0.00000000000E+00  0.12655157614E+04  0.12655157614E+04  0.00000000000E+00 0.  1.
          1   -1    0    0  501    0  0.00000000000E+00 -0.00000000000E+00 -0.76893332292E+03  0.76893332292E+03  0.00000000000E+00 0. -1.
        -24    2    1    2    0    0  0.38722735676E+03  0.34339397769E+03 -0.52510932968E+03  0.74164637284E+03  0.80218978366E+02 0.  0.
    5000000    2    1    2    0    0 -0.38722735676E+03 -0.34339397769E+03  0.10216917682E+04  0.12928027115E+04  0.59968352645E+03 0.  0.
        -24    2    4    4    0    0 -0.42484154660E+03 -0.46734838364E+03  0.87917299545E+03  0.10837493236E+04  0.51600281501E+02 0.  0.
         24    2    4    4    0    0  0.37614189840E+02  0.12395440595E+03  0.14251877271E+03  0.20905338786E+03  0.81315412873E+02 0.  0.
         13    1    3    3    0    0  0.25938692591E+03  0.19194694245E+03 -0.28702305339E+03  0.43186507063E+03  0.00000000000E+00 0. -1.
        -14    1    3    3    0    0  0.12784043085E+03  0.15144703524E+03 -0.23808627630E+03  0.30978130222E+03  0.00000000000E+00 0.  1.
         15    1    5    5    0    0 -0.21769165089E+03 -0.23883856502E+03  0.40572213327E+03  0.51869752473E+03  0.17770000000E+01 0. -1.
        -16    1    5    5    0    0 -0.20714989571E+03 -0.22850981863E+03  0.47345086218E+03  0.56505179887E+03  0.00000000000E+00 0.  1.
          2    1    6    6  502    0 -0.16903935214E+02  0.70790625731E+02  0.93515870301E+02  0.11850010006E+03  0.00000000000E+00 0. -1.
         -1    1    6    6    0  502  0.54518125054E+02  0.53163780222E+02  0.49002902404E+02  0.90553287798E+02  0.00000000000E+00 0.  1.
<mgrwt>
<rscale>  0 0.65069937E+03</rscale>
<asrwt>0</asrwt>
<pdfrwt beam="1">  1        1 0.11829743E+00 0.65069937E+03</pdfrwt>
<pdfrwt beam="2">  1       -2 0.19469473E+00 0.65069937E+03</pdfrwt>
<totfact> 0.31040787E+00</totfact>
</mgrwt>
</event>
<event>
12    3  0.1201947E-007  0.8310110E+03  0.7818608E-02  0.9516184E-01
         -4   -1    0    0    0  501 -0.00000000000E+00  0.00000000000E+00  0.18214761175E+04  0.18214761175E+04  0.00000000000E+00 0.  1.
          3   -1    0    0  501    0  0.00000000000E+00 -0.00000000000E+00 -0.94516998317E+03  0.94516998317E+03  0.00000000000E+00 0. -1.
        -24    2    1    2    0    0  0.70537926941E+03  0.30837093984E+03  0.14433486126E+04  0.16378175636E+04  0.80861634280E+02 0.  0.
    5000000    2    1    2    0    0 -0.70537926941E+03 -0.30837093984E+03 -0.56704247833E+03  0.11288285370E+04  0.60005345050E+03 0.  0.
        -24    2    4    4    0    0 -0.75589133166E+03 -0.33808462697E+03 -0.59908241959E+03  0.10251488477E+04  0.79733895747E+02 0.  0.
         24    2    4    4    0    0  0.50512062251E+02  0.29713687133E+02  0.32039941255E+02  0.10367968933E+03  0.79300368907E+02 0.  0.
         13    1    3    3    0    0  0.43917571472E+03  0.23266886185E+03  0.90452991457E+03  0.10320777461E+04  0.00000000000E+00 0. -1.
        -14    1    3    3    0    0  0.26620355469E+03  0.75702077985E+02  0.53881869805E+03  0.60573981751E+03  0.00000000000E+00 0.  1.
         15    1    5    5    0    0 -0.67767483400E+03 -0.31120472294E+03 -0.50907756839E+03  0.90291455221E+03  0.17770000000E+01 0. -1.
        -16    1    5    5    0    0 -0.78216497664E+02 -0.26879904029E+02 -0.90004851195E+02  0.12223429546E+03  0.00000000000E+00 0.  1.
          4    1    6    6  502    0  0.33916877882E+02  0.26243800875E+02  0.58329342075E+02  0.72397540266E+02  0.00000000000E+00 0. -1.
         -3    1    6    6    0  502  0.16595184369E+02  0.34698862583E+01 -0.26289400820E+02  0.31282149068E+02  0.00000000000E+00 0.  1.
<mgrwt>
<rscale>  0 0.83101103E+03</rscale>
<asrwt>0</asrwt>
<pdfrwt beam="1">  1        3 0.14541077E+00 0.83101103E+03</pdfrwt>
<pdfrwt beam="2">  1       -4 0.28022710E+00 0.83101103E+03</pdfrwt>
<totfact> 0.32516355E-02</totfact>
</mgrwt>
</event>
<event>
12    3  0.1201947E-007  0.4277249E+03  0.7818608E-02  0.1034581E+00
          1   -1    0    0  501    0  0.00000000000E+00  0.00000000000E+00  0.10324588509E+04  0.10324588509E+04  0.00000000000E+00 0. -1.
         -2   -1    0    0    0  501 -0.00000000000E+00 -0.00000000000E+00 -0.18834303793E+03  0.18834303793E+03  0.00000000000E+00 0.  1.
        -24    2    1    2    0    0 -0.15004617270E+03 -0.16224157455E+03  0.30351134640E+03  0.38351879440E+03  0.78302910642E+02 0.  0.
    5000000    2    1    2    0    0  0.15004617270E+03  0.16224157455E+03  0.54060446657E+03  0.83728309443E+03  0.59996133917E+03 0.  0.
        -24    2    4    4    0    0 -0.13209267416E+03 -0.14278781067E+03  0.12644843437E+03  0.24518900452E+03  0.79319656722E+02 0.  0.
         24    2    4    4    0    0  0.28213884685E+03  0.30502938521E+03  0.41415603220E+03  0.59209408991E+03  0.80030853746E+02 0.  0.
         13    1    3    3    0    0 -0.10929079081E+03 -0.15970398099E+03  0.25474378713E+03  0.31991285623E+03  0.00000000000E+00 0. -1.
        -14    1    3    3    0    0 -0.40755381884E+02 -0.25375935554E+01  0.48767559264E+02  0.63605938167E+02  0.00000000000E+00 0.  1.
         15    1    5    5    0    0 -0.14476691647E+02  0.22434594733E+01  0.33498863165E+02  0.36605180970E+02  0.17770000000E+01 0. -1.
        -16    1    5    5    0    0 -0.11761598251E+03 -0.14503127014E+03  0.92949571204E+02  0.20858382355E+03  0.00000000000E+00 0.  1.
          4    1    6    6  502    0  0.11073351836E+02  0.36152414887E+02  0.62373114425E+02  0.72938478364E+02  0.00000000000E+00 0. -1.
         -3    1    6    6    0  502  0.27106549502E+03  0.26887697033E+03  0.35178291777E+03  0.51915561154E+03  0.00000000000E+00 0.  1.
<mgrwt>
<rscale>  0 0.42772491E+03</rscale>
<asrwt>0</asrwt>
<pdfrwt beam="1">  1        1 0.15883982E+00 0.42772491E+03</pdfrwt>
<pdfrwt beam="2">  1       -2 0.28975853E-01 0.42772491E+03</pdfrwt>
<totfact> 0.14307106E+02</totfact>
</mgrwt>
</event>
<event>
12    3  0.1201947E-007  0.8401842E+03  0.7818608E-02  0.9503607E-01
         -2   -1    0    0    0  501 -0.00000000000E+00  0.00000000000E+00  0.80209987894E+03  0.80209987894E+03  0.00000000000E+00 0.  1.
          1   -1    0    0  501    0  0.00000000000E+00 -0.00000000000E+00 -0.11566289233E+04  0.11566289233E+04  0.00000000000E+00 0. -1.
        -24    2    1    2    0    0 -0.65343794675E+02 -0.83015916980E+03 -0.40837809115E+03  0.93097061643E+03  0.80619877326E+02 0.  0.
    5000000    2    1    2    0    0  0.65343794675E+02  0.83015916980E+03  0.53849046790E+02  0.10277581858E+04  0.59996092368E+03 0.  0.
        -24    2    4    4    0    0  0.79456718195E+02  0.41325672345E+03 -0.25741180825E+03  0.50140245187E+03  0.89716721778E+02 0.  0.
         24    2    4    4    0    0 -0.14112923521E+02  0.41690244635E+03  0.31126085504E+03  0.52635573394E+03  0.78487033229E+02 0.  0.
         11    1    3    3    0    0 -0.29982038852E+02 -0.30619114249E+03 -0.19416445005E+03  0.36380183075E+03  0.00000000000E+00 0. -1.
        -12    1    3    3    0    0 -0.35361755823E+02 -0.52396802731E+03 -0.21421364110E+03  0.56716878568E+03  0.00000000000E+00 0.  1.
         15    1    5    5    0    0  0.93688443580E+02  0.37753435223E+03 -0.24954453557E+03  0.46215294496E+03  0.17770000000E+01 0. -1.
        -16    1    5    5    0    0 -0.14231725385E+02  0.35722371219E+02 -0.78672726880E+01  0.39249506908E+02  0.00000000000E+00 0.  1.
          2    1    6    6  502    0  0.18836886748E+02  0.15868419466E+03  0.15566921181E+03  0.22308833552E+03  0.00000000000E+00 0. -1.
         -1    1    6    6    0  502 -0.32949810269E+02  0.25821825169E+03  0.15559164323E+03  0.30326739842E+03  0.00000000000E+00 0.  1.
<mgrwt>
<rscale>  0 0.84018417E+03</rscale>
<asrwt>0</asrwt>
<pdfrwt beam="1">  1        1 0.17794291E+00 0.84018417E+03</pdfrwt>
<pdfrwt beam="2">  1       -2 0.12339998E+00 0.84018417E+03</pdfrwt>
<totfact> 0.50712039E+00</totfact>
</mgrwt>
</event>
<event>
12    3  0.1201947E-007  0.6701778E+03  0.7818608E-02  0.9769637E-01
          1   -1    0    0  501    0  0.00000000000E+00  0.00000000000E+00  0.97268775949E+03  0.97268775949E+03  0.00000000000E+00 0. -1.
         -2   -1    0    0    0  501 -0.00000000000E+00 -0.00000000000E+00 -0.65086839307E+03  0.65086839307E+03  0.00000000000E+00 0.  1.
        -24    2    1    2    0    0 -0.55189793133E+03 -0.19959341373E+03  0.48860451952E+03  0.76778723268E+03  0.79586435735E+02 0.  0.
    5000000    2    1    2    0    0  0.55189793133E+03  0.19959341373E+03 -0.16678515310E+03  0.85576891988E+03  0.60007857779E+03 0.  0.
        -24    2    4    4    0    0 -0.54897209846E+02  0.10090305043E+03  0.10989027340E+03  0.17699539571E+03  0.77822674571E+02 0.  0.
         24    2    4    4    0    0  0.60679514118E+03  0.98690363294E+02 -0.27667542650E+03  0.67877352417E+03  0.79019455367E+02 0.  0.
         11    1    3    3    0    0 -0.53371078372E+03 -0.18436591432E+03  0.44812690601E+03  0.72087149681E+03  0.00000000000E+00 0. -1.
        -12    1    3    3    0    0 -0.18187147612E+02 -0.15227499410E+02  0.40477613508E+02  0.46915735866E+02  0.00000000000E+00 0.  1.
         15    1    5    5    0    0 -0.15731032996E+02  0.93442107899E+02  0.56418753846E+02  0.11029563202E+03  0.17770000000E+01 0. -1.
        -16    1    5    5    0    0 -0.39166176850E+02  0.74609425348E+01  0.53471519555E+02  0.66699763688E+02  0.00000000000E+00 0.  1.
          2    1    6    6  502    0  0.16820594324E+03  0.20239953643E+01 -0.48794467824E+02  0.17515203678E+03  0.00000000000E+00 0. -1.
         -1    1    6    6    0  502  0.43858919794E+03  0.96666367929E+02 -0.22788095867E+03  0.50362148739E+03  0.00000000000E+00 0.  1.
<mgrwt>
<rscale>  0 0.67017778E+03</rscale>
<asrwt>0</asrwt>
<pdfrwt beam="1">  1        1 0.14964427E+00 0.67017778E+03</pdfrwt>
<pdfrwt beam="2">  1       -2 0.10013360E+00 0.67017778E+03</pdfrwt>
<totfact> 0.11861702E+01</totfact>
</mgrwt>
</event>
<event>
12    3  0.1201947E-007  0.1987627E+04  0.7818608E-02  0.8612427E-01
          1   -1    0    0  501    0  0.00000000000E+00  0.00000000000E+00  0.23192957026E+04  0.23192957026E+04  0.00000000000E+00 0. -1.
         -2   -1    0    0    0  501 -0.00000000000E+00 -0.00000000000E+00 -0.26687364567E+04  0.26687364567E+04  0.00000000000E+00 0.  1.
        -24    2    1    2    0    0 -0.17958103446E+04 -0.77117106936E+03 -0.16550538033E+04  0.25622904912E+04  0.80559649777E+02 0.  0.
    5000000    2    1    2    0    0  0.17958103446E+04  0.77117106936E+03  0.13056130493E+04  0.24257416681E+04  0.59996466046E+03 0.  0.
        -24    2    4    4    0    0  0.53835281092E+02 -0.59063784471E+02  0.65316300944E+02  0.13056514515E+03  0.79964178433E+02 0.  0.
         24    2    4    4    0    0  0.17419750635E+04  0.83023485383E+03  0.12402967483E+04  0.22951765229E+04  0.75711380020E+02 0.  0.
         11    1    3    3    0    0 -0.14199238594E+04 -0.58451740805E+03 -0.13302898452E+04  0.20316287651E+04  0.00000000000E+00 0. -1.
        -12    1    3    3    0    0 -0.37588648521E+03 -0.18665366131E+03 -0.32476395810E+03  0.53066172608E+03  0.00000000000E+00 0.  1.
         15    1    5    5    0    0  0.22303793672E+02 -0.53912278105E+02  0.76932018599E+02  0.96569592302E+02  0.17770000000E+01 0. -1.
        -16    1    5    5    0    0  0.31531487420E+02 -0.51515063662E+01 -0.11615717655E+02  0.33995552847E+02  0.00000000000E+00 0.  1.
          2    1    6    6  502    0  0.10390096972E+04  0.50015592496E+03  0.78477169790E+03  0.13948346562E+04  0.00000000000E+00 0. -1.
         -1    1    6    6    0  502  0.70296536631E+03  0.33007892887E+03  0.45552505042E+03  0.90034186678E+03  0.00000000000E+00 0.  1.
<mgrwt>
<rscale>  0 0.19876273E+04</rscale>
<asrwt>0</asrwt>
<pdfrwt beam="1">  1        1 0.35681472E+00 0.19876273E+04</pdfrwt>
<pdfrwt beam="2">  1       -2 0.41057484E+00 0.19876273E+04</pdfrwt>
<totfact> 0.88521384E-03</totfact>
</mgrwt>
</event>
<event>
12    3  0.1201947E-007  0.1231780E+04  0.7818608E-02  0.9085485E-01
          1   -1    0    0  501    0  0.00000000000E+00  0.00000000000E+00  0.32043923915E+04  0.32043923915E+04  0.00000000000E+00 0. -1.
         -2   -1    0    0    0  501 -0.00000000000E+00 -0.00000000000E+00 -0.54826120925E+03  0.54826120925E+03  0.00000000000E+00 0.  1.
        -24    2    1    2    0    0  0.10744024927E+04 -0.58609088097E+03  0.16620621611E+04  0.20656563034E+04  0.81499076902E+02 0.  0.
    5000000    2    1    2    0    0 -0.10744024927E+04  0.58609088097E+03  0.99406902123E+03  0.16869972974E+04  0.59995285260E+03 0.  0.
        -24    2    4    4    0    0 -0.64173080048E+03  0.40547952107E+03  0.24866153067E+03  0.80275021088E+03  0.79644723232E+02 0.  0.
         24    2    4    4    0    0 -0.43267169221E+03  0.18061135990E+03  0.74540749056E+03  0.88424708650E+03  0.80220486376E+02 0.  0.
         13    1    3    3    0    0  0.30948931904E+03 -0.20854857160E+03  0.52922703817E+03  0.64757810591E+03  0.00000000000E+00 0. -1.
        -14    1    3    3    0    0  0.76491317365E+03 -0.37754230936E+03  0.11328351229E+04  0.14180781975E+04  0.00000000000E+00 0.  1.
         15    1    5    5    0    0 -0.18315037469E+03  0.15147611777E+03  0.55551767818E+02  0.24408652285E+03  0.17770000000E+01 0. -1.
        -16    1    5    5    0    0 -0.45858042579E+03  0.25400340330E+03  0.19310976285E+03  0.55866368802E+03  0.00000000000E+00 0.  1.
          2    1    6    6  502    0 -0.79690037702E+02  0.68501165604E+02  0.15364754333E+03  0.18614639231E+03  0.00000000000E+00 0. -1.
         -1    1    6    6    0  502 -0.35298165450E+03  0.11211019430E+03  0.59175994723E+03  0.69810069419E+03  0.00000000000E+00 0.  1.
<mgrwt>
<rscale>  0 0.12317802E+04</rscale>
<asrwt>0</asrwt>
<pdfrwt beam="1">  1        1 0.49298343E+00 0.12317802E+04</pdfrwt>
<pdfrwt beam="2">  1       -2 0.84347880E-01 0.12317802E+04</pdfrwt>
<totfact> 0.45107358E-01</totfact>
</mgrwt>
</event>
<event>
12    3  0.1201947E-007  0.4450265E+03  0.7818608E-02  0.1029216E+00
          1   -1    0    0  501    0  0.00000000000E+00  0.00000000000E+00  0.22706869313E+04  0.22706869313E+04  0.00000000000E+00 0. -1.
         -2   -1    0    0    0  501 -0.00000000000E+00 -0.00000000000E+00 -0.93002447183E+02  0.93002447183E+02  0.00000000000E+00 0.  1.
        -24    2    1    2    0    0  0.46665204733E+02  0.23260561715E+03  0.87335885682E+03  0.90849183237E+03  0.79490264954E+02 0.  0.
    5000000    2    1    2    0    0 -0.46665204733E+02 -0.23260561715E+03  0.13043256272E+04  0.14551975461E+04  0.60004294991E+03 0.  0.
        -24    2    4    4    0    0 -0.96097613075E+02 -0.41692533106E+03  0.81875726754E+03  0.92722944634E+03  0.79558155459E+02 0.  0.
         24    2    4    4    0    0  0.49432408342E+02  0.18431971391E+03  0.48556835971E+03  0.52796809973E+03  0.80971368094E+02 0.  0.
         11    1    3    3    0    0 -0.14164744065E+02  0.12982720150E+03  0.43918382383E+03  0.45819010611E+03  0.00000000000E+00 0. -1.
        -12    1    3    3    0    0  0.60829948797E+02  0.10277841565E+03  0.43417503299E+03  0.45030172626E+03  0.00000000000E+00 0.  1.
         15    1    5    5    0    0  0.11922237285E+02 -0.24764220237E+02  0.67848887067E+02  0.73225921305E+02  0.17770000000E+01 0. -1.
        -16    1    5    5    0    0 -0.10801985036E+03 -0.39216111082E+03  0.75090838047E+03  0.85400352504E+03  0.00000000000E+00 0.  1.
          2    1    6    6  502    0  0.58771549520E+02  0.71695136965E+02  0.25160388926E+03  0.26813952485E+03  0.00000000000E+00 0. -1.
         -1    1    6    6    0  502 -0.93391411779E+01  0.11262457695E+03  0.23396447045E+03  0.25982857488E+03  0.00000000000E+00 0.  1.
<mgrwt>
<rscale>  0 0.44502646E+03</rscale>
<asrwt>0</asrwt>
<pdfrwt beam="1">  1        1 0.34933641E+00 0.44502646E+03</pdfrwt>
<pdfrwt beam="2">  1       -2 0.14308071E-01 0.44502646E+03</pdfrwt>
<totfact> 0.70449763E+01</totfact>
</mgrwt>
</event>
<event>
12    3  0.1201947E-007  0.1486546E+04  0.7818608E-02  0.8893449E-01
          1   -1    0    0  501    0  0.00000000000E+00  0.00000000000E+00  0.23212452138E+04  0.23212452138E+04  0.00000000000E+00 0. -1.
         -2   -1    0    0    0  501 -0.00000000000E+00 -0.00000000000E+00 -0.12231702467E+04  0.12231702467E+04  0.00000000000E+00 0.  1.
        -24    2    1    2    0    0 -0.10215298423E+04  0.10620435504E+04 -0.20231239840E+03  0.14895479588E+04  0.79769000662E+02 0.  0.
    5000000    2    1    2    0    0  0.10215298423E+04 -0.10620435504E+04  0.13003873655E+04  0.20548675016E+04  0.60001118920E+03 0.  0.
        -24    2    4    4    0    0  0.47060370030E+03 -0.30904665251E+03  0.83236984703E+03  0.10080302235E+04  0.79420986209E+02 0.  0.
         24    2    4    4    0    0  0.55092614198E+03 -0.75299689792E+03  0.46801751849E+03  0.10468372781E+04  0.79397399878E+02 0.  0.
         11    1    3    3    0    0 -0.19948636760E+03  0.20760409579E+03 -0.77573896104E+01  0.28801813926E+03  0.00000000000E+00 0. -1.
        -12    1    3    3    0    0 -0.82204347468E+03  0.85443945464E+03 -0.19455500879E+03  0.12015298196E+04  0.00000000000E+00 0.  1.
         15    1    5    5    0    0  0.38970388068E+03 -0.27093485476E+03  0.64925286483E+03  0.80424327809E+03  0.17770000000E+01 0. -1.
        -16    1    5    5    0    0  0.80899819629E+02 -0.38111797754E+02  0.18311698219E+03  0.20378694539E+03  0.00000000000E+00 0.  1.
          4    1    6    6  502    0  0.28160226158E+03 -0.44147152294E+03  0.28530189145E+03  0.59631712080E+03  0.00000000000E+00 0. -1.
         -3    1    6    6    0  502  0.26932388040E+03 -0.31152537498E+03  0.18271562704E+03  0.45052015734E+03  0.00000000000E+00 0.  1.
<mgrwt>
<rscale>  0 0.14865464E+04</rscale>
<asrwt>0</asrwt>
<pdfrwt beam="1">  1        1 0.35711465E+00 0.14865464E+04</pdfrwt>
<pdfrwt beam="2">  1       -2 0.18818004E+00 0.14865464E+04</pdfrwt>
<totfact> 0.23752467E-01</totfact>
</mgrwt>
</event>
<event>
12    3  0.1201947E-007  0.4610526E+03  0.7818608E-02  0.1024476E+00
         -2   -1    0    0    0  501 -0.00000000000E+00  0.00000000000E+00  0.91535236326E+03  0.91535236326E+03  0.00000000000E+00 0.  1.
          1   -1    0    0  501    0  0.00000000000E+00 -0.00000000000E+00 -0.26477952260E+03  0.26477952260E+03  0.00000000000E+00 0. -1.
        -24    2    1    2    0    0  0.16833575567E+03 -0.22725715442E+03  0.33248800274E+03  0.44424062011E+03  0.82575515223E+02 0.  0.
    5000000    2    1    2    0    0 -0.16833575567E+03  0.22725715442E+03  0.31808483792E+03  0.73589126575E+03  0.60031262690E+03 0.  0.
        -24    2    4    4    0    0  0.20525947680E+03  0.11188612717E+03  0.20419017337E+03  0.32065866127E+03  0.80488458048E+02 0.  0.
         24    2    4    4    0    0 -0.37359523247E+03  0.11537102725E+03  0.11389466455E+03  0.41523260448E+03  0.81007712912E+02 0.  0.
         13    1    3    3    0    0  0.54094347694E+02 -0.23517906761E+02  0.47327702805E+02  0.75625404750E+02  0.00000000000E+00 0. -1.
        -14    1    3    3    0    0  0.11424140798E+03 -0.20373924766E+03  0.28516029994E+03  0.36861521536E+03  0.00000000000E+00 0.  1.
         15    1    5    5    0    0  0.29711689892E+02  0.14996710272E+02 -0.15587793541E+01  0.33365751262E+02  0.17770000000E+01 0. -1.
        -16    1    5    5    0    0  0.17554778691E+03  0.96889416900E+02  0.20574895272E+03  0.28729291001E+03  0.00000000000E+00 0.  1.
          4    1    6    6  502    0 -0.34244732090E+03  0.86445578023E+02  0.83356951997E+02  0.36289307929E+03  0.00000000000E+00 0. -1.
         -3    1    6    6    0  502 -0.31147911571E+02  0.28925449227E+02  0.30537712556E+02  0.52339525183E+02  0.00000000000E+00 0.  1.
<mgrwt>
<rscale>  0 0.46105261E+03</rscale>
<asrwt>0</asrwt>
<pdfrwt beam="1">  1        1 0.40735312E-01 0.46105261E+03</pdfrwt>
<pdfrwt beam="2">  1       -2 0.14082344E+00 0.46105261E+03</pdfrwt>
<totfact> 0.33133958E+01</totfact>
</mgrwt>
</event>
<event>
12    3  0.1201947E-007  0.9171019E+03  0.7818608E-02  0.9404452E-01
         -2   -1    0    0    0  501 -0.00000000000E+00  0.00000000000E+00  0.10666032013E+04  0.10666032013E+04  0.00000000000E+00 0.  1.
          1   -1    0    0  501    0  0.00000000000E+00 -0.00000000000E+00 -0.98332829939E+03  0.98332829939E+03  0.00000000000E+00 0. -1.
        -24    2    1    2    0    0 -0.78552468113E+03  0.24596622513E+03  0.48040655698E+03  0.95663877105E+03  0.82576447818E+02 0.  0.
    5000000    2    1    2    0    0  0.78552468113E+03 -0.24596622513E+03 -0.39713165512E+03  0.10932927296E+04  0.60002252667E+03 0.  0.
        -24    2    4    4    0    0  0.77453313839E+03 -0.18400287513E+02 -0.29766816794E+03  0.83383399910E+03  0.80203782993E+02 0.  0.
         24    2    4    4    0    0  0.10991542736E+02 -0.22756593762E+03 -0.99463487182E+02  0.25945873049E+03  0.74288475352E+02 0.  0.
         13    1    3    3    0    0 -0.35112237930E+03  0.14691503593E+03  0.19686085184E+03  0.42851504993E+03  0.00000000000E+00 0. -1.
        -14    1    3    3    0    0 -0.43440230183E+03  0.99051189196E+02  0.28354570514E+03  0.52812372113E+03  0.00000000000E+00 0.  1.
         15    1    5    5    0    0  0.23167212247E+03  0.30855096721E+02 -0.94698641555E+02  0.25218049045E+03  0.17770000000E+01 0. -1.
        -16    1    5    5    0    0  0.54286101592E+03 -0.49255384234E+02 -0.20296952638E+03  0.58165350865E+03  0.00000000000E+00 0.  1.
          2    1    6    6  502    0  0.12730641171E+02 -0.48508191037E+02 -0.56037968485E+02  0.75202179053E+02  0.00000000000E+00 0. -1.
         -1    1    6    6    0  502 -0.17390984351E+01 -0.17905774658E+03 -0.43425518697E+02  0.18425655144E+03  0.00000000000E+00 0.  1.
<mgrwt>
<rscale>  0 0.91710185E+03</rscale>
<asrwt>0</asrwt>
<pdfrwt beam="1">  1        1 0.15128128E+00 0.91710185E+03</pdfrwt>
<pdfrwt beam="2">  1       -2 0.16409280E+00 0.91710185E+03</pdfrwt>
<totfact> 0.32295944E+00</totfact>
</mgrwt>
</event>
<event>
12    3  0.1201947E-007  0.9734359E+03  0.7818608E-02  0.9338169E-01
          1   -1    0    0  501    0  0.00000000000E+00  0.00000000000E+00  0.19640041983E+04  0.19640041983E+04  0.00000000000E+00 0. -1.
         -2   -1    0    0    0  501 -0.00000000000E+00 -0.00000000000E+00 -0.13604645000E+04  0.13604645000E+04  0.00000000000E+00 0.  1.
        -24    2    1    2    0    0 -0.83176420935E+03  0.40055414872E+03 -0.10101900203E+04  0.13707950923E+04  0.79498314101E+02 0.  0.
    5000000    2    1    2    0    0  0.83176420935E+03 -0.40055414872E+03  0.16137297186E+04  0.19536736060E+04  0.60036791076E+03 0.  0.
        -24    2    4    4    0    0  0.85983037845E+03 -0.35511881329E+03  0.11553482831E+04  0.14855680077E+04  0.81639445385E+02 0.  0.
         24    2    4    4    0    0 -0.28066169097E+02 -0.45435335430E+02  0.45838143549E+03  0.46810559832E+03  0.78468026774E+02 0.  0.
         11    1    3    3    0    0 -0.10805421846E+03  0.35842628372E+02 -0.15850026953E+03  0.19514800428E+03  0.00000000000E+00 0. -1.
        -12    1    3    3    0    0 -0.72370999089E+03  0.36471152035E+03 -0.85168975078E+03  0.11756470880E+04  0.00000000000E+00 0.  1.
         15    1    5    5    0    0  0.28373035881E+03 -0.15436326681E+03  0.42891483605E+03  0.53693763973E+03  0.17770000000E+01 0. -1.
        -16    1    5    5    0    0  0.57610001964E+03 -0.20075554648E+03  0.72643344702E+03  0.94863036796E+03  0.00000000000E+00 0.  1.
          2    1    6    6  502    0  0.12458148425E+02 -0.47348255888E+02  0.17086849520E+03  0.17774449485E+03  0.00000000000E+00 0. -1.
         -1    1    6    6    0  502 -0.40524317522E+02  0.19129204585E+01  0.28751294029E+03  0.29036110347E+03  0.00000000000E+00 0.  1.
<mgrwt>
<rscale>  0 0.97343593E+03</rscale>
<asrwt>0</asrwt>
<pdfrwt beam="1">  1        1 0.30215449E+00 0.97343593E+03</pdfrwt>
<pdfrwt beam="2">  1       -2 0.20930223E+00 0.97343593E+03</pdfrwt>
<totfact> 0.32291514E-01</totfact>
</mgrwt>
</event>
<event>
12    3  0.1201947E-007  0.8415331E+03  0.7818608E-02  0.9501772E-01
         -2   -1    0    0    0  501 -0.00000000000E+00  0.00000000000E+00  0.14743035049E+04  0.14743035049E+04  0.00000000000E+00 0.  1.
          1   -1    0    0  501    0  0.00000000000E+00 -0.00000000000E+00 -0.67089250160E+03  0.67089250160E+03  0.00000000000E+00 0. -1.
        -24    2    1    2    0    0 -0.72653594530E+03 -0.37288477700E+03 -0.47736036898E+02  0.82180148685E+03  0.78621993338E+02 0.  0.
    5000000    2    1    2    0    0  0.72653594530E+03  0.37288477700E+03  0.85114704018E+03  0.13233945196E+04  0.60002019454E+03 0.  0.
        -24    2    4    4    0    0  0.41425633305E+02  0.86264297226E+02  0.46748062582E+03  0.48378954069E+03  0.79728113561E+02 0.  0.
         24    2    4    4    0    0  0.68511031199E+03  0.28662047977E+03  0.38366641436E+03  0.83960497894E+03  0.78798249549E+02 0.  0.
         13    1    3    3    0    0 -0.33755780407E+03 -0.12995675628E+03 -0.14691749040E+02  0.36200811742E+03  0.00000000000E+00 0. -1.
        -14    1    3    3    0    0 -0.38897814123E+03 -0.24292802072E+03 -0.33044287858E+02  0.45979336943E+03  0.00000000000E+00 0.  1.
         15    1    5    5    0    0 -0.15953136979E+02  0.16888700877E+01  0.13483298223E+03  0.13579560261E+03  0.17770000000E+01 0. -1.
        -16    1    5    5    0    0  0.57378770284E+02  0.84575427138E+02  0.33264764360E+03  0.34799393809E+03  0.00000000000E+00 0.  1.
          2    1    6    6  502    0  0.19232987293E+03  0.10573758239E+03  0.82884316172E+02  0.23460823988E+03  0.00000000000E+00 0. -1.
         -1    1    6    6    0  502  0.49278043906E+03  0.18088289738E+03  0.30078209819E+03  0.60499673907E+03  0.00000000000E+00 0.  1.
<mgrwt>
<rscale>  0 0.84153309E+03</rscale>
<asrwt>0</asrwt>
<pdfrwt beam="1">  1        1 0.10321423E+00 0.84153309E+03</pdfrwt>
<pdfrwt beam="2">  1       -2 0.22681592E+00 0.84153309E+03</pdfrwt>
<totfact> 0.23209192E+00</totfact>
</mgrwt>
</event>
<event>
12    3  0.1201947E-007  0.6787544E+03  0.7818608E-02  0.9754271E-01
          1   -1    0    0  501    0  0.00000000000E+00  0.00000000000E+00  0.16113893492E+04  0.16113893492E+04  0.00000000000E+00 0. -1.
         -2   -1    0    0    0  501 -0.00000000000E+00 -0.00000000000E+00 -0.12866276719E+04  0.12866276719E+04  0.00000000000E+00 0.  1.
        -24    2    1    2    0    0  0.27162859924E+03 -0.48418785205E+03 -0.11118055441E+04  0.12452379973E+04  0.79285117645E+02 0.  0.
    5000000    2    1    2    0    0 -0.27162859924E+03  0.48418785205E+03  0.14365672215E+04  0.16527790238E+04  0.59977758193E+03 0.  0.
        -24    2    4    4    0    0 -0.29852592264E+03 -0.51546587734E+01  0.69440967684E+03  0.76014757741E+03  0.80468895617E+02 0.  0.
         24    2    4    4    0    0  0.26897323397E+02  0.48934251083E+03  0.74215754466E+03  0.89263144643E+03  0.76246437049E+02 0.  0.
         13    1    3    3    0    0  0.17824400820E+02 -0.66331875358E+02 -0.97597446717E+02  0.11934357360E+03  0.00000000000E+00 0. -1.
        -14    1    3    3    0    0  0.25380419842E+03 -0.41785597670E+03 -0.10142080974E+04  0.11258944237E+04  0.00000000000E+00 0.  1.
         15    1    5    5    0    0 -0.24914952452E+03 -0.34866206113E+02  0.56780121401E+03  0.62104147547E+03  0.17770000000E+01 0. -1.
        -16    1    5    5    0    0 -0.49376398116E+02  0.29711547339E+02  0.12660846283E+03  0.13910610194E+03  0.00000000000E+00 0.  1.
          4    1    6    6  502    0  0.17751815194E+02  0.12444375732E+03  0.25071433726E+03  0.28046221597E+03  0.00000000000E+00 0. -1.
         -3    1    6    6    0  502  0.91455082033E+01  0.36489875350E+03  0.49144320740E+03  0.61216923046E+03  0.00000000000E+00 0.  1.
<mgrwt>
<rscale>  0 0.67875438E+03</rscale>
<asrwt>0</asrwt>
<pdfrwt beam="1">  1        1 0.24790605E+00 0.67875438E+03</pdfrwt>
<pdfrwt beam="2">  1       -2 0.19794272E+00 0.67875438E+03</pdfrwt>
<totfact> 0.69862000E-01</totfact>
</mgrwt>
</event>
<event>
12    3  0.1201947E-007  0.1040338E+04  0.7818608E-02  0.9265377E-01
          1   -1    0    0  501    0  0.00000000000E+00  0.00000000000E+00  0.27798906898E+04  0.27798906898E+04  0.00000000000E+00 0. -1.
         -2   -1    0    0    0  501 -0.00000000000E+00 -0.00000000000E+00 -0.91234975413E+03  0.91234975413E+03  0.00000000000E+00 0.  1.
        -24    2    1    2    0    0 -0.75246105932E+02 -0.95594090106E+03 -0.48817666998E+03  0.10790192350E+04  0.80505065460E+02 0.  0.
    5000000    2    1    2    0    0  0.75246105932E+02  0.95594090106E+03  0.23557176056E+04  0.26132212089E+04  0.60002888809E+03 0.  0.
        -24    2    4    4    0    0  0.30786253428E+03  0.72693845169E+03  0.16968997952E+04  0.18732693448E+04  0.80313578151E+02 0.  0.
         24    2    4    4    0    0 -0.23261642834E+03  0.22900244938E+03  0.65881781042E+03  0.73995186408E+03  0.83278624315E+02 0.  0.
         13    1    3    3    0    0  0.79196307171E+01 -0.11651998523E+03 -0.82629441263E+02  0.14306380420E+03  0.00000000000E+00 0. -1.
        -14    1    3    3    0    0 -0.83165736649E+02 -0.83942091583E+03 -0.40554722871E+03  0.93595543078E+03  0.00000000000E+00 0.  1.
         15    1    5    5    0    0  0.14297092268E+03  0.24025051920E+03  0.61037095038E+03  0.67135449019E+03  0.17770000000E+01 0. -1.
        -16    1    5    5    0    0  0.16489161159E+03  0.48668793249E+03  0.10865288448E+04  0.12019148546E+04  0.00000000000E+00 0.  1.
          2    1    6    6  502    0 -0.16563285327E+03  0.17415359820E+03  0.55478750951E+03  0.60460970763E+03  0.00000000000E+00 0. -1.
         -1    1    6    6    0  502 -0.66983575071E+02  0.54848851179E+02  0.10403030091E+03  0.13534215645E+03  0.00000000000E+00 0.  1.
<mgrwt>
<rscale>  0 0.10403379E+04</rscale>
<asrwt>0</asrwt>
<pdfrwt beam="1">  1        1 0.42767549E+00 0.10403379E+04</pdfrwt>
<pdfrwt beam="2">  1       -2 0.14036150E+00 0.10403379E+04</pdfrwt>
<totfact> 0.27211534E-01</totfact>
</mgrwt>
</event>
<event>
12    3  0.1201947E-007  0.7962374E+03  0.7818608E-02  0.9565479E-01
         -2   -1    0    0    0  501 -0.00000000000E+00  0.00000000000E+00  0.26936502826E+04  0.26936502826E+04  0.00000000000E+00 0.  1.
          1   -1    0    0  501    0  0.00000000000E+00 -0.00000000000E+00 -0.30123648218E+03  0.30123648218E+03  0.00000000000E+00 0. -1.
        -24    2    1    2    0    0 -0.51477279410E+03 -0.52688664256E+03  0.15803019525E+04  0.17453790266E+04  0.79957001044E+02 0.  0.
    5000000    2    1    2    0    0  0.51477279410E+03  0.52688664256E+03  0.81211184794E+03  0.12495077381E+04  0.59928571685E+03 0.  0.
        -24    2    4    4    0    0  0.35951301916E+02 -0.53589630913E+02  0.34510851688E+03  0.36032251035E+03  0.81043681990E+02 0.  0.
         24    2    4    4    0    0  0.47882149219E+03  0.58047627347E+03  0.46700333106E+03  0.88918522778E+03  0.79596059170E+02 0.  0.
         11    1    3    3    0    0 -0.31710262157E+03 -0.32125770614E+03  0.87470949881E+03  0.98431564738E+03  0.00000000000E+00 0. -1.
        -12    1    3    3    0    0 -0.19767017253E+03 -0.20562893641E+03  0.70559245364E+03  0.76106337925E+03  0.00000000000E+00 0.  1.
         15    1    5    5    0    0 -0.20669826714E+02 -0.33650171895E+02  0.18855858489E+03  0.19265791827E+03  0.17770000000E+01 0. -1.
        -16    1    5    5    0    0  0.56621128629E+02 -0.19939459018E+02  0.15654993199E+03  0.16766459208E+03  0.00000000000E+00 0.  1.
          4    1    6    6  502    0  0.41745511007E+03  0.46069387837E+03  0.39468272244E+03  0.73639803767E+03  0.00000000000E+00 0. -1.
         -3    1    6    6    0  502  0.61366382115E+02  0.11978239510E+03  0.72320608622E+02  0.15278719011E+03  0.00000000000E+00 0.  1.
<mgrwt>
<rscale>  0 0.79623738E+03</rscale>
<asrwt>0</asrwt>
<pdfrwt beam="1">  1        1 0.46344076E-01 0.79623738E+03</pdfrwt>
<pdfrwt beam="2">  1       -2 0.41440772E+00 0.79623738E+03</pdfrwt>
<totfact> 0.48185378E-01</totfact>
</mgrwt>
</event>
<event>
12    3  0.1201947E-007  0.5579010E+03  0.7818608E-02  0.9996815E-01
         -2   -1    0    0    0  501 -0.00000000000E+00  0.00000000000E+00  0.33074005956E+03  0.33074005956E+03  0.00000000000E+00 0.  1.
          1   -1    0    0  501    0  0.00000000000E+00 -0.00000000000E+00 -0.12334208884E+04  0.12334208884E+04  0.00000000000E+00 0. -1.
        -24    2    1    2    0    0 -0.75867167284E+02 -0.41227546500E+03 -0.67356062556E+03  0.79752167814E+03  0.81424963551E+02 0.  0.
    5000000    2    1    2    0    0  0.75867167284E+02  0.41227546500E+03 -0.22912020323E+03  0.76663926977E+03  0.59959387615E+03 0.  0.
        -24    2    4    4    0    0 -0.22846887001E+03  0.23357526865E+03 -0.22419498837E+03  0.40435654145E+03  0.80531913659E+02 0.  0.
         24    2    4    4    0    0  0.30433603729E+03  0.17870019635E+03 -0.49252148661E+01  0.36228272832E+03  0.81672111072E+02 0.  0.
         13    1    3    3    0    0  0.80687639858E+01 -0.17021753955E+03 -0.25174045885E+03  0.30399403670E+03  0.00000000000E+00 0. -1.
        -14    1    3    3    0    0 -0.83935931270E+02 -0.24205792545E+03 -0.42182016671E+03  0.49352764145E+03  0.00000000000E+00 0.  1.
         15    1    5    5    0    0 -0.22714767671E+02  0.34968212206E+02 -0.64476735339E+02  0.76805883005E+02  0.17770000000E+01 0. -1.
        -16    1    5    5    0    0 -0.20575410234E+03  0.19860705644E+03 -0.15971825303E+03  0.32755065845E+03  0.00000000000E+00 0.  1.
          4    1    6    6  502    0  0.24312195775E+03  0.10275613068E+03 -0.14014147280E+02  0.26431705405E+03  0.00000000000E+00 0. -1.
         -3    1    6    6    0  502  0.61214079540E+02  0.75944065666E+02  0.90889324144E+01  0.97965674275E+02  0.00000000000E+00 0.  1.
<mgrwt>
<rscale>  0 0.55790100E+03</rscale>
<asrwt>0</asrwt>
<pdfrwt beam="1">  1        1 0.18975706E+00 0.55790100E+03</pdfrwt>
<pdfrwt beam="2">  1       -2 0.50883087E-01 0.55790100E+03</pdfrwt>
<totfact> 0.33939614E+01</totfact>
</mgrwt>
</event>
<event>
12    3  0.1201947E-007  0.1018978E+04  0.7818608E-02  0.9287972E-01
          1   -1    0    0  501    0  0.00000000000E+00  0.00000000000E+00  0.14435728909E+04  0.14435728909E+04  0.00000000000E+00 0. -1.
         -2   -1    0    0    0  501 -0.00000000000E+00 -0.00000000000E+00 -0.78976184008E+03  0.78976184008E+03  0.00000000000E+00 0.  1.
        -24    2    1    2    0    0 -0.94159516352E+03  0.20041298752E+03  0.50445022449E+03  0.10895038527E+04  0.76038139168E+02 0.  0.
    5000000    2    1    2    0    0  0.94159516352E+03 -0.20041298752E+03  0.14936082634E+03  0.11438308783E+04  0.59939436441E+03 0.  0.
        -24    2    4    4    0    0  0.31386144870E+03  0.15197571772E+03 -0.11041948079E+03  0.37423623855E+03  0.79086489022E+02 0.  0.
         24    2    4    4    0    0  0.62773371482E+03 -0.35238870524E+03  0.25978030713E+03  0.76959463971E+03  0.81010401825E+02 0.  0.
         13    1    3    3    0    0 -0.52926156263E+03  0.87302013056E+02  0.31276063195E+03  0.62093369699E+03  0.00000000000E+00 0. -1.
        -14    1    3    3    0    0 -0.41233360089E+03  0.11311097446E+03  0.19168959254E+03  0.46857015575E+03  0.00000000000E+00 0.  1.
         15    1    5    5    0    0  0.11536608487E+03  0.89238552351E+02 -0.19826001699E+02  0.14720421474E+03  0.17770000000E+01 0. -1.
        -16    1    5    5    0    0  0.19849536383E+03  0.62737165367E+02 -0.90593479093E+02  0.22703202381E+03  0.00000000000E+00 0.  1.
          2    1    6    6  502    0  0.44689476872E+02 -0.22408089458E+02  0.41537159729E+02  0.64996980350E+02  0.00000000000E+00 0. -1.
         -1    1    6    6    0  502  0.58304423794E+03 -0.32998061578E+03  0.21824314740E+03  0.70459765936E+03  0.00000000000E+00 0.  1.
<mgrwt>
<rscale>  0 0.10189778E+04</rscale>
<asrwt>0</asrwt>
<pdfrwt beam="1">  1        1 0.22208814E+00 0.10189778E+04</pdfrwt>
<pdfrwt beam="2">  1       -2 0.12150182E+00 0.10189778E+04</pdfrwt>
<totfact> 0.32236417E+00</totfact>
</mgrwt>
</event>
<event>
12    3  0.1201947E-007  0.6765621E+03  0.7818608E-02  0.9758175E-01
          1   -1    0    0  501    0  0.00000000000E+00  0.00000000000E+00  0.69597207424E+03  0.69597207424E+03  0.00000000000E+00 0. -1.
         -2   -1    0    0    0  501 -0.00000000000E+00 -0.00000000000E+00 -0.92960316182E+03  0.92960316182E+03  0.00000000000E+00 0.  1.
        -24    2    1    2    0    0  0.23202185950E+03  0.51058460610E+03  0.30507337352E+03  0.64335291997E+03  0.79387865153E+02 0.  0.
    5000000    2    1    2    0    0 -0.23202185950E+03 -0.51058460610E+03 -0.53870446110E+03  0.98222231609E+03  0.60002283169E+03 0.  0.
        -24    2    4    4    0    0 -0.41358498028E+03 -0.37516614633E+03 -0.28097316040E+03  0.63011262032E+03  0.79333625647E+02 0.  0.
         24    2    4    4    0    0  0.18156312078E+03 -0.13541845977E+03 -0.25773130069E+03  0.35210969577E+03  0.79072678123E+02 0.  0.
         11    1    3    3    0    0  0.14197469696E+03  0.37048925725E+03  0.18337890629E+03  0.43708915290E+03  0.00000000000E+00 0. -1.
        -12    1    3    3    0    0  0.90047162536E+02  0.14009534885E+03  0.12169446723E+03  0.20626376707E+03  0.00000000000E+00 0.  1.
         15    1    5    5    0    0 -0.40267607795E+03 -0.37773097469E+03 -0.27943275674E+03  0.61880088580E+03  0.17770000000E+01 0. -1.
        -16    1    5    5    0    0 -0.10908902323E+02  0.25648283620E+01 -0.15404036601E+01  0.11311734520E+02  0.00000000000E+00 0.  1.
          4    1    6    6  502    0  0.63732908263E+02 -0.47485331149E+02 -0.38931149003E+02  0.88500704137E+02  0.00000000000E+00 0. -1.
         -3    1    6    6    0  502  0.11783021251E+03 -0.87933128619E+02 -0.21880015169E+03  0.26360899163E+03  0.00000000000E+00 0.  1.
<mgrwt>
<rscale>  0 0.67656210E+03</rscale>
<asrwt>0</asrwt>
<pdfrwt beam="1">  1        1 0.10707263E+00 0.67656210E+03</pdfrwt>
<pdfrwt beam="2">  1       -2 0.14301587E+00 0.67656210E+03</pdfrwt>
<totfact> 0.84261252E+00</totfact>
</mgrwt>
</event>
<event>
12    3  0.1201947E-007  0.4227661E+03  0.7818608E-02  0.1036170E+00
          1   -1    0    0  501    0  0.00000000000E+00  0.00000000000E+00  0.15838439971E+04  0.15838439971E+04  0.00000000000E+00 0. -1.
         -2   -1    0    0    0  501 -0.00000000000E+00 -0.00000000000E+00 -0.20378768389E+03  0.20378768389E+03  0.00000000000E+00 0.  1.
        -24    2    1    2    0    0  0.31892114876E+03  0.22372580827E+03  0.32858535642E+03  0.51592609512E+03  0.80296094325E+02 0.  0.
    5000000    2    1    2    0    0 -0.31892114876E+03 -0.22372580827E+03  0.10514709568E+04  0.12717055859E+04  0.59989998145E+03 0.  0.
        -24    2    4    4    0    0 -0.41042406096E+02  0.61794483947E+00  0.84876148254E+03  0.85337035066E+03  0.78485923435E+02 0.  0.
         24    2    4    4    0    0 -0.27787874266E+03 -0.22434375311E+03  0.20270947427E+03  0.41833523523E+03  0.79790493763E+02 0.  0.
         13    1    3    3    0    0  0.11149596056E+03  0.11647464012E+03  0.16580157363E+03  0.23127441024E+03  0.00000000000E+00 0. -1.
        -14    1    3    3    0    0  0.20742518820E+03  0.10725116814E+03  0.16278378280E+03  0.28465168489E+03  0.00000000000E+00 0.  1.
         15    1    5    5    0    0  0.47374162107E+01  0.32089659674E+02  0.35956675003E+03  0.36103129342E+03  0.17770000000E+01 0. -1.
        -16    1    5    5    0    0 -0.45779822306E+02 -0.31471714835E+02  0.48919473251E+03  0.49233905724E+03  0.00000000000E+00 0.  1.
          4    1    6    6  502    0 -0.19576621729E+03 -0.11870734384E+03  0.15412918195E+03  0.27599211953E+03  0.00000000000E+00 0. -1.
         -1    1    6    6    0  502 -0.82112525372E+02 -0.10563640927E+03  0.48580292319E+02  0.14234311570E+03  0.00000000000E+00 0.  1.
<mgrwt>
<rscale>  0 0.42276611E+03</rscale>
<asrwt>0</asrwt>
<pdfrwt beam="1">  1        1 0.24366830E+00 0.42276611E+03</pdfrwt>
<pdfrwt beam="2">  1       -2 0.31351952E-01 0.42276611E+03</pdfrwt>
<totfact> 0.50974563E+01</totfact>
</mgrwt>
</event>
<event>
12    3  0.1201947E-007  0.9349893E+03  0.7818608E-02  0.9382870E-01
          1   -1    0    0  501    0  0.00000000000E+00  0.00000000000E+00  0.38994832073E+03  0.38994832073E+03  0.00000000000E+00 0. -1.
         -2   -1    0    0    0  501 -0.00000000000E+00 -0.00000000000E+00 -0.23956481004E+04  0.23956481004E+04  0.00000000000E+00 0.  1.
        -24    2    1    2    0    0 -0.84412338404E+03 -0.18631121664E+03 -0.10675120422E+04  0.13759274628E+04  0.79613225173E+02 0.  0.
    5000000    2    1    2    0    0  0.84412338404E+03  0.18631121664E+03 -0.93818773747E+03  0.14096689584E+04  0.59976177314E+03 0.  0.
        -24    2    4    4    0    0 -0.47623245747E+02  0.24659478998E+02  0.85889344336E+01  0.96687896891E+02  0.79991975664E+02 0.  0.
         24    2    4    4    0    0  0.89174662979E+03  0.16165173764E+03 -0.94677667191E+03  0.13129810615E+04  0.78675697144E+02 0.  0.
         13    1    3    3    0    0 -0.15867504521E+03 -0.24698204012E+02 -0.24724902582E+03  0.29482172923E+03  0.00000000000E+00 0. -1.
        -14    1    3    3    0    0 -0.68544833884E+03 -0.16161301263E+03 -0.82026301640E+03  0.10811057336E+04  0.00000000000E+00 0.  1.
         15    1    5    5    0    0 -0.57516490284E+02  0.45291406796E+02  0.91529116243E+01  0.73799672793E+02  0.17770000000E+01 0. -1.
        -16    1    5    5    0    0  0.98932445365E+01 -0.20631927798E+02 -0.56397719076E+00  0.22888224099E+02  0.00000000000E+00 0.  1.
          2    1    6    6  502    0  0.78552024962E+03  0.16540576590E+03 -0.85151393903E+03  0.11702466058E+04  0.00000000000E+00 0. -1.
         -1    1    6    6    0  502  0.10622638018E+03 -0.37540282568E+01 -0.95262732881E+02  0.14273445572E+03  0.00000000000E+00 0.  1.
<mgrwt>
<rscale>  0 0.93498927E+03</rscale>
<asrwt>0</asrwt>
<pdfrwt beam="1">  1        1 0.59992052E-01 0.93498927E+03</pdfrwt>
<pdfrwt beam="2">  1       -2 0.36856123E+00 0.93498927E+03</pdfrwt>
<totfact> 0.66361099E-01</totfact>
</mgrwt>
</event>
<event>
12    3  0.1201947E-007  0.8534120E+03  0.7818608E-02  0.9485769E-01
          1   -1    0    0  501    0  0.00000000000E+00  0.00000000000E+00  0.68674430830E+03  0.68674430830E+03  0.00000000000E+00 0. -1.
         -2   -1    0    0    0  501 -0.00000000000E+00 -0.00000000000E+00 -0.11482907679E+04  0.11482907679E+04  0.00000000000E+00 0.  1.
        -24    2    1    2    0    0 -0.39937243371E+03 -0.67267565212E+03 -0.26282648095E+03  0.82916269972E+03  0.80263003644E+02 0.  0.
    5000000    2    1    2    0    0  0.39937243371E+03  0.67267565212E+03 -0.19871997860E+03  0.10058723764E+04  0.60024889341E+03 0.  0.
        -24    2    4    4    0    0  0.18705704219E+03  0.67668612082E+03 -0.36421512801E+01  0.70663471562E+03  0.80155554514E+02 0.  0.
         24    2    4    4    0    0  0.21231539152E+03 -0.40104686978E+01 -0.19507782732E+03  0.29923766082E+03  0.79961925973E+02 0.  0.
         11    1    3    3    0    0 -0.30075896848E+03 -0.43670724469E+03 -0.18974175115E+03  0.56317946235E+03  0.00000000000E+00 0. -1.
        -12    1    3    3    0    0 -0.98613465224E+02 -0.23596840743E+03 -0.73084729808E+02  0.26598323737E+03  0.00000000000E+00 0.  1.
         15    1    5    5    0    0  0.23400078685E+02  0.22252273384E+03  0.48569553419E+01  0.22380946919E+03  0.17770000000E+01 0. -1.
        -16    1    5    5    0    0  0.16365696350E+03  0.45416338698E+03 -0.84991066220E+01  0.48282524643E+03  0.00000000000E+00 0.  1.
          2    1    6    6  502    0  0.79449747857E+02 -0.15530386961E+02 -0.12407914755E+03  0.14815225348E+03  0.00000000000E+00 0. -1.
         -3    1    6    6    0  502  0.13286564366E+03  0.11519918263E+02 -0.70998679773E+02  0.15108540734E+03  0.00000000000E+00 0.  1.
<mgrwt>
<rscale>  0 0.85341200E+03</rscale>
<asrwt>0</asrwt>
<pdfrwt beam="1">  1        1 0.10565297E+00 0.85341200E+03</pdfrwt>
<pdfrwt beam="2">  1       -2 0.17666012E+00 0.85341200E+03</pdfrwt>
<totfact> 0.47539404E+00</totfact>
</mgrwt>
</event>
<event>
12    3  0.1201947E-007  0.6699789E+03  0.7818608E-02  0.9769996E-01
          3   -1    0    0  501    0  0.00000000000E+00  0.00000000000E+00  0.42931198471E+03  0.42931198471E+03  0.00000000000E+00 0. -1.
         -4   -1    0    0    0  501 -0.00000000000E+00 -0.00000000000E+00 -0.20870096022E+04  0.20870096022E+04  0.00000000000E+00 0.  1.
        -24    2    1    2    0    0  0.62590976080E+03 -0.31742236143E+02 -0.15095578688E+04  0.16362876377E+04  0.76822364653E+02 0.  0.
    5000000    2    1    2    0    0 -0.62590976080E+03  0.31742236143E+02 -0.14813974867E+03  0.88003394923E+03  0.59978643569E+03 0.  0.
        -24    2    4    4    0    0 -0.23772764547E+03  0.17227546097E+03  0.17399925891E+03  0.35036624871E+03  0.79293746658E+02 0.  0.
         24    2    4    4    0    0 -0.38818211533E+03 -0.14053322483E+03 -0.32213900758E+03  0.52966770052E+03  0.79620291558E+02 0.  0.
         11    1    3    3    0    0  0.25930151243E+03 -0.38733326038E+02 -0.55790376345E+03  0.61643665868E+03  0.00000000000E+00 0. -1.
        -12    1    3    3    0    0  0.36660824836E+03  0.69910898952E+01 -0.95165410536E+03  0.10198509790E+04  0.00000000000E+00 0.  1.
         15    1    5    5    0    0 -0.49368613256E+02  0.40972816461E+02  0.79245967600E+02  0.10197604019E+03  0.17770000000E+01 0. -1.
        -16    1    5    5    0    0 -0.18835903221E+03  0.13130264451E+03  0.94753291307E+02  0.24839020851E+03  0.00000000000E+00 0.  1.
          2    1    6    6  502    0 -0.12236319722E+03 -0.75067791285E+02 -0.80894206059E+02  0.16477802613E+03  0.00000000000E+00 0. -1.
         -1    1    6    6    0  502 -0.26581891811E+03 -0.65465433545E+02 -0.24124480152E+03  0.36488967439E+03  0.00000000000E+00 0.  1.
<mgrwt>
<rscale>  0 0.66997889E+03</rscale>
<asrwt>0</asrwt>
<pdfrwt beam="1">  1        3 0.66047999E-01 0.66997889E+03</pdfrwt>
<pdfrwt beam="2">  1       -4 0.32107839E+00 0.66997889E+03</pdfrwt>
<totfact> 0.11833150E-01</totfact>
</mgrwt>
</event>
<event>
12    3  0.1201947E-007  0.8950316E+03  0.7818608E-02  0.9431814E-01
         -2   -1    0    0    0  501 -0.00000000000E+00  0.00000000000E+00  0.12041119502E+04  0.12041119502E+04  0.00000000000E+00 0.  1.
          1   -1    0    0  501    0  0.00000000000E+00 -0.00000000000E+00 -0.10874477355E+04  0.10874477355E+04  0.00000000000E+00 0. -1.
        -24    2    1    2    0    0 -0.18603937660E+03  0.86851401061E+03 -0.53221862027E+03  0.10384629568E+04  0.78875957372E+02 0.  0.
    5000000    2    1    2    0    0  0.18603937660E+03 -0.86851401061E+03  0.64888283493E+03  0.12530967289E+04  0.60022932470E+03 0.  0.
        -24    2    4    4    0    0  0.80455335785E+02 -0.52992759781E+03  0.70074693175E+03  0.88590124064E+03  0.80488669042E+02 0.  0.
         24    2    4    4    0    0  0.10558404082E+03 -0.33858641280E+03 -0.51864096811E+02  0.36719548826E+03  0.79711313177E+02 0.  0.
         13    1    3    3    0    0 -0.14988436090E+02  0.23598928203E+03 -0.14034083582E+03  0.27497480730E+03  0.00000000000E+00 0. -1.
        -14    1    3    3    0    0 -0.17105094051E+03  0.63252472858E+03 -0.39187778444E+03  0.76348814952E+03  0.00000000000E+00 0.  1.
         15    1    5    5    0    0  0.67691858533E+02 -0.51078828018E+03  0.64461730200E+03  0.82524025510E+03  0.17770000000E+01 0. -1.
        -16    1    5    5    0    0  0.12763477252E+02 -0.19139317632E+02  0.56129629748E+02  0.60660985539E+02  0.00000000000E+00 0.  1.
          2    1    6    6  502    0  0.65697621204E+02 -0.11059161623E+03 -0.42775438084E+02  0.13555965888E+03  0.00000000000E+00 0. -1.
         -1    1    6    6    0  502  0.39886419612E+02 -0.22799479657E+03 -0.90886587269E+01  0.23163582938E+03  0.00000000000E+00 0.  1.
<mgrwt>
<rscale>  0 0.89503156E+03</rscale>
<asrwt>0</asrwt>
<pdfrwt beam="1">  1        1 0.16729965E+00 0.89503156E+03</pdfrwt>
<pdfrwt beam="2">  1       -2 0.18524799E+00 0.89503156E+03</pdfrwt>
<totfact> 0.19144252E+00</totfact>
</mgrwt>
</event>
<event>
12    3  0.1201947E-007  0.4005012E+03  0.7818608E-02  0.1043606E+00
         -2   -1    0    0    0  501 -0.00000000000E+00  0.00000000000E+00  0.71009572070E+03  0.71009572070E+03  0.00000000000E+00 0.  1.
          1   -1    0    0  501    0  0.00000000000E+00 -0.00000000000E+00 -0.23023579757E+04  0.23023579757E+04  0.00000000000E+00 0. -1.
        -24    2    1    2    0    0 -0.32025111982E+03 -0.11307201085E+03 -0.21171770772E+04  0.21459326008E+04  0.85099304840E+02 0.  0.
    5000000    2    1    2    0    0  0.32025111982E+03  0.11307201085E+03  0.52491482218E+03  0.86652109560E+03  0.59998098236E+03 0.  0.
        -24    2    4    4    0    0  0.14022823311E+03 -0.98766206642E+02  0.54472016010E+03  0.57671387552E+03  0.80374874588E+02 0.  0.
         24    2    4    4    0    0  0.18002288671E+03  0.21183821749E+03 -0.19805337916E+02  0.28980722008E+03  0.79450004855E+02 0.  0.
         13    1    3    3    0    0 -0.28095901858E+03 -0.74501273201E+02 -0.16366065455E+04  0.16622182151E+04  0.00000000000E+00 0. -1.
        -14    1    3    3    0    0 -0.39292101242E+02 -0.38570737649E+02 -0.48057053165E+03  0.48371438568E+03  0.00000000000E+00 0.  1.
         15    1    5    5    0    0  0.12105172106E+03 -0.66067307441E+02  0.31475788835E+03  0.34364821299E+03  0.17770000000E+01 0. -1.
        -16    1    5    5    0    0  0.19176512053E+02 -0.32698899201E+02  0.22996227175E+03  0.23306566253E+03  0.00000000000E+00 0.  1.
          2    1    6    6  502    0  0.94610736000E+02  0.89442782335E+02 -0.46375442481E+02  0.13820956676E+03  0.00000000000E+00 0. -1.
         -1    1    6    6    0  502  0.85412150708E+02  0.12239543516E+03  0.26570104565E+02  0.15159765332E+03  0.00000000000E+00 0.  1.
<mgrwt>
<rscale>  0 0.40050118E+03</rscale>
<asrwt>0</asrwt>
<pdfrwt beam="1">  1        1 0.35420892E+00 0.40050118E+03</pdfrwt>
<pdfrwt beam="2">  1       -2 0.10924550E+00 0.40050118E+03</pdfrwt>
<totfact> 0.12573733E+00</totfact>
</mgrwt>
</event>
<event>
12    3  0.1201947E-007  0.6130051E+03  0.7818608E-02  0.9878786E-01
          1   -1    0    0  501    0  0.00000000000E+00  0.00000000000E+00  0.97744691682E+03  0.97744691682E+03  0.00000000000E+00 0. -1.
         -2   -1    0    0    0  501 -0.00000000000E+00 -0.00000000000E+00 -0.40226778691E+03  0.40226778691E+03  0.00000000000E+00 0.  1.
        -24    2    1    2    0    0 -0.30859033120E+03  0.36259123954E+03  0.16151672618E+03  0.50914809186E+03  0.80272829184E+02 0.  0.
    5000000    2    1    2    0    0  0.30859033120E+03 -0.36259123954E+03  0.41366240373E+03  0.87056661187E+03  0.60005769884E+03 0.  0.
        -24    2    4    4    0    0  0.39681618471E+03 -0.29936302169E+02  0.27919734693E+03  0.49248925584E+03  0.78963548212E+02 0.  0.
         24    2    4    4    0    0 -0.88225853511E+02 -0.33265493738E+03  0.13446505679E+03  0.37807735603E+03  0.80115710420E+02 0.  0.
         13    1    3    3    0    0 -0.98218711567E+02  0.74837374714E+02  0.66498840285E+02  0.14024850700E+03  0.00000000000E+00 0. -1.
        -14    1    3    3    0    0 -0.21037161963E+03  0.28775386483E+03  0.95017885895E+02  0.36889958486E+03  0.00000000000E+00 0.  1.
         15    1    5    5    0    0  0.30078736595E+02  0.65667552580E+00 -0.67597646722E+00  0.30145916657E+02  0.17770000000E+01 0. -1.
        -16    1    5    5    0    0  0.36673744811E+03 -0.30592977695E+02  0.27987332340E+03  0.46234333918E+03  0.00000000000E+00 0.  1.
          2    1    6    6  502    0 -0.96131600945E+01 -0.47356670215E+01  0.18692520449E+02  0.21546454694E+02  0.00000000000E+00 0. -1.
         -1    1    6    6    0  502 -0.78612693416E+02 -0.32791927035E+03  0.11577253634E+03  0.35653090134E+03  0.00000000000E+00 0.  1.
<mgrwt>
<rscale>  0 0.61300508E+03</rscale>
<asrwt>0</asrwt>
<pdfrwt beam="1">  1        1 0.15037645E+00 0.61300508E+03</pdfrwt>
<pdfrwt beam="2">  1       -2 0.61887352E-01 0.61300508E+03</pdfrwt>
<totfact> 0.34744792E+01</totfact>
</mgrwt>
</event>
<event>
12    3  0.1201947E-007  0.6703718E+03  0.7818608E-02  0.9769286E-01
         -2   -1    0    0    0  501 -0.00000000000E+00  0.00000000000E+00  0.56841892702E+03  0.56841892702E+03  0.00000000000E+00 0.  1.
          1   -1    0    0  501    0  0.00000000000E+00 -0.00000000000E+00 -0.18319916596E+04  0.18319916596E+04  0.00000000000E+00 0. -1.
        -24    2    1    2    0    0  0.18063241530E+03  0.62077473534E+03  0.20890723815E+03  0.68394942100E+03  0.78455304686E+02 0.  0.
    5000000    2    1    2    0    0 -0.18063241530E+03 -0.62077473534E+03 -0.14724799707E+04  0.17164611656E+04  0.60004360453E+03 0.  0.
        -24    2    4    4    0    0  0.43622115495E+01 -0.36853909513E+03 -0.12939121400E+04  0.13477695703E+04  0.80212810573E+02 0.  0.
         24    2    4    4    0    0 -0.18499462685E+03 -0.25223564021E+03 -0.17856783069E+03  0.36869159530E+03  0.78747648409E+02 0.  0.
         11    1    3    3    0    0  0.98007381891E+02  0.43397930034E+03  0.11741590016E+03  0.46014125401E+03  0.00000000000E+00 0. -1.
        -12    1    3    3    0    0  0.82625033411E+02  0.18679543500E+03  0.91491337995E+02  0.22380816699E+03  0.00000000000E+00 0.  1.
         15    1    5    5    0    0  0.31886016726E+01 -0.37134692902E+01 -0.81260168950E+02  0.81426837232E+02  0.17770000000E+01 0. -1.
        -16    1    5    5    0    0  0.11736098769E+01 -0.36482562584E+03 -0.12126519711E+04  0.12663427330E+04  0.00000000000E+00 0.  1.
          4    1    6    6  502    0 -0.11277030295E+03 -0.91116305110E+02 -0.66018115094E+02  0.15930384115E+03  0.00000000000E+00 0. -1.
         -3    1    6    6    0  502 -0.72224323899E+02 -0.16111933510E+03 -0.11254971560E+03  0.20938775415E+03  0.00000000000E+00 0.  1.
<mgrwt>
<rscale>  0 0.67037177E+03</rscale>
<asrwt>0</asrwt>
<pdfrwt beam="1">  1        1 0.28184487E+00 0.67037177E+03</pdfrwt>
<pdfrwt beam="2">  1       -2 0.87449066E-01 0.67037177E+03</pdfrwt>
<totfact> 0.40490982E+00</totfact>
</mgrwt>
</event>
<event>
12    3  0.1201947E-007  0.5964855E+03  0.7818608E-02  0.9912725E-01
          1   -1    0    0  501    0  0.00000000000E+00  0.00000000000E+00  0.49926726368E+03  0.49926726368E+03  0.00000000000E+00 0. -1.
         -2   -1    0    0    0  501 -0.00000000000E+00 -0.00000000000E+00 -0.13168249326E+04  0.13168249326E+04  0.00000000000E+00 0.  1.
        -24    2    1    2    0    0 -0.71220687287E+02 -0.57644491633E+03  0.78214647859E+02  0.59152512561E+03  0.80145587649E+02 0.  0.
    5000000    2    1    2    0    0  0.71220687287E+02  0.57644491633E+03 -0.89577231678E+03  0.12245670707E+04  0.59982942510E+03 0.  0.
        -24    2    4    4    0    0  0.50418185372E+02  0.45597920074E+03 -0.95649178591E+03  0.10637645947E+04  0.79117327042E+02 0.  0.
         24    2    4    4    0    0  0.20802501915E+02  0.12046571559E+03  0.60719469126E+02  0.16080247601E+03  0.85004997745E+02 0.  0.
         13    1    3    3    0    0 -0.69749658545E+02 -0.26271775763E+03  0.21088236519E+02  0.27263592712E+03  0.00000000000E+00 0. -1.
        -14    1    3    3    0    0 -0.14710287418E+01 -0.31372715871E+03  0.57126411340E+02  0.31888919848E+03  0.00000000000E+00 0.  1.
         15    1    5    5    0    0  0.41062873711E+02  0.32300231036E+03 -0.59160621131E+03  0.67529084037E+03  0.17770000000E+01 0. -1.
        -16    1    5    5    0    0  0.93553116605E+01  0.13297689038E+03 -0.36488557459E+03  0.38847375430E+03  0.00000000000E+00 0.  1.
          4    1    6    6  502    0  0.36184854589E+02  0.10789559663E+02  0.10453432997E+02  0.39179491584E+02  0.00000000000E+00 0. -1.
         -3    1    6    6    0  502 -0.15382352674E+02  0.10967615593E+03  0.50266036129E+02  0.12162298443E+03  0.00000000000E+00 0.  1.
<mgrwt>
<rscale>  0 0.59648548E+03</rscale>
<asrwt>0</asrwt>
<pdfrwt beam="1">  1        1 0.76810348E-01 0.59648548E+03</pdfrwt>
<pdfrwt beam="2">  1       -2 0.20258845E+00 0.59648548E+03</pdfrwt>
<totfact> 0.52055270E+00</totfact>
</mgrwt>
</event>
<event>
12    3  0.1201947E-007  0.1408841E+04  0.7818608E-02  0.8947444E-01
         -2   -1    0    0    0  501 -0.00000000000E+00  0.00000000000E+00  0.11857655220E+04  0.11857655220E+04  0.00000000000E+00 0.  1.
          1   -1    0    0  501    0  0.00000000000E+00 -0.00000000000E+00 -0.18699801682E+04  0.18699801682E+04  0.00000000000E+00 0. -1.
        -24    2    1    2    0    0 -0.13877908562E+04 -0.19132976958E+03 -0.60977098264E+03  0.15300714267E+04  0.82020597647E+02 0.  0.
    5000000    2    1    2    0    0  0.13877908562E+04  0.19132976958E+03 -0.74443663568E+02  0.15256742634E+04  0.59964119085E+03 0.  0.
        -24    2    4    4    0    0  0.11901150719E+04  0.18627378119E+03 -0.27028214358E+03  0.12370451745E+04  0.78463498139E+02 0.  0.
         24    2    4    4    0    0  0.19767578424E+03  0.50559883957E+01  0.19583848001E+03  0.28862908893E+03  0.76503346531E+02 0.  0.
         13    1    3    3    0    0 -0.19395451574E+03 -0.44467782706E+02 -0.11168476265E+03  0.22818681838E+03  0.00000000000E+00 0. -1.
        -14    1    3    3    0    0 -0.11938363404E+04 -0.14686198688E+03 -0.49808621999E+03  0.13018846084E+04  0.00000000000E+00 0.  1.
         15    1    5    5    0    0  0.36962686383E+03  0.43311881678E+02 -0.49574914385E+02  0.37544742299E+03  0.17770000000E+01 0. -1.
        -16    1    5    5    0    0  0.82048820811E+03  0.14296189951E+03 -0.22070722920E+03  0.86159775149E+03  0.00000000000E+00 0.  1.
          2    1    6    6  502    0  0.88020044932E+02 -0.34125839522E+02  0.10288010225E+03  0.13962956947E+03  0.00000000000E+00 0. -1.
         -1    1    6    6    0  502  0.10965573931E+03  0.39181827917E+02  0.92958377766E+02  0.14899951946E+03  0.00000000000E+00 0.  1.
<mgrwt>
<rscale>  0 0.14088410E+04</rscale>
<asrwt>0</asrwt>
<pdfrwt beam="1">  1        1 0.28768926E+00 0.14088410E+04</pdfrwt>
<pdfrwt beam="2">  1       -2 0.18242547E+00 0.14088410E+04</pdfrwt>
<totfact> 0.53212466E-01</totfact>
</mgrwt>
</event>
<event>
12    3  0.1201947E-007  0.6256802E+03  0.7818608E-02  0.9853515E-01
          1   -1    0    0  501    0  0.00000000000E+00  0.00000000000E+00  0.15197762885E+04  0.15197762885E+04  0.00000000000E+00 0. -1.
         -2   -1    0    0    0  501 -0.00000000000E+00 -0.00000000000E+00 -0.36588851335E+03  0.36588851335E+03  0.00000000000E+00 0.  1.
        -24    2    1    2    0    0  0.61660904197E+03  0.42174058168E+02  0.39778534865E+03  0.73950803714E+03  0.81569550538E+02 0.  0.
    5000000    2    1    2    0    0 -0.61660904197E+03 -0.42174058168E+02  0.75610242646E+03  0.11461567647E+04  0.59999924007E+03 0.  0.
        -24    2    4    4    0    0 -0.27153926558E+03 -0.35643137411E+02  0.73813078554E+03  0.79147462512E+03  0.81185095017E+02 0.  0.
         24    2    4    4    0    0 -0.34506977640E+03 -0.65309207575E+01  0.17971640928E+02  0.35468213956E+03  0.79753600146E+02 0.  0.
         11    1    3    3    0    0  0.54456387139E+03  0.60322359996E+02  0.36472131417E+03  0.65818708142E+03  0.00000000000E+00 0. -1.
        -12    1    3    3    0    0  0.72045170587E+02 -0.18148301827E+02  0.33064034474E+02  0.81320955724E+02  0.00000000000E+00 0.  1.
         15    1    5    5    0    0 -0.59450844249E+02 -0.40367056495E+02  0.22560028285E+03  0.23677531012E+03  0.17770000000E+01 0. -1.
        -16    1    5    5    0    0 -0.21208842133E+03  0.47239190837E+01  0.51253050269E+03  0.55469931500E+03  0.00000000000E+00 0.  1.
          2    1    6    6  502    0 -0.22362262914E+03 -0.57743268617E+01  0.49710296276E+02  0.22915395844E+03  0.00000000000E+00 0. -1.
         -1    1    6    6    0  502 -0.12144714726E+03 -0.75659389579E+00 -0.31738655347E+02  0.12552818112E+03  0.00000000000E+00 0.  1.
<mgrwt>
<rscale>  0 0.62568023E+03</rscale>
<asrwt>0</asrwt>
<pdfrwt beam="1">  1        1 0.23381173E+00 0.62568023E+03</pdfrwt>
<pdfrwt beam="2">  1       -2 0.56290541E-01 0.62568023E+03</pdfrwt>
<totfact> 0.17284913E+01</totfact>
</mgrwt>
</event>
<event>
12    3  0.1201947E-007  0.5106721E+03  0.7818608E-02  0.1011030E+00
          1   -1    0    0  501    0  0.00000000000E+00  0.00000000000E+00  0.49845726844E+03  0.49845726844E+03  0.00000000000E+00 0. -1.
         -2   -1    0    0    0  501 -0.00000000000E+00 -0.00000000000E+00 -0.67833878802E+03  0.67833878802E+03  0.00000000000E+00 0.  1.
        -24    2    1    2    0    0  0.28234712396E+03  0.29967619534E+03  0.26301182379E+02  0.42050323908E+03  0.81274235926E+02 0.  0.
    5000000    2    1    2    0    0 -0.28234712396E+03 -0.29967619534E+03 -0.20618270196E+03  0.75629281737E+03  0.59995149684E+03 0.  0.
        -24    2    4    4    0    0 -0.36618221332E+03 -0.10324178183E+03  0.72718451886E+02  0.39608816037E+03  0.82762181422E+02 0.  0.
         24    2    4    4    0    0  0.83835089363E+02 -0.19643441350E+03 -0.27890115384E+03  0.36020465700E+03  0.79666431407E+02 0.  0.
         13    1    3    3    0    0  0.71356973581E+02  0.12760604758E+03  0.24483155498E+02  0.14823813936E+03  0.00000000000E+00 0. -1.
        -14    1    3    3    0    0  0.21099015038E+03  0.17207014776E+03  0.18180268805E+01  0.27226509972E+03  0.00000000000E+00 0.  1.
         15    1    5    5    0    0 -0.18627036372E+03 -0.93825735787E+02  0.27833239317E+02  0.21042282204E+03  0.17770000000E+01 0. -1.
        -16    1    5    5    0    0 -0.17991184960E+03 -0.94160460470E+01  0.44885212568E+02  0.18566533833E+03  0.00000000000E+00 0.  1.
          4    1    6    6  502    0  0.62392720469E+02 -0.16183713450E+03 -0.16557247196E+03  0.23978814220E+03  0.00000000000E+00 0. -1.
         -3    1    6    6    0  502  0.21442368894E+02 -0.34597279003E+02 -0.11332868189E+03  0.12041651480E+03  0.00000000000E+00 0.  1.
<mgrwt>
<rscale>  0 0.51067211E+03</rscale>
<asrwt>0</asrwt>
<pdfrwt beam="1">  1        1 0.76685734E-01 0.51067211E+03</pdfrwt>
<pdfrwt beam="2">  1       -2 0.10435981E+00 0.51067211E+03</pdfrwt>
<totfact> 0.30232201E+01</totfact>
</mgrwt>
</event>
<event>
12    3  0.1201947E-007  0.5571824E+03  0.7818608E-02  0.9998450E-01
         -2   -1    0    0    0  501 -0.00000000000E+00  0.00000000000E+00  0.45813292477E+03  0.45813292477E+03  0.00000000000E+00 0.  1.
          1   -1    0    0  501    0  0.00000000000E+00 -0.00000000000E+00 -0.12407197021E+04  0.12407197021E+04  0.00000000000E+00 0. -1.
        -24    2    1    2    0    0  0.36581741907E+03 -0.16717664833E+03  0.21835239993E+03  0.46446174619E+03  0.79224537102E+02 0.  0.
    5000000    2    1    2    0    0 -0.36581741907E+03  0.16717664833E+03 -0.10009391772E+04  0.12343908806E+04  0.60005932531E+03 0.  0.
        -24    2    4    4    0    0  0.71927765476E+02  0.24868297689E+03 -0.39275664719E+03  0.47675706819E+03  0.77606003128E+02 0.  0.
         24    2    4    4    0    0 -0.43774518455E+03 -0.81506328559E+02 -0.60818253003E+03  0.75763381245E+03  0.76543293299E+02 0.  0.
         11    1    3    3    0    0  0.78810239948E+02 -0.47335135407E+02  0.15754554482E+02  0.93273120199E+02  0.00000000000E+00 0. -1.
        -12    1    3    3    0    0  0.28700717912E+03 -0.11984151292E+03  0.20259784544E+03  0.37118862599E+03  0.00000000000E+00 0.  1.
         15    1    5    5    0    0  0.69843753645E+02  0.13264015559E+03 -0.17866015460E+03  0.23322557614E+03  0.17770000000E+01 0. -1.
        -16    1    5    5    0    0  0.20840118306E+01  0.11604282130E+03 -0.21409649259E+03  0.24353149205E+03  0.00000000000E+00 0.  1.
          4    1    6    6  502    0 -0.10775202651E+03 -0.25362718349E+02 -0.21046019962E+03  0.23779668274E+03  0.00000000000E+00 0. -1.
         -3    1    6    6    0  502 -0.32999315804E+03 -0.56143610210E+02 -0.39772233041E+03  0.51983712971E+03  0.00000000000E+00 0.  1.
<mgrwt>
<rscale>  0 0.55718236E+03</rscale>
<asrwt>0</asrwt>
<pdfrwt beam="1">  1        1 0.19087996E+00 0.55718236E+03</pdfrwt>
<pdfrwt beam="2">  1       -2 0.70481988E-01 0.55718236E+03</pdfrwt>
<totfact> 0.16902939E+01</totfact>
</mgrwt>
</event>
<event>
12    3  0.1201947E-007  0.1252331E+04  0.7818608E-02  0.9068245E-01
          1   -1    0    0  501    0  0.00000000000E+00  0.00000000000E+00  0.18504265302E+04  0.18504265302E+04  0.00000000000E+00 0. -1.
         -2   -1    0    0    0  501 -0.00000000000E+00 -0.00000000000E+00 -0.14134102270E+04  0.14134102270E+04  0.00000000000E+00 0.  1.
        -24    2    1    2    0    0 -0.11550629293E+04 -0.43870325421E+03  0.11727543746E+04  0.17056461622E+04  0.85118103349E+02 0.  0.
    5000000    2    1    2    0    0  0.11550629293E+04  0.43870325421E+03 -0.73573807141E+03  0.15581905950E+04  0.60001375381E+03 0.  0.
        -24    2    4    4    0    0  0.42195046784E+03  0.31427050113E+02 -0.54185585861E+03  0.69381069528E+03  0.93464713046E+02 0.  0.
         24    2    4    4    0    0  0.73311246150E+03  0.40727620410E+03 -0.19388221280E+03  0.86437989976E+03  0.78958919981E+02 0.  0.
         11    1    3    3    0    0 -0.72478926945E+03 -0.25862657310E+03  0.67697029970E+03  0.10249370596E+04  0.00000000000E+00 0. -1.
        -12    1    3    3    0    0 -0.43027365989E+03 -0.18007668111E+03  0.49578407491E+03  0.68070910264E+03  0.00000000000E+00 0.  1.
         15    1    5    5    0    0  0.14879290534E+02  0.17044480017E+02 -0.51949855329E+02  0.56690852733E+02  0.17770000000E+01 0. -1.
        -16    1    5    5    0    0  0.40707117731E+03  0.14382570096E+02 -0.48990600328E+03  0.63711984255E+03  0.00000000000E+00 0.  1.
          4    1    6    6  502    0  0.33637822979E+03  0.18911007613E+03 -0.48945224421E+02  0.38898402199E+03  0.00000000000E+00 0. -1.
         -3    1    6    6    0  502  0.39673423171E+03  0.21816612797E+03 -0.14493698838E+03  0.47539587777E+03  0.00000000000E+00 0.  1.
<mgrwt>
<rscale>  0 0.12523312E+04</rscale>
<asrwt>0</asrwt>
<pdfrwt beam="1">  1        1 0.28468101E+00 0.12523312E+04</pdfrwt>
<pdfrwt beam="2">  1       -2 0.21744773E+00 0.12523312E+04</pdfrwt>
<totfact> 0.32807559E-01</totfact>
</mgrwt>
</event>
<event>
12    3  0.1336686E-007  0.2041137E+04  0.7818608E-02  0.8587625E-01
         -2   -1    0    0    0  501 -0.00000000000E+00  0.00000000000E+00  0.26403108017E+04  0.26403108017E+04  0.00000000000E+00 0.  1.
          1   -1    0    0  501    0  0.00000000000E+00 -0.00000000000E+00 -0.16365170608E+04  0.16365170608E+04  0.00000000000E+00 0. -1.
        -24    2    1    2    0    0 -0.19638766097E+04  0.53081611164E+03  0.52391492823E+03  0.21022221855E+04  0.79209740463E+02 0.  0.
    5000000    2    1    2    0    0  0.19638766097E+04 -0.53081611164E+03  0.47987881265E+03  0.21746056769E+04  0.60004090947E+03 0.  0.
        -24    2    4    4    0    0  0.14733275032E+04 -0.30103236197E+03  0.58700477869E+03  0.16162940341E+04  0.80730289962E+02 0.  0.
         24    2    4    4    0    0  0.49054910644E+03 -0.22978374967E+03 -0.10712596604E+03  0.55831164286E+03  0.82443438283E+02 0.  0.
         13    1    3    3    0    0 -0.98093019847E+03  0.30528379271E+03  0.25597666063E+03  0.10587475144E+04  0.00000000000E+00 0. -1.
        -14    1    3    3    0    0 -0.98294641118E+03  0.22553231894E+03  0.26793826759E+03  0.10434746712E+04  0.00000000000E+00 0.  1.
         15    1    5    5    0    0  0.11934692316E+04 -0.25710554691E+03  0.44512484903E+03  0.12994657971E+04  0.17770000000E+01 0. -1.
        -16    1    5    5    0    0  0.27985827165E+03 -0.43926815060E+02  0.14187992966E+03  0.31682823695E+03  0.00000000000E+00 0.  1.
          4    1    6    6  502    0  0.31163921161E+03 -0.15960567333E+03 -0.30646110099E+02  0.35147141169E+03  0.00000000000E+00 0. -1.
         -3    1    6    6    0  502  0.17890989483E+03 -0.70178076337E+02 -0.76479855939E+02  0.20684023117E+03  0.00000000000E+00 0.  1.
<mgrwt>
<rscale>  0 0.20411374E+04</rscale>
<asrwt>0</asrwt>
<pdfrwt beam="1">  1        1 0.25177186E+00 0.20411374E+04</pdfrwt>
<pdfrwt beam="2">  1       -2 0.40620166E+00 0.20411374E+04</pdfrwt>
<totfact> 0.27694790E-02</totfact>
</mgrwt>
</event>
<event>
12    3  0.1201947E-007  0.6011757E+03  0.7818608E-02  0.9902970E-01
          1   -1    0    0  501    0  0.00000000000E+00  0.00000000000E+00  0.24550727208E+04  0.24550727208E+04  0.00000000000E+00 0. -1.
         -2   -1    0    0    0  501 -0.00000000000E+00 -0.00000000000E+00 -0.20693175719E+03  0.20693175719E+03  0.00000000000E+00 0.  1.
        -24    2    1    2    0    0  0.27952888629E+03  0.46483267052E+03  0.13275041242E+04  0.14365420939E+04  0.84735930392E+02 0.  0.
    5000000    2    1    2    0    0 -0.27952888629E+03 -0.46483267052E+03  0.92063683942E+03  0.12254623841E+04  0.59998337886E+03 0.  0.
        -24    2    4    4    0    0  0.73146707108E+02 -0.18055476966E+03  0.18458097553E+02  0.21283783695E+03  0.83718444012E+02 0.  0.
         24    2    4    4    0    0 -0.35267559340E+03 -0.28427790087E+03  0.90217874187E+03  0.10126245472E+04  0.79296860715E+02 0.  0.
         13    1    3    3    0    0  0.11616691004E+03  0.12841517509E+03  0.36707454430E+03  0.40586811806E+03  0.00000000000E+00 0. -1.
        -14    1    3    3    0    0  0.16336197625E+03  0.33641749543E+03  0.96042957988E+03  0.10306739758E+04  0.00000000000E+00 0.  1.
         15    1    5    5    0    0  0.11847447374E+01 -0.66728351720E+02 -0.25065815359E+02  0.71312897656E+02  0.17770000000E+01 0. -1.
        -16    1    5    5    0    0  0.71961962370E+02 -0.11382641793E+03  0.43523912912E+02  0.14152493930E+03  0.00000000000E+00 0.  1.
          4    1    6    6  502    0 -0.21350527918E+02 -0.96430789470E+01  0.95503677875E+02  0.98335072592E+02  0.00000000000E+00 0. -1.
         -3    1    6    6    0  502 -0.33132506548E+03 -0.27463482192E+03  0.80667506399E+03  0.91428947456E+03  0.00000000000E+00 0.  1.
<mgrwt>
<rscale>  0 0.60117571E+03</rscale>
<asrwt>0</asrwt>
<pdfrwt beam="1">  1        1 0.37770347E+00 0.60117571E+03</pdfrwt>
<pdfrwt beam="2">  1       -2 0.31835657E-01 0.60117571E+03</pdfrwt>
<totfact> 0.12605547E+01</totfact>
</mgrwt>
</event>
<event>
12    3  0.1201947E-007  0.6181920E+03  0.7818608E-02  0.9868366E-01
         -2   -1    0    0    0  501 -0.00000000000E+00  0.00000000000E+00  0.96899379306E+03  0.96899379306E+03  0.00000000000E+00 0.  1.
          1   -1    0    0  501    0  0.00000000000E+00 -0.00000000000E+00 -0.48512745256E+03  0.48512745256E+03  0.00000000000E+00 0. -1.
        -24    2    1    2    0    0  0.39554833113E+03  0.27789323475E+03 -0.83518247412E+02  0.49726720263E+03  0.81340278939E+02 0.  0.
    5000000    2    1    2    0    0 -0.39554833113E+03 -0.27789323475E+03  0.56738458791E+03  0.95685404299E+03  0.59996771314E+03 0.  0.
        -24    2    4    4    0    0 -0.25558512785E+03  0.15198449094E+03  0.19307938063E+03  0.36453853001E+03  0.84768210844E+02 0.  0.
         24    2    4    4    0    0 -0.13996320328E+03 -0.42987772570E+03  0.37430520728E+03  0.59231551298E+03  0.79678864188E+02 0.  0.
         13    1    3    3    0    0  0.65973316338E+02  0.58404794015E+02 -0.46335683976E+02  0.99551966540E+02  0.00000000000E+00 0. -1.
        -14    1    3    3    0    0  0.32957501479E+03  0.21948844074E+03 -0.37182563436E+02  0.39771523609E+03  0.00000000000E+00 0.  1.
         15    1    5    5    0    0 -0.18458455848E+03  0.12912666346E+03  0.10333379437E+03  0.24784306574E+03  0.17770000000E+01 0. -1.
        -16    1    5    5    0    0 -0.71000569372E+02  0.22857827482E+02  0.89745586261E+02  0.11669546427E+03  0.00000000000E+00 0.  1.
          4    1    6    6  502    0 -0.65035238146E+01 -0.35442723061E+02  0.62587059346E+01  0.36573950292E+02  0.00000000000E+00 0. -1.
         -3    1    6    6    0  502 -0.13345967946E+03 -0.39443500264E+03  0.36804650134E+03  0.55574156269E+03  0.00000000000E+00 0.  1.
<mgrwt>
<rscale>  0 0.61819200E+03</rscale>
<asrwt>0</asrwt>
<pdfrwt beam="1">  1        1 0.74634993E-01 0.61819200E+03</pdfrwt>
<pdfrwt beam="2">  1       -2 0.14907597E+00 0.61819200E+03</pdfrwt>
<totfact> 0.12726247E+01</totfact>
</mgrwt>
</event>
<event>
12    3  0.1201947E-007  0.6435694E+03  0.7818608E-02  0.9818921E-01
          1   -1    0    0  501    0  0.00000000000E+00  0.00000000000E+00  0.33779497930E+04  0.33779497930E+04  0.00000000000E+00 0. -1.
         -2   -1    0    0    0  501 -0.00000000000E+00 -0.00000000000E+00 -0.14454082612E+03  0.14454082612E+03  0.00000000000E+00 0.  1.
        -24    2    1    2    0    0  0.44173532554E+03 -0.35382735248E+03  0.12537063574E+04  0.13778152344E+04  0.79191516836E+02 0.  0.
    5000000    2    1    2    0    0 -0.44173532554E+03  0.35382735248E+03  0.19797026094E+04  0.21446753847E+04  0.60007182131E+03 0.  0.
        -24    2    4    4    0    0  0.13599568415E+02  0.24493604081E+03  0.28374305755E+03  0.38359753486E+03  0.80363758560E+02 0.  0.
         24    2    4    4    0    0 -0.45533489395E+03  0.10889131167E+03  0.16959595518E+04  0.17610778498E+04  0.77001351832E+02 0.  0.
         13    1    3    3    0    0  0.22217707777E+03 -0.15300070340E+03  0.67957131583E+03  0.73115596313E+03  0.00000000000E+00 0. -1.
        -14    1    3    3    0    0  0.21955824776E+03 -0.20082664908E+03  0.57413504161E+03  0.64665927129E+03  0.00000000000E+00 0.  1.
         15    1    5    5    0    0  0.70403329674E+01  0.52674666137E+02  0.19262973218E+02  0.56554457005E+02  0.17770000000E+01 0. -1.
        -16    1    5    5    0    0  0.65592354476E+01  0.19226137467E+03  0.26448008434E+03  0.32704307785E+03  0.00000000000E+00 0.  1.
          4    1    6    6  502    0 -0.38726279285E+03  0.63434204756E+02  0.13841791892E+04  0.14387315236E+04  0.00000000000E+00 0. -1.
         -3    1    6    6    0  502 -0.68072101098E+02  0.45457106914E+02  0.31178036261E+03  0.32234632622E+03  0.00000000000E+00 0.  1.
<mgrwt>
<rscale>  0 0.64356940E+03</rscale>
<asrwt>0</asrwt>
<pdfrwt beam="1">  1        1 0.51968452E+00 0.64356940E+03</pdfrwt>
<pdfrwt beam="2">  1       -2 0.22237053E-01 0.64356940E+03</pdfrwt>
<totfact> 0.53059577E+00</totfact>
</mgrwt>
</event>
<event>
12    3  0.1201947E-007  0.9551671E+03  0.7818608E-02  0.9359131E-01
         -2   -1    0    0    0  501 -0.00000000000E+00  0.00000000000E+00  0.12117996809E+04  0.12117996809E+04  0.00000000000E+00 0.  1.
          1   -1    0    0  501    0  0.00000000000E+00 -0.00000000000E+00 -0.91557588938E+03  0.91557588938E+03  0.00000000000E+00 0. -1.
        -24    2    1    2    0    0  0.17298694513E+03  0.91117260239E+03 -0.13693084337E+03  0.94084820937E+03  0.79279900813E+02 0.  0.
    5000000    2    1    2    0    0 -0.17298694513E+03 -0.91117260239E+03  0.43315463485E+03  0.11865273609E+04  0.60005353585E+03 0.  0.
        -24    2    4    4    0    0 -0.24277509333E+03 -0.74259834796E+03  0.91961005079E+02  0.79082956149E+03  0.81009360841E+02 0.  0.
         24    2    4    4    0    0  0.69788148207E+02 -0.16857425443E+03  0.34119362977E+03  0.39569779938E+03  0.82921592790E+02 0.  0.
         13    1    3    3    0    0  0.75012591853E+02  0.24121387886E+03 -0.16592452921E+02  0.25315278744E+03  0.00000000000E+00 0. -1.
        -14    1    3    3    0    0  0.97974353272E+02  0.66995872353E+03 -0.12033839045E+03  0.68769542193E+03  0.00000000000E+00 0.  1.
         15    1    5    5    0    0 -0.22053106577E+03 -0.56635102825E+03  0.74659027616E+02  0.61234350352E+03  0.17770000000E+01 0. -1.
        -16    1    5    5    0    0 -0.22244027560E+02 -0.17624731971E+03  0.17301977463E+02  0.17848605798E+03  0.00000000000E+00 0.  1.
          2    1    6    6  502    0  0.62746436772E+02 -0.61315486381E+02  0.10970364638E+03  0.14046919316E+03  0.00000000000E+00 0. -1.
         -1    1    6    6    0  502  0.70417114356E+01 -0.10725876805E+03  0.23148998339E+03  0.25522860622E+03  0.00000000000E+00 0.  1.
<mgrwt>
<rscale>  0 0.95516712E+03</rscale>
<asrwt>0</asrwt>
<pdfrwt beam="1">  1        1 0.14085783E+00 0.95516712E+03</pdfrwt>
<pdfrwt beam="2">  1       -2 0.18643072E+00 0.95516712E+03</pdfrwt>
<totfact> 0.25408964E+00</totfact>
</mgrwt>
</event>
<event>
12    3  0.1201947E-007  0.5679088E+03  0.7818608E-02  0.9974317E-01
         -2   -1    0    0    0  501 -0.00000000000E+00  0.00000000000E+00  0.10088672815E+04  0.10088672815E+04  0.00000000000E+00 0.  1.
          1   -1    0    0  501    0  0.00000000000E+00 -0.00000000000E+00 -0.36645828137E+03  0.36645828137E+03  0.00000000000E+00 0. -1.
        -24    2    1    2    0    0 -0.37495119358E+03 -0.19122757815E+03  0.47011322500E+02  0.43107436699E+03  0.80365796338E+02 0.  0.
    5000000    2    1    2    0    0  0.37495119358E+03  0.19122757815E+03  0.59539767768E+03  0.94425119593E+03  0.59996295070E+03 0.  0.
        -24    2    4    4    0    0  0.51187416345E+03  0.89195344168E+02  0.52570842220E+03  0.74334393183E+03  0.78866261343E+02 0.  0.
         24    2    4    4    0    0 -0.13692296987E+03  0.10203223398E+03  0.69689255477E+02  0.20090726410E+03  0.79678478846E+02 0.  0.
         11    1    3    3    0    0 -0.29000872930E+03 -0.11019284327E+03  0.21808619076E+02  0.31100344314E+03  0.00000000000E+00 0. -1.
        -12    1    3    3    0    0 -0.84942464276E+02 -0.81034734873E+02  0.25202703424E+02  0.12007092385E+03  0.00000000000E+00 0.  1.
         15    1    5    5    0    0  0.11335537106E+03  0.25805898275E+02  0.74870763173E+02  0.13829017840E+03  0.17770000000E+01 0. -1.
        -16    1    5    5    0    0  0.39851879239E+03  0.63389445892E+02  0.45083765903E+03  0.60505375343E+03  0.00000000000E+00 0.  1.
          2    1    6    6  502    0 -0.13087967273E+03  0.11490641632E+03  0.63218052688E+02  0.18528220485E+03  0.00000000000E+00 0. -1.
         -1    1    6    6    0  502 -0.60432971368E+01 -0.12874182342E+02  0.64712027890E+01  0.15625059257E+02  0.00000000000E+00 0.  1.
<mgrwt>
<rscale>  0 0.56790883E+03</rscale>
<asrwt>0</asrwt>
<pdfrwt beam="1">  1        1 0.56378198E-01 0.56790883E+03</pdfrwt>
<pdfrwt beam="2">  1       -2 0.15521035E+00 0.56790883E+03</pdfrwt>
<totfact> 0.16702892E+01</totfact>
</mgrwt>
</event>
<event>
12    3  0.1201947E-007  0.4512736E+03  0.7818608E-02  0.1027343E+00
         -2   -1    0    0    0  501 -0.00000000000E+00  0.00000000000E+00  0.17417797878E+03  0.17417797878E+03  0.00000000000E+00 0.  1.
          1   -1    0    0  501    0  0.00000000000E+00 -0.00000000000E+00 -0.12311484058E+04  0.12311484058E+04  0.00000000000E+00 0. -1.
        -24    2    1    2    0    0 -0.16610238378E+03 -0.19153019750E+03 -0.39963090101E+03  0.47990091871E+03  0.79537514999E+02 0.  0.
    5000000    2    1    2    0    0  0.16610238378E+03  0.19153019750E+03 -0.65733952599E+03  0.92542546584E+03  0.60003601722E+03 0.  0.
        -24    2    4    4    0    0  0.25690869475E+02  0.38810765016E+03 -0.41595444565E+03  0.57516358507E+03  0.80668952213E+02 0.  0.
         24    2    4    4    0    0  0.14041151430E+03 -0.19657745266E+03 -0.24138508034E+03  0.35026188077E+03  0.77836622915E+02 0.  0.
         13    1    3    3    0    0 -0.11506629055E+03 -0.15115058156E+03 -0.34936076609E+03  0.39766781918E+03  0.00000000000E+00 0. -1.
        -14    1    3    3    0    0 -0.51036093222E+02 -0.40379615933E+02 -0.50270134922E+02  0.82233099536E+02  0.00000000000E+00 0.  1.
         15    1    5    5    0    0  0.45776924316E+02  0.25449163330E+03 -0.30842766409E+03  0.40248267034E+03  0.17770000000E+01 0. -1.
        -16    1    5    5    0    0 -0.20086054841E+02  0.13361601686E+03 -0.10752678156E+03  0.17268091473E+03  0.00000000000E+00 0.  1.
          2    1    6    6  502    0  0.17671455107E+02 -0.88548924420E+02 -0.85877275805E+02  0.12461179254E+03  0.00000000000E+00 0. -1.
         -1    1    6    6    0  502  0.12274005919E+03 -0.10802852824E+03 -0.15550780453E+03  0.22565008822E+03  0.00000000000E+00 0.  1.
<mgrwt>
<rscale>  0 0.45127359E+03</rscale>
<asrwt>0</asrwt>
<pdfrwt beam="1">  1        1 0.18940745E+00 0.45127359E+03</pdfrwt>
<pdfrwt beam="2">  1       -2 0.26796612E-01 0.45127359E+03</pdfrwt>
<totfact> 0.11788675E+02</totfact>
</mgrwt>
</event>
<event>
12    3  0.1201947E-007  0.6984460E+03  0.7818608E-02  0.9719893E-01
          1   -1    0    0  501    0  0.00000000000E+00  0.00000000000E+00  0.18384673542E+04  0.18384673542E+04  0.00000000000E+00 0. -1.
         -2   -1    0    0    0  501 -0.00000000000E+00 -0.00000000000E+00 -0.42447638133E+03  0.42447638133E+03  0.00000000000E+00 0.  1.
        -24    2    1    2    0    0  0.35512595302E+02 -0.58827506576E+03  0.12800871542E+04  0.14113648884E+04  0.77453394023E+02 0.  0.
    5000000    2    1    2    0    0 -0.35512595302E+02  0.58827506576E+03  0.13390381861E+03  0.85157884714E+03  0.59993966600E+03 0.  0.
        -24    2    4    4    0    0  0.43502520709E+01  0.68675263822E+03  0.49173377238E+02  0.69314725509E+03  0.79918617511E+02 0.  0.
         24    2    4    4    0    0 -0.39862847373E+02 -0.98477572460E+02  0.84730441377E+02  0.15843159205E+03  0.81452088892E+02 0.  0.
         13    1    3    3    0    0  0.42495911213E+01 -0.12360358313E+03  0.20003559549E+03  0.23518108821E+03  0.00000000000E+00 0. -1.
        -14    1    3    3    0    0  0.31263004181E+02 -0.46467148262E+03  0.10800515587E+04  0.11761838001E+04  0.00000000000E+00 0.  1.
         15    1    5    5    0    0  0.10136500630E+02  0.44877258297E+03  0.69465158968E+02  0.45423358078E+03  0.17770000000E+01 0. -1.
        -16    1    5    5    0    0 -0.57862485593E+01  0.23798005524E+03 -0.20291781729E+02  0.23891367431E+03  0.00000000000E+00 0.  1.
          4    1    6    6  502    0 -0.45542520035E+02 -0.36632488704E+02  0.75754849257E+02  0.95681019778E+02  0.00000000000E+00 0. -1.
         -3    1    6    6    0  502  0.56796726622E+01 -0.61845083756E+02  0.89755921194E+01  0.62750572271E+02  0.00000000000E+00 0.  1.
<mgrwt>
<rscale>  0 0.69844598E+03</rscale>
<asrwt>0</asrwt>
<pdfrwt beam="1">  1        1 0.28284113E+00 0.69844598E+03</pdfrwt>
<pdfrwt beam="2">  1       -2 0.65304059E-01 0.69844598E+03</pdfrwt>
<totfact> 0.76236371E+00</totfact>
</mgrwt>
</event>
<event>
12    3  0.1201947E-007  0.3392823E+03  0.7818608E-02  0.1067102E+00
          1   -1    0    0  501    0  0.00000000000E+00  0.00000000000E+00  0.20775672072E+04  0.20775672072E+04  0.00000000000E+00 0. -1.
         -2   -1    0    0    0  501 -0.00000000000E+00 -0.00000000000E+00 -0.34706661558E+03  0.34706661558E+03  0.00000000000E+00 0.  1.
        -24    2    1    2    0    0  0.15758351356E+03  0.25075229656E+03 -0.21022456705E+03  0.37180628660E+03  0.79600679578E+02 0.  0.
    5000000    2    1    2    0    0 -0.15758351356E+03 -0.25075229656E+03  0.19407251586E+04  0.20528275362E+04  0.59998122789E+03 0.  0.
        -24    2    4    4    0    0 -0.14556132428E+03 -0.21292204119E+02  0.17060363634E+04  0.17141714291E+04  0.78626700164E+02 0.  0.
         24    2    4    4    0    0 -0.12022189273E+02 -0.22946009244E+03  0.23468879524E+03  0.33865610706E+03  0.82538846482E+02 0.  0.
         13    1    3    3    0    0  0.43701287588E+02  0.32569885277E+02 -0.12042905993E+02  0.55817842565E+02  0.00000000000E+00 0. -1.
        -14    1    3    3    0    0  0.11388222597E+03  0.21818241129E+03 -0.19818166106E+03  0.31598844404E+03  0.00000000000E+00 0.  1.
         15    1    5    5    0    0 -0.12200168833E+03 -0.24243164909E+02  0.99606740124E+03  0.10038055432E+04  0.17770000000E+01 0. -1.
        -16    1    5    5    0    0 -0.23559635950E+02  0.29509607900E+01  0.70996896216E+03  0.71036588590E+03  0.00000000000E+00 0.  1.
          2    1    6    6  502    0 -0.11207324366E+02 -0.18754510058E+03  0.22921827659E+03  0.29637777784E+03  0.00000000000E+00 0. -1.
         -1    1    6    6    0  502 -0.81486490674E+00 -0.41914991864E+02  0.54705186491E+01  0.42278329225E+02  0.00000000000E+00 0.  1.
<mgrwt>
<rscale>  0 0.33928227E+03</rscale>
<asrwt>0</asrwt>
<pdfrwt beam="1">  1        1 0.31962572E+00 0.33928227E+03</pdfrwt>
<pdfrwt beam="2">  1       -2 0.53394865E-01 0.33928227E+03</pdfrwt>
<totfact> 0.87771327E+00</totfact>
</mgrwt>
</event>
<event>
12    3  0.1201947E-007  0.7404205E+03  0.7818608E-02  0.9650500E-01
          1   -1    0    0  501    0  0.00000000000E+00  0.00000000000E+00  0.26110648643E+04  0.26110648643E+04  0.00000000000E+00 0. -1.
         -2   -1    0    0    0  501 -0.00000000000E+00 -0.00000000000E+00 -0.25011251297E+03  0.25011251297E+03  0.00000000000E+00 0.  1.
        -24    2    1    2    0    0  0.67867127727E+03  0.60324045510E+02  0.12545711575E+04  0.14299921784E+04  0.81823883407E+02 0.  0.
    5000000    2    1    2    0    0 -0.67867127727E+03 -0.60324045510E+02  0.11063811938E+04  0.14311851988E+04  0.59998169505E+03 0.  0.
        -24    2    4    4    0    0 -0.14226985882E+03  0.16073237203E+03  0.68146561201E+02  0.23914980221E+03  0.80455366174E+02 0.  0.
         24    2    4    4    0    0 -0.53640141845E+03 -0.22105641754E+03  0.10382346326E+04  0.11920353966E+04  0.80154931895E+02 0.  0.
         11    1    3    3    0    0  0.12106411547E+03  0.38665466224E+02  0.26588207099E+03  0.29469444176E+03  0.00000000000E+00 0. -1.
        -12    1    3    3    0    0  0.55760716180E+03  0.21658579286E+02  0.98868908653E+03  0.11352977366E+04  0.00000000000E+00 0.  1.
         15    1    5    5    0    0 -0.34043100623E+02  0.51565038522E+02  0.58528174555E+02  0.85126910220E+02  0.17770000000E+01 0. -1.
        -16    1    5    5    0    0 -0.10822675820E+03  0.10916733351E+03  0.96183866456E+01  0.15402289199E+03  0.00000000000E+00 0.  1.
          4    1    6    6  502    0 -0.19548361121E+03 -0.83189924456E+02  0.46125936338E+03  0.50783324634E+03  0.00000000000E+00 0. -1.
         -3    1    6    6    0  502 -0.34091780724E+03 -0.13786649308E+03  0.57697526920E+03  0.68420215030E+03  0.00000000000E+00 0.  1.
<mgrwt>
<rscale>  0 0.74042050E+03</rscale>
<asrwt>0</asrwt>
<pdfrwt beam="1">  1        1 0.40170227E+00 0.74042050E+03</pdfrwt>
<pdfrwt beam="2">  1       -2 0.38478850E-01 0.74042050E+03</pdfrwt>
<totfact> 0.67106127E+00</totfact>
</mgrwt>
</event>
<event>
12    3  0.1201947E-007  0.4694717E+03  0.7818608E-02  0.1022069E+00
         -4   -1    0    0    0  501 -0.00000000000E+00  0.00000000000E+00  0.35580706970E+03  0.35580706970E+03  0.00000000000E+00 0.  1.
          3   -1    0    0  501    0  0.00000000000E+00 -0.00000000000E+00 -0.10659215210E+04  0.10659215210E+04  0.00000000000E+00 0. -1.
        -24    2    1    2    0    0  0.12428251402E+03  0.44516932758E+03 -0.21015127923E+03  0.51421096711E+03  0.81409366949E+02 0.  0.
    5000000    2    1    2    0    0 -0.12428251402E+03 -0.44516932758E+03 -0.49996317210E+03  0.90751762361E+03  0.60000265850E+03 0.  0.
        -24    2    4    4    0    0 -0.12575001614E+03 -0.28719501931E+03 -0.61635087231E+03  0.69582903720E+03  0.77431295655E+02 0.  0.
         24    2    4    4    0    0  0.14675021211E+01 -0.15797430827E+03  0.11638770021E+03  0.21168858641E+03  0.79422447844E+02 0.  0.
         11    1    3    3    0    0  0.52257659632E+02  0.25117791654E+03 -0.75908663127E+02  0.26755061929E+03  0.00000000000E+00 0. -1.
        -12    1    3    3    0    0  0.72024854387E+02  0.19399141104E+03 -0.13424261610E+03  0.24666034781E+03  0.00000000000E+00 0.  1.
         15    1    5    5    0    0 -0.36363847559E+01 -0.52477930592E+02 -0.60301656018E+02  0.80041263988E+02  0.17770000000E+01 0. -1.
        -16    1    5    5    0    0 -0.12211363138E+03 -0.23471708871E+03 -0.55604921629E+03  0.61578777321E+03  0.00000000000E+00 0.  1.
          2    1    6    6  502    0 -0.25388977062E+01 -0.12467654885E+03  0.44573678197E+02  0.13242922874E+03  0.00000000000E+00 0. -1.
         -1    1    6    6    0  502  0.40063998273E+01 -0.33297759415E+02  0.71814022010E+02  0.79259357674E+02  0.00000000000E+00 0.  1.
<mgrwt>
<rscale>  0 0.46947174E+03</rscale>
<asrwt>0</asrwt>
<pdfrwt beam="1">  1        3 0.16398793E+00 0.46947174E+03</pdfrwt>
<pdfrwt beam="2">  1       -4 0.54739549E-01 0.46947174E+03</pdfrwt>
<totfact> 0.18554567E+00</totfact>
</mgrwt>
</event>
<event>
12    3  0.1201947E-007  0.4568022E+03  0.7818608E-02  0.1025713E+00
         -2   -1    0    0    0  501 -0.00000000000E+00  0.00000000000E+00  0.31807541736E+03  0.31807541736E+03  0.00000000000E+00 0.  1.
          1   -1    0    0  501    0  0.00000000000E+00 -0.00000000000E+00 -0.86831318791E+03  0.86831318791E+03  0.00000000000E+00 0. -1.
        -24    2    1    2    0    0  0.15203085072E+03  0.28132725313E+03 -0.31342425830E+02  0.33111182066E+03  0.79964287048E+02 0.  0.
    5000000    2    1    2    0    0 -0.15203085072E+03 -0.28132725313E+03 -0.51889534472E+03  0.85527678460E+03  0.59998966373E+03 0.  0.
        -24    2    4    4    0    0  0.17736361123E+03 -0.14498435981E+03 -0.29050705227E+02  0.24467967731E+03  0.80906648901E+02 0.  0.
         24    2    4    4    0    0 -0.32939446195E+03 -0.13634289332E+03 -0.48984463949E+03  0.61059710729E+03  0.76098360505E+02 0.  0.
         11    1    3    3    0    0  0.12994603785E+03  0.18603306284E+03  0.44010336063E+01  0.22696616999E+03  0.00000000000E+00 0. -1.
        -12    1    3    3    0    0  0.22084812872E+02  0.95294190289E+02 -0.35743459437E+02  0.10414565068E+03  0.00000000000E+00 0.  1.
         15    1    5    5    0    0  0.10481269145E+03 -0.10000381786E+03  0.19961333345E+02  0.14624662880E+03  0.17770000000E+01 0. -1.
        -16    1    5    5    0    0  0.72550919784E+02 -0.44980541944E+02 -0.49012038572E+02  0.98433048516E+02  0.00000000000E+00 0.  1.
          4    1    6    6  502    0 -0.25804077638E+02  0.35877615618E-01 -0.12472603859E+02  0.28660383058E+02  0.00000000000E+00 0. -1.
         -3    1    6    6    0  502 -0.30359038431E+03 -0.13637877094E+03 -0.47737203563E+03  0.58193672423E+03  0.00000000000E+00 0.  1.
<mgrwt>
<rscale>  0 0.45680218E+03</rscale>
<asrwt>0</asrwt>
<pdfrwt beam="1">  1        1 0.13358664E+00 0.45680218E+03</pdfrwt>
<pdfrwt beam="2">  1       -2 0.48934680E-01 0.45680218E+03</pdfrwt>
<totfact> 0.70230403E+01</totfact>
</mgrwt>
</event>
<event>
12    3  0.1201947E-007  0.8179361E+03  0.7818608E-02  0.9534412E-01
         -2   -1    0    0    0  501 -0.00000000000E+00  0.00000000000E+00  0.14483320857E+04  0.14483320857E+04  0.00000000000E+00 0.  1.
          1   -1    0    0  501    0  0.00000000000E+00 -0.00000000000E+00 -0.69798365320E+03  0.69798365320E+03  0.00000000000E+00 0. -1.
        -24    2    1    2    0    0 -0.78954680361E+03  0.18197473013E+02  0.83351725178E+03  0.11510510947E+04  0.80326275084E+02 0.  0.
    5000000    2    1    2    0    0  0.78954680361E+03 -0.18197473013E+02 -0.83168819268E+02  0.99526464423E+03  0.59993279327E+03 0.  0.
        -24    2    4    4    0    0  0.31752211266E+03 -0.14753792963E+03 -0.28651628678E+03  0.45927351562E+03  0.79074944524E+02 0.  0.
         24    2    4    4    0    0  0.47202469095E+03  0.12934045662E+03  0.20334746751E+03  0.53599112861E+03  0.80000217648E+02 0.  0.
         13    1    3    3    0    0 -0.17136674591E+03  0.25175811313E+02  0.22090876701E+03  0.28071527643E+03  0.00000000000E+00 0. -1.
        -14    1    3    3    0    0 -0.61818005770E+03 -0.69783382999E+01  0.61260848477E+03  0.87033581826E+03  0.00000000000E+00 0.  1.
         15    1    5    5    0    0  0.14299081286E+03 -0.80444895112E+02 -0.18208624253E+03  0.24510469428E+03  0.17770000000E+01 0. -1.
        -16    1    5    5    0    0  0.17453129980E+03 -0.67093034520E+02 -0.10443004425E+03  0.21416882134E+03  0.00000000000E+00 0.  1.
          4    1    6    6  502    0  0.14963202511E+03  0.11274965824E+02  0.87158564435E+02  0.17353236916E+03  0.00000000000E+00 0. -1.
         -3    1    6    6    0  502  0.32239266584E+03  0.11806549079E+03  0.11618890307E+03  0.36245875945E+03  0.00000000000E+00 0.  1.
<mgrwt>
<rscale>  0 0.81793613E+03</rscale>
<asrwt>0</asrwt>
<pdfrwt beam="1">  1        1 0.10738210E+00 0.81793613E+03</pdfrwt>
<pdfrwt beam="2">  1       -2 0.22282032E+00 0.81793613E+03</pdfrwt>
<totfact> 0.23229700E+00</totfact>
</mgrwt>
</event>
<event>
12    3  0.1201947E-007  0.7396111E+03  0.7818608E-02  0.9651791E-01
          1   -1    0    0  501    0  0.00000000000E+00  0.00000000000E+00  0.22135478019E+03  0.22135478019E+03  0.00000000000E+00 0. -1.
         -2   -1    0    0    0  501 -0.00000000000E+00 -0.00000000000E+00 -0.30133553469E+04  0.30133553469E+04  0.00000000000E+00 0.  1.
        -24    2    1    2    0    0 -0.61498700057E+02 -0.70030321661E+03 -0.12499819540E+04  0.14369202403E+04  0.89878843594E+02 0.  0.
    5000000    2    1    2    0    0  0.61498700057E+02  0.70030321661E+03 -0.15420186128E+04  0.17977898868E+04  0.60001699110E+03 0.  0.
        -24    2    4    4    0    0  0.16902411481E+03  0.20089441653E+03 -0.14900774012E+03  0.31195117317E+03  0.78628937725E+02 0.  0.
         24    2    4    4    0    0 -0.10752541475E+03  0.49940880008E+03 -0.13930108727E+04  0.14858387136E+04  0.79161399323E+02 0.  0.
         11    1    3    3    0    0 -0.68701262779E+01 -0.40294189988E+03 -0.78273712998E+03  0.88039013395E+03  0.00000000000E+00 0. -1.
        -12    1    3    3    0    0 -0.54628573780E+02 -0.29736131674E+03 -0.46724482399E+03  0.55653010638E+03  0.00000000000E+00 0.  1.
         15    1    5    5    0    0  0.85052338276E+02  0.10236940705E+03 -0.12016753472E+03  0.17932314373E+03  0.17770000000E+01 0. -1.
        -16    1    5    5    0    0  0.83971776535E+02  0.98525009480E+02 -0.28840205399E+02  0.13262802945E+03  0.00000000000E+00 0.  1.
          2    1    6    6  502    0 -0.74908159957E+02  0.29669802459E+03 -0.72349980405E+03  0.78555261865E+03  0.00000000000E+00 0. -1.
         -1    1    6    6    0  502 -0.32617254797E+02  0.20271077550E+03 -0.66951106861E+03  0.70028609497E+03  0.00000000000E+00 0.  1.
<mgrwt>
<rscale>  0 0.73961112E+03</rscale>
<asrwt>0</asrwt>
<pdfrwt beam="1">  1        1 0.34054583E-01 0.73961112E+03</pdfrwt>
<pdfrwt beam="2">  1       -2 0.46359311E+00 0.73961112E+03</pdfrwt>
<totfact> 0.34326424E-01</totfact>
</mgrwt>
</event>
<event>
12    3  0.1201947E-007  0.9227480E+03  0.7818608E-02  0.9397584E-01
         -2   -1    0    0    0  501 -0.00000000000E+00  0.00000000000E+00  0.12015212894E+04  0.12015212894E+04  0.00000000000E+00 0.  1.
          1   -1    0    0  501    0  0.00000000000E+00 -0.00000000000E+00 -0.74806802497E+03  0.74806802497E+03  0.00000000000E+00 0. -1.
        -24    2    1    2    0    0  0.10047514028E+03 -0.84500105850E+03  0.20948986135E+03  0.88008204864E+03  0.80847805380E+02 0.  0.
    5000000    2    1    2    0    0 -0.10047514028E+03  0.84500105850E+03  0.24396340307E+03  0.10695072657E+04  0.60017131447E+03 0.  0.
        -24    2    4    4    0    0  0.12963622755E+03  0.68133383215E+03  0.16490880878E+02  0.69785849242E+03  0.75585606848E+02 0.  0.
         24    2    4    4    0    0 -0.23011136784E+03  0.16366722636E+03  0.22747252219E+03  0.37164877331E+03  0.81491470480E+02 0.  0.
         11    1    3    3    0    0  0.65068798583E+01 -0.35340660836E+03  0.67714228594E+02  0.35989413314E+03  0.00000000000E+00 0. -1.
        -12    1    3    3    0    0  0.93968260425E+02 -0.49159445015E+03  0.14177563275E+03  0.52018791549E+03  0.00000000000E+00 0.  1.
         15    1    5    5    0    0  0.29763992381E+02  0.48227789858E+02 -0.36323761527E+00  0.56701892628E+02  0.17770000000E+01 0. -1.
        -16    1    5    5    0    0  0.99872235171E+02  0.63310604229E+03  0.16854118494E+02  0.64115659979E+03  0.00000000000E+00 0.  1.
          2    1    6    6  502    0 -0.98627295626E+02  0.22849772336E+02  0.77411279563E+02  0.12744395530E+03  0.00000000000E+00 0. -1.
         -1    1    6    6    0  502 -0.13148407221E+03  0.14081745402E+03  0.15006124263E+03  0.24420481801E+03  0.00000000000E+00 0.  1.
<mgrwt>
<rscale>  0 0.92274804E+03</rscale>
<asrwt>0</asrwt>
<pdfrwt beam="1">  1        1 0.11508739E+00 0.92274804E+03</pdfrwt>
<pdfrwt beam="2">  1       -2 0.18484943E+00 0.92274804E+03</pdfrwt>
<totfact> 0.36352857E+00</totfact>
</mgrwt>
</event>
<event>
12    3  0.1201947E-007  0.6189936E+03  0.7818608E-02  0.9866766E-01
         -2   -1    0    0    0  501 -0.00000000000E+00  0.00000000000E+00  0.88230474401E+03  0.88230474401E+03  0.00000000000E+00 0.  1.
          1   -1    0    0  501    0  0.00000000000E+00 -0.00000000000E+00 -0.76264041199E+03  0.76264041199E+03  0.00000000000E+00 0. -1.
        -24    2    1    2    0    0  0.45861665725E+03 -0.40107881087E+03 -0.30958412199E+03  0.68804947334E+03  0.79851727256E+02 0.  0.
    5000000    2    1    2    0    0 -0.45861665725E+03  0.40107881087E+03  0.42924845400E+03  0.95689568265E+03  0.60016802763E+03 0.  0.
        -24    2    4    4    0    0 -0.23710139510E+03  0.28527096045E+03  0.55024034827E+03  0.66830376842E+03  0.79176344861E+02 0.  0.
         24    2    4    4    0    0 -0.22151526216E+03  0.11580785042E+03 -0.12099189427E+03  0.28859191424E+03  0.78522512055E+02 0.  0.
         13    1    3    3    0    0  0.32133008179E+03 -0.24081179716E+03 -0.22825364342E+03  0.46189075424E+03  0.00000000000E+00 0. -1.
        -14    1    3    3    0    0  0.13728657546E+03 -0.16026701370E+03 -0.81330478572E+02  0.22615871911E+03  0.00000000000E+00 0.  1.
         15    1    5    5    0    0 -0.15793930644E+03  0.15445291608E+03  0.26808400280E+03  0.34737978941E+03  0.17770000000E+01 0. -1.
        -16    1    5    5    0    0 -0.79162088652E+02  0.13081804437E+03  0.28215634547E+03  0.32092397900E+03  0.00000000000E+00 0.  1.
          4    1    6    6  502    0 -0.52020166520E+02  0.14020233402E+02  0.50659178325E+01  0.54114029539E+02  0.00000000000E+00 0. -1.
         -3    1    6    6    0  502 -0.16949509564E+03  0.10178761702E+03 -0.12605781210E+03  0.23447788470E+03  0.00000000000E+00 0.  1.
<mgrwt>
<rscale>  0 0.61899359E+03</rscale>
<asrwt>0</asrwt>
<pdfrwt beam="1">  1        1 0.11732929E+00 0.61899359E+03</pdfrwt>
<pdfrwt beam="2">  1       -2 0.13573919E+00 0.61899359E+03</pdfrwt>
<totfact> 0.84476984E+00</totfact>
</mgrwt>
</event>
<event>
12    3  0.1201947E-007  0.7021294E+03  0.7818608E-02  0.9713598E-01
         -2   -1    0    0    0  501 -0.00000000000E+00  0.00000000000E+00  0.39155116838E+03  0.39155116838E+03  0.00000000000E+00 0.  1.
          1   -1    0    0  501    0  0.00000000000E+00 -0.00000000000E+00 -0.16513754321E+04  0.16513754321E+04  0.00000000000E+00 0. -1.
        -24    2    1    2    0    0  0.46130554529E+03 -0.49654599300E+03 -0.70578146128E+03  0.98170472971E+03  0.79094727804E+02 0.  0.
    5000000    2    1    2    0    0 -0.46130554529E+03  0.49654599300E+03 -0.55404280244E+03  0.10612218708E+04  0.59988974220E+03 0.  0.
        -24    2    4    4    0    0 -0.43284201917E+03  0.48268885274E+03 -0.18006770505E+03  0.67751978219E+03  0.79170289543E+02 0.  0.
         24    2    4    4    0    0 -0.28463526124E+02  0.13857140257E+02 -0.37397509739E+03  0.38370208858E+03  0.79798036667E+02 0.  0.
         13    1    3    3    0    0  0.68500712893E+02 -0.11994337779E+03 -0.14820917818E+03  0.20259497042E+03  0.00000000000E+00 0. -1.
        -14    1    3    3    0    0  0.39280483240E+03 -0.37660261520E+03 -0.55757228310E+03  0.77910975929E+03  0.00000000000E+00 0.  1.
         15    1    5    5    0    0 -0.12826987595E+03  0.14840666305E+03 -0.92553998022E+02  0.21690343241E+03  0.17770000000E+01 0. -1.
        -16    1    5    5    0    0 -0.30457214321E+03  0.33428218969E+03 -0.87513707030E+02  0.46061634978E+03  0.00000000000E+00 0.  1.
          2    1    6    6  502    0 -0.39139148184E+02 -0.15677633779E+02 -0.10896455153E+03  0.11683721416E+03  0.00000000000E+00 0. -1.
         -1    1    6    6    0  502  0.10675622060E+02  0.29534774036E+02 -0.26501054586E+03  0.26686487442E+03  0.00000000000E+00 0.  1.
<mgrwt>
<rscale>  0 0.70212943E+03</rscale>
<asrwt>0</asrwt>
<pdfrwt beam="1">  1        1 0.25405776E+00 0.70212943E+03</pdfrwt>
<pdfrwt beam="2">  1       -2 0.60238640E-01 0.70212943E+03</pdfrwt>
<totfact> 0.12079344E+01</totfact>
</mgrwt>
</event>
<event>
12    3  0.1201947E-007  0.6517303E+03  0.7818608E-02  0.9803538E-01
          1   -1    0    0  501    0  0.00000000000E+00  0.00000000000E+00  0.15517370368E+04  0.15517370368E+04  0.00000000000E+00 0. -1.
         -2   -1    0    0    0  501 -0.00000000000E+00 -0.00000000000E+00 -0.38909091614E+03  0.38909091614E+03  0.00000000000E+00 0.  1.
        -24    2    1    2    0    0 -0.41436403336E+03 -0.49986825072E+03  0.63306517247E+03  0.91027473920E+03  0.79137652269E+02 0.  0.
    5000000    2    1    2    0    0  0.41436403336E+03  0.49986825072E+03  0.52958094817E+03  0.10305532137E+04  0.60001510434E+03 0.  0.
        -24    2    4    4    0    0  0.23256221202E+03  0.28490155185E+03 -0.51971056345E+02  0.37921090796E+03  0.76458127843E+02 0.  0.
         24    2    4    4    0    0  0.18180182133E+03  0.21496669887E+03  0.58155200452E+03  0.65134230577E+03  0.82349750800E+02 0.  0.
         11    1    3    3    0    0 -0.20994520307E+03 -0.24250749994E+03  0.25850635166E+03  0.41196166043E+03  0.00000000000E+00 0. -1.
        -12    1    3    3    0    0 -0.20441883028E+03 -0.25736075078E+03  0.37455882082E+03  0.49831307876E+03  0.00000000000E+00 0.  1.
         15    1    5    5    0    0  0.11974847208E+03  0.10210348361E+03  0.32777121985E+01  0.15741257592E+03  0.17770000000E+01 0. -1.
        -16    1    5    5    0    0  0.11281373994E+03  0.18279806824E+03 -0.55248768544E+02  0.22179833204E+03  0.00000000000E+00 0.  1.
          4    1    6    6  502    0  0.96801543167E+02  0.10418322218E+03  0.20300223286E+03  0.24786001914E+03  0.00000000000E+00 0. -1.
         -3    1    6    6    0  502  0.85000278166E+02  0.11078347670E+03  0.37854977166E+03  0.40348228662E+03  0.00000000000E+00 0.  1.
<mgrwt>
<rscale>  0 0.65173031E+03</rscale>
<asrwt>0</asrwt>
<pdfrwt beam="1">  1        1 0.23872877E+00 0.65173031E+03</pdfrwt>
<pdfrwt beam="2">  1       -2 0.59860142E-01 0.65173031E+03</pdfrwt>
<totfact> 0.14401087E+01</totfact>
</mgrwt>
</event>
<event>
12    3  0.1201947E-007  0.1459406E+04  0.7818608E-02  0.8911905E-01
          1   -1    0    0  501    0  0.00000000000E+00  0.00000000000E+00  0.22697741331E+04  0.22697741331E+04  0.00000000000E+00 0. -1.
         -2   -1    0    0    0  501 -0.00000000000E+00 -0.00000000000E+00 -0.13569950337E+04  0.13569950337E+04  0.00000000000E+00 0.  1.
        -24    2    1    2    0    0  0.13656533699E+04  0.41193185930E+03 -0.51750090667E+03  0.15195224870E+04  0.80277124800E+02 0.  0.
    5000000    2    1    2    0    0 -0.13656533699E+04 -0.41193185930E+03  0.14302800061E+04  0.21072466797E+04  0.60007557028E+03 0.  0.
        -24    2    4    4    0    0 -0.50598186395E+02  0.37417902249E+02  0.29010281187E+03  0.30789205216E+03  0.81716573946E+02 0.  0.
         24    2    4    4    0    0 -0.13150551835E+04 -0.44934976155E+03  0.11401771942E+04  0.17993546276E+04  0.79923073693E+02 0.  0.
         13    1    3    3    0    0  0.84795125320E+03  0.29603886636E+03 -0.32081596413E+03  0.95372072486E+03  0.00000000000E+00 0. -1.
        -14    1    3    3    0    0  0.51770211668E+03  0.11589299294E+03 -0.19668494254E+03  0.56580176215E+03  0.00000000000E+00 0.  1.
         15    1    5    5    0    0 -0.71741949358E+02  0.25477817202E+02  0.24636263522E+03  0.25786378619E+03  0.17770000000E+01 0. -1.
        -16    1    5    5    0    0  0.21143762963E+02  0.11940085047E+02  0.43740176644E+02  0.50028265971E+02  0.00000000000E+00 0.  1.
          2    1    6    6  502    0 -0.45003521252E+03 -0.15073967155E+03  0.43883936978E+03  0.64640090776E+03  0.00000000000E+00 0. -1.
         -1    1    6    6    0  502 -0.86501997096E+03 -0.29861009000E+03  0.70133782442E+03  0.11529537198E+04  0.00000000000E+00 0.  1.
<mgrwt>
<rscale>  0 0.14594064E+04</rscale>
<asrwt>0</asrwt>
<pdfrwt beam="1">  1        1 0.34919602E+00 0.14594064E+04</pdfrwt>
<pdfrwt beam="2">  1       -2 0.20876847E+00 0.14594064E+04</pdfrwt>
<totfact> 0.18874774E-01</totfact>
</mgrwt>
</event>
<event>
12    3  0.1201947E-007  0.5181347E+03  0.7818608E-02  0.1009151E+00
          1   -1    0    0  501    0  0.00000000000E+00  0.00000000000E+00  0.35584524301E+03  0.35584524301E+03  0.00000000000E+00 0. -1.
         -2   -1    0    0    0  501 -0.00000000000E+00 -0.00000000000E+00 -0.79784390577E+03  0.79784390577E+03  0.00000000000E+00 0.  1.
        -24    2    1    2    0    0 -0.96208538459E+02  0.34505884985E+03 -0.15787099158E+03  0.39938014498E+03  0.79117365310E+02 0.  0.
    5000000    2    1    2    0    0  0.96208538459E+02 -0.34505884985E+03 -0.28412767118E+03  0.75430900379E+03  0.59994320310E+03 0.  0.
        -24    2    4    4    0    0 -0.16382991924E+03 -0.36958473984E+03 -0.97347248892E+02  0.42341856088E+03  0.79835258325E+02 0.  0.
         24    2    4    4    0    0  0.26003845769E+03  0.24525889996E+02 -0.18678042229E+03  0.33089044291E+03  0.79875154444E+02 0.  0.
         13    1    3    3    0    0 -0.38363522083E+02  0.41020678429E+02 -0.12948315491E+02  0.57637789335E+02  0.00000000000E+00 0. -1.
        -14    1    3    3    0    0 -0.57845016376E+02  0.30403817142E+03 -0.14492267609E+03  0.34174235564E+03  0.00000000000E+00 0.  1.
         15    1    5    5    0    0 -0.73520236010E+02 -0.98135592318E+02 -0.47400668079E+01  0.12272508116E+03  0.17770000000E+01 0. -1.
        -16    1    5    5    0    0 -0.90309683226E+02 -0.27144914752E+03 -0.92607182084E+02  0.30069347972E+03  0.00000000000E+00 0.  1.
          4    1    6    6  502    0  0.11482276293E+03  0.20444723471E+02 -0.13069499028E+03  0.17516687497E+03  0.00000000000E+00 0. -1.
         -3    1    6    6    0  502  0.14521569477E+03  0.40811665245E+01 -0.56085432015E+02  0.15572356794E+03  0.00000000000E+00 0.  1.
<mgrwt>
<rscale>  0 0.51813473E+03</rscale>
<asrwt>0</asrwt>
<pdfrwt beam="1">  1        1 0.54745422E-01 0.51813473E+03</pdfrwt>
<pdfrwt beam="2">  1       -2 0.12274522E+00 0.51813473E+03</pdfrwt>
<totfact> 0.31844533E+01</totfact>
</mgrwt>
</event>
<event>
12    3  0.1201947E-007  0.5559624E+03  0.7818608E-02  0.1000123E+00
          1   -1    0    0  501    0  0.00000000000E+00  0.00000000000E+00  0.66503236472E+03  0.66503236472E+03  0.00000000000E+00 0. -1.
         -2   -1    0    0    0  501 -0.00000000000E+00 -0.00000000000E+00 -0.71004739410E+03  0.71004739410E+03  0.00000000000E+00 0.  1.
        -24    2    1    2    0    0 -0.44829697046E+03  0.27699563976E+03 -0.18577178669E+03  0.56421051655E+03  0.78266161828E+02 0.  0.
    5000000    2    1    2    0    0  0.44829697046E+03 -0.27699563976E+03  0.14075675731E+03  0.81086924226E+03  0.59999975429E+03 0.  0.
        -24    2    4    4    0    0  0.43428973535E+03 -0.23464009302E+03  0.33084511197E+03  0.59922374038E+03  0.77117153950E+02 0.  0.
         24    2    4    4    0    0  0.14007235105E+02 -0.42355546739E+02 -0.19008835466E+03  0.21164550188E+03  0.81670318440E+02 0.  0.
         11    1    3    3    0    0 -0.52748139755E+02  0.93012275927E+01 -0.32267686780E+02  0.62530654022E+02  0.00000000000E+00 0. -1.
        -12    1    3    3    0    0 -0.39554883070E+03  0.26769441217E+03 -0.15350409991E+03  0.50167986253E+03  0.00000000000E+00 0.  1.
         15    1    5    5    0    0  0.14789425523E+03 -0.88984102094E+02  0.73687783732E+02  0.18768038884E+03  0.17770000000E+01 0. -1.
        -16    1    5    5    0    0  0.28639548013E+03 -0.14565599093E+03  0.25715732824E+03  0.41154335154E+03  0.00000000000E+00 0.  1.
          2    1    6    6  502    0  0.71476834214E+01 -0.63858738622E+02 -0.10072769404E+03  0.11947843413E+03  0.00000000000E+00 0. -1.
         -1    1    6    6    0  502  0.68595516840E+01  0.21503191882E+02 -0.89360660622E+02  0.92167067747E+02  0.00000000000E+00 0.  1.
<mgrwt>
<rscale>  0 0.55596236E+03</rscale>
<asrwt>0</asrwt>
<pdfrwt beam="1">  1        1 0.10231267E+00 0.55596236E+03</pdfrwt>
<pdfrwt beam="2">  1       -2 0.10923806E+00 0.55596236E+03</pdfrwt>
<totfact> 0.17943483E+01</totfact>
</mgrwt>
</event>
<event>
12    3  0.1201947E-007  0.6683809E+03  0.7818608E-02  0.9772887E-01
          1   -1    0    0  501    0  0.00000000000E+00  0.00000000000E+00  0.49927742986E+03  0.49927742986E+03  0.00000000000E+00 0. -1.
         -2   -1    0    0    0  501 -0.00000000000E+00 -0.00000000000E+00 -0.11517381109E+04  0.11517381109E+04  0.00000000000E+00 0.  1.
        -24    2    1    2    0    0 -0.59004380223E+02 -0.61778877729E+03 -0.43079584522E+03  0.75994935695E+03  0.82422537142E+02 0.  0.
    5000000    2    1    2    0    0  0.59004380223E+02  0.61778877729E+03 -0.22166483585E+03  0.89106618384E+03  0.59976591624E+03 0.  0.
        -24    2    4    4    0    0 -0.17951254624E+02 -0.29095524922E+02 -0.21891414582E+03  0.23465860067E+03  0.77281682940E+02 0.  0.
         24    2    4    4    0    0  0.76955634847E+02  0.64688430222E+03 -0.27506900301E+01  0.65640758316E+03  0.80510115822E+02 0.  0.
         13    1    3    3    0    0  0.12967348414E+02 -0.67417696153E+02 -0.69331438911E+02  0.97571237058E+02  0.00000000000E+00 0. -1.
        -14    1    3    3    0    0 -0.71971728637E+02 -0.55037108114E+03 -0.36146440631E+03  0.66237811989E+03  0.00000000000E+00 0.  1.
         15    1    5    5    0    0 -0.26287412971E+02  0.33358473539E+01 -0.20797520687E+02  0.33732040466E+02  0.17770000000E+01 0. -1.
        -16    1    5    5    0    0  0.83361583477E+01 -0.32431372276E+02 -0.19811662513E+03  0.20092656021E+03  0.00000000000E+00 0.  1.
          4    1    6    6  502    0  0.62649237358E+01  0.23626980519E+03  0.31050374900E+02  0.23838371567E+03  0.00000000000E+00 0. -1.
         -3    1    6    6    0  502  0.70690711111E+02  0.41061449703E+03 -0.33801064930E+02  0.41802386749E+03  0.00000000000E+00 0.  1.
<mgrwt>
<rscale>  0 0.66838085E+03</rscale>
<asrwt>0</asrwt>
<pdfrwt beam="1">  1        1 0.76811913E-01 0.66838085E+03</pdfrwt>
<pdfrwt beam="2">  1       -2 0.17719048E+00 0.66838085E+03</pdfrwt>
<totfact> 0.76047463E+00</totfact>
</mgrwt>
</event>
<event>
12    3  0.1201947E-007  0.1064081E+04  0.7818608E-02  0.9240926E-01
         -2   -1    0    0    0  501 -0.00000000000E+00  0.00000000000E+00  0.11205033295E+04  0.11205033295E+04  0.00000000000E+00 0.  1.
          1   -1    0    0  501    0  0.00000000000E+00 -0.00000000000E+00 -0.10768363661E+04  0.10768363661E+04  0.00000000000E+00 0. -1.
        -24    2    1    2    0    0 -0.96252970768E+03  0.26477941428E+03  0.20288461814E+03  0.10218159230E+04  0.79837558482E+02 0.  0.
    5000000    2    1    2    0    0  0.96252970768E+03 -0.26477941428E+03 -0.15921765476E+03  0.11755237727E+04  0.59994524932E+03 0.  0.
        -24    2    4    4    0    0  0.37205575539E+03 -0.36421403826E+03  0.66196038402E+02  0.53083440029E+03  0.79535490458E+02 0.  0.
         24    2    4    4    0    0  0.59047395229E+03  0.99434623988E+02 -0.22541369316E+03  0.64468937240E+03  0.79160097509E+02 0.  0.
         11    1    3    3    0    0 -0.19634934720E+03  0.66843515452E+02  0.11876530355E+02  0.20775508099E+03  0.00000000000E+00 0. -1.
        -12    1    3    3    0    0 -0.76618036048E+03  0.19793589882E+03  0.19100808779E+03  0.81406084197E+03  0.00000000000E+00 0.  1.
         15    1    5    5    0    0  0.59815532186E+02 -0.10218133564E+03  0.26003428763E+02  0.12123637771E+03  0.17770000000E+01 0. -1.
        -16    1    5    5    0    0  0.31224022320E+03 -0.26203270262E+03  0.40192609638E+02  0.40959802258E+03  0.00000000000E+00 0.  1.
          2    1    6    6  502    0  0.48863165768E+03  0.53163368002E+02 -0.19484656673E+03  0.52872717459E+03  0.00000000000E+00 0. -1.
         -1    1    6    6    0  502  0.10184229462E+03  0.46271255986E+02 -0.30567126427E+02  0.11596219781E+03  0.00000000000E+00 0.  1.
<mgrwt>
<rscale>  0 0.10640813E+04</rscale>
<asrwt>0</asrwt>
<pdfrwt beam="1">  1        1 0.16566713E+00 0.10640813E+04</pdfrwt>
<pdfrwt beam="2">  1       -2 0.17238513E+00 0.10640813E+04</pdfrwt>
<totfact> 0.23464785E+00</totfact>
</mgrwt>
</event>
<event>
12    3  0.1201947E-007  0.6188257E+03  0.7818608E-02  0.9867100E-01
         -2   -1    0    0    0  501 -0.00000000000E+00  0.00000000000E+00  0.76858100165E+03  0.76858100165E+03  0.00000000000E+00 0.  1.
          1   -1    0    0  501    0  0.00000000000E+00 -0.00000000000E+00 -0.61682859435E+03  0.61682859435E+03  0.00000000000E+00 0. -1.
        -24    2    1    2    0    0  0.46306857364E+03  0.23102482743E+03  0.26174545003E+03  0.58540593324E+03  0.79902761397E+02 0.  0.
    5000000    2    1    2    0    0 -0.46306857364E+03 -0.23102482743E+03 -0.10999304273E+03  0.80000366276E+03  0.60008534077E+03 0.  0.
        -24    2    4    4    0    0  0.93514104481E+02 -0.51878793748E+02  0.10600820934E+03  0.17124050030E+03  0.81543065417E+02 0.  0.
         24    2    4    4    0    0 -0.55658267812E+03 -0.17914603368E+03 -0.21600125207E+03  0.62876316246E+03  0.82516632282E+02 0.  0.
         13    1    3    3    0    0  0.29579711946E+03  0.13699335661E+03  0.20587339828E+03  0.38554762580E+03  0.00000000000E+00 0. -1.
        -14    1    3    3    0    0  0.16727145418E+03  0.94031470817E+02  0.55872051744E+02  0.19985830744E+03  0.00000000000E+00 0.  1.
         15    1    5    5    0    0  0.84074119483E+02 -0.42993715058E+01  0.80247785120E+02  0.11631769817E+03  0.17770000000E+01 0. -1.
        -16    1    5    5    0    0  0.94399849978E+01 -0.47579422242E+02  0.25760424224E+02  0.54922802130E+02  0.00000000000E+00 0.  1.
          4    1    6    6  502    0 -0.24743639596E+02 -0.20336539676E+02 -0.28593004273E+02  0.42934629844E+02  0.00000000000E+00 0. -1.
         -3    1    6    6    0  502 -0.53183903852E+03 -0.15880949401E+03 -0.18740824780E+03  0.58582853262E+03  0.00000000000E+00 0.  1.
<mgrwt>
<rscale>  0 0.61882571E+03</rscale>
<asrwt>0</asrwt>
<pdfrwt beam="1">  1        1 0.94896707E-01 0.61882571E+03</pdfrwt>
<pdfrwt beam="2">  1       -2 0.11824323E+00 0.61882571E+03</pdfrwt>
<totfact> 0.16394666E+01</totfact>
</mgrwt>
</event>
<event>
12    3  0.1201947E-007  0.1476142E+04  0.7818608E-02  0.8900475E-01
          1   -1    0    0  501    0  0.00000000000E+00  0.00000000000E+00  0.22077099797E+04  0.22077099797E+04  0.00000000000E+00 0. -1.
         -2   -1    0    0    0  501 -0.00000000000E+00 -0.00000000000E+00 -0.10109196316E+04  0.10109196316E+04  0.00000000000E+00 0.  1.
        -24    2    1    2    0    0  0.84566054279E+02 -0.14293794890E+04  0.53050382306E+03  0.15291409475E+04  0.80997468637E+02 0.  0.
    5000000    2    1    2    0    0 -0.84566054279E+02  0.14293794890E+04  0.66628652503E+03  0.16894886639E+04  0.60013087823E+03 0.  0.
        -24    2    4    4    0    0  0.21234384284E+03  0.62732941000E+03  0.44561974870E+03  0.80231573536E+03  0.80631771196E+02 0.  0.
         24    2    4    4    0    0 -0.29690989712E+03  0.80205007896E+03  0.22066677633E+03  0.88717292854E+03  0.83319642300E+02 0.  0.
         11    1    3    3    0    0 -0.96889303160E+01 -0.46673230971E+03  0.16492358672E+03  0.49510878982E+03  0.00000000000E+00 0. -1.
        -12    1    3    3    0    0  0.94254984595E+02 -0.96264717925E+03  0.36558023634E+03  0.10340321576E+04  0.00000000000E+00 0.  1.
         15    1    5    5    0    0  0.61487810139E+02  0.16515160009E+03  0.16246130559E+03  0.23969279370E+03  0.17770000000E+01 0. -1.
        -16    1    5    5    0    0  0.15085603270E+03  0.46217780991E+03  0.28315844311E+03  0.56262294166E+03  0.00000000000E+00 0.  1.
          2    1    6    6  502    0 -0.92585616325E+02  0.21097111172E+03  0.24298948247E+02  0.23167076902E+03  0.00000000000E+00 0. -1.
         -1    1    6    6    0  502 -0.20432428079E+03  0.59107896724E+03  0.19636782808E+03  0.65550215952E+03  0.00000000000E+00 0.  1.
<mgrwt>
<rscale>  0 0.14761423E+04</rscale>
<asrwt>0</asrwt>
<pdfrwt beam="1">  1        1 0.33964769E+00 0.14761423E+04</pdfrwt>
<pdfrwt beam="2">  1       -2 0.15552610E+00 0.14761423E+04</pdfrwt>
<totfact> 0.48691856E-01</totfact>
</mgrwt>
</event>
<event>
12    3  0.1201947E-007  0.9373775E+03  0.7818608E-02  0.9380027E-01
          1   -1    0    0  501    0  0.00000000000E+00  0.00000000000E+00  0.17043546303E+04  0.17043546303E+04  0.00000000000E+00 0. -1.
         -2   -1    0    0    0  501 -0.00000000000E+00 -0.00000000000E+00 -0.93937733171E+03  0.93937733171E+03  0.00000000000E+00 0.  1.
        -24    2    1    2    0    0  0.82988818858E+03 -0.26008442108E+03  0.12143116890E+04  0.14957695239E+04  0.80095436639E+02 0.  0.
    5000000    2    1    2    0    0 -0.82988818858E+03  0.26008442108E+03 -0.44933439040E+03  0.11479624381E+04  0.59963159797E+03 0.  0.
        -24    2    4    4    0    0 -0.51016146478E+03 -0.98069114238E+02 -0.39683071547E+03  0.65842920788E+03  0.78562928446E+02 0.  0.
         24    2    4    4    0    0 -0.31972672379E+03  0.35815353532E+03 -0.52503674921E+02  0.48953323023E+03  0.79918801577E+02 0.  0.
         13    1    3    3    0    0  0.10873790713E+03 -0.63409947966E+02  0.17324707444E+03  0.21414785255E+03  0.00000000000E+00 0. -1.
        -14    1    3    3    0    0  0.72115028145E+03 -0.19667447312E+03  0.10410646145E+04  0.12816216713E+04  0.00000000000E+00 0.  1.
         15    1    5    5    0    0 -0.39697307861E+03 -0.82169866921E+02 -0.34746867087E+03  0.53392616262E+03  0.17770000000E+01 0. -1.
        -16    1    5    5    0    0 -0.11318838617E+03 -0.15899247317E+02 -0.49362044605E+02  0.12450304525E+03  0.00000000000E+00 0.  1.
          2    1    6    6  502    0 -0.39039054506E+02  0.65104630664E+02 -0.34399004199E+02  0.83342379379E+02  0.00000000000E+00 0. -1.
         -1    1    6    6    0  502 -0.28068766929E+03  0.29304890466E+03 -0.18104670722E+02  0.40619085085E+03  0.00000000000E+00 0.  1.
<mgrwt>
<rscale>  0 0.93737754E+03</rscale>
<asrwt>0</asrwt>
<pdfrwt beam="1">  1        1 0.26220840E+00 0.93737754E+03</pdfrwt>
<pdfrwt beam="2">  1       -2 0.14451959E+00 0.93737754E+03</pdfrwt>
<totfact> 0.13849005E+00</totfact>
</mgrwt>
</event>
<event>
12    3  0.1201947E-007  0.3267839E+03  0.7818608E-02  0.1072569E+00
          3   -1    0    0  501    0  0.00000000000E+00  0.00000000000E+00  0.19363064307E+03  0.19363064307E+03  0.00000000000E+00 0. -1.
         -4   -1    0    0    0  501 -0.00000000000E+00 -0.00000000000E+00 -0.13023299763E+04  0.13023299763E+04  0.00000000000E+00 0.  1.
        -24    2    1    2    0    0 -0.23864548123E+03 -0.14612671156E+03 -0.57917683198E+03  0.64812906742E+03  0.79503482938E+02 0.  0.
    5000000    2    1    2    0    0  0.23864548123E+03  0.14612671156E+03 -0.52952250120E+03  0.84783155190E+03  0.60009964138E+03 0.  0.
        -24    2    4    4    0    0  0.25669991166E+03  0.42657581273E+02 -0.62727986182E+03  0.68227739037E+03  0.65634582913E+02 0.  0.
         24    2    4    4    0    0 -0.18054430436E+02  0.10346913029E+03  0.97757360619E+02  0.16555416153E+03  0.82582416203E+02 0.  0.
         13    1    3    3    0    0 -0.19653425022E+03 -0.89330489533E+02 -0.38376905729E+03  0.44032299191E+03  0.00000000000E+00 0. -1.
        -14    1    3    3    0    0 -0.42111231010E+02 -0.56796222025E+02 -0.19540777469E+03  0.20780607551E+03  0.00000000000E+00 0.  1.
         15    1    5    5    0    0  0.21341816552E+03  0.24581014416E+02 -0.44627563158E+03  0.49529449494E+03  0.17770000000E+01 0. -1.
        -16    1    5    5    0    0  0.43281746138E+02  0.18076566857E+02 -0.18100423024E+03  0.18698289543E+03  0.00000000000E+00 0.  1.
          2    1    6    6  502    0 -0.31279849149E+01  0.36101438391E+02 -0.10005876389E+02  0.37592761349E+02  0.00000000000E+00 0. -1.
         -1    1    6    6    0  502 -0.14926445521E+02  0.67367691895E+02  0.10776323701E+03  0.12796140019E+03  0.00000000000E+00 0.  1.
<mgrwt>
<rscale>  0 0.32678387E+03</rscale>
<asrwt>0</asrwt>
<pdfrwt beam="1">  1        3 0.29789329E-01 0.32678387E+03</pdfrwt>
<pdfrwt beam="2">  1       -4 0.20035846E+00 0.32678387E+03</pdfrwt>
<totfact> 0.32929750E+00</totfact>
</mgrwt>
</event>
<event>
12    3  0.1201947E-007  0.1368031E+04  0.7818608E-02  0.8977290E-01
          1   -1    0    0  501    0  0.00000000000E+00  0.00000000000E+00  0.22049342882E+04  0.22049342882E+04  0.00000000000E+00 0. -1.
         -2   -1    0    0    0  501 -0.00000000000E+00 -0.00000000000E+00 -0.88352237316E+03  0.88352237316E+03  0.00000000000E+00 0.  1.
        -24    2    1    2    0    0  0.11902717751E+04  0.59187895874E+03  0.58864446315E+03  0.14560954932E+04  0.81511845254E+02 0.  0.
    5000000    2    1    2    0    0 -0.11902717751E+04 -0.59187895874E+03  0.73276745189E+03  0.16323611681E+04  0.60048917072E+03 0.  0.
        -24    2    4    4    0    0 -0.56378546907E+03 -0.37228912141E+02  0.99862132584E+02  0.58017153179E+03  0.85944829630E+02 0.  0.
         24    2    4    4    0    0 -0.62648630607E+03 -0.55465004660E+03  0.63290531930E+03  0.10521896363E+04  0.80075724921E+02 0.  0.
         11    1    3    3    0    0  0.11450505747E+04  0.56369698824E+03  0.54742599147E+03  0.13887297539E+04  0.00000000000E+00 0. -1.
        -12    1    3    3    0    0  0.45221200423E+02  0.28181970501E+02  0.41218471680E+02  0.67365739339E+02  0.00000000000E+00 0.  1.
         15    1    5    5    0    0 -0.42588415077E+03 -0.33243302552E+01  0.10280547982E+03  0.43813295409E+03  0.17770000000E+01 0. -1.
        -16    1    5    5    0    0 -0.13790131830E+03 -0.33904581885E+02 -0.29433472397E+01  0.14203857770E+03  0.00000000000E+00 0.  1.
          4    1    6    6  502    0 -0.49288709174E+03 -0.46562705270E+03  0.53917462298E+03  0.86628835353E+03  0.00000000000E+00 0. -1.
         -3    1    6    6    0  502 -0.13359921433E+03 -0.89022993907E+02  0.93730696327E+02  0.18590128280E+03  0.00000000000E+00 0.  1.
<mgrwt>
<rscale>  0 0.13680314E+04</rscale>
<asrwt>0</asrwt>
<pdfrwt beam="1">  1        1 0.33922066E+00 0.13680314E+04</pdfrwt>
<pdfrwt beam="2">  1       -2 0.13592652E+00 0.13680314E+04</pdfrwt>
<totfact> 0.70681258E-01</totfact>
</mgrwt>
</event>
<event>
12    3  0.1201947E-007  0.9469409E+03  0.7818608E-02  0.9368733E-01
          1   -1    0    0  501    0  0.00000000000E+00  0.00000000000E+00  0.94483721901E+03  0.94483721901E+03  0.00000000000E+00 0. -1.
         -2   -1    0    0    0  501 -0.00000000000E+00 -0.00000000000E+00 -0.10462309702E+04  0.10462309702E+04  0.00000000000E+00 0.  1.
        -24    2    1    2    0    0 -0.61657311284E+03 -0.64965395330E+03  0.58865278213E+02  0.90118087356E+03  0.80306807678E+02 0.  0.
    5000000    2    1    2    0    0  0.61657311284E+03  0.64965395330E+03 -0.16025902937E+03  0.10898873156E+04  0.59996561712E+03 0.  0.
        -24    2    4    4    0    0  0.24109750600E+03  0.69661531704E+01  0.12882286021E+03  0.28489935686E+03  0.79973617738E+02 0.  0.
         24    2    4    4    0    0  0.37547560684E+03  0.64268780013E+03 -0.28908188958E+03  0.80498795876E+03  0.10201830764E+03 0.  0.
         11    1    3    3    0    0 -0.25481497399E+03 -0.32424046088E+03  0.38349188911E+02  0.41416567666E+03  0.00000000000E+00 0. -1.
        -12    1    3    3    0    0 -0.36175813886E+03 -0.32541349243E+03  0.20516089302E+02  0.48701519689E+03  0.00000000000E+00 0.  1.
         15    1    5    5    0    0  0.23302515962E+03  0.20934562105E+02  0.10578306212E+03  0.25677265211E+03  0.17770000000E+01 0. -1.
        -16    1    5    5    0    0  0.80723463778E+01 -0.13968408935E+02  0.23039798088E+02  0.28126704751E+02  0.00000000000E+00 0.  1.
          4    1    6    6  502    0  0.18344120718E+03  0.28765421648E+03 -0.80052933690E+02  0.35043415493E+03  0.00000000000E+00 0. -1.
         -3    1    6    6    0  502  0.19203439966E+03  0.35503358365E+03 -0.20902895589E+03  0.45455380383E+03  0.00000000000E+00 0.  1.
<mgrwt>
<rscale>  0 0.94694093E+03</rscale>
<asrwt>0</asrwt>
<pdfrwt beam="1">  1        1 0.14535957E+00 0.94694093E+03</pdfrwt>
<pdfrwt beam="2">  1       -2 0.16095861E+00 0.94694093E+03</pdfrwt>
<totfact> 0.36403034E+00</totfact>
</mgrwt>
</event>
<event>
12    3  0.1201947E-007  0.3755029E+03  0.7818608E-02  0.1052609E+00
         -2   -1    0    0    0  501 -0.00000000000E+00  0.00000000000E+00  0.24714959838E+03  0.24714959838E+03  0.00000000000E+00 0.  1.
          1   -1    0    0  501    0  0.00000000000E+00 -0.00000000000E+00 -0.78164643546E+03  0.78164643546E+03  0.00000000000E+00 0. -1.
        -24    2    1    2    0    0 -0.13940920315E+03 -0.10663169459E+03 -0.30838837246E+03  0.36405713038E+03  0.81418435903E+02 0.  0.
    5000000    2    1    2    0    0  0.13940920315E+03  0.10663169459E+03 -0.22610846462E+03  0.66473890346E+03  0.59995627156E+03 0.  0.
        -24    2    4    4    0    0  0.16483167909E+03  0.31677085390E+03 -0.24134581982E+03  0.43804454079E+03  0.78242946369E+02 0.  0.
         24    2    4    4    0    0 -0.25422475942E+02 -0.21013915931E+03  0.15237355195E+02  0.22669436267E+03  0.79708145842E+02 0.  0.
         11    1    3    3    0    0 -0.21888045946E+02 -0.27083070570E+02 -0.13792672059E+03  0.14225455887E+03  0.00000000000E+00 0. -1.
        -12    1    3    3    0    0 -0.11752115720E+03 -0.79548624020E+02 -0.17046165186E+03  0.22180257151E+03  0.00000000000E+00 0.  1.
         15    1    5    5    0    0  0.12742651613E+03  0.22996731171E+03 -0.13427008692E+03  0.29521872474E+03  0.17770000000E+01 0. -1.
        -16    1    5    5    0    0  0.37405162962E+02  0.86803542195E+02 -0.10707573290E+03  0.14282581605E+03  0.00000000000E+00 0.  1.
          4    1    6    6  502    0 -0.38616225543E+02 -0.12994566025E+03  0.40678404422E+02  0.14153381250E+03  0.00000000000E+00 0. -1.
         -3    1    6    6    0  502  0.13193749602E+02 -0.80193499062E+02 -0.25441049226E+02  0.85160550175E+02  0.00000000000E+00 0.  1.
<mgrwt>
<rscale>  0 0.37550294E+03</rscale>
<asrwt>0</asrwt>
<pdfrwt beam="1">  1        1 0.12025330E+00 0.37550294E+03</pdfrwt>
<pdfrwt beam="2">  1       -2 0.38023015E-01 0.37550294E+03</pdfrwt>
<totfact> 0.13741670E+02</totfact>
</mgrwt>
</event>
<event>
12    3  0.1201947E-007  0.9822907E+03  0.7818608E-02  0.9328184E-01
         -2   -1    0    0    0  501 -0.00000000000E+00  0.00000000000E+00  0.69117762082E+03  0.69117762082E+03  0.00000000000E+00 0.  1.
          1   -1    0    0  501    0  0.00000000000E+00 -0.00000000000E+00 -0.16525999057E+04  0.16525999057E+04  0.00000000000E+00 0. -1.
        -24    2    1    2    0    0 -0.76060809170E+03  0.53288197466E+03 -0.92144219947E+02  0.93729830937E+03  0.86888983104E+02 0.  0.
    5000000    2    1    2    0    0  0.76060809170E+03 -0.53288197466E+03 -0.86927806496E+03  0.14064792172E+04  0.60004297019E+03 0.  0.
        -24    2    4    4    0    0 -0.17671602995E+02  0.50665993553E+02  0.45506912620E+01  0.95964955713E+02  0.79430696075E+02 0.  0.
         24    2    4    4    0    0  0.77827969470E+03 -0.58354796822E+03 -0.87382875622E+03  0.13105142615E+04  0.87312198126E+02 0.  0.
         11    1    3    3    0    0 -0.44846783525E+03  0.26844744081E+03 -0.30233212891E+02  0.52354701307E+03  0.00000000000E+00 0. -1.
        -12    1    3    3    0    0 -0.31214025645E+03  0.26443453385E+03 -0.61911007056E+02  0.41375129629E+03  0.00000000000E+00 0.  1.
         15    1    5    5    0    0  0.64818768637E+01  0.79389077510E+01  0.36132892117E+02  0.37600327202E+02  0.17770000000E+01 0. -1.
        -16    1    5    5    0    0 -0.24153479858E+02  0.42727085802E+02 -0.31582200855E+02  0.58364628511E+02  0.00000000000E+00 0.  1.
          4    1    6    6  502    0  0.49313880231E+03 -0.38981696265E+03 -0.61521634979E+03  0.87956483545E+03  0.00000000000E+00 0. -1.
         -3    1    6    6    0  502  0.28514089239E+03 -0.19373100557E+03 -0.25861240643E+03  0.43094942602E+03  0.00000000000E+00 0.  1.
<mgrwt>
<rscale>  0 0.98229070E+03</rscale>
<asrwt>0</asrwt>
<pdfrwt beam="1">  1        1 0.25424614E+00 0.98229070E+03</pdfrwt>
<pdfrwt beam="2">  1       -2 0.10633502E+00 0.98229070E+03</pdfrwt>
<totfact> 0.32254532E+00</totfact>
</mgrwt>
</event>
<event>
12    3  0.1201947E-007  0.4264124E+03  0.7818608E-02  0.1034999E+00
          3   -1    0    0  501    0  0.00000000000E+00  0.00000000000E+00  0.11247463929E+04  0.11247463929E+04  0.00000000000E+00 0. -1.
         -4   -1    0    0    0  501 -0.00000000000E+00 -0.00000000000E+00 -0.24381877321E+03  0.24381877321E+03  0.00000000000E+00 0.  1.
        -24    2    1    2    0    0  0.47609946594E+02  0.27096394297E+03  0.24268692665E+02  0.28706002690E+03  0.78270838749E+02 0.  0.
    5000000    2    1    2    0    0 -0.47609946594E+02 -0.27096394297E+03  0.85665892707E+03  0.10815051393E+04  0.60008389705E+03 0.  0.
        -24    2    4    4    0    0 -0.20151439174E+03  0.35208888100E+02  0.90689446431E+02  0.23803371636E+03  0.81165008161E+02 0.  0.
         24    2    4    4    0    0  0.15390444515E+03 -0.30617283107E+03  0.76596948064E+03  0.84347142290E+03  0.85477571620E+02 0.  0.
         13    1    3    3    0    0  0.17848139546E+02  0.53054769132E+01 -0.21042629666E+00  0.18621182824E+02  0.00000000000E+00 0. -1.
        -14    1    3    3    0    0  0.29761807048E+02  0.26565846605E+03  0.24479118961E+02  0.26843884408E+03  0.00000000000E+00 0.  1.
         15    1    5    5    0    0 -0.67872063118E+02 -0.17388336365E+02  0.57434637795E+02  0.90613831952E+02  0.17770000000E+01 0. -1.
        -16    1    5    5    0    0 -0.13364232862E+03  0.52597224465E+02  0.33254808636E+02  0.14741988441E+03  0.00000000000E+00 0.  1.
          2    1    6    6  502    0 -0.10476780766E+02 -0.10209994761E+02  0.32014278258E+02  0.35198308775E+02  0.00000000000E+00 0. -1.
         -1    1    6    6    0  502  0.16438122591E+03 -0.29596283631E+03  0.73395520238E+03  0.80827311412E+03  0.00000000000E+00 0.  1.
<mgrwt>
<rscale>  0 0.42641235E+03</rscale>
<asrwt>0</asrwt>
<pdfrwt beam="1">  1        3 0.17303790E+00 0.42641235E+03</pdfrwt>
<pdfrwt beam="2">  1       -4 0.37510581E-01 0.42641235E+03</pdfrwt>
<totfact> 0.34915086E+00</totfact>
</mgrwt>
</event>
<event>
12    3  0.1201947E-007  0.6901949E+03  0.7818608E-02  0.9734149E-01
          1   -1    0    0  501    0  0.00000000000E+00  0.00000000000E+00  0.15210151793E+04  0.15210151793E+04  0.00000000000E+00 0. -1.
         -2   -1    0    0    0  501 -0.00000000000E+00 -0.00000000000E+00 -0.43098581224E+03  0.43098581224E+03  0.00000000000E+00 0.  1.
        -24    2    1    2    0    0  0.44725062467E+03 -0.44836638306E+03  0.81966595488E+03  0.10386249093E+04  0.76314414403E+02 0.  0.
    5000000    2    1    2    0    0 -0.44725062467E+03  0.44836638306E+03  0.27036341218E+03  0.91337608227E+03  0.60007829347E+03 0.  0.
        -24    2    4    4    0    0 -0.44942794136E+03  0.20167917687E+03 -0.49407711154E+02  0.50133314539E+03  0.78954644512E+02 0.  0.
         24    2    4    4    0    0  0.21773166906E+01  0.24668720619E+03  0.31977112334E+03  0.41204293688E+03  0.81648589137E+02 0.  0.
         13    1    3    3    0    0  0.15592613719E+03 -0.18005883544E+03  0.25534182620E+03  0.34918990920E+03  0.00000000000E+00 0. -1.
        -14    1    3    3    0    0  0.29132448747E+03 -0.26830754761E+03  0.56432412868E+03  0.68943500007E+03  0.00000000000E+00 0.  1.
         15    1    5    5    0    0 -0.37893486325E+03  0.18716894728E+03 -0.18618137761E+02  0.42305276053E+03  0.17770000000E+01 0. -1.
        -16    1    5    5    0    0 -0.70493078107E+02  0.14510229592E+02 -0.30789573393E+02  0.78280384858E+02  0.00000000000E+00 0.  1.
          4    1    6    6  502    0  0.16553458642E+02  0.22440772800E+03  0.24472420925E+03  0.33244967134E+03  0.00000000000E+00 0. -1.
         -3    1    6    6    0  502 -0.14376141951E+02  0.22279478185E+02  0.75046914084E+02  0.79593265539E+02  0.00000000000E+00 0.  1.
<mgrwt>
<rscale>  0 0.69019491E+03</rscale>
<asrwt>0</asrwt>
<pdfrwt beam="1">  1        1 0.23400233E+00 0.69019491E+03</pdfrwt>
<pdfrwt beam="2">  1       -2 0.66305510E-01 0.69019491E+03</pdfrwt>
<totfact> 0.12084095E+01</totfact>
</mgrwt>
</event>
<event>
12    3  0.1201947E-007  0.8710858E+03  0.7818608E-02  0.9462465E-01
         -2   -1    0    0    0  501 -0.00000000000E+00  0.00000000000E+00  0.11074396230E+04  0.11074396230E+04  0.00000000000E+00 0.  1.
          1   -1    0    0  501    0  0.00000000000E+00 -0.00000000000E+00 -0.74757942308E+03  0.74757942308E+03  0.00000000000E+00 0. -1.
        -24    2    1    2    0    0 -0.56341923732E+03  0.58023734090E+03  0.15130028468E+03  0.82665441401E+03  0.79681461437E+02 0.  0.
    5000000    2    1    2    0    0  0.56341923732E+03 -0.58023734090E+03  0.20855991520E+03  0.10283646320E+04  0.59993330413E+03 0.  0.
        -24    2    4    4    0    0  0.16349992520E+03 -0.48325439339E+03  0.30385075716E+03  0.59853119434E+03  0.75148344628E+02 0.  0.
         24    2    4    4    0    0  0.39991931212E+03 -0.96982947513E+02 -0.95290841957E+02  0.42983343768E+03  0.79594542987E+02 0.  0.
         13    1    3    3    0    0 -0.17972492195E+03  0.17556503898E+03  0.84182195397E+02  0.26497315431E+03  0.00000000000E+00 0. -1.
        -14    1    3    3    0    0 -0.38369431537E+03  0.40467230193E+03  0.67118089284E+02  0.56168125971E+03  0.00000000000E+00 0.  1.
         15    1    5    5    0    0 -0.51120776864E+01 -0.51740969970E+02  0.24103030290E+02  0.57335635602E+02  0.17770000000E+01 0. -1.
        -16    1    5    5    0    0  0.16861200289E+03 -0.43151342342E+03  0.27974772687E+03  0.54119555874E+03  0.00000000000E+00 0.  1.
          4    1    6    6  502    0  0.32918494249E+03 -0.10783780731E+03 -0.66647224053E+02  0.35275143021E+03  0.00000000000E+00 0. -1.
         -3    1    6    6    0  502  0.70734369634E+02  0.10854859792E+02 -0.28643617904E+02  0.77082007468E+02  0.00000000000E+00 0.  1.
<mgrwt>
<rscale>  0 0.87108583E+03</rscale>
<asrwt>0</asrwt>
<pdfrwt beam="1">  1        1 0.11501222E+00 0.87108583E+03</pdfrwt>
<pdfrwt beam="2">  1       -2 0.17037533E+00 0.87108583E+03</pdfrwt>
<totfact> 0.46118389E+00</totfact>
</mgrwt>
</event>
<event>
12    3  0.1699913E-007  0.1061246E+04  0.7818608E-02  0.9243810E-01
         -2   -1    0    0    0  501 -0.00000000000E+00  0.00000000000E+00  0.10152908218E+04  0.10152908218E+04  0.00000000000E+00 0.  1.
          1   -1    0    0  501    0  0.00000000000E+00 -0.00000000000E+00 -0.16148560107E+04  0.16148560107E+04  0.00000000000E+00 0. -1.
        -24    2    1    2    0    0 -0.10058539987E+04  0.22774357724E+03 -0.93098617186E+03  0.13918335615E+04  0.82801008722E+02 0.  0.
    5000000    2    1    2    0    0  0.10058539987E+04 -0.22774357724E+03  0.33142098299E+03  0.12383132710E+04  0.59997540407E+03 0.  0.
        -24    2    4    4    0    0  0.91648625915E+03 -0.28845849063E+03  0.44593892422E+03  0.10624389134E+04  0.82216522653E+02 0.  0.
         24    2    4    4    0    0  0.89367739518E+02  0.60714913392E+02 -0.11451794123E+03  0.17587435755E+03  0.78387098465E+02 0.  0.
         11    1    3    3    0    0 -0.65434380230E+03  0.14278614383E+03 -0.55098070573E+03  0.86725626695E+03  0.00000000000E+00 0. -1.
        -12    1    3    3    0    0 -0.35151019637E+03  0.84957433413E+02 -0.38000546613E+03  0.52457729453E+03  0.00000000000E+00 0.  1.
         15    1    5    5    0    0  0.61905109803E+03 -0.16210116452E+03  0.32148754732E+03  0.71614136197E+03  0.17770000000E+01 0. -1.
        -16    1    5    5    0    0  0.29743516112E+03 -0.12635732611E+03  0.12445137690E+03  0.34629755145E+03  0.00000000000E+00 0.  1.
          2    1    6    6  502    0  0.36527184794E+02  0.65477899425E+02 -0.41745789804E+02  0.85815508555E+02  0.00000000000E+00 0. -1.
         -1    1    6    6    0  502  0.52840554724E+02 -0.47629860332E+01 -0.72772151423E+02  0.90058848994E+02  0.00000000000E+00 0.  1.
<mgrwt>
<rscale>  0 0.10612461E+04</rscale>
<asrwt>0</asrwt>
<pdfrwt beam="1">  1        1 0.24843939E+00 0.10612461E+04</pdfrwt>
<pdfrwt beam="2">  1       -2 0.15619859E+00 0.10612461E+04</pdfrwt>
<totfact> 0.12744310E+00</totfact>
</mgrwt>
</event>
<event>
12    3  0.1201947E-007  0.4639622E+03  0.7818608E-02  0.1023638E+00
          1   -1    0    0  501    0  0.00000000000E+00  0.00000000000E+00  0.77241605646E+03  0.77241605646E+03  0.00000000000E+00 0. -1.
         -2   -1    0    0    0  501 -0.00000000000E+00 -0.00000000000E+00 -0.31295312169E+03  0.31295312169E+03  0.00000000000E+00 0.  1.
        -24    2    1    2    0    0  0.12587982754E+03 -0.25512316022E+03  0.25635347301E+03  0.39106959236E+03  0.79276510288E+02 0.  0.
    5000000    2    1    2    0    0 -0.12587982754E+03  0.25512316022E+03  0.20310946176E+03  0.69429958579E+03  0.59988740903E+03 0.  0.
        -24    2    4    4    0    0 -0.34131834914E+03  0.93971392247E+02  0.19755515919E+03  0.41324525872E+03  0.80092227551E+02 0.  0.
         24    2    4    4    0    0  0.21543852160E+03  0.16115176797E+03  0.55543025657E+01  0.28105432707E+03  0.81098924649E+02 0.  0.
         13    1    3    3    0    0  0.32066419838E+02 -0.15209224788E+03  0.14704957891E+03  0.21397169393E+03  0.00000000000E+00 0. -1.
        -14    1    3    3    0    0  0.93813407706E+02 -0.10303091233E+03  0.10930389410E+03  0.17709789842E+03  0.00000000000E+00 0.  1.
         15    1    5    5    0    0 -0.18924549721E+03  0.39314236432E+02  0.15038490603E+03  0.24490456323E+03  0.17770000000E+01 0. -1.
        -16    1    5    5    0    0 -0.15207285193E+03  0.54657155815E+02  0.47170253163E+02  0.16834069550E+03  0.00000000000E+00 0.  1.
          4    1    6    6  502    0  0.19177286648E+02  0.48053173141E+02  0.16407672628E+02  0.54277872961E+02  0.00000000000E+00 0. -1.
         -3    1    6    6    0  502  0.19626123495E+03  0.11309859483E+03 -0.10853370062E+02  0.22677645411E+03  0.00000000000E+00 0.  1.
<mgrwt>
<rscale>  0 0.46396225E+03</rscale>
<asrwt>0</asrwt>
<pdfrwt beam="1">  1        1 0.11883324E+00 0.46396225E+03</pdfrwt>
<pdfrwt beam="2">  1       -2 0.48146634E-01 0.46396225E+03</pdfrwt>
<totfact> 0.87318391E+01</totfact>
</mgrwt>
</event>
<event>
12    3  0.1201947E-007  0.8916346E+03  0.7818608E-02  0.9436099E-01
         -2   -1    0    0    0  501 -0.00000000000E+00  0.00000000000E+00  0.43456945334E+03  0.43456945334E+03  0.00000000000E+00 0.  1.
          1   -1    0    0  501    0  0.00000000000E+00 -0.00000000000E+00 -0.18994939013E+04  0.18994939013E+04  0.00000000000E+00 0. -1.
        -24    2    1    2    0    0 -0.70350776524E+03  0.38551620612E+03 -0.77049707219E+03  0.11151057877E+04  0.79052251747E+02 0.  0.
    5000000    2    1    2    0    0  0.70350776524E+03 -0.38551620612E+03 -0.69442737572E+03  0.12189575669E+04  0.60006853681E+03 0.  0.
        -24    2    4    4    0    0  0.50779526271E+03 -0.52261319129E+03 -0.60697121281E+03  0.95208938942E+03  0.84140214562E+02 0.  0.
         24    2    4    4    0    0  0.19571250253E+03  0.13709698517E+03 -0.87456162905E+02  0.26686817751E+03  0.80443003086E+02 0.  0.
         11    1    3    3    0    0 -0.50932228314E+03  0.24059776942E+03 -0.55671055734E+03  0.79197419112E+03  0.00000000000E+00 0. -1.
        -12    1    3    3    0    0 -0.19418548210E+03  0.14491843670E+03 -0.21378651485E+03  0.32313159655E+03  0.00000000000E+00 0.  1.
         15    1    5    5    0    0  0.36550621727E+03 -0.41400004902E+03 -0.42531221346E+03  0.69705413857E+03  0.17770000000E+01 0. -1.
        -16    1    5    5    0    0  0.14228904545E+03 -0.10861314227E+03 -0.18165899935E+03  0.25503525084E+03  0.00000000000E+00 0.  1.
          2    1    6    6  502    0  0.10644285275E+03  0.11011597859E+03 -0.81334161397E+02  0.17340950220E+03  0.00000000000E+00 0. -1.
         -1    1    6    6    0  502  0.89269649777E+02  0.26981006581E+02 -0.61220015087E+01  0.93458675305E+02  0.00000000000E+00 0.  1.
<mgrwt>
<rscale>  0 0.89163462E+03</rscale>
<asrwt>0</asrwt>
<pdfrwt beam="1">  1        1 0.29222983E+00 0.89163462E+03</pdfrwt>
<pdfrwt beam="2">  1       -2 0.66856839E-01 0.89163462E+03</pdfrwt>
<totfact> 0.64164768E+00</totfact>
</mgrwt>
</event>
<event>
12    3  0.1201947E-007  0.5371985E+03  0.7818608E-02  0.1004501E+00
          1   -1    0    0  501    0  0.00000000000E+00  0.00000000000E+00  0.24709265540E+04  0.24709265540E+04  0.00000000000E+00 0. -1.
         -2   -1    0    0    0  501 -0.00000000000E+00 -0.00000000000E+00 -0.12010362266E+03  0.12010362266E+03  0.00000000000E+00 0.  1.
        -24    2    1    2    0    0  0.20099035860E+03 -0.31380904050E+03  0.90681078308E+03  0.98355478762E+03  0.78746338209E+02 0.  0.
    5000000    2    1    2    0    0 -0.20099035860E+03  0.31380904050E+03  0.14440121482E+04  0.16074753890E+04  0.59994400061E+03 0.  0.
        -24    2    4    4    0    0 -0.38920756500E+03  0.30535784172E+03  0.10063591586E+04  0.11241053710E+04  0.78282749157E+02 0.  0.
         24    2    4    4    0    0  0.18821720639E+03  0.84511987835E+01  0.43765298959E+03  0.48337001799E+03  0.81297573476E+02 0.  0.
         11    1    3    3    0    0  0.67021595994E+02 -0.16104102107E+03  0.35538127064E+03  0.39588123512E+03  0.00000000000E+00 0. -1.
        -12    1    3    3    0    0  0.13396876261E+03 -0.15276801943E+03  0.55142951244E+03  0.58767355250E+03  0.00000000000E+00 0.  1.
         15    1    5    5    0    0 -0.21006167558E+03  0.13909067390E+03  0.58581419523E+03  0.63769393299E+03  0.17770000000E+01 0. -1.
        -16    1    5    5    0    0 -0.17914588942E+03  0.16626716781E+03  0.42054496339E+03  0.48641143801E+03  0.00000000000E+00 0.  1.
          4    1    6    6  502    0  0.82307175598E+02 -0.30208015650E+02  0.24417628822E+03  0.25943988725E+03  0.00000000000E+00 0. -1.
         -3    1    6    6    0  502  0.10591003079E+03  0.38659214433E+02  0.19347670137E+03  0.22393013074E+03  0.00000000000E+00 0.  1.
<mgrwt>
<rscale>  0 0.53719846E+03</rscale>
<asrwt>0</asrwt>
<pdfrwt beam="1">  1        1 0.38014251E+00 0.53719846E+03</pdfrwt>
<pdfrwt beam="2">  1       -2 0.18477482E-01 0.53719846E+03</pdfrwt>
<totfact> 0.32971517E+01</totfact>
</mgrwt>
</event>
<event>
12    3  0.1201947E-007  0.1078727E+04  0.7818608E-02  0.9226177E-01
         -2   -1    0    0    0  501 -0.00000000000E+00  0.00000000000E+00  0.10227782595E+04  0.10227782595E+04  0.00000000000E+00 0.  1.
          1   -1    0    0  501    0  0.00000000000E+00 -0.00000000000E+00 -0.15378560052E+04  0.15378560052E+04  0.00000000000E+00 0. -1.
        -24    2    1    2    0    0  0.10494334071E+04 -0.12261016577E+03  0.29557295632E+03  0.10999916617E+04  0.79212086261E+02 0.  0.
    5000000    2    1    2    0    0 -0.10494334071E+04  0.12261016577E+03 -0.81065070199E+03  0.14606426031E+04  0.59998210359E+03 0.  0.
        -24    2    4    4    0    0 -0.72604067045E+03  0.20711832120E+03 -0.24312525476E+03  0.79714494020E+03  0.79354344916E+02 0.  0.
         24    2    4    4    0    0 -0.32339273660E+03 -0.84508155435E+02 -0.56752544723E+03  0.66349766285E+03  0.80121937920E+02 0.  0.
         11    1    3    3    0    0  0.52022979786E+03 -0.28139405875E+02  0.12186715787E+03  0.53505371031E+03  0.00000000000E+00 0. -1.
        -12    1    3    3    0    0  0.52920360919E+03 -0.94470759894E+02  0.17370579845E+03  0.56493795135E+03  0.00000000000E+00 0.  1.
         15    1    5    5    0    0 -0.55289107205E+03  0.15062224975E+03 -0.14885694273E+03  0.59206177616E+03  0.17770000000E+01 0. -1.
        -16    1    5    5    0    0 -0.17314959841E+03  0.56496071456E+02 -0.94268312030E+02  0.20508316404E+03  0.00000000000E+00 0.  1.
          2    1    6    6  502    0 -0.16708673099E+03 -0.84882692738E+02 -0.30807353990E+03  0.36059999055E+03  0.00000000000E+00 0. -1.
         -1    1    6    6    0  502 -0.15630600561E+03  0.37453730306E+00 -0.25945190733E+03  0.30289767230E+03  0.00000000000E+00 0.  1.
<mgrwt>
<rscale>  0 0.10787274E+04</rscale>
<asrwt>0</asrwt>
<pdfrwt beam="1">  1        1 0.23659323E+00 0.10787274E+04</pdfrwt>
<pdfrwt beam="2">  1       -2 0.15735050E+00 0.10787274E+04</pdfrwt>
<totfact> 0.14078574E+00</totfact>
</mgrwt>
</event>
<event>
12    3  0.1201947E-007  0.7775035E+03  0.7818608E-02  0.9593163E-01
          1   -1    0    0  501    0  0.00000000000E+00  0.00000000000E+00  0.68023787097E+03  0.68023787097E+03  0.00000000000E+00 0. -1.
         -2   -1    0    0    0  501 -0.00000000000E+00 -0.00000000000E+00 -0.12374393397E+04  0.12374393397E+04  0.00000000000E+00 0.  1.
        -24    2    1    2    0    0 -0.51140245509E+03 -0.44718340360E+03  0.22370370649E+03  0.72118306726E+03  0.92499733411E+02 0.  0.
    5000000    2    1    2    0    0  0.51140245509E+03  0.44718340360E+03 -0.78090517525E+03  0.11964941434E+04  0.60023318390E+03 0.  0.
        -24    2    4    4    0    0  0.61715733366E+03  0.37514219783E+03 -0.74641570188E+03  0.10417197401E+04  0.80179635104E+02 0.  0.
         24    2    4    4    0    0 -0.10575487858E+03  0.72041205767E+02 -0.34489473363E+02  0.15477440331E+03  0.79947248084E+02 0.  0.
         13    1    3    3    0    0 -0.48524296093E+03 -0.44635571873E+03  0.21776085436E+03  0.69434425789E+03  0.00000000000E+00 0. -1.
        -14    1    3    3    0    0 -0.26159494160E+02 -0.82768486851E+00  0.59428521289E+01  0.26838809370E+02  0.00000000000E+00 0.  1.
         15    1    5    5    0    0  0.35419475598E+03  0.25343391327E+03 -0.47929931550E+03  0.64762154468E+03  0.17770000000E+01 0. -1.
        -16    1    5    5    0    0  0.26296257768E+03  0.12170828456E+03 -0.26711638638E+03  0.39409819546E+03  0.00000000000E+00 0.  1.
          4    1    6    6  502    0 -0.98395628815E+02  0.84539507802E+02 -0.15159405687E+02  0.13060794666E+03  0.00000000000E+00 0. -1.
         -3    1    6    6    0  502 -0.73592497607E+01 -0.12498302035E+02 -0.19330067676E+02  0.24166456653E+02  0.00000000000E+00 0.  1.
<mgrwt>
<rscale>  0 0.77750346E+03</rscale>
<asrwt>0</asrwt>
<pdfrwt beam="1">  1        1 0.10465198E+00 0.77750346E+03</pdfrwt>
<pdfrwt beam="2">  1       -2 0.19037528E+00 0.77750346E+03</pdfrwt>
<totfact> 0.39257241E+00</totfact>
</mgrwt>
</event>
<event>
12    3  0.1201947E-007  0.6285474E+03  0.7818608E-02  0.9847888E-01
         -2   -1    0    0    0  501 -0.00000000000E+00  0.00000000000E+00  0.93472330843E+03  0.93472330843E+03  0.00000000000E+00 0.  1.
          1   -1    0    0  501    0  0.00000000000E+00 -0.00000000000E+00 -0.94944886846E+03  0.94944886846E+03  0.00000000000E+00 0. -1.
        -24    2    1    2    0    0  0.13636836817E+03 -0.48907208916E+03 -0.68161625831E+03  0.85337110943E+03  0.76509388869E+02 0.  0.
    5000000    2    1    2    0    0 -0.13636836817E+03  0.48907208916E+03  0.66689069828E+03  0.10308010675E+04  0.60001649726E+03 0.  0.
        -24    2    4    4    0    0 -0.16484246456E+03 -0.63435383036E+02  0.53090141130E+02  0.20061519380E+03  0.78935460701E+02 0.  0.
         24    2    4    4    0    0  0.28474096388E+02  0.55250747219E+03  0.61380055715E+03  0.83018587366E+03  0.79888546544E+02 0.  0.
         13    1    3    3    0    0  0.88300723936E+02 -0.19621773473E+03 -0.25444917087E+03  0.33323084765E+03  0.00000000000E+00 0. -1.
        -14    1    3    3    0    0  0.48067644233E+02 -0.29285435442E+03 -0.42716708744E+03  0.52014026177E+03  0.00000000000E+00 0.  1.
         15    1    5    5    0    0 -0.38865300281E+02 -0.44118175065E+02 -0.78528961960E+01  0.59344339618E+02  0.17770000000E+01 0. -1.
        -16    1    5    5    0    0 -0.12597716428E+03 -0.19317207971E+02  0.60943037326E+02  0.14127085418E+03  0.00000000000E+00 0.  1.
          4    1    6    6  502    0  0.53695042148E+02  0.27261498567E+03  0.29731480871E+03  0.40693756700E+03  0.00000000000E+00 0. -1.
         -3    1    6    6    0  502 -0.25220945761E+02  0.27989248652E+03  0.31648574844E+03  0.42324830665E+03  0.00000000000E+00 0.  1.
<mgrwt>
<rscale>  0 0.62854741E+03</rscale>
<asrwt>0</asrwt>
<pdfrwt beam="1">  1        1 0.14606906E+00 0.62854741E+03</pdfrwt>
<pdfrwt beam="2">  1       -2 0.14380359E+00 0.62854741E+03</pdfrwt>
<totfact> 0.50800847E+00</totfact>
</mgrwt>
</event>
<event>
12    3  0.1201947E-007  0.5225514E+03  0.7818608E-02  0.1008055E+00
          1   -1    0    0  501    0  0.00000000000E+00  0.00000000000E+00  0.61866703045E+03  0.61866703045E+03  0.00000000000E+00 0. -1.
         -2   -1    0    0    0  501 -0.00000000000E+00 -0.00000000000E+00 -0.47728497506E+03  0.47728497506E+03  0.00000000000E+00 0.  1.
        -24    2    1    2    0    0  0.46472629296E+02  0.34904665412E+03 -0.71941168252E+02  0.36809833426E+03  0.79546087047E+02 0.  0.
    5000000    2    1    2    0    0 -0.46472629296E+02 -0.34904665412E+03  0.21332322365E+03  0.72785367125E+03  0.60022570503E+03 0.  0.
        -24    2    4    4    0    0 -0.26440708259E+03  0.26409451895E+00  0.76455629629E+02  0.28659522255E+03  0.79876049061E+02 0.  0.
         24    2    4    4    0    0  0.21793445330E+03 -0.34931074864E+03  0.13686759402E+03  0.44125844870E+03  0.80391885226E+02 0.  0.
         11    1    3    3    0    0  0.46565620628E+02  0.13222932876E+03 -0.55097747635E+02  0.15062773384E+03  0.00000000000E+00 0. -1.
        -12    1    3    3    0    0 -0.92991331972E-01  0.21681732536E+03 -0.16843420617E+02  0.21747060041E+03  0.00000000000E+00 0.  1.
         15    1    5    5    0    0 -0.24979040825E+03  0.20844973324E+02  0.65529464478E+02  0.25908884463E+03  0.17770000000E+01 0. -1.
        -16    1    5    5    0    0 -0.14616674337E+02 -0.20580878805E+02  0.10926165151E+02  0.27506377914E+02  0.00000000000E+00 0.  1.
          4    1    6    6  502    0  0.21285664363E+03 -0.34563205483E+03  0.12003219929E+03  0.42329327532E+03  0.00000000000E+00 0. -1.
         -3    1    6    6    0  502  0.50778096673E+01 -0.36786938094E+01  0.16835394724E+02  0.17965173383E+02  0.00000000000E+00 0.  1.
<mgrwt>
<rscale>  0 0.52255144E+03</rscale>
<asrwt>0</asrwt>
<pdfrwt beam="1">  1        1 0.95179544E-01 0.52255144E+03</pdfrwt>
<pdfrwt beam="2">  1       -2 0.73428457E-01 0.52255144E+03</pdfrwt>
<totfact> 0.49840496E+01</totfact>
</mgrwt>
</event>
<event>
12    3  0.1201947E-007  0.5471142E+03  0.7818608E-02  0.1002164E+00
          1   -1    0    0  501    0  0.00000000000E+00  0.00000000000E+00  0.35750155312E+03  0.35750155312E+03  0.00000000000E+00 0. -1.
         -2   -1    0    0    0  501 -0.00000000000E+00 -0.00000000000E+00 -0.12653940098E+04  0.12653940098E+04  0.00000000000E+00 0.  1.
        -24    2    1    2    0    0 -0.41194268781E+03  0.33403286660E+03 -0.45314153078E+03  0.70205618240E+03  0.79189029030E+02 0.  0.
    5000000    2    1    2    0    0  0.41194268781E+03 -0.33403286660E+03 -0.45475092594E+03  0.92083938056E+03  0.59989334565E+03 0.  0.
        -24    2    4    4    0    0  0.33122436876E+03 -0.20974516757E+03  0.36024917569E+02  0.40186892570E+03  0.80611543689E+02 0.  0.
         24    2    4    4    0    0  0.80718319046E+02 -0.12428769903E+03 -0.49077584351E+03  0.51897045487E+03  0.80663035494E+02 0.  0.
         13    1    3    3    0    0 -0.24745413074E+03  0.23288124258E+03 -0.32572298533E+03  0.47070445413E+03  0.00000000000E+00 0. -1.
        -14    1    3    3    0    0 -0.16448855707E+03  0.10115162402E+03 -0.12741854545E+03  0.23135172827E+03  0.00000000000E+00 0.  1.
         15    1    5    5    0    0  0.30531449391E+03 -0.21538703851E+03  0.35722304076E+02  0.37535017954E+03  0.17770000000E+01 0. -1.
        -16    1    5    5    0    0  0.25909874852E+02  0.56418709382E+01  0.30261349340E+00  0.26518746152E+02  0.00000000000E+00 0.  1.
          4    1    6    6  502    0  0.43797215396E+02 -0.11504313109E+03 -0.42988922973E+03  0.44716648792E+03  0.00000000000E+00 0. -1.
         -3    1    6    6    0  502  0.36921103649E+02 -0.92445679407E+01 -0.60886613779E+02  0.71803966942E+02  0.00000000000E+00 0.  1.
<mgrwt>
<rscale>  0 0.54711420E+03</rscale>
<asrwt>0</asrwt>
<pdfrwt beam="1">  1        1 0.55000239E-01 0.54711420E+03</pdfrwt>
<pdfrwt beam="2">  1       -2 0.19467600E+00 0.54711420E+03</pdfrwt>
<totfact> 0.91972122E+00</totfact>
</mgrwt>
</event>
<event>
12    3  0.1201947E-007  0.4775391E+03  0.7818608E-02  0.1019814E+00
          1   -1    0    0  501    0  0.00000000000E+00  0.00000000000E+00  0.18159866690E+04  0.18159866690E+04  0.00000000000E+00 0. -1.
         -2   -1    0    0    0  501 -0.00000000000E+00 -0.00000000000E+00 -0.17622558253E+03  0.17622558253E+03  0.00000000000E+00 0.  1.
        -24    2    1    2    0    0 -0.21117299579E+03 -0.34048071471E+03  0.53977915859E+03  0.67699287701E+03  0.80228824242E+02 0.  0.
    5000000    2    1    2    0    0  0.21117299579E+03  0.34048071471E+03  0.10999819279E+04  0.13152193745E+04  0.59943357447E+03 0.  0.
        -24    2    4    4    0    0  0.29043315421E+03  0.11844724477E+03  0.99234687724E+03  0.10442278075E+04  0.85312498013E+02 0.  0.
         24    2    4    4    0    0 -0.79260158427E+02  0.22203346994E+03  0.10763505063E+03  0.27099156701E+03  0.79183904802E+02 0.  0.
         11    1    3    3    0    0 -0.98913298697E+02 -0.12301423060E+03  0.26993018776E+03  0.31269577524E+03  0.00000000000E+00 0. -1.
        -12    1    3    3    0    0 -0.11225969709E+03 -0.21746648411E+03  0.26984897083E+03  0.36429710177E+03  0.00000000000E+00 0.  1.
         15    1    5    5    0    0  0.17975049687E+03  0.55092923618E+02  0.46262082248E+03  0.49936625285E+03  0.17770000000E+01 0. -1.
        -16    1    5    5    0    0  0.11068265734E+03  0.63354321150E+02  0.52972605476E+03  0.54486155465E+03  0.00000000000E+00 0.  1.
          4    1    6    6  502    0 -0.62019397908E+02  0.19718652005E+03  0.11919672055E+03  0.23861430719E+03  0.00000000000E+00 0. -1.
         -3    1    6    6    0  502 -0.17240760520E+02  0.24846949890E+02 -0.11561669920E+02  0.32377259821E+02  0.00000000000E+00 0.  1.
<mgrwt>
<rscale>  0 0.47753908E+03</rscale>
<asrwt>0</asrwt>
<pdfrwt beam="1">  1        1 0.27938255E+00 0.47753908E+03</pdfrwt>
<pdfrwt beam="2">  1       -2 0.27111629E-01 0.47753908E+03</pdfrwt>
<totfact> 0.46186180E+01</totfact>
</mgrwt>
</event>
<event>
12    3  0.1201947E-007  0.6595157E+03  0.7818608E-02  0.9789086E-01
         -2   -1    0    0    0  501 -0.00000000000E+00  0.00000000000E+00  0.51146603469E+03  0.51146603469E+03  0.00000000000E+00 0.  1.
          1   -1    0    0  501    0  0.00000000000E+00 -0.00000000000E+00 -0.91438178876E+03  0.91438178876E+03  0.00000000000E+00 0. -1.
        -24    2    1    2    0    0 -0.13042572312E+03  0.53305041581E+03 -0.17470738574E+03  0.58136339836E+03  0.79417348727E+02 0.  0.
    5000000    2    1    2    0    0  0.13042572312E+03 -0.53305041581E+03 -0.22820836833E+03  0.84448442508E+03  0.59993438789E+03 0.  0.
        -24    2    4    4    0    0  0.31034327062E+03 -0.16586410557E+03  0.16510714352E+02  0.36150754738E+03  0.81186550536E+02 0.  0.
         24    2    4    4    0    0 -0.17991754751E+03 -0.36718631025E+03 -0.24471908269E+03  0.48297687770E+03  0.78632847028E+02 0.  0.
         13    1    3    3    0    0 -0.37213995981E+02  0.88015629961E+02 -0.58546738813E+02  0.11206852029E+03  0.00000000000E+00 0. -1.
        -14    1    3    3    0    0 -0.93211727135E+02  0.44503478585E+03 -0.11616064692E+03  0.46929487808E+03  0.00000000000E+00 0.  1.
         15    1    5    5    0    0  0.23031299664E+03 -0.13263969272E+03 -0.21981026548E+02  0.26669024685E+03  0.17770000000E+01 0. -1.
        -16    1    5    5    0    0  0.80030273981E+02 -0.33224412843E+02  0.38491740900E+02  0.94817300530E+02  0.00000000000E+00 0.  1.
          4    1    6    6  502    0 -0.85495226310E+02 -0.25901236246E+03 -0.15698937033E+03  0.31471018418E+03  0.00000000000E+00 0. -1.
         -3    1    6    6    0  502 -0.94422321195E+02 -0.10817394779E+03 -0.87729712359E+02  0.16826669353E+03  0.00000000000E+00 0.  1.
<mgrwt>
<rscale>  0 0.65951571E+03</rscale>
<asrwt>0</asrwt>
<pdfrwt beam="1">  1        1 0.14067412E+00 0.65951571E+03</pdfrwt>
<pdfrwt beam="2">  1       -2 0.78687083E-01 0.65951571E+03</pdfrwt>
<totfact> 0.22984392E+01</totfact>
</mgrwt>
</event>
<event>
12    3  0.1201947E-007  0.5875952E+03  0.7818608E-02  0.9931482E-01
          1   -1    0    0  501    0  0.00000000000E+00  0.00000000000E+00  0.22999916090E+04  0.22999916090E+04  0.00000000000E+00 0. -1.
         -2   -1    0    0    0  501 -0.00000000000E+00 -0.00000000000E+00 -0.17925256294E+03  0.17925256294E+03  0.00000000000E+00 0.  1.
        -24    2    1    2    0    0 -0.45939703910E+03  0.44980968090E+02  0.11944035635E+04  0.12830000487E+04  0.80126933323E+02 0.  0.
    5000000    2    1    2    0    0  0.45939703910E+03 -0.44980968090E+02  0.92633548265E+03  0.11962441233E+04  0.59986135826E+03 0.  0.
        -24    2    4    4    0    0  0.28994839709E+03 -0.28161857840E+03  0.32980322579E+03  0.52761694840E+03  0.78932755091E+02 0.  0.
         24    2    4    4    0    0  0.16944864201E+03  0.23663761031E+03  0.59653225686E+03  0.66862717492E+03  0.80631040386E+02 0.  0.
         13    1    3    3    0    0 -0.25542088525E+03 -0.95624198051E+01  0.59844795133E+03  0.65074666264E+03  0.00000000000E+00 0. -1.
        -14    1    3    3    0    0 -0.20397615385E+03  0.54543387895E+02  0.59595561213E+03  0.63225338601E+03  0.00000000000E+00 0.  1.
         15    1    5    5    0    0  0.44823536707E+02 -0.84041710099E+02  0.97815613187E+02  0.13654014205E+03  0.17770000000E+01 0. -1.
        -16    1    5    5    0    0  0.24512486038E+03 -0.19757686830E+03  0.23198761260E+03  0.39107680635E+03  0.00000000000E+00 0.  1.
          4    1    6    6  502    0  0.54197185849E+02  0.13194648447E+03  0.23363755719E+03  0.27374023790E+03  0.00000000000E+00 0. -1.
         -3    1    6    6    0  502  0.11525145616E+03  0.10469112584E+03  0.36289469967E+03  0.39488693701E+03  0.00000000000E+00 0.  1.
<mgrwt>
<rscale>  0 0.58759523E+03</rscale>
<asrwt>0</asrwt>
<pdfrwt beam="1">  1        1 0.35384484E+00 0.58759523E+03</pdfrwt>
<pdfrwt beam="2">  1       -2 0.27577319E-01 0.58759523E+03</pdfrwt>
<totfact> 0.20950340E+01</totfact>
</mgrwt>
</event>
<event>
12    3  0.1201947E-007  0.1064369E+04  0.7818608E-02  0.9240633E-01
         -2   -1    0    0    0  501 -0.00000000000E+00  0.00000000000E+00  0.11280235483E+04  0.11280235483E+04  0.00000000000E+00 0.  1.
          1   -1    0    0  501    0  0.00000000000E+00 -0.00000000000E+00 -0.11743313566E+04  0.11743313566E+04  0.00000000000E+00 0. -1.
        -24    2    1    2    0    0  0.81679511398E+03 -0.55211375178E+03 -0.44038422153E+03  0.10827917957E+04  0.80721478308E+02 0.  0.
    5000000    2    1    2    0    0 -0.81679511398E+03  0.55211375178E+03  0.39407641319E+03  0.12195631093E+04  0.60004508574E+03 0.  0.
        -24    2    4    4    0    0 -0.82945117355E+03  0.29575624719E+03  0.32215006250E+03  0.94147217581E+03  0.84428597065E+02 0.  0.
         24    2    4    4    0    0  0.12656059568E+02  0.25635750459E+03  0.71926350697E+02  0.27809093345E+03  0.79257941833E+02 0.  0.
         11    1    3    3    0    0  0.30237175830E+03 -0.20278788189E+03 -0.12038102937E+03  0.38346212003E+03  0.00000000000E+00 0. -1.
        -12    1    3    3    0    0  0.51442335568E+03 -0.34932586989E+03 -0.32000319216E+03  0.69932967564E+03  0.00000000000E+00 0.  1.
         15    1    5    5    0    0 -0.67304935129E+03  0.26873662163E+03  0.28285196914E+03  0.77796092142E+03  0.17770000000E+01 0. -1.
        -16    1    5    5    0    0 -0.15640182226E+03  0.27019625562E+02  0.39298093352E+02  0.16351125439E+03  0.00000000000E+00 0.  1.
          4    1    6    6  502    0  0.23914633678E+02  0.10781562729E+03  0.66732793905E+02  0.12903249581E+03  0.00000000000E+00 0. -1.
         -3    1    6    6    0  502 -0.11258574110E+02  0.14854187730E+03  0.51935567924E+01  0.14905843765E+03  0.00000000000E+00 0.  1.
<mgrwt>
<rscale>  0 0.10643690E+04</rscale>
<asrwt>0</asrwt>
<pdfrwt beam="1">  1        1 0.18066636E+00 0.10643690E+04</pdfrwt>
<pdfrwt beam="2">  1       -2 0.17354209E+00 0.10643690E+04</pdfrwt>
<totfact> 0.19469394E+00</totfact>
</mgrwt>
</event>
<event>
12    3  0.1201947E-007  0.9311653E+03  0.7818608E-02  0.9387440E-01
         -2   -1    0    0    0  501 -0.00000000000E+00  0.00000000000E+00  0.92694986356E+03  0.92694986356E+03  0.00000000000E+00 0.  1.
          1   -1    0    0  501    0  0.00000000000E+00 -0.00000000000E+00 -0.10557382560E+04  0.10557382560E+04  0.00000000000E+00 0. -1.
        -24    2    1    2    0    0 -0.51793292306E+03  0.70843729696E+03  0.12469929728E+03  0.88997647847E+03  0.79814165311E+02 0.  0.
    5000000    2    1    2    0    0  0.51793292306E+03 -0.70843729696E+03 -0.25348768975E+03  0.10927116411E+04  0.59968725623E+03 0.  0.
        -24    2    4    4    0    0  0.26576434195E+03 -0.66148203317E+03  0.96309853666E+01  0.71727838596E+03  0.78780463476E+02 0.  0.
         24    2    4    4    0    0  0.25216858111E+03 -0.46955263791E+02 -0.26311867512E+03  0.37543325517E+03  0.76973383679E+02 0.  0.
         11    1    3    3    0    0 -0.47548794532E+03  0.60601508888E+03  0.11183880579E+03  0.77836430582E+03  0.00000000000E+00 0. -1.
        -12    1    3    3    0    0 -0.42444977738E+02  0.10242220808E+03  0.12860491489E+02  0.11161217265E+03  0.00000000000E+00 0.  1.
         15    1    5    5    0    0  0.90598408232E+02 -0.27161343881E+03  0.38429387955E+02  0.28889774541E+03  0.17770000000E+01 0. -1.
        -16    1    5    5    0    0  0.17516593372E+03 -0.38986859436E+03 -0.28798402589E+02  0.42838064054E+03  0.00000000000E+00 0.  1.
          2    1    6    6  502    0  0.15236028405E+03  0.96932232869E+01 -0.15993574076E+03  0.22110417433E+03  0.00000000000E+00 0. -1.
         -1    1    6    6    0  502  0.99808297051E+02 -0.56648487078E+02 -0.10318293435E+03  0.15432908083E+03  0.00000000000E+00 0.  1.
<mgrwt>
<rscale>  0 0.93116527E+03</rscale>
<asrwt>0</asrwt>
<pdfrwt beam="1">  1        1 0.16242127E+00 0.93116527E+03</pdfrwt>
<pdfrwt beam="2">  1       -2 0.14260767E+00 0.93116527E+03</pdfrwt>
<totfact> 0.41261440E+00</totfact>
</mgrwt>
</event>
<event>
12    3  0.1201947E-007  0.4497880E+03  0.7818608E-02  0.1027785E+00
         -2   -1    0    0    0  501 -0.00000000000E+00  0.00000000000E+00  0.19594996865E+03  0.19594996865E+03  0.00000000000E+00 0.  1.
          1   -1    0    0  501    0  0.00000000000E+00 -0.00000000000E+00 -0.15329106637E+04  0.15329106637E+04  0.00000000000E+00 0. -1.
        -24    2    1    2    0    0  0.25575682915E+03 -0.12212168802E+02 -0.91100250387E+03  0.94971142929E+03  0.80408607440E+02 0.  0.
    5000000    2    1    2    0    0 -0.25575682915E+03  0.12212168802E+02 -0.42595819116E+03  0.77914920304E+03  0.60006033634E+03 0.  0.
        -24    2    4    4    0    0 -0.43475764845E+03  0.48323131561E+02 -0.23360859106E+03  0.50216607274E+03  0.79047155941E+02 0.  0.
         24    2    4    4    0    0  0.17900081929E+03 -0.36110962759E+02 -0.19234960010E+03  0.27698313030E+03  0.79849801953E+02 0.  0.
         13    1    3    3    0    0  0.46971752808E+02  0.25504511182E+02 -0.24370415661E+03  0.24949657634E+03  0.00000000000E+00 0. -1.
        -14    1    3    3    0    0  0.20878507635E+03 -0.37716679984E+02 -0.66729834726E+03  0.70021485296E+03  0.00000000000E+00 0.  1.
         15    1    5    5    0    0 -0.21814273101E+03  0.27790408008E+02 -0.72957837665E+02  0.23169929148E+03  0.17770000000E+01 0. -1.
        -16    1    5    5    0    0 -0.21661491744E+03  0.20532723553E+02 -0.16065075339E+03  0.27046678125E+03  0.00000000000E+00 0.  1.
          4    1    6    6  502    0  0.83146034546E+02  0.19831355967E+02 -0.10714083192E+03  0.13706094850E+03  0.00000000000E+00 0. -1.
         -3    1    6    6    0  502  0.95854784747E+02 -0.55942318726E+02 -0.85208768184E+02  0.13992218180E+03  0.00000000000E+00 0.  1.
<mgrwt>
<rscale>  0 0.44978799E+03</rscale>
<asrwt>0</asrwt>
<pdfrwt beam="1">  1        1 0.23583240E+00 0.44978799E+03</pdfrwt>
<pdfrwt beam="2">  1       -2 0.30146150E-01 0.44978799E+03</pdfrwt>
<totfact> 0.58999273E+01</totfact>
</mgrwt>
</event>
<event>
12    3  0.1201947E-007  0.1918442E+04  0.7818608E-02  0.8645731E-01
          1   -1    0    0  501    0  0.00000000000E+00  0.00000000000E+00  0.41931680737E+04  0.41931680737E+04  0.00000000000E+00 0. -1.
         -2   -1    0    0    0  501 -0.00000000000E+00 -0.00000000000E+00 -0.11285499432E+04  0.11285499432E+04  0.00000000000E+00 0.  1.
        -24    2    1    2    0    0 -0.18542088303E+04  0.30460415936E+03  0.27386842088E+04  0.33224462502E+04  0.85929098166E+02 0.  0.
    5000000    2    1    2    0    0  0.18542088303E+04 -0.30460415936E+03  0.32593392172E+03  0.19992717667E+04  0.59998382936E+03 0.  0.
        -24    2    4    4    0    0  0.88479630570E+03 -0.41854667210E+03  0.57376170523E+02  0.98369695629E+03  0.79510109723E+02 0.  0.
         24    2    4    4    0    0  0.96941252461E+03  0.11394251274E+03  0.26855775119E+03  0.10155748104E+04  0.80779890728E+02 0.  0.
         11    1    3    3    0    0 -0.21951544002E+03  0.36917878506E+02  0.37570498275E+03  0.43669691117E+03  0.00000000000E+00 0. -1.
        -12    1    3    3    0    0 -0.16346933903E+04  0.26768628085E+03  0.23629792261E+04  0.28857493391E+04  0.00000000000E+00 0.  1.
         15    1    5    5    0    0  0.82448417080E+03 -0.36852729742E+03  0.61841494205E+02  0.90521491646E+03  0.17770000000E+01 0. -1.
        -16    1    5    5    0    0  0.60312134904E+02 -0.50019374676E+02 -0.44653236820E+01  0.78482039826E+02  0.00000000000E+00 0.  1.
          2    1    6    6  502    0  0.71759650380E+03  0.74021132991E+02  0.23328377482E+03  0.75818545883E+03  0.00000000000E+00 0. -1.
         -1    1    6    6    0  502  0.25181602082E+03  0.39921379753E+02  0.35273976371E+02  0.25738935159E+03  0.00000000000E+00 0.  1.
<mgrwt>
<rscale>  0 0.19184419E+04</rscale>
<asrwt>0</asrwt>
<pdfrwt beam="1">  1        1 0.64510277E+00 0.19184419E+04</pdfrwt>
<pdfrwt beam="2">  1       -2 0.17362307E+00 0.19184419E+04</pdfrwt>
<totfact> 0.10269297E-02</totfact>
</mgrwt>
</event>
<event>
12    3  0.1201947E-007  0.9965145E+03  0.7818608E-02  0.9312376E-01
         -2   -1    0    0    0  501 -0.00000000000E+00  0.00000000000E+00  0.15960883825E+04  0.15960883825E+04  0.00000000000E+00 0.  1.
          1   -1    0    0  501    0  0.00000000000E+00 -0.00000000000E+00 -0.68543615664E+03  0.68543615664E+03  0.00000000000E+00 0. -1.
        -24    2    1    2    0    0  0.30777709969E+03 -0.88754090955E+03  0.21242479039E+03  0.96626748071E+03  0.78057308896E+02 0.  0.
    5000000    2    1    2    0    0 -0.30777709969E+03  0.88754090955E+03  0.69822743544E+03  0.13152570584E+04  0.59993663737E+03 0.  0.
        -24    2    4    4    0    0  0.49107299593E+02 -0.92170574660E+01 -0.34414710565E+02  0.10090191715E+03  0.80624708126E+02 0.  0.
         24    2    4    4    0    0 -0.35688439929E+03  0.89675796702E+03  0.73264214600E+03  0.12143551413E+04  0.79703005705E+02 0.  0.
         13    1    3    3    0    0  0.97327904116E+02 -0.18233817481E+03  0.45162907483E+02  0.21156469253E+03  0.00000000000E+00 0. -1.
        -14    1    3    3    0    0  0.21044919558E+03 -0.70520273475E+03  0.16726188290E+03  0.75470278818E+03  0.00000000000E+00 0.  1.
         15    1    5    5    0    0  0.19076526130E+02 -0.36695736642E+02  0.79478967012E+01  0.42152315807E+02  0.17770000000E+01 0. -1.
        -16    1    5    5    0    0  0.30030773463E+02  0.27478679176E+02 -0.42362607266E+02  0.58749601347E+02  0.00000000000E+00 0.  1.
          2    1    6    6  502    0 -0.31238914669E+02  0.15647318745E+03  0.12858043955E+03  0.20492110095E+03  0.00000000000E+00 0. -1.
         -1    1    6    6    0  502 -0.32564548462E+03  0.74028477958E+03  0.60406170645E+03  0.10094340403E+04  0.00000000000E+00 0.  1.
<mgrwt>
<rscale>  0 0.99651453E+03</rscale>
<asrwt>0</asrwt>
<pdfrwt beam="1">  1        1 0.10545172E+00 0.99651453E+03</pdfrwt>
<pdfrwt beam="2">  1       -2 0.24555206E+00 0.99651453E+03</pdfrwt>
<totfact> 0.16899073E+00</totfact>
</mgrwt>
</event>
<event>
12    3  0.1201947E-007  0.6010872E+03  0.7818608E-02  0.9903153E-01
         -2   -1    0    0    0  501 -0.00000000000E+00  0.00000000000E+00  0.34485226424E+03  0.34485226424E+03  0.00000000000E+00 0.  1.
          1   -1    0    0  501    0  0.00000000000E+00 -0.00000000000E+00 -0.18428202185E+04  0.18428202185E+04  0.00000000000E+00 0. -1.
        -24    2    1    2    0    0 -0.57939798801E+03  0.12840666394E+03 -0.11046535572E+04  0.12564679779E+04  0.79132788791E+02 0.  0.
    5000000    2    1    2    0    0  0.57939798801E+03 -0.12840666394E+03 -0.39331439704E+03  0.93120450480E+03  0.60021272478E+03 0.  0.
        -24    2    4    4    0    0  0.36970759805E+03 -0.12995496357E+03  0.79662284625E+02  0.40789685996E+03  0.80385124009E+02 0.  0.
         24    2    4    4    0    0  0.20969038996E+03  0.15482996267E+01 -0.47297668166E+03  0.52330764484E+03  0.78558849750E+02 0.  0.
         11    1    3    3    0    0 -0.25762394615E+03  0.34403592053E+02 -0.55125991056E+03  0.60945975565E+03  0.00000000000E+00 0. -1.
        -12    1    3    3    0    0 -0.32177404186E+03  0.94003071891E+02 -0.55339364664E+03  0.64700822227E+03  0.00000000000E+00 0.  1.
         15    1    5    5    0    0  0.89312536773E+02 -0.50556020094E+02  0.52286030020E+02  0.11519386727E+03  0.17770000000E+01 0. -1.
        -16    1    5    5    0    0  0.28039506128E+03 -0.79398943478E+02  0.27376254605E+02  0.29270299269E+03  0.00000000000E+00 0.  1.
          4    1    6    6  502    0  0.14653432509E+03 -0.16057418683E+02 -0.39393620412E+03  0.42061369693E+03  0.00000000000E+00 0. -1.
         -3    1    6    6    0  502  0.63156064874E+02  0.17605718310E+02 -0.79040477539E+02  0.10269394791E+03  0.00000000000E+00 0.  1.
<mgrwt>
<rscale>  0 0.60108725E+03</rscale>
<asrwt>0</asrwt>
<pdfrwt beam="1">  1        1 0.28351080E+00 0.60108725E+03</pdfrwt>
<pdfrwt beam="2">  1       -2 0.53054196E-01 0.60108725E+03</pdfrwt>
<totfact> 0.11907129E+01</totfact>
</mgrwt>
</event>
<event>
12    3  0.1201947E-007  0.3597813E+03  0.7818608E-02  0.1058671E+00
         -2   -1    0    0    0  501 -0.00000000000E+00  0.00000000000E+00  0.75341596770E+03  0.75341596770E+03  0.00000000000E+00 0.  1.
          1   -1    0    0  501    0  0.00000000000E+00 -0.00000000000E+00 -0.39384200558E+03  0.39384200558E+03  0.00000000000E+00 0. -1.
        -24    2    1    2    0    0 -0.70382030378E+02  0.26391806559E+03 -0.14154145414E+03  0.31914263391E+03  0.84921504888E+02 0.  0.
    5000000    2    1    2    0    0  0.70382030378E+02 -0.26391806559E+03  0.50111541626E+03  0.82811533937E+03  0.60004331455E+03 0.  0.
        -24    2    4    4    0    0  0.19460833082E+03 -0.13476079220E+03 -0.39816341386E+02  0.25283714528E+03  0.79425483649E+02 0.  0.
         24    2    4    4    0    0 -0.12422630045E+03 -0.12915727340E+03  0.54093175765E+03  0.57527819408E+03  0.78892706669E+02 0.  0.
         13    1    3    3    0    0 -0.16215589298E+02  0.20636646155E+03 -0.10176614546E+03  0.23066514724E+03  0.00000000000E+00 0. -1.
        -14    1    3    3    0    0 -0.54166441080E+02  0.57551604047E+02 -0.39775308681E+02  0.88477486675E+02  0.00000000000E+00 0.  1.
         15    1    5    5    0    0  0.15309035972E+03 -0.11725440962E+03 -0.20482532594E+00  0.19284308258E+03  0.17770000000E+01 0. -1.
        -16    1    5    5    0    0  0.41517971101E+02 -0.17506382580E+02 -0.39611516060E+02  0.59994062706E+02  0.00000000000E+00 0.  1.
          2    1    6    6  502    0  0.75539078221E+01 -0.29375736113E+02  0.75412609316E+02  0.81283805517E+02  0.00000000000E+00 0. -1.
         -1    1    6    6    0  502 -0.13178020827E+03 -0.99781537284E+02  0.46551914833E+03  0.49399438857E+03  0.00000000000E+00 0.  1.
<mgrwt>
<rscale>  0 0.35978127E+03</rscale>
<asrwt>0</asrwt>
<pdfrwt beam="1">  1        1 0.60591078E-01 0.35978127E+03</pdfrwt>
<pdfrwt beam="2">  1       -2 0.11591015E+00 0.35978127E+03</pdfrwt>
<totfact> 0.32740140E+01</totfact>
</mgrwt>
</event>
<event>
12    3  0.1201947E-007  0.1207800E+04  0.7818608E-02  0.9106057E-01
         -2   -1    0    0    0  501 -0.00000000000E+00  0.00000000000E+00  0.13709810729E+04  0.13709810729E+04  0.00000000000E+00 0.  1.
          1   -1    0    0  501    0  0.00000000000E+00 -0.00000000000E+00 -0.19126219245E+04  0.19126219245E+04  0.00000000000E+00 0. -1.
        -24    2    1    2    0    0  0.17487672813E+03  0.11631806137E+04 -0.13050517087E+04  0.17583328321E+04  0.70734545302E+02 0.  0.
    5000000    2    1    2    0    0 -0.17487672813E+03 -0.11631806137E+04  0.76341085712E+03  0.15252701652E+04  0.60006827111E+03 0.  0.
        -24    2    4    4    0    0  0.10634525545E+03 -0.43208413126E+03  0.54489355024E+03  0.70804644634E+03  0.80092316993E+02 0.  0.
         24    2    4    4    0    0 -0.28122198358E+03 -0.73109648244E+03  0.21851730689E+03  0.81722371888E+03  0.80727458766E+02 0.  0.
         13    1    3    3    0    0  0.56399751317E+02  0.20518529800E+03 -0.25090765846E+03  0.32899330014E+03  0.00000000000E+00 0. -1.
        -14    1    3    3    0    0  0.11847697681E+03  0.95799531570E+03 -0.10541440503E+04  0.14293395320E+04  0.00000000000E+00 0.  1.
         15    1    5    5    0    0  0.20810894733E+02 -0.23622576091E+03  0.31290979015E+03  0.39262118888E+03  0.17770000000E+01 0. -1.
        -16    1    5    5    0    0  0.85534360718E+02 -0.19585837035E+03  0.23198376009E+03  0.31542525746E+03  0.00000000000E+00 0.  1.
          4    1    6    6  502    0 -0.39830938302E+02 -0.19019168288E+03  0.37952918215E+02  0.19798940347E+03  0.00000000000E+00 0. -1.
         -3    1    6    6    0  502 -0.24139104528E+03 -0.54090479956E+03  0.18056438867E+03  0.61923431541E+03  0.00000000000E+00 0.  1.
<mgrwt>
<rscale>  0 0.12077995E+04</rscale>
<asrwt>0</asrwt>
<pdfrwt beam="1">  1        1 0.29424953E+00 0.12077995E+04</pdfrwt>
<pdfrwt beam="2">  1       -2 0.21092017E+00 0.12077995E+04</pdfrwt>
<totfact> 0.32972616E-01</totfact>
</mgrwt>
</event>
<event>
12    3  0.1201947E-007  0.1085084E+04  0.7818608E-02  0.9219853E-01
         -2   -1    0    0    0  501 -0.00000000000E+00  0.00000000000E+00  0.43991221783E+03  0.43991221783E+03  0.00000000000E+00 0.  1.
          1   -1    0    0  501    0  0.00000000000E+00 -0.00000000000E+00 -0.27867118463E+04  0.27867118463E+04  0.00000000000E+00 0. -1.
        -24    2    1    2    0    0  0.51110425507E+03  0.88549925751E+03 -0.99893969921E+03  0.14316569842E+04  0.80154245548E+02 0.  0.
    5000000    2    1    2    0    0 -0.51110425507E+03 -0.88549925751E+03 -0.13478599293E+04  0.17949670800E+04  0.59986993145E+03 0.  0.
        -24    2    4    4    0    0 -0.54631360624E+03 -0.45188397540E+03 -0.63271147749E+03  0.95378005044E+03  0.81944415845E+02 0.  0.
         24    2    4    4    0    0  0.35209351175E+02 -0.43361528211E+03 -0.71514845180E+03  0.84118702955E+03  0.83044561974E+02 0.  0.
         13    1    3    3    0    0  0.24484569958E+03  0.46230696795E+03 -0.46151407000E+03  0.69761908376E+03  0.00000000000E+00 0. -1.
        -14    1    3    3    0    0  0.26625855549E+03  0.42319228956E+03 -0.53742562921E+03  0.73403790041E+03  0.00000000000E+00 0.  1.
         15    1    5    5    0    0 -0.28314784042E+03 -0.19725282399E+03 -0.26773439382E+03  0.43676794694E+03  0.17770000000E+01 0. -1.
        -16    1    5    5    0    0 -0.26316576582E+03 -0.25463115141E+03 -0.36497708368E+03  0.51701210351E+03  0.00000000000E+00 0.  1.
          2    1    6    6  502    0  0.14760763198E+02 -0.68110794885E+02 -0.66286908907E+02  0.96181676022E+02  0.00000000000E+00 0. -1.
         -3    1    6    6    0  502  0.20448587976E+02 -0.36550448723E+03 -0.64886154290E+03  0.74500535353E+03  0.00000000000E+00 0.  1.
<mgrwt>
<rscale>  0 0.10850843E+04</rscale>
<asrwt>0</asrwt>
<pdfrwt beam="1">  1        1 0.42872490E+00 0.10850843E+04</pdfrwt>
<pdfrwt beam="2">  1       -2 0.67678803E-01 0.10850843E+04</pdfrwt>
<totfact> 0.15093059E+00</totfact>
</mgrwt>
</event>
<event>
12    3  0.1201947E-007  0.1092348E+04  0.7818608E-02  0.9212682E-01
          1   -1    0    0  501    0  0.00000000000E+00  0.00000000000E+00  0.16676449927E+04  0.16676449927E+04  0.00000000000E+00 0. -1.
         -2   -1    0    0    0  501 -0.00000000000E+00 -0.00000000000E+00 -0.10762217654E+04  0.10762217654E+04  0.00000000000E+00 0.  1.
        -24    2    1    2    0    0 -0.10290438598E+02 -0.10883417325E+04 -0.39141515740E+03  0.11594455522E+04  0.80712720331E+02 0.  0.
    5000000    2    1    2    0    0  0.10290438598E+02  0.10883417325E+04  0.98283838467E+03  0.15844212059E+04  0.59985468862E+03 0.  0.
        -24    2    4    4    0    0 -0.15150361642E+02  0.69855477599E+03  0.95268032151E+03  0.11847581058E+04  0.88564472527E+02 0.  0.
         24    2    4    4    0    0  0.25440800240E+02  0.38978695649E+03  0.30158063160E+02  0.39966310005E+03  0.78993537757E+02 0.  0.
         13    1    3    3    0    0 -0.12134561688E+02 -0.41134935077E+03 -0.18888071640E+03  0.45280399843E+03  0.00000000000E+00 0. -1.
        -14    1    3    3    0    0  0.18441230896E+01 -0.67699238170E+03 -0.20253444100E+03  0.70664155373E+03  0.00000000000E+00 0.  1.
         15    1    5    5    0    0  0.15412838260E+02  0.95697499953E+02  0.17776964985E+03  0.20248647663E+03  0.17770000000E+01 0. -1.
        -16    1    5    5    0    0 -0.30563199901E+02  0.60285727603E+03  0.77491067165E+03  0.98227162918E+03  0.00000000000E+00 0.  1.
          4    1    6    6  502    0  0.46303541132E+02  0.28710591147E+03  0.68073249972E+00  0.29081658433E+03  0.00000000000E+00 0. -1.
         -3    1    6    6    0  502 -0.20862740893E+02  0.10268104502E+03  0.29477330660E+02  0.10884651573E+03  0.00000000000E+00 0.  1.
<mgrwt>
<rscale>  0 0.10923483E+04</rscale>
<asrwt>0</asrwt>
<pdfrwt beam="1">  1        1 0.25656077E+00 0.10923483E+04</pdfrwt>
<pdfrwt beam="2">  1       -2 0.16557258E+00 0.10923483E+04</pdfrwt>
<totfact> 0.99631138E-01</totfact>
</mgrwt>
</event>
<event>
12    3  0.1201947E-007  0.4765500E+03  0.7818608E-02  0.1020088E+00
         -2   -1    0    0    0  501 -0.00000000000E+00  0.00000000000E+00  0.29310306120E+03  0.29310306120E+03  0.00000000000E+00 0.  1.
          1   -1    0    0  501    0  0.00000000000E+00 -0.00000000000E+00 -0.19136313137E+04  0.19136313137E+04  0.00000000000E+00 0. -1.
        -24    2    1    2    0    0  0.29278658418E+03  0.52557464739E+01  0.13292170681E+03  0.33047733479E+03  0.76128062637E+02 0.  0.
    5000000    2    1    2    0    0 -0.29278658418E+03 -0.52557464739E+01 -0.17534499593E+04  0.18762570401E+04  0.60000176168E+03 0.  0.
        -24    2    4    4    0    0  0.13647496006E+03  0.13482044308E+03 -0.61314081646E+03  0.64730820641E+03  0.79147246792E+02 0.  0.
         24    2    4    4    0    0 -0.42926154425E+03 -0.14007618955E+03 -0.11403091428E+04  0.12289488337E+04  0.78252682693E+02 0.  0.
         11    1    3    3    0    0  0.18659674510E+03  0.39894418861E+02  0.86935459265E+02  0.20968472528E+03  0.00000000000E+00 0. -1.
        -12    1    3    3    0    0  0.10618983908E+03 -0.34638672387E+02  0.45986247541E+02  0.12079260951E+03  0.00000000000E+00 0.  1.
         15    1    5    5    0    0  0.98237704202E+02  0.64649874230E+02 -0.45717328156E+03  0.47206018670E+03  0.17770000000E+01 0. -1.
        -16    1    5    5    0    0  0.38237255862E+02  0.70170568850E+02 -0.15596753490E+03  0.17524801971E+03  0.00000000000E+00 0.  1.
          2    1    6    6  502    0 -0.96186759531E+02 -0.47977952746E+02 -0.35623033776E+03  0.37209384595E+03  0.00000000000E+00 0. -1.
         -1    1    6    6    0  502 -0.33307478472E+03 -0.92098236809E+02 -0.78407880508E+03  0.85685498774E+03  0.00000000000E+00 0.  1.
<mgrwt>
<rscale>  0 0.47655005E+03</rscale>
<asrwt>0</asrwt>
<pdfrwt beam="1">  1        1 0.29440483E+00 0.47655005E+03</pdfrwt>
<pdfrwt beam="2">  1       -2 0.45092777E-01 0.47655005E+03</pdfrwt>
<totfact> 0.15204008E+01</totfact>
</mgrwt>
</event>
<event>
12    3  0.1201947E-007  0.8798988E+03  0.7818608E-02  0.9451064E-01
          1   -1    0    0  501    0  0.00000000000E+00  0.00000000000E+00  0.10276527644E+04  0.10276527644E+04  0.00000000000E+00 0. -1.
         -2   -1    0    0    0  501 -0.00000000000E+00 -0.00000000000E+00 -0.89279351153E+03  0.89279351153E+03  0.00000000000E+00 0.  1.
        -24    2    1    2    0    0 -0.68397997441E+03  0.43133894571E+03 -0.23705551603E+03  0.84708981225E+03  0.86509773199E+02 0.  0.
    5000000    2    1    2    0    0  0.68397997441E+03 -0.43133894571E+03  0.37191476895E+03  0.10733564637E+04  0.59990966936E+03 0.  0.
        -24    2    4    4    0    0  0.29396992630E+03  0.72090770845E+02 -0.36457110351E+02  0.31277530517E+03  0.69884718077E+02 0.  0.
         24    2    4    4    0    0  0.39001004811E+03 -0.50342971655E+03  0.40837187930E+03  0.76058115856E+03  0.78528910693E+02 0.  0.
         11    1    3    3    0    0 -0.64550328032E+03  0.40076387640E+03 -0.20039338736E+03  0.78577584540E+03  0.00000000000E+00 0. -1.
        -12    1    3    3    0    0 -0.38476694091E+02  0.30575069310E+02 -0.36662128667E+02  0.61313966842E+02  0.00000000000E+00 0.  1.
         15    1    5    5    0    0  0.29562980851E+03  0.65993182683E+02 -0.39983126257E+02  0.30553869142E+03  0.17770000000E+01 0. -1.
        -16    1    5    5    0    0 -0.16598822153E+01  0.60975881617E+01  0.35260159064E+01  0.72366137475E+01  0.00000000000E+00 0.  1.
          4    1    6    6  502    0  0.31088525422E+03 -0.34414653574E+03  0.29225954864E+03  0.54818073947E+03  0.00000000000E+00 0. -1.
         -3    1    6    6    0  502  0.79124793892E+02 -0.15928318081E+03  0.11611233066E+03  0.21240041909E+03  0.00000000000E+00 0.  1.
<mgrwt>
<rscale>  0 0.87989876E+03</rscale>
<asrwt>0</asrwt>
<pdfrwt beam="1">  1        1 0.15810043E+00 0.87989876E+03</pdfrwt>
<pdfrwt beam="2">  1       -2 0.13735285E+00 0.87989876E+03</pdfrwt>
<totfact> 0.48082439E+00</totfact>
</mgrwt>
</event>
<event>
12    3  0.1201947E-007  0.4966802E+03  0.7818608E-02  0.1014649E+00
          1   -1    0    0  501    0  0.00000000000E+00  0.00000000000E+00  0.73317919158E+03  0.73317919158E+03  0.00000000000E+00 0. -1.
         -2   -1    0    0    0  501 -0.00000000000E+00 -0.00000000000E+00 -0.35075118064E+03  0.35075118064E+03  0.00000000000E+00 0.  1.
        -24    2    1    2    0    0 -0.26320930024E+03 -0.18594082312E+03  0.14786918146E+03  0.36361417916E+03  0.80603045989E+02 0.  0.
    5000000    2    1    2    0    0  0.26320930024E+03  0.18594082312E+03  0.23455882948E+03  0.72031619305E+03  0.59998703990E+03 0.  0.
        -24    2    4    4    0    0  0.42887394759E+03  0.22564845696E+03  0.14268364792E+03  0.51130052017E+03  0.78863866815E+02 0.  0.
         24    2    4    4    0    0 -0.16566464735E+03 -0.39707633839E+02  0.91875181558E+02  0.20901567289E+03  0.78898865393E+02 0.  0.
         11    1    3    3    0    0 -0.10546021097E+03 -0.47710857540E+02  0.88271213479E+02  0.14556781634E+03  0.00000000000E+00 0. -1.
        -12    1    3    3    0    0 -0.15774908928E+03 -0.13822996558E+03  0.59597967978E+02  0.21804636282E+03  0.00000000000E+00 0.  1.
         15    1    5    5    0    0  0.12519692793E+03  0.71132501434E+02  0.80397125564E+02  0.16492713255E+03  0.17770000000E+01 0. -1.
        -16    1    5    5    0    0  0.30367701966E+03  0.15451595553E+03  0.62286522360E+02  0.34637338762E+03  0.00000000000E+00 0.  1.
          2    1    6    6  502    0 -0.74169054281E+02  0.16190220885E+02  0.61149886711E+02  0.97480667366E+02  0.00000000000E+00 0. -1.
         -1    1    6    6    0  502 -0.91495593066E+02 -0.55897854724E+02  0.30725294847E+02  0.11153500552E+03  0.00000000000E+00 0.  1.
<mgrwt>
<rscale>  0 0.49668018E+03</rscale>
<asrwt>0</asrwt>
<pdfrwt beam="1">  1        1 0.11279680E+00 0.49668018E+03</pdfrwt>
<pdfrwt beam="2">  1       -2 0.53961720E-01 0.49668018E+03</pdfrwt>
<totfact> 0.74784050E+01</totfact>
</mgrwt>
</event>
<event>
12    3  0.1201947E-007  0.7055442E+03  0.7818608E-02  0.9707798E-01
          1   -1    0    0  501    0  0.00000000000E+00  0.00000000000E+00  0.84051330480E+03  0.84051330480E+03  0.00000000000E+00 0. -1.
         -2   -1    0    0    0  501 -0.00000000000E+00 -0.00000000000E+00 -0.75378624391E+03  0.75378624391E+03  0.00000000000E+00 0.  1.
        -24    2    1    2    0    0 -0.48789162665E+03 -0.47398505642E+03  0.47516643372E+02  0.68647322094E+03  0.79294253296E+02 0.  0.
    5000000    2    1    2    0    0  0.48789162665E+03  0.47398505642E+03  0.39210417517E+02  0.90782632777E+03  0.59992592166E+03 0.  0.
        -24    2    4    4    0    0  0.48571808683E+03  0.39517901690E+03  0.24581453436E+03  0.67722556175E+03  0.78237848377E+02 0.  0.
         24    2    4    4    0    0  0.21735398139E+01  0.78806039526E+02 -0.20660411684E+03  0.23060076601E+03  0.65393700373E+02 0.  0.
         11    1    3    3    0    0 -0.28012885935E+03 -0.21779886100E+03  0.17510731570E+02  0.35526771231E+03  0.00000000000E+00 0. -1.
        -12    1    3    3    0    0 -0.20776276730E+03 -0.25618619543E+03  0.30005911802E+02  0.33120550863E+03  0.00000000000E+00 0.  1.
         15    1    5    5    0    0  0.15567192097E+03  0.15078239823E+03  0.11983761060E+03  0.24765558592E+03  0.17770000000E+01 0. -1.
        -16    1    5    5    0    0  0.33004616587E+03  0.24439661867E+03  0.12597692376E+03  0.42956997583E+03  0.00000000000E+00 0.  1.
          2    1    6    6  502    0 -0.24330174757E+02  0.12008929958E+02 -0.86327494585E+02  0.90490928406E+02  0.00000000000E+00 0. -1.
         -1    1    6    6    0  502  0.26503714570E+02  0.66797109568E+02 -0.12027662226E+03  0.14010983761E+03  0.00000000000E+00 0.  1.
<mgrwt>
<rscale>  0 0.70554417E+03</rscale>
<asrwt>0</asrwt>
<pdfrwt beam="1">  1        1 0.12930974E+00 0.70554417E+03</pdfrwt>
<pdfrwt beam="2">  1       -2 0.11596711E+00 0.70554417E+03</pdfrwt>
<totfact> 0.10610650E+01</totfact>
</mgrwt>
</event>
<event>
12    3  0.1201947E-007  0.1268788E+04  0.7818608E-02  0.9054689E-01
          3   -1    0    0  501    0  0.00000000000E+00  0.00000000000E+00  0.22899296607E+04  0.22899296607E+04  0.00000000000E+00 0. -1.
         -4   -1    0    0    0  501 -0.00000000000E+00 -0.00000000000E+00 -0.10150831508E+04  0.10150831508E+04  0.00000000000E+00 0.  1.
        -24    2    1    2    0    0  0.70990565967E+03 -0.97800635992E+03  0.15097619469E+04  0.19354908681E+04  0.79254516839E+02 0.  0.
    5000000    2    1    2    0    0 -0.70990565967E+03  0.97800635992E+03 -0.23491543702E+03  0.13695219434E+04  0.59995216918E+03 0.  0.
        -24    2    4    4    0    0  0.50367871341E+02  0.30614346271E+03 -0.13946683766E+03  0.34739709898E+03  0.70519524573E+02 0.  0.
         24    2    4    4    0    0 -0.76027353101E+03  0.67186289720E+03 -0.95448599364E+02  0.10221248444E+04  0.78823650785E+02 0.  0.
         13    1    3    3    0    0  0.69133044560E+03 -0.92801272548E+03  0.14306915011E+04  0.18401150983E+04  0.00000000000E+00 0. -1.
        -14    1    3    3    0    0  0.18575214069E+02 -0.49993634438E+02  0.79070445818E+02  0.95375769794E+02  0.00000000000E+00 0.  1.
         15    1    5    5    0    0  0.52932024901E+02  0.29821761827E+03 -0.11921880279E+03  0.32550242360E+03  0.17770000000E+01 0. -1.
        -16    1    5    5    0    0 -0.25641535593E+01  0.79258444473E+01 -0.20248034868E+02  0.21894675373E+02  0.00000000000E+00 0.  1.
          4    1    6    6  502    0 -0.36483505702E+03  0.35553482191E+03 -0.78613072784E+02  0.51545091293E+03  0.00000000000E+00 0. -1.
         -3    1    6    6    0  502 -0.39543847399E+03  0.31632807529E+03 -0.16835526581E+02  0.50667393152E+03  0.00000000000E+00 0.  1.
<mgrwt>
<rscale>  0 0.12687884E+04</rscale>
<asrwt>0</asrwt>
<pdfrwt beam="1">  1        3 0.35229687E+00 0.12687884E+04</pdfrwt>
<pdfrwt beam="2">  1       -4 0.15616664E+00 0.12687884E+04</pdfrwt>
<totfact> 0.11559824E-02</totfact>
</mgrwt>
</event>
<event>
12    3  0.1201947E-007  0.1006840E+04  0.7818608E-02  0.9301074E-01
         -2   -1    0    0    0  501 -0.00000000000E+00  0.00000000000E+00  0.43513799220E+03  0.43513799220E+03  0.00000000000E+00 0.  1.
          1   -1    0    0  501    0  0.00000000000E+00 -0.00000000000E+00 -0.24860619884E+04  0.24860619884E+04  0.00000000000E+00 0. -1.
        -24    2    1    2    0    0 -0.80690933051E+03 -0.45721066356E+03 -0.12410780775E+04  0.15514952149E+04  0.81965533758E+02 0.  0.
    5000000    2    1    2    0    0  0.80690933051E+03  0.45721066356E+03 -0.80984591864E+03  0.13697047657E+04  0.60008039019E+03 0.  0.
        -24    2    4    4    0    0  0.74712887106E+03  0.15265604772E+03 -0.45392433074E+03  0.89083721668E+03  0.77706046741E+02 0.  0.
         24    2    4    4    0    0  0.59780459454E+02  0.30455461584E+03 -0.35592158790E+03  0.47886754902E+03  0.79414957076E+02 0.  0.
         13    1    3    3    0    0 -0.12959656945E+03 -0.40712620825E+02 -0.17360599407E+03  0.22043554496E+03  0.00000000000E+00 0. -1.
        -14    1    3    3    0    0 -0.67731276107E+03 -0.41649804274E+03 -0.10674720835E+04  0.13310596699E+04  0.00000000000E+00 0.  1.
         15    1    5    5    0    0  0.22995014467E+03  0.39076708077E+02 -0.99050870609E+02  0.25341328072E+03  0.17770000000E+01 0. -1.
        -16    1    5    5    0    0  0.51717872639E+03  0.11357933964E+03 -0.35487346014E+03  0.63742393596E+03  0.00000000000E+00 0.  1.
          4    1    6    6  502    0 -0.18928975852E+02  0.71880449220E+02 -0.72724345659E+02  0.10399007433E+03  0.00000000000E+00 0. -1.
         -3    1    6    6    0  502  0.78709435305E+02  0.23267416662E+03 -0.28319724224E+03  0.37487747469E+03  0.00000000000E+00 0.  1.
<mgrwt>
<rscale>  0 0.10068403E+04</rscale>
<asrwt>0</asrwt>
<pdfrwt beam="1">  1        1 0.38247107E+00 0.10068403E+04</pdfrwt>
<pdfrwt beam="2">  1       -2 0.66944307E-01 0.10068403E+04</pdfrwt>
<totfact> 0.25279158E+00</totfact>
</mgrwt>
</event>
<event>
12    3  0.1201947E-007  0.8464777E+03  0.7818608E-02  0.9495077E-01
         -2   -1    0    0    0  501 -0.00000000000E+00  0.00000000000E+00  0.26931905767E+03  0.26931905767E+03  0.00000000000E+00 0.  1.
          1   -1    0    0  501    0  0.00000000000E+00 -0.00000000000E+00 -0.28015864678E+04  0.28015864678E+04  0.00000000000E+00 0. -1.
        -24    2    1    2    0    0  0.62013372326E+03  0.41549838661E+03 -0.13937920864E+04  0.15831503757E+04  0.80647307238E+02 0.  0.
    5000000    2    1    2    0    0 -0.62013372326E+03 -0.41549838661E+03 -0.11384753237E+04  0.14877551497E+04  0.60007047814E+03 0.  0.
        -24    2    4    4    0    0 -0.61949210628E+03 -0.52300548640E+03 -0.89882299196E+03  0.12130471696E+04  0.79343910664E+02 0.  0.
         24    2    4    4    0    0 -0.64161697860E+00  0.10750709980E+03 -0.23965233177E+03  0.27470798014E+03  0.80455242532E+02 0.  0.
         13    1    3    3    0    0  0.29209566801E+03  0.21619579849E+03 -0.75506444972E+03  0.83796349908E+03  0.00000000000E+00 0. -1.
        -14    1    3    3    0    0  0.32803805525E+03  0.19930258812E+03 -0.63872763665E+03  0.74518687666E+03  0.00000000000E+00 0.  1.
         15    1    5    5    0    0 -0.25770266437E+03 -0.23964025644E+03 -0.33739940953E+03  0.48752398403E+03  0.17770000000E+01 0. -1.
        -16    1    5    5    0    0 -0.36178944191E+03 -0.28336522996E+03 -0.56142358243E+03  0.72552318553E+03  0.00000000000E+00 0.  1.
          2    1    6    6  502    0  0.27033336191E+02  0.10265925632E+03 -0.18731087692E+03  0.21530231951E+03  0.00000000000E+00 0. -1.
         -1    1    6    6    0  502 -0.27674953170E+02  0.48478434808E+01 -0.52341454850E+02  0.59405660632E+02  0.00000000000E+00 0.  1.
<mgrwt>
<rscale>  0 0.84647769E+03</rscale>
<asrwt>0</asrwt>
<pdfrwt beam="1">  1        1 0.43101330E+00 0.84647769E+03</pdfrwt>
<pdfrwt beam="2">  1       -2 0.41433702E-01 0.84647769E+03</pdfrwt>
<totfact> 0.42077016E+00</totfact>
</mgrwt>
</event>
<event>
12    3  0.1201947E-007  0.1558453E+04  0.7818608E-02  0.8846487E-01
         -2   -1    0    0    0  501 -0.00000000000E+00  0.00000000000E+00  0.31165955621E+04  0.31165955621E+04  0.00000000000E+00 0.  1.
          1   -1    0    0  501    0  0.00000000000E+00 -0.00000000000E+00 -0.13197191500E+04  0.13197191500E+04  0.00000000000E+00 0. -1.
        -24    2    1    2    0    0  0.30012923078E+03 -0.15258516967E+04  0.22248559768E+04  0.27156539342E+04  0.80568090386E+02 0.  0.
    5000000    2    1    2    0    0 -0.30012923078E+03  0.15258516967E+04 -0.42797956474E+03  0.17206607779E+04  0.59933800919E+03 0.  0.
        -24    2    4    4    0    0 -0.21545126446E+03  0.99160637012E+03  0.13766658256E+02  0.10178402467E+04  0.78146057816E+02 0.  0.
         24    2    4    4    0    0 -0.84677966319E+02  0.53424532662E+03 -0.44174622300E+03  0.70282053120E+03  0.78921141375E+02 0.  0.
         11    1    3    3    0    0  0.18458370245E+03 -0.73037624704E+03  0.10711599038E+04  0.13095434873E+04  0.00000000000E+00 0. -1.
        -12    1    3    3    0    0  0.11554552833E+03 -0.79547544970E+03  0.11536960730E+04  0.14061104469E+04  0.00000000000E+00 0.  1.
         15    1    5    5    0    0 -0.13363786175E+03  0.43291404557E+03  0.28415155587E+01  0.45308374599E+03  0.17770000000E+01 0. -1.
        -16    1    5    5    0    0 -0.81813402717E+02  0.55869232456E+03  0.10925142698E+02  0.56475650074E+03  0.00000000000E+00 0.  1.
          2    1    6    6  502    0 -0.79957690285E+01  0.14895199965E+03 -0.82411830793E+02  0.17041813394E+03  0.00000000000E+00 0. -1.
         -1    1    6    6    0  502 -0.76682197290E+02  0.38529332697E+03 -0.35933439221E+03  0.53240239726E+03  0.00000000000E+00 0.  1.
<mgrwt>
<rscale>  0 0.15584525E+04</rscale>
<asrwt>0</asrwt>
<pdfrwt beam="1">  1        1 0.20303372E+00 0.15584525E+04</pdfrwt>
<pdfrwt beam="2">  1       -2 0.47947624E+00 0.15584525E+04</pdfrwt>
<totfact> 0.15955800E-02</totfact>
</mgrwt>
</event>
<event>
12    3  0.2144594E-007  0.8227758E+03  0.7818608E-02  0.9527623E-01
          1   -1    0    0  501    0  0.00000000000E+00  0.00000000000E+00  0.16700365964E+04  0.16700365964E+04  0.00000000000E+00 0. -1.
         -2   -1    0    0    0  501 -0.00000000000E+00 -0.00000000000E+00 -0.43760873381E+03  0.43760873381E+03  0.00000000000E+00 0.  1.
        -24    2    1    2    0    0 -0.68286154210E+03  0.29794489299E+03  0.47090804162E+03  0.88496968317E+03  0.79661229719E+02 0.  0.
    5000000    2    1    2    0    0  0.68286154210E+03 -0.29794489299E+03  0.76151982099E+03  0.12226756471E+04  0.59996021134E+03 0.  0.
        -24    2    4    4    0    0  0.66688151091E+03 -0.85882518707E+02  0.72645503846E+03  0.99312936720E+03  0.80388186254E+02 0.  0.
         24    2    4    4    0    0  0.15980031195E+02 -0.21206237429E+03  0.35064782530E+02  0.22954627985E+03  0.78969257517E+02 0.  0.
         13    1    3    3    0    0 -0.28725219441E+03  0.16842626465E+03  0.21232728236E+03  0.39492290976E+03  0.00000000000E+00 0. -1.
        -14    1    3    3    0    0 -0.39560934769E+03  0.12951862834E+03  0.25858075926E+03  0.49004677341E+03  0.00000000000E+00 0.  1.
         15    1    5    5    0    0  0.33763933664E+03 -0.21778507258E+02  0.31503936571E+03  0.46230680798E+03  0.17770000000E+01 0. -1.
        -16    1    5    5    0    0  0.32924217426E+03 -0.64104011449E+02  0.41141567275E+03  0.53082255923E+03  0.00000000000E+00 0.  1.
          2    1    6    6  502    0 -0.25613682437E+02 -0.72410068451E+02 -0.89562398620E+01  0.77327181337E+02  0.00000000000E+00 0. -1.
         -1    1    6    6    0  502  0.41593713632E+02 -0.13965230584E+03  0.44021022392E+02  0.15221909851E+03  0.00000000000E+00 0.  1.
<mgrwt>
<rscale>  0 0.82277580E+03</rscale>
<asrwt>0</asrwt>
<pdfrwt beam="1">  1        1 0.25692870E+00 0.82277580E+03</pdfrwt>
<pdfrwt beam="2">  1       -2 0.67324421E-01 0.82277580E+03</pdfrwt>
<totfact> 0.90995025E+00</totfact>
</mgrwt>
</event>
<event>
12    3  0.1201947E-007  0.4537825E+03  0.7818608E-02  0.1026600E+00
          1   -1    0    0  501    0  0.00000000000E+00  0.00000000000E+00  0.66170122067E+03  0.66170122067E+03  0.00000000000E+00 0. -1.
         -2   -1    0    0    0  501 -0.00000000000E+00 -0.00000000000E+00 -0.86493181162E+03  0.86493181162E+03  0.00000000000E+00 0.  1.
        -24    2    1    2    0    0  0.14174794184E+03  0.22896059936E+03  0.49385369827E+03  0.56826748956E+03  0.80752890465E+02 0.  0.
    5000000    2    1    2    0    0 -0.14174794184E+03 -0.22896059936E+03 -0.69708428922E+03  0.95836554274E+03  0.60001880984E+03 0.  0.
        -24    2    4    4    0    0  0.18718392455E+03 -0.22403492197E+03 -0.22386840272E+03  0.37638355211E+03  0.79486154063E+02 0.  0.
         24    2    4    4    0    0 -0.32893186639E+03 -0.49256773914E+01 -0.47321588650E+03  0.58198199063E+03  0.80927913338E+02 0.  0.
         13    1    3    3    0    0  0.54882515924E+02  0.11145208567E+03  0.30609405083E+03  0.33034410227E+03  0.00000000000E+00 0. -1.
        -14    1    3    3    0    0  0.86865425914E+02  0.11750851369E+03  0.18775964744E+03  0.23792338728E+03  0.00000000000E+00 0.  1.
         15    1    5    5    0    0  0.49124440830E+02 -0.21364206714E+02 -0.64758087381E+02  0.84061927325E+02  0.17770000000E+01 0. -1.
        -16    1    5    5    0    0  0.13805948372E+03 -0.20267071526E+03 -0.15911031534E+03  0.29232162478E+03  0.00000000000E+00 0.  1.
          2    1    6    6  502    0 -0.22174787438E+03  0.34012059585E+02 -0.32689180448E+03  0.39646839953E+03  0.00000000000E+00 0. -1.
         -1    1    6    6    0  502 -0.10718399202E+03 -0.38937736976E+02 -0.14632408202E+03  0.18551359111E+03  0.00000000000E+00 0.  1.
<mgrwt>
<rscale>  0 0.45378254E+03</rscale>
<asrwt>0</asrwt>
<pdfrwt beam="1">  1        1 0.10180019E+00 0.45378254E+03</pdfrwt>
<pdfrwt beam="2">  1       -2 0.13306643E+00 0.45378254E+03</pdfrwt>
<totfact> 0.11289214E+01</totfact>
</mgrwt>
</event>
<event>
12    3  0.1201947E-007  0.4266405E+03  0.7818608E-02  0.1034926E+00
          1   -1    0    0  501    0  0.00000000000E+00  0.00000000000E+00  0.14760165691E+04  0.14760165691E+04  0.00000000000E+00 0. -1.
         -2   -1    0    0    0  501 -0.00000000000E+00 -0.00000000000E+00 -0.20014336654E+03  0.20014336654E+03  0.00000000000E+00 0.  1.
        -24    2    1    2    0    0 -0.10576560475E+03  0.32800052150E+03  0.22971671729E+03  0.42189030273E+03  0.80317819182E+02 0.  0.
    5000000    2    1    2    0    0  0.10576560475E+03 -0.32800052150E+03  0.10461564853E+04  0.12542696329E+04  0.59998184565E+03 0.  0.
        -24    2    4    4    0    0  0.16980812010E+03 -0.10115873794E+02  0.37998615174E+02  0.19220414744E+03  0.81002536888E+02 0.  0.
         24    2    4    4    0    0 -0.64042515351E+02 -0.31788464771E+03  0.10081578701E+04  0.10620654855E+04  0.80303868929E+02 0.  0.
         13    1    3    3    0    0 -0.10030567722E+03  0.23109806760E+03  0.13303305140E+03  0.28489531146E+03  0.00000000000E+00 0. -1.
        -14    1    3    3    0    0 -0.54599275356E+01  0.96902453907E+02  0.96683665889E+02  0.13699499126E+03  0.00000000000E+00 0.  1.
         15    1    5    5    0    0  0.10977822584E+03 -0.35268835821E+01  0.63238358518E+02  0.12675151081E+03  0.17770000000E+01 0. -1.
        -16    1    5    5    0    0  0.60029894262E+02 -0.65889902119E+01 -0.25239743344E+02  0.65452636626E+02  0.00000000000E+00 0.  1.
          2    1    6    6  502    0 -0.83135369232E+02 -0.26990834278E+03  0.84940653556E+03  0.89512762541E+03  0.00000000000E+00 0. -1.
         -1    1    6    6    0  502  0.19092853882E+02 -0.47976304933E+02  0.15875133456E+03  0.16693786008E+03  0.00000000000E+00 0.  1.
<mgrwt>
<rscale>  0 0.42664051E+03</rscale>
<asrwt>0</asrwt>
<pdfrwt beam="1">  1        1 0.22707947E+00 0.42664051E+03</pdfrwt>
<pdfrwt beam="2">  1       -2 0.30791288E-01 0.42664051E+03</pdfrwt>
<totfact> 0.62220994E+01</totfact>
</mgrwt>
</event>
<event>
12    3  0.1201947E-007  0.5963592E+03  0.7818608E-02  0.9912988E-01
          1   -1    0    0  501    0  0.00000000000E+00  0.00000000000E+00  0.81349178778E+03  0.81349178778E+03  0.00000000000E+00 0. -1.
         -2   -1    0    0    0  501 -0.00000000000E+00 -0.00000000000E+00 -0.57951711002E+03  0.57951711002E+03  0.00000000000E+00 0.  1.
        -24    2    1    2    0    0  0.48040468822E+03  0.15694386912E+03 -0.13052367907E+03  0.52793756634E+03  0.79130276361E+02 0.  0.
    5000000    2    1    2    0    0 -0.48040468822E+03 -0.15694386912E+03  0.36449835684E+03  0.86507133146E+03  0.60005775877E+03 0.  0.
        -24    2    4    4    0    0 -0.30001919287E+03 -0.31886736035E+03  0.32073338733E+02  0.44611013643E+03  0.79357703978E+02 0.  0.
         24    2    4    4    0    0 -0.18038549535E+03  0.16192349123E+03  0.33242501811E+03  0.41896119503E+03  0.79145096737E+02 0.  0.
         11    1    3    3    0    0  0.32572415544E+03  0.10968650610E+03 -0.12622440295E+03  0.36614198742E+03  0.00000000000E+00 0. -1.
        -12    1    3    3    0    0  0.15468053278E+03  0.47257363021E+02 -0.42992761246E+01  0.16179557892E+03  0.00000000000E+00 0.  1.
         15    1    5    5    0    0 -0.30772979374E+02 -0.19985231222E+02 -0.17684095424E+02  0.40770953957E+02  0.17770000000E+01 0. -1.
        -16    1    5    5    0    0 -0.26924621349E+03 -0.29888212913E+03  0.49757434157E+02  0.40533918247E+03  0.00000000000E+00 0.  1.
          2    1    6    6  502    0 -0.13324259031E+03  0.84976856237E+02  0.16318012004E+03  0.22716162868E+03  0.00000000000E+00 0. -1.
         -1    1    6    6    0  502 -0.47142905040E+02  0.76946634989E+02  0.16924489806E+03  0.19179956635E+03  0.00000000000E+00 0.  1.
<mgrwt>
<rscale>  0 0.59635919E+03</rscale>
<asrwt>0</asrwt>
<pdfrwt beam="1">  1        1 0.12515258E+00 0.59635919E+03</pdfrwt>
<pdfrwt beam="2">  1       -2 0.89156478E-01 0.59635919E+03</pdfrwt>
<totfact> 0.21147358E+01</totfact>
</mgrwt>
</event>
<event>
12    3  0.1201947E-007  0.1147165E+04  0.7818608E-02  0.9160403E-01
         -2   -1    0    0    0  501 -0.00000000000E+00  0.00000000000E+00  0.45269589475E+03  0.45269589475E+03  0.00000000000E+00 0.  1.
          1   -1    0    0  501    0  0.00000000000E+00 -0.00000000000E+00 -0.32114577207E+04  0.32114577207E+04  0.00000000000E+00 0. -1.
        -24    2    1    2    0    0 -0.54440398551E+03 -0.95051174290E+03 -0.87604922106E+03  0.14048360670E+04  0.79081380485E+02 0.  0.
    5000000    2    1    2    0    0  0.54440398551E+03  0.95051174290E+03 -0.18827126049E+04  0.22593175485E+04  0.60005063049E+03 0.  0.
        -24    2    4    4    0    0  0.46446455021E+03  0.34807995212E+03 -0.12373788062E+04  0.13693080868E+04  0.83733834588E+02 0.  0.
         24    2    4    4    0    0  0.79939435292E+02  0.60243179077E+03 -0.64533379876E+03  0.89000946168E+03  0.79666518749E+02 0.  0.
         13    1    3    3    0    0 -0.37439763719E+03 -0.72114413257E+03 -0.65946534823E+03  0.10464783783E+04  0.00000000000E+00 0. -1.
        -14    1    3    3    0    0 -0.17000634832E+03 -0.22936761033E+03 -0.21658387283E+03  0.35835768878E+03  0.00000000000E+00 0.  1.
         15    1    5    5    0    0  0.42713702958E+03  0.29723996054E+03 -0.11418066467E+04  0.12548000687E+04  0.17770000000E+01 0. -1.
        -16    1    5    5    0    0  0.37327520631E+02  0.50839991584E+02 -0.95572159471E+02  0.11450801809E+03  0.00000000000E+00 0.  1.
          4    1    6    6  502    0  0.55944905227E+02  0.56863999020E+03 -0.59795055233E+03  0.82705872458E+03  0.00000000000E+00 0. -1.
         -3    1    6    6    0  502  0.23994530064E+02  0.33791800574E+02 -0.47383246430E+02  0.62950737099E+02  0.00000000000E+00 0.  1.
<mgrwt>
<rscale>  0 0.11471649E+04</rscale>
<asrwt>0</asrwt>
<pdfrwt beam="1">  1        1 0.49407042E+00 0.11471649E+04</pdfrwt>
<pdfrwt beam="2">  1       -2 0.69645523E-01 0.11471649E+04</pdfrwt>
<totfact> 0.69262761E-01</totfact>
</mgrwt>
</event>
<event>
12    3  0.1201947E-007  0.4586788E+03  0.7818608E-02  0.1025165E+00
          1   -1    0    0  501    0  0.00000000000E+00  0.00000000000E+00  0.11148802411E+04  0.11148802411E+04  0.00000000000E+00 0. -1.
         -2   -1    0    0    0  501 -0.00000000000E+00 -0.00000000000E+00 -0.27274017869E+03  0.27274017869E+03  0.00000000000E+00 0.  1.
        -24    2    1    2    0    0  0.34727055633E+03  0.58085100646E+02  0.10870445607E+03  0.37673580795E+03  0.78374051905E+02 0.  0.
    5000000    2    1    2    0    0 -0.34727055633E+03 -0.58085100646E+02  0.73343560628E+03  0.10108846118E+04  0.59999099291E+03 0.  0.
        -24    2    4    4    0    0 -0.33695059183E+03 -0.20676830072E+03  0.19776511388E+03  0.44906439049E+03  0.79113557775E+02 0.  0.
         24    2    4    4    0    0 -0.10319964499E+02  0.14868320007E+03  0.53567049240E+03  0.56182022130E+03  0.80535017081E+02 0.  0.
         11    1    3    3    0    0  0.13046297377E+03 -0.84959848042E+01  0.64030898511E+02  0.14557721403E+03  0.00000000000E+00 0. -1.
        -12    1    3    3    0    0  0.21680758256E+03  0.66581085450E+02  0.44673557564E+02  0.23115859392E+03  0.00000000000E+00 0.  1.
         15    1    5    5    0    0 -0.28322077076E+03 -0.15780366086E+03  0.19041080327E+03  0.37599924481E+03  0.17770000000E+01 0. -1.
        -16    1    5    5    0    0 -0.53729821073E+02 -0.48964639857E+02  0.73543106166E+01  0.73065145682E+02  0.00000000000E+00 0.  1.
          2    1    6    6  502    0 -0.99485364806E+01 -0.36291220955E+01  0.94612799042E+02  0.95203601023E+02  0.00000000000E+00 0. -1.
         -1    1    6    6    0  502 -0.37142801817E+00  0.15231232216E+03  0.44105769336E+03  0.46661662027E+03  0.00000000000E+00 0.  1.
<mgrwt>
<rscale>  0 0.45867878E+03</rscale>
<asrwt>0</asrwt>
<pdfrwt beam="1">  1        1 0.17152003E+00 0.45867878E+03</pdfrwt>
<pdfrwt beam="2">  1       -2 0.41960028E-01 0.45867878E+03</pdfrwt>
<totfact> 0.61534205E+01</totfact>
</mgrwt>
</event>
<event>
12    3  0.1201947E-007  0.7829546E+03  0.7818608E-02  0.9585023E-01
          1   -1    0    0  501    0  0.00000000000E+00  0.00000000000E+00  0.12410305437E+04  0.12410305437E+04  0.00000000000E+00 0. -1.
         -2   -1    0    0    0  501 -0.00000000000E+00 -0.00000000000E+00 -0.18727361131E+04  0.18727361131E+04  0.00000000000E+00 0.  1.
        -24    2    1    2    0    0  0.13216894777E+03 -0.67397080921E+03  0.10170718873E+04  0.12295512973E+04  0.75205628302E+02 0.  0.
    5000000    2    1    2    0    0 -0.13216894777E+03  0.67397080921E+03 -0.16487774567E+04  0.18842153595E+04  0.60007927547E+03 0.  0.
        -24    2    4    4    0    0 -0.27713272624E+03  0.11704079787E+03 -0.77103087577E+03  0.83161765245E+03  0.81229379871E+02 0.  0.
         24    2    4    4    0    0  0.14496377848E+03  0.55693001134E+03 -0.87774658090E+03  0.10525977070E+04  0.79607398918E+02 0.  0.
         13    1    3    3    0    0  0.73180245405E+02 -0.40317394944E+03  0.67044353533E+03  0.78574748863E+03  0.00000000000E+00 0. -1.
        -14    1    3    3    0    0  0.58988702362E+02 -0.27079685977E+03  0.34662835194E+03  0.44380380872E+03  0.00000000000E+00 0.  1.
         15    1    5    5    0    0 -0.24440766690E+03  0.10281387408E+03 -0.58630644610E+03  0.64347821005E+03  0.17770000000E+01 0. -1.
        -16    1    5    5    0    0 -0.32725059346E+02  0.14226923794E+02 -0.18472442967E+03  0.18813944240E+03  0.00000000000E+00 0.  1.
          4    1    6    6  502    0  0.34653522345E+02  0.24198411013E+03 -0.32069799799E+03  0.40324233667E+03  0.00000000000E+00 0. -1.
         -3    1    6    6    0  502  0.11031025613E+03  0.31494590121E+03 -0.55704858291E+03  0.64935537036E+03  0.00000000000E+00 0.  1.
<mgrwt>
<rscale>  0 0.78295462E+03</rscale>
<asrwt>0</asrwt>
<pdfrwt beam="1">  1        1 0.19092778E+00 0.78295462E+03</pdfrwt>
<pdfrwt beam="2">  1       -2 0.28811325E+00 0.78295462E+03</pdfrwt>
<totfact> 0.34449833E-01</totfact>
</mgrwt>
</event>
<event>
12    3  0.1201947E-007  0.7191342E+03  0.7818608E-02  0.9685058E-01
         -2   -1    0    0    0  501 -0.00000000000E+00  0.00000000000E+00  0.23933828209E+04  0.23933828209E+04  0.00000000000E+00 0.  1.
          1   -1    0    0  501    0  0.00000000000E+00 -0.00000000000E+00 -0.24068947394E+03  0.24068947394E+03  0.00000000000E+00 0. -1.
        -24    2    1    2    0    0 -0.46244612395E+03 -0.40130858655E+03  0.60411360422E+03  0.86405385061E+03  0.82041518559E+02 0.  0.
    5000000    2    1    2    0    0  0.46244612395E+03  0.40130858655E+03  0.15485797427E+04  0.17700184442E+04  0.59996756082E+03 0.  0.
        -24    2    4    4    0    0  0.16695290165E+01 -0.10985547906E+03  0.12122965060E+03  0.18345119380E+03  0.82986135687E+02 0.  0.
         24    2    4    4    0    0  0.46077659493E+03  0.51116406561E+03  0.14273500921E+04  0.15865672504E+04  0.79142795844E+02 0.  0.
         11    1    3    3    0    0 -0.12144313516E+03 -0.11174351275E+03  0.11462664282E+03  0.20093360835E+03  0.00000000000E+00 0. -1.
        -12    1    3    3    0    0 -0.34100298878E+03 -0.28956507380E+03  0.48948696139E+03  0.66312024226E+03  0.00000000000E+00 0.  1.
         15    1    5    5    0    0 -0.40579649371E+02 -0.49929513959E+02  0.56493720983E+02  0.85640892959E+02  0.17770000000E+01 0. -1.
        -16    1    5    5    0    0  0.42249178388E+02 -0.59925965104E+02  0.64735929617E+02  0.97810300845E+02  0.00000000000E+00 0.  1.
          4    1    6    6  502    0  0.28522512439E+03  0.31774629141E+03  0.79537530191E+03  0.90273913628E+03  0.00000000000E+00 0. -1.
         -3    1    6    6    0  502  0.17555147054E+03  0.19341777420E+03  0.63197479020E+03  0.68382811410E+03  0.00000000000E+00 0.  1.
<mgrwt>
<rscale>  0 0.71913420E+03</rscale>
<asrwt>0</asrwt>
<pdfrwt beam="1">  1        1 0.37029151E-01 0.71913420E+03</pdfrwt>
<pdfrwt beam="2">  1       -2 0.36821273E+00 0.71913420E+03</pdfrwt>
<totfact> 0.12949162E+00</totfact>
</mgrwt>
</event>
<event>
12    3  0.1201947E-007  0.5102557E+03  0.7818608E-02  0.1011136E+00
         -2   -1    0    0    0  501 -0.00000000000E+00  0.00000000000E+00  0.17572550678E+03  0.17572550678E+03  0.00000000000E+00 0.  1.
          1   -1    0    0  501    0  0.00000000000E+00 -0.00000000000E+00 -0.26391277201E+04  0.26391277201E+04  0.00000000000E+00 0. -1.
        -24    2    1    2    0    0 -0.43137719253E+03  0.22690548783E+03 -0.49233532622E+03  0.69760418634E+03  0.81762734219E+02 0.  0.
    5000000    2    1    2    0    0  0.43137719253E+03 -0.22690548783E+03 -0.19710668871E+04  0.21172490406E+04  0.60005536714E+03 0.  0.
        -24    2    4    4    0    0  0.66528772256E+02 -0.12672884254E+03 -0.14961379913E+04  0.15050777050E+04  0.79647549139E+02 0.  0.
         24    2    4    4    0    0  0.36484842028E+03 -0.10017664529E+03 -0.47492889587E+03  0.61217133559E+03  0.77759616414E+02 0.  0.
         11    1    3    3    0    0 -0.34725501342E+03  0.15188036026E+03 -0.34868386249E+03  0.51500885831E+03  0.00000000000E+00 0. -1.
        -12    1    3    3    0    0 -0.84122179117E+02  0.75025127570E+02 -0.14365146373E+03  0.18259532803E+03  0.00000000000E+00 0.  1.
         15    1    5    5    0    0  0.42272330973E+02 -0.76572363240E+02 -0.51648710331E+03  0.52384383397E+03  0.17770000000E+01 0. -1.
        -16    1    5    5    0    0  0.24256441283E+02 -0.50156479304E+02 -0.97965088794E+03  0.98123387101E+03  0.00000000000E+00 0.  1.
          2    1    6    6  502    0  0.24240595541E+03 -0.10232406817E+03 -0.30687091662E+03  0.40422842752E+03  0.00000000000E+00 0. -1.
         -1    1    6    6    0  502  0.12244246487E+03  0.21474228869E+01 -0.16805797925E+03  0.20794290807E+03  0.00000000000E+00 0.  1.
<mgrwt>
<rscale>  0 0.51025567E+03</rscale>
<asrwt>0</asrwt>
<pdfrwt beam="1">  1        1 0.40601967E+00 0.51025567E+03</pdfrwt>
<pdfrwt beam="2">  1       -2 0.27034692E-01 0.51025567E+03</pdfrwt>
<totfact> 0.13010856E+01</totfact>
</mgrwt>
</event>
<event>
12    3  0.1201947E-007  0.2095586E+03  0.7818608E-02  0.1141916E+00
          1   -1    0    0  501    0  0.00000000000E+00  0.00000000000E+00  0.14869172351E+04  0.14869172351E+04  0.00000000000E+00 0. -1.
         -2   -1    0    0    0  501 -0.00000000000E+00 -0.00000000000E+00 -0.12058157495E+03  0.12058157495E+03  0.00000000000E+00 0.  1.
        -24    2    1    2    0    0 -0.15998301100E+03 -0.11744316288E+03  0.37743674224E+03  0.43386397443E+03  0.79949944370E+02 0.  0.
    5000000    2    1    2    0    0  0.15998301100E+03  0.11744316288E+03  0.98889891795E+03  0.11736348357E+04  0.60009182401E+03 0.  0.
        -24    2    4    4    0    0  0.57269783507E+02 -0.25149945105E+01  0.10029077690E+04  0.10074569849E+04  0.76546912951E+02 0.  0.
         24    2    4    4    0    0  0.10271322749E+03  0.11995815739E+03 -0.14008851075E+02  0.16617785080E+03  0.49788186966E+02 0.  0.
         13    1    3    3    0    0 -0.68743558648E+02 -0.58351963369E+02  0.93806168107E+02  0.13011620060E+03  0.00000000000E+00 0. -1.
        -14    1    3    3    0    0 -0.91239452352E+02 -0.59091199509E+02  0.28363057413E+03  0.30374777383E+03  0.00000000000E+00 0.  1.
         15    1    5    5    0    0  0.19808703420E+02 -0.71527212007E+01  0.83871066653E+03  0.83897692819E+03  0.17770000000E+01 0. -1.
        -16    1    5    5    0    0  0.37461080087E+02  0.46377266902E+01  0.16419710250E+03  0.16848005668E+03  0.00000000000E+00 0.  1.
          4    1    6    6  502    0  0.35325335560E+02  0.66668925251E+02 -0.25185214317E+02  0.79541938289E+02  0.00000000000E+00 0. -1.
         -3    1    6    6    0  502  0.67387891933E+02  0.53289232137E+02  0.11176363243E+02  0.86635912509E+02  0.00000000000E+00 0.  1.
<mgrwt>
<rscale>  0 0.20955861E+03</rscale>
<asrwt>0</asrwt>
<pdfrwt beam="1">  1        1 0.22875648E+00 0.20955861E+03</pdfrwt>
<pdfrwt beam="2">  1       -2 0.18551013E-01 0.20955861E+03</pdfrwt>
<totfact> 0.15678664E+02</totfact>
</mgrwt>
</event>
<event>
12    3  0.1201947E-007  0.7603782E+03  0.7818608E-02  0.9619208E-01
         -2   -1    0    0    0  501 -0.00000000000E+00  0.00000000000E+00  0.44178391302E+03  0.44178391302E+03  0.00000000000E+00 0.  1.
          1   -1    0    0  501    0  0.00000000000E+00 -0.00000000000E+00 -0.16565054340E+04  0.16565054340E+04  0.00000000000E+00 0. -1.
        -24    2    1    2    0    0  0.64184208052E+03 -0.67223844922E+02 -0.99753311880E+03  0.11907377554E+04  0.79396330950E+02 0.  0.
    5000000    2    1    2    0    0 -0.64184208052E+03  0.67223844922E+02 -0.21718840221E+03  0.90755159165E+03  0.59999898982E+03 0.  0.
        -24    2    4    4    0    0 -0.38888086950E+03 -0.24545745323E+03 -0.71660728674E+02  0.47257812039E+03  0.81958085848E+02 0.  0.
         24    2    4    4    0    0 -0.25296121102E+03  0.31268129815E+03 -0.14552767354E+03  0.43497347125E+03  0.79149532114E+02 0.  0.
         13    1    3    3    0    0  0.53611966003E+03 -0.85387334335E+02 -0.82637429901E+03  0.98874150757E+03  0.00000000000E+00 0. -1.
        -14    1    3    3    0    0  0.10572242050E+03  0.18163489413E+02 -0.17115881979E+03  0.20199624783E+03  0.00000000000E+00 0.  1.
         15    1    5    5    0    0 -0.15035854431E+03 -0.76227663509E+02  0.10153023616E+02  0.16889224419E+03  0.17770000000E+01 0. -1.
        -16    1    5    5    0    0 -0.23852232519E+03 -0.16922978972E+03 -0.81813752290E+02  0.30368587621E+03  0.00000000000E+00 0.  1.
          4    1    6    6  502    0 -0.34506889061E+02  0.95407461821E+02 -0.28424271641E+02  0.10536246192E+03  0.00000000000E+00 0. -1.
         -3    1    6    6    0  502 -0.21845432196E+03  0.21727383633E+03 -0.11710340190E+03  0.32961100933E+03  0.00000000000E+00 0.  1.
<mgrwt>
<rscale>  0 0.76037816E+03</rscale>
<asrwt>0</asrwt>
<pdfrwt beam="1">  1        1 0.25484699E+00 0.76037816E+03</pdfrwt>
<pdfrwt beam="2">  1       -2 0.67966756E-01 0.76037816E+03</pdfrwt>
<totfact> 0.91794950E+00</totfact>
</mgrwt>
</event>
<event>
12    3  0.1201947E-007  0.6477349E+03  0.7818608E-02  0.9811039E-01
          1   -1    0    0  501    0  0.00000000000E+00  0.00000000000E+00  0.67986666145E+03  0.67986666145E+03  0.00000000000E+00 0. -1.
         -2   -1    0    0    0  501 -0.00000000000E+00 -0.00000000000E+00 -0.78305802553E+03  0.78305802553E+03  0.00000000000E+00 0.  1.
        -24    2    1    2    0    0 -0.48540986949E+03 -0.35271101770E+03  0.16955608796E+02  0.60596124779E+03  0.82908007719E+02 0.  0.
    5000000    2    1    2    0    0  0.48540986949E+03  0.35271101770E+03 -0.12014697288E+03  0.85696343919E+03  0.59993602793E+03 0.  0.
        -24    2    4    4    0    0  0.52361917555E+02  0.22396417371E+03 -0.27996466680E+03  0.37104192620E+03  0.79938569060E+02 0.  0.
         24    2    4    4    0    0  0.43304795194E+03  0.12874684399E+03  0.15981769392E+03  0.48592151299E+03  0.80447144020E+02 0.  0.
         13    1    3    3    0    0 -0.29109670425E+03 -0.21205196600E+03 -0.30497163977E+02  0.36143243424E+03  0.00000000000E+00 0. -1.
        -14    1    3    3    0    0 -0.19431316524E+03 -0.14065905170E+03  0.47452772773E+02  0.24452881355E+03  0.00000000000E+00 0.  1.
         15    1    5    5    0    0  0.60616261892E+02  0.13834321457E+03 -0.21719679112E+03  0.26455770641E+03  0.17770000000E+01 0. -1.
        -16    1    5    5    0    0 -0.82543443370E+01  0.85620959144E+02 -0.62767875685E+02  0.10648421978E+03  0.00000000000E+00 0.  1.
          4    1    6    6  502    0  0.19422848950E+02 -0.10326866832E+02  0.29077261818E+01  0.22188873595E+02  0.00000000000E+00 0. -1.
         -3    1    6    6    0  502  0.41362510299E+03  0.13907371082E+03  0.15690996774E+03  0.46373263939E+03  0.00000000000E+00 0.  1.
<mgrwt>
<rscale>  0 0.64773485E+03</rscale>
<asrwt>0</asrwt>
<pdfrwt beam="1">  1        1 0.10459487E+00 0.64773485E+03</pdfrwt>
<pdfrwt beam="2">  1       -2 0.12047047E+00 0.64773485E+03</pdfrwt>
<totfact> 0.13528898E+01</totfact>
</mgrwt>
</event>
<event>
12    3  0.1201947E-007  0.6742736E+03  0.7818608E-02  0.9762268E-01
          3   -1    0    0  501    0  0.00000000000E+00  0.00000000000E+00  0.56396761541E+03  0.56396761541E+03  0.00000000000E+00 0. -1.
         -4   -1    0    0    0  501 -0.00000000000E+00 -0.00000000000E+00 -0.10576677321E+04  0.10576677321E+04  0.00000000000E+00 0.  1.
        -24    2    1    2    0    0  0.37457647125E+03  0.53484795493E+03 -0.20569331554E+03  0.68928467084E+03  0.80210658166E+02 0.  0.
    5000000    2    1    2    0    0 -0.37457647125E+03 -0.53484795493E+03 -0.28800680111E+03  0.93235067664E+03  0.59996666494E+03 0.  0.
        -24    2    4    4    0    0 -0.13707905594E+03 -0.53732648627E+02 -0.34612049495E+03  0.38447702856E+03  0.79657537956E+02 0.  0.
         24    2    4    4    0    0 -0.23749741530E+03 -0.48111530631E+03  0.58113693848E+02  0.54787364808E+03  0.94400066812E+02 0.  0.
         13    1    3    3    0    0  0.19612361956E+03  0.31360324655E+03 -0.79706451949E+02  0.37837096728E+03  0.00000000000E+00 0. -1.
        -14    1    3    3    0    0  0.17845285168E+03  0.22124470838E+03 -0.12598686359E+03  0.31091370355E+03  0.00000000000E+00 0.  1.
         15    1    5    5    0    0 -0.50656763969E+02 -0.34902928028E+02 -0.23238872519E+03  0.24039966607E+03  0.17770000000E+01 0. -1.
        -16    1    5    5    0    0 -0.86422291976E+02 -0.18829720599E+02 -0.11373176976E+03  0.14407736249E+03  0.00000000000E+00 0.  1.
          4    1    6    6  502    0 -0.14519026820E+03 -0.38358954773E+03  0.52254393539E+02  0.41346302949E+03  0.00000000000E+00 0. -1.
         -3    1    6    6    0  502 -0.92307147098E+02 -0.97525758577E+02  0.58593003091E+01  0.13441061860E+03  0.00000000000E+00 0.  1.
<mgrwt>
<rscale>  0 0.67427361E+03</rscale>
<asrwt>0</asrwt>
<pdfrwt beam="1">  1        3 0.86764249E-01 0.67427361E+03</pdfrwt>
<pdfrwt beam="2">  1       -4 0.16271811E+00 0.67427361E+03</pdfrwt>
<totfact> 0.65531095E-01</totfact>
</mgrwt>
</event>
<event>
12    3  0.1201947E-007  0.5014287E+03  0.7818608E-02  0.1013407E+00
         -2   -1    0    0    0  501 -0.00000000000E+00  0.00000000000E+00  0.24438843082E+03  0.24438843082E+03  0.00000000000E+00 0.  1.
          1   -1    0    0  501    0  0.00000000000E+00 -0.00000000000E+00 -0.11803321063E+04  0.11803321063E+04  0.00000000000E+00 0. -1.
        -24    2    1    2    0    0 -0.32380707786E+03  0.12991214985E+03 -0.46105803083E+03  0.58375627694E+03  0.80428183671E+02 0.  0.
    5000000    2    1    2    0    0  0.32380707786E+03 -0.12991214985E+03 -0.47488564470E+03  0.84096426022E+03  0.59998026724E+03 0.  0.
        -24    2    4    4    0    0  0.12885926828E+03  0.20785441350E+03 -0.32792541267E+03  0.41663974779E+03  0.79028064198E+02 0.  0.
         24    2    4    4    0    0  0.19494780959E+03 -0.33776656335E+03 -0.14696023203E+03  0.42432451243E+03  0.79768930478E+02 0.  0.
         11    1    3    3    0    0 -0.11805859486E+01  0.15447498112E+02 -0.24431376869E+02  0.28929416807E+02  0.00000000000E+00 0. -1.
        -12    1    3    3    0    0 -0.32262649191E+03  0.11446465174E+03 -0.43662665396E+03  0.55482686014E+03  0.00000000000E+00 0.  1.
         15    1    5    5    0    0  0.71252188484E+02  0.80219318319E+02 -0.87734412694E+02  0.13860915661E+03  0.17770000000E+01 0. -1.
        -16    1    5    5    0    0  0.57607079792E+02  0.12763509518E+03 -0.24019099998E+03  0.27803059118E+03  0.00000000000E+00 0.  1.
          4    1    6    6  502    0  0.13524515069E+03 -0.15647204518E+03 -0.67280337450E+02  0.21748883998E+03  0.00000000000E+00 0. -1.
         -3    1    6    6    0  502  0.59702658899E+02 -0.18129451817E+03 -0.79679894582E+02  0.20683567245E+03  0.00000000000E+00 0.  1.
<mgrwt>
<rscale>  0 0.50142866E+03</rscale>
<asrwt>0</asrwt>
<pdfrwt beam="1">  1        1 0.18158956E+00 0.50142866E+03</pdfrwt>
<pdfrwt beam="2">  1       -2 0.37598220E-01 0.50142866E+03</pdfrwt>
<totfact> 0.67809599E+01</totfact>
</mgrwt>
</event>
<event>
12    3  0.1201947E-007  0.8086407E+03  0.7818608E-02  0.9547594E-01
          1   -1    0    0  501    0  0.00000000000E+00  0.00000000000E+00  0.84639505162E+03  0.84639505162E+03  0.00000000000E+00 0. -1.
         -2   -1    0    0    0  501 -0.00000000000E+00 -0.00000000000E+00 -0.98759475496E+03  0.98759475496E+03  0.00000000000E+00 0.  1.
        -24    2    1    2    0    0  0.30373477305E+03 -0.72023602279E+03  0.16343592811E+03  0.80252742554E+03  0.79650645166E+02 0.  0.
    5000000    2    1    2    0    0 -0.30373477305E+03  0.72023602279E+03 -0.30463563145E+03  0.10314623810E+04  0.60009752096E+03 0.  0.
        -24    2    4    4    0    0 -0.22036539807E+03  0.17722863108E+03 -0.37021898066E+03  0.47218544802E+03  0.76981214234E+02 0.  0.
         24    2    4    4    0    0 -0.83369374980E+02  0.54300739170E+03  0.65583349202E+02  0.55927693301E+03  0.81743696890E+02 0.  0.
         11    1    3    3    0    0  0.25143953083E+03 -0.61686305453E+03  0.16652397108E+03  0.68663825895E+03  0.00000000000E+00 0. -1.
        -12    1    3    3    0    0  0.52295242220E+02 -0.10337296826E+03 -0.30880429682E+01  0.11588916660E+03  0.00000000000E+00 0.  1.
         15    1    5    5    0    0 -0.39548866493E+02  0.13410156802E+02 -0.22692074392E+02  0.47560835942E+02  0.17770000000E+01 0. -1.
        -16    1    5    5    0    0 -0.18081653158E+03  0.16381847428E+03 -0.34752690626E+03  0.42462461208E+03  0.00000000000E+00 0.  1.
          2    1    6    6  502    0 -0.59201162675E+02  0.34702709146E+03  0.80907861092E+02  0.36121830222E+03  0.00000000000E+00 0. -1.
         -1    1    6    6    0  502 -0.24168212305E+02  0.19598030024E+03 -0.15324511890E+02  0.19805863079E+03  0.00000000000E+00 0.  1.
<mgrwt>
<rscale>  0 0.80864068E+03</rscale>
<asrwt>0</asrwt>
<pdfrwt beam="1">  1        1 0.13021462E+00 0.80864068E+03</pdfrwt>
<pdfrwt beam="2">  1       -2 0.15193765E+00 0.80864068E+03</pdfrwt>
<totfact> 0.52025478E+00</totfact>
</mgrwt>
</event>
<event>
12    3  0.1201947E-007  0.4323743E+03  0.7818608E-02  0.1033113E+00
          1   -1    0    0  501    0  0.00000000000E+00  0.00000000000E+00  0.20578006421E+04  0.20578006421E+04  0.00000000000E+00 0. -1.
         -2   -1    0    0    0  501 -0.00000000000E+00 -0.00000000000E+00 -0.11015786443E+03  0.11015786443E+03  0.00000000000E+00 0.  1.
        -24    2    1    2    0    0  0.74453438348E+02  0.25434651769E+03  0.39702151618E+03  0.48434667516E+03  0.82037502896E+02 0.  0.
    5000000    2    1    2    0    0 -0.74453438348E+02 -0.25434651769E+03  0.15506212615E+04  0.16836118314E+04  0.59990585646E+03 0.  0.
        -24    2    4    4    0    0 -0.24176313151E+03 -0.32017720035E+03  0.70023192635E+03  0.81067007420E+03  0.76800827692E+02 0.  0.
         24    2    4    4    0    0  0.16730969316E+03  0.65830682658E+02  0.85038933518E+03  0.87294175722E+03  0.80864565180E+02 0.  0.
         11    1    3    3    0    0 -0.13874685531E+02  0.22674040042E+02  0.62848989992E+02  0.68239391362E+02  0.00000000000E+00 0. -1.
        -12    1    3    3    0    0  0.88328123878E+02  0.23167247765E+03  0.33417252619E+03  0.41610728379E+03  0.00000000000E+00 0.  1.
         15    1    5    5    0    0 -0.10681432535E+03 -0.11073356320E+03  0.33380866799E+03  0.36756306490E+03  0.17770000000E+01 0. -1.
        -16    1    5    5    0    0 -0.13494880615E+03 -0.20944363714E+03  0.36642325836E+03  0.44310700930E+03  0.00000000000E+00 0.  1.
          2    1    6    6  502    0  0.39549840141E+02  0.41171223893E+02  0.40270493795E+03  0.40673151659E+03  0.00000000000E+00 0. -1.
         -1    1    6    6    0  502  0.12775985302E+03  0.24659458765E+02  0.44768439722E+03  0.46621024063E+03  0.00000000000E+00 0.  1.
<mgrwt>
<rscale>  0 0.43237432E+03</rscale>
<asrwt>0</asrwt>
<pdfrwt beam="1">  1        1 0.31658469E+00 0.43237432E+03</pdfrwt>
<pdfrwt beam="2">  1       -2 0.16947365E-01 0.43237432E+03</pdfrwt>
<totfact> 0.73460543E+01</totfact>
</mgrwt>
</event>
<event>
12    3  0.1201947E-007  0.1413059E+04  0.7818608E-02  0.8944420E-01
         -2   -1    0    0    0  501 -0.00000000000E+00  0.00000000000E+00  0.24053698386E+04  0.24053698386E+04  0.00000000000E+00 0.  1.
          1   -1    0    0  501    0  0.00000000000E+00 -0.00000000000E+00 -0.15155142492E+04  0.15155142492E+04  0.00000000000E+00 0. -1.
        -24    2    1    2    0    0 -0.12749106902E+04  0.46050646178E+03 -0.87545247778E+03  0.16157281784E+04  0.81835421465E+02 0.  0.
    5000000    2    1    2    0    0  0.12749106902E+04 -0.46050646178E+03  0.17653080672E+04  0.23051559095E+04  0.59997310406E+03 0.  0.
        -24    2    4    4    0    0  0.48928354884E+03 -0.47733278909E+03  0.73443655338E+03  0.10064849599E+04  0.79811909404E+02 0.  0.
         24    2    4    4    0    0  0.78562714140E+03  0.16826327308E+02  0.10308715138E+04  0.12986709496E+04  0.79730964691E+02 0.  0.
         11    1    3    3    0    0 -0.98839276893E+03  0.36625096689E+03 -0.71903571654E+03  0.12759594030E+04  0.00000000000E+00 0. -1.
        -12    1    3    3    0    0 -0.28651792130E+03  0.94255494886E+02 -0.15641676124E+03  0.33976877541E+03  0.00000000000E+00 0.  1.
         15    1    5    5    0    0  0.18202230983E+03 -0.18532253539E+03  0.22416645925E+03  0.34311852556E+03  0.17770000000E+01 0. -1.
        -16    1    5    5    0    0  0.30726123901E+03 -0.29201025369E+03  0.51027009413E+03  0.66336643435E+03  0.00000000000E+00 0.  1.
          4    1    6    6  502    0  0.57714752555E+03 -0.48470658413E+01  0.70373753074E+03  0.91014793988E+03  0.00000000000E+00 0. -1.
         -3    1    6    6    0  502  0.20847961585E+03  0.21673393149E+02  0.32713398306E+03  0.38852300970E+03  0.00000000000E+00 0.  1.
<mgrwt>
<rscale>  0 0.14130587E+04</rscale>
<asrwt>0</asrwt>
<pdfrwt beam="1">  1        1 0.23315604E+00 0.14130587E+04</pdfrwt>
<pdfrwt beam="2">  1       -2 0.37005690E+00 0.14130587E+04</pdfrwt>
<totfact> 0.62011317E-02</totfact>
</mgrwt>
</event>
<event>
12    3  0.1201947E-007  0.8997124E+03  0.7818608E-02  0.9425941E-01
         -2   -1    0    0    0  501 -0.00000000000E+00  0.00000000000E+00  0.10257195215E+04  0.10257195215E+04  0.00000000000E+00 0.  1.
          1   -1    0    0  501    0  0.00000000000E+00 -0.00000000000E+00 -0.10592684470E+04  0.10592684470E+04  0.00000000000E+00 0. -1.
        -24    2    1    2    0    0 -0.82355477359E+03 -0.15459649646E+03  0.44170999682E+03  0.95011247925E+03  0.73915222529E+02 0.  0.
    5000000    2    1    2    0    0  0.82355477359E+03  0.15459649646E+03 -0.47525892230E+03  0.11348754892E+04  0.59994065620E+03 0.  0.
        -24    2    4    4    0    0  0.85284015385E+03  0.66261906478E+02 -0.52035918052E+03  0.10044793914E+04  0.80487282707E+02 0.  0.
         24    2    4    4    0    0 -0.29285380262E+02  0.88334589985E+02  0.45100258217E+02  0.13039609783E+03  0.79425913616E+02 0.  0.
         13    1    3    3    0    0 -0.62921922031E+03 -0.10956969457E+03  0.30144360812E+03  0.70625108428E+03  0.00000000000E+00 0. -1.
        -14    1    3    3    0    0 -0.19433555328E+03 -0.45026801895E+02  0.14026638870E+03  0.24386139497E+03  0.00000000000E+00 0.  1.
         15    1    5    5    0    0  0.16256625237E+03 -0.17863597829E+02 -0.89608434357E+02  0.18649322715E+03  0.17770000000E+01 0. -1.
        -16    1    5    5    0    0  0.69027390148E+03  0.84125504307E+02 -0.43075074616E+03  0.81798616422E+03  0.00000000000E+00 0.  1.
          4    1    6    6  502    0  0.10153228571E+02  0.83788227090E+01 -0.17179825523E+02  0.21643454563E+02  0.00000000000E+00 0. -1.
         -3    1    6    6    0  502 -0.39438608834E+02  0.79955767276E+02  0.62280083740E+02  0.10875264327E+03  0.00000000000E+00 0.  1.
<mgrwt>
<rscale>  0 0.89971241E+03</rscale>
<asrwt>0</asrwt>
<pdfrwt beam="1">  1        1 0.16296438E+00 0.89971241E+03</pdfrwt>
<pdfrwt beam="2">  1       -2 0.15780300E+00 0.89971241E+03</pdfrwt>
<totfact> 0.31450791E+00</totfact>
</mgrwt>
</event>
<event>
12    3  0.1201947E-007  0.1134462E+04  0.7818608E-02  0.9172239E-01
          1   -1    0    0  501    0  0.00000000000E+00  0.00000000000E+00  0.16464716636E+04  0.16464716636E+04  0.00000000000E+00 0. -1.
         -2   -1    0    0    0  501 -0.00000000000E+00 -0.00000000000E+00 -0.81356448579E+03  0.81356448579E+03  0.00000000000E+00 0.  1.
        -24    2    1    2    0    0  0.10496327582E+04  0.18983061465E+03  0.55486762279E+03  0.12050010934E+04  0.79905987456E+02 0.  0.
    5000000    2    1    2    0    0 -0.10496327582E+04 -0.18983061465E+03  0.27803955504E+03  0.12550350561E+04  0.60003533933E+03 0.  0.
        -24    2    4    4    0    0  0.46970290516E+02  0.37860227157E+02  0.21349620009E+02  0.10319307840E+03  0.80953073840E+02 0.  0.
         24    2    4    4    0    0 -0.10966030487E+04 -0.22769084181E+03  0.25668993503E+03  0.11518419777E+04  0.80429179225E+02 0.  0.
         11    1    3    3    0    0  0.42360196968E+03  0.11301239661E+03  0.24578739615E+03  0.50261503619E+03  0.00000000000E+00 0. -1.
        -12    1    3    3    0    0  0.62603078852E+03  0.76818218047E+02  0.30908022664E+03  0.70238605716E+03  0.00000000000E+00 0.  1.
         15    1    5    5    0    0  0.29276772480E+02  0.49563076912E+02  0.43763005006E+02  0.72332470828E+02  0.17770000000E+01 0. -1.
        -16    1    5    5    0    0  0.17693518036E+02 -0.11702849755E+02 -0.22413384997E+02  0.30860607575E+02  0.00000000000E+00 0.  1.
          4    1    6    6  502    0 -0.70518742624E+03 -0.16933017136E+03  0.13391901850E+03  0.73749326544E+03  0.00000000000E+00 0. -1.
         -3    1    6    6    0  502 -0.39141562247E+03 -0.58360670449E+02  0.12277091654E+03  0.41434871222E+03  0.00000000000E+00 0.  1.
<mgrwt>
<rscale>  0 0.11344622E+04</rscale>
<asrwt>0</asrwt>
<pdfrwt beam="1">  1        1 0.25330333E+00 0.11344622E+04</pdfrwt>
<pdfrwt beam="2">  1       -2 0.12516377E+00 0.11344622E+04</pdfrwt>
<totfact> 0.21414672E+00</totfact>
</mgrwt>
</event>
<event>
12    3  0.1201947E-007  0.6216917E+03  0.7818608E-02  0.9861397E-01
          1   -1    0    0  501    0  0.00000000000E+00  0.00000000000E+00  0.46860815063E+03  0.46860815063E+03  0.00000000000E+00 0. -1.
         -2   -1    0    0    0  501 -0.00000000000E+00 -0.00000000000E+00 -0.10914350170E+04  0.10914350170E+04  0.00000000000E+00 0.  1.
        -24    2    1    2    0    0 -0.42656247291E+03  0.38128784386E+03 -0.11905168910E+03  0.58984579537E+03  0.80054946554E+02 0.  0.
    5000000    2    1    2    0    0  0.42656247291E+03 -0.38128784386E+03 -0.50377517728E+03  0.97019737227E+03  0.60013127626E+03 0.  0.
        -24    2    4    4    0    0  0.42440035064E+03 -0.19728156061E+03 -0.54146045605E+02  0.47782973691E+03  0.79710673314E+02 0.  0.
         24    2    4    4    0    0  0.21621222712E+01 -0.18400628325E+03 -0.44962913167E+03  0.49236763536E+03  0.79978404918E+02 0.  0.
         11    1    3    3    0    0 -0.17508413693E+02  0.44422584187E+02 -0.77296207192E+01  0.48370006950E+02  0.00000000000E+00 0. -1.
        -12    1    3    3    0    0 -0.40905405922E+03  0.33686525967E+03 -0.11132206838E+03  0.54147578842E+03  0.00000000000E+00 0.  1.
         15    1    5    5    0    0  0.28205374368E+03 -0.14388131812E+03 -0.58654579600E+00  0.31663804224E+03  0.17770000000E+01 0. -1.
        -16    1    5    5    0    0  0.14234660696E+03 -0.53400242491E+02 -0.53559499809E+02  0.16119169467E+03  0.00000000000E+00 0.  1.
          4    1    6    6  502    0  0.21300214365E+02 -0.12942135072E+02 -0.94344172945E+02  0.97580843207E+02  0.00000000000E+00 0. -1.
         -3    1    6    6    0  502 -0.19138092094E+02 -0.17106414818E+03 -0.35528495873E+03  0.39478679215E+03  0.00000000000E+00 0.  1.
<mgrwt>
<rscale>  0 0.62169168E+03</rscale>
<asrwt>0</asrwt>
<pdfrwt beam="1">  1        1 0.72093562E-01 0.62169168E+03</pdfrwt>
<pdfrwt beam="2">  1       -2 0.16791308E+00 0.62169168E+03</pdfrwt>
<totfact> 0.96827829E+00</totfact>
</mgrwt>
</event>
<event>
12    3  0.1201947E-007  0.4324856E+03  0.7818608E-02  0.1033078E+00
          1   -1    0    0  501    0  0.00000000000E+00  0.00000000000E+00  0.32258922954E+03  0.32258922954E+03  0.00000000000E+00 0. -1.
         -2   -1    0    0    0  501 -0.00000000000E+00 -0.00000000000E+00 -0.10685880405E+04  0.10685880405E+04  0.00000000000E+00 0.  1.
        -24    2    1    2    0    0  0.11361569762E+03 -0.37902633673E+03 -0.47441928053E+03  0.62288755188E+03  0.79660265293E+02 0.  0.
    5000000    2    1    2    0    0 -0.11361569762E+03  0.37902633673E+03 -0.27157953043E+03  0.76828971816E+03  0.59995346403E+03 0.  0.
        -24    2    4    4    0    0 -0.17819032160E+03  0.33106880501E+03 -0.42828389740E+03  0.57523435843E+03  0.78160898054E+02 0.  0.
         24    2    4    4    0    0  0.64574623986E+02  0.47957531720E+02  0.15670436697E+03  0.19305535973E+03  0.79020923708E+02 0.  0.
         13    1    3    3    0    0  0.10862639137E+03 -0.23355371623E+03 -0.31770691790E+03  0.40900454392E+03  0.00000000000E+00 0. -1.
        -14    1    3    3    0    0  0.49893062515E+01 -0.14547262051E+03 -0.15671236263E+03  0.21388300796E+03  0.00000000000E+00 0.  1.
         15    1    5    5    0    0 -0.12478741060E+03  0.17372419509E+03 -0.19966358626E+03  0.29261014885E+03  0.17770000000E+01 0. -1.
        -16    1    5    5    0    0 -0.53402911000E+02  0.15734460992E+03 -0.22862031114E+03  0.28262420958E+03  0.00000000000E+00 0.  1.
          4    1    6    6  502    0  0.25983038542E+02  0.28442769387E+02  0.95666570941E+01  0.39694210538E+02  0.00000000000E+00 0. -1.
         -3    1    6    6    0  502  0.38591585444E+02  0.19514762333E+02  0.14713770987E+03  0.15336114919E+03  0.00000000000E+00 0.  1.
<mgrwt>
<rscale>  0 0.43248562E+03</rscale>
<asrwt>0</asrwt>
<pdfrwt beam="1">  1        1 0.49629112E-01 0.43248562E+03</pdfrwt>
<pdfrwt beam="2">  1       -2 0.16439816E+00 0.43248562E+03</pdfrwt>
<totfact> 0.17172932E+01</totfact>
</mgrwt>
</event>
<event>
12    3  0.1201947E-007  0.8308627E+03  0.7818608E-02  0.9516389E-01
          1   -1    0    0  501    0  0.00000000000E+00  0.00000000000E+00  0.30817513934E+04  0.30817513934E+04  0.00000000000E+00 0. -1.
         -2   -1    0    0    0  501 -0.00000000000E+00 -0.00000000000E+00 -0.29269103439E+03  0.29269103439E+03  0.00000000000E+00 0.  1.
        -24    2    1    2    0    0  0.64617598170E+03  0.48216993777E+03  0.17519644335E+04  0.19302935182E+04  0.81378388645E+02 0.  0.
    5000000    2    1    2    0    0 -0.64617598170E+03 -0.48216993777E+03  0.10370959256E+04  0.14441489096E+04  0.59997238775E+03 0.  0.
        -24    2    4    4    0    0 -0.35361063072E+03 -0.11596682610E+03  0.85427218003E+03  0.93423253184E+03  0.67236024965E+02 0.  0.
         24    2    4    4    0    0 -0.29256535098E+03 -0.36620311167E+03  0.18282374555E+03  0.50991637778E+03  0.83011967770E+02 0.  0.
         13    1    3    3    0    0  0.38645206027E+03  0.24738814610E+03  0.10490406860E+04  0.11450032535E+04  0.00000000000E+00 0. -1.
        -14    1    3    3    0    0  0.25972392143E+03  0.23478179167E+03  0.70292374750E+03  0.78529026472E+03  0.00000000000E+00 0.  1.
         15    1    5    5    0    0 -0.93670394018E+02 -0.40286873219E+01  0.24861000583E+03  0.26570748158E+03  0.17770000000E+01 0. -1.
        -16    1    5    5    0    0 -0.25994023670E+03 -0.11193813878E+03  0.60566217420E+03  0.66852505026E+03  0.00000000000E+00 0.  1.
          2    1    6    6  502    0 -0.48090946495E+02 -0.19855286048E+02  0.22235337059E+02  0.56580754086E+02  0.00000000000E+00 0. -1.
         -1    1    6    6    0  502 -0.24447440449E+03 -0.34634782562E+03  0.16058840849E+03  0.45333562369E+03  0.00000000000E+00 0.  1.
<mgrwt>
<rscale>  0 0.83086269E+03</rscale>
<asrwt>0</asrwt>
<pdfrwt beam="1">  1        1 0.47411558E+00 0.83086269E+03</pdfrwt>
<pdfrwt beam="2">  1       -2 0.45029392E-01 0.83086269E+03</pdfrwt>
<totfact> 0.22567688E+00</totfact>
</mgrwt>
</event>
<event>
12    3  0.1201947E-007  0.4108743E+03  0.7818608E-02  0.1040078E+00
         -2   -1    0    0    0  501 -0.00000000000E+00  0.00000000000E+00  0.31632977848E+03  0.31632977848E+03  0.00000000000E+00 0.  1.
          1   -1    0    0  501    0  0.00000000000E+00 -0.00000000000E+00 -0.25811934513E+04  0.25811934513E+04  0.00000000000E+00 0. -1.
        -24    2    1    2    0    0 -0.69673407287E+02  0.28220280486E+03  0.18827766695E+03  0.35550115935E+03  0.80248287674E+02 0.  0.
    5000000    2    1    2    0    0  0.69673407287E+02 -0.28220280486E+03 -0.24531413398E+04  0.25420220704E+04  0.59956731640E+03 0.  0.
        -24    2    4    4    0    0  0.21183367446E+03 -0.29093975233E+03 -0.80033435282E+03  0.88116160896E+03  0.79945354324E+02 0.  0.
         24    2    4    4    0    0 -0.14216026717E+03  0.87369474724E+01 -0.16528069870E+04  0.16608604615E+04  0.80004128230E+02 0.  0.
         13    1    3    3    0    0 -0.21180906143E+02  0.21221882401E+02  0.44379382224E+02  0.53558646774E+02  0.00000000000E+00 0. -1.
        -14    1    3    3    0    0 -0.48492501144E+02  0.26098092246E+03  0.14389828473E+03  0.30194251258E+03  0.00000000000E+00 0.  1.
         15    1    5    5    0    0  0.37915868322E+02 -0.87678102144E+02 -0.28404792995E+03  0.29968558007E+03  0.17770000000E+01 0. -1.
        -16    1    5    5    0    0  0.17391780614E+03 -0.20326165019E+03 -0.51628642287E+03  0.58147602889E+03  0.00000000000E+00 0.  1.
          4    1    6    6  502    0 -0.11241321264E+03 -0.28142579373E+02 -0.11986312698E+04  0.12042199368E+04  0.00000000000E+00 0. -1.
         -3    1    6    6    0  502 -0.29747054536E+02  0.36879526845E+02 -0.45417571716E+03  0.45664052471E+03  0.00000000000E+00 0.  1.
<mgrwt>
<rscale>  0 0.41087433E+03</rscale>
<asrwt>0</asrwt>
<pdfrwt beam="1">  1        1 0.39710669E+00 0.41087433E+03</pdfrwt>
<pdfrwt beam="2">  1       -2 0.48666120E-01 0.41087433E+03</pdfrwt>
<totfact> 0.47811377E+00</totfact>
</mgrwt>
</event>
<event>
12    3  0.1201947E-007  0.6803011E+03  0.7818608E-02  0.9751526E-01
         -2   -1    0    0    0  501 -0.00000000000E+00  0.00000000000E+00  0.91267754115E+03  0.91267754115E+03  0.00000000000E+00 0.  1.
          1   -1    0    0  501    0  0.00000000000E+00 -0.00000000000E+00 -0.84322960090E+03  0.84322960090E+03  0.00000000000E+00 0. -1.
        -24    2    1    2    0    0 -0.54518832488E+02  0.61542942377E+03  0.49455080791E+03  0.79546878407E+03  0.80401530377E+02 0.  0.
    5000000    2    1    2    0    0  0.54518832488E+02 -0.61542942377E+03 -0.42510286767E+03  0.96043835798E+03  0.60000309386E+03 0.  0.
        -24    2    4    4    0    0  0.20314938785E+03 -0.48378963141E+03 -0.55642859456E+02  0.53359059731E+03  0.79377052663E+02 0.  0.
         24    2    4    4    0    0 -0.14863055536E+03 -0.13163979237E+03 -0.36946000821E+03  0.42684776067E+03  0.79235321664E+02 0.  0.
         11    1    3    3    0    0 -0.26207254778E+02  0.34455129329E+03  0.32675807138E+03  0.47557675629E+03  0.00000000000E+00 0. -1.
        -12    1    3    3    0    0 -0.28311577711E+02  0.27087813049E+03  0.16779273653E+03  0.31989202779E+03  0.00000000000E+00 0.  1.
         15    1    5    5    0    0  0.20139425993E+03 -0.41336699564E+03 -0.55397002344E+02  0.46314566457E+03  0.17770000000E+01 0. -1.
        -16    1    5    5    0    0  0.17551279205E+01 -0.70422635770E+02 -0.24585711197E+00  0.70444932738E+02  0.00000000000E+00 0.  1.
          2    1    6    6  502    0 -0.15276503411E+03 -0.13731970904E+03 -0.34622339969E+03  0.40257235453E+03  0.00000000000E+00 0. -1.
         -1    1    6    6    0  502  0.41344787412E+01  0.56799166727E+01 -0.23236608520E+02  0.24275406142E+02  0.00000000000E+00 0.  1.
<mgrwt>
<rscale>  0 0.68030108E+03</rscale>
<asrwt>0</asrwt>
<pdfrwt beam="1">  1        1 0.12972763E+00 0.68030108E+03</pdfrwt>
<pdfrwt beam="2">  1       -2 0.14041193E+00 0.68030108E+03</pdfrwt>
<totfact> 0.65439085E+00</totfact>
</mgrwt>
</event>
<event>
12    3  0.1201947E-007  0.3857588E+03  0.7818608E-02  0.1048826E+00
         -2   -1    0    0    0  501 -0.00000000000E+00  0.00000000000E+00  0.27422459613E+03  0.27422459613E+03  0.00000000000E+00 0.  1.
          1   -1    0    0  501    0  0.00000000000E+00 -0.00000000000E+00 -0.10758956367E+04  0.10758956367E+04  0.00000000000E+00 0. -1.
        -24    2    1    2    0    0  0.49732985871E+02 -0.36740931141E+03 -0.31694347513E+03  0.49431321997E+03  0.80183670511E+02 0.  0.
    5000000    2    1    2    0    0 -0.49732985871E+02  0.36740931141E+03 -0.48472756547E+03  0.85580701288E+03  0.59998488195E+03 0.  0.
        -24    2    4    4    0    0  0.15344286686E+02  0.22913756209E+03 -0.60238032433E+03  0.64872113581E+03  0.72371178109E+02 0.  0.
         24    2    4    4    0    0 -0.65077272557E+02  0.13827174932E+03  0.11765275885E+03  0.20708587707E+03  0.75420559200E+02 0.  0.
         11    1    3    3    0    0  0.17528877989E+02 -0.24830555329E+03 -0.16526290325E+03  0.29878878250E+03  0.00000000000E+00 0. -1.
        -12    1    3    3    0    0  0.32204107881E+02 -0.11910375813E+03 -0.15168057188E+03  0.19552443747E+03  0.00000000000E+00 0.  1.
         15    1    5    5    0    0  0.18818198447E+02  0.23390481731E+03 -0.59139797481E+03  0.63625490999E+03  0.17770000000E+01 0. -1.
        -16    1    5    5    0    0 -0.34739117601E+01 -0.47672552210E+01 -0.10982349515E+02  0.12466225817E+02  0.00000000000E+00 0.  1.
          4    1    6    6  502    0 -0.29382590824E+02  0.10774446395E+03  0.44639231102E+02  0.12026997593E+03  0.00000000000E+00 0. -1.
         -3    1    6    6    0  502 -0.35694681733E+02  0.30527285372E+02  0.73013527751E+02  0.86815901140E+02  0.00000000000E+00 0.  1.
<mgrwt>
<rscale>  0 0.38575882E+03</rscale>
<asrwt>0</asrwt>
<pdfrwt beam="1">  1        1 0.16552241E+00 0.38575882E+03</pdfrwt>
<pdfrwt beam="2">  1       -2 0.42188399E-01 0.38575882E+03</pdfrwt>
<totfact> 0.65767887E+01</totfact>
</mgrwt>
</event>
<event>
12    3  0.1201947E-007  0.1643897E+04  0.7818608E-02  0.8794025E-01
         -2   -1    0    0    0  501 -0.00000000000E+00  0.00000000000E+00  0.15162748246E+04  0.15162748246E+04  0.00000000000E+00 0.  1.
          1   -1    0    0  501    0  0.00000000000E+00 -0.00000000000E+00 -0.19233433204E+04  0.19233433204E+04  0.00000000000E+00 0. -1.
        -24    2    1    2    0    0 -0.64746016645E+03 -0.14782060569E+04 -0.56231531630E+03  0.17109260250E+04  0.82289333565E+02 0.  0.
    5000000    2    1    2    0    0  0.64746016645E+03  0.14782060569E+04  0.15524682046E+03  0.17286921199E+04  0.59998088015E+03 0.  0.
        -24    2    4    4    0    0 -0.40733879844E+02  0.33652292340E+03  0.18209069450E+03  0.39288722818E+03  0.79350022733E+02 0.  0.
         24    2    4    4    0    0  0.68819404629E+03  0.11416831335E+04 -0.26843874037E+02  0.13358048917E+04  0.81256954382E+02 0.  0.
         11    1    3    3    0    0 -0.21357709446E+03 -0.55193097439E+03 -0.23809119698E+03  0.63791096075E+03  0.00000000000E+00 0. -1.
        -12    1    3    3    0    0 -0.43388307199E+03 -0.92627508248E+03 -0.32422411932E+03  0.10730150643E+04  0.00000000000E+00 0.  1.
         15    1    5    5    0    0 -0.32314920370E+02  0.16949583098E+03  0.49653115812E+02  0.17955968489E+03  0.17770000000E+01 0. -1.
        -16    1    5    5    0    0 -0.84189594733E+01  0.16702709241E+03  0.13243757869E+03  0.21332754329E+03  0.00000000000E+00 0.  1.
          2    1    6    6  502    0  0.24634015314E+03  0.38431682859E+03 -0.45668210335E+02  0.45876843965E+03  0.00000000000E+00 0. -1.
         -1    1    6    6    0  502  0.44185389315E+03  0.75736630489E+03  0.18824336297E+02  0.87703645210E+03  0.00000000000E+00 0.  1.
<mgrwt>
<rscale>  0 0.16438967E+04</rscale>
<asrwt>0</asrwt>
<pdfrwt beam="1">  1        1 0.29589897E+00 0.16438967E+04</pdfrwt>
<pdfrwt beam="2">  1       -2 0.23327305E+00 0.16438967E+04</pdfrwt>
<totfact> 0.22258429E-01</totfact>
</mgrwt>
</event>
<event>
12    3  0.1201947E-007  0.1334509E+04  0.7818608E-02  0.9002638E-01
         -2   -1    0    0    0  501 -0.00000000000E+00  0.00000000000E+00  0.11196565116E+04  0.11196565116E+04  0.00000000000E+00 0.  1.
          1   -1    0    0  501    0  0.00000000000E+00 -0.00000000000E+00 -0.33172867953E+04  0.33172867953E+04  0.00000000000E+00 0. -1.
        -24    2    1    2    0    0  0.46964837493E+03 -0.12388588581E+04  0.46241411433E+03  0.14052442210E+04  0.74455632065E+02 0.  0.
    5000000    2    1    2    0    0 -0.46964837493E+03  0.12388588581E+04 -0.26600443981E+04  0.30316990858E+04  0.60001856714E+03 0.  0.
        -24    2    4    4    0    0 -0.29110034284E+02  0.62078974163E+02 -0.66113399942E+03  0.66936167611E+03  0.79029710418E+02 0.  0.
         24    2    4    4    0    0 -0.44053834065E+03  0.11767798840E+04 -0.19989103986E+04  0.23623374097E+04  0.78168604103E+02 0.  0.
         13    1    3    3    0    0  0.10900897437E+03 -0.35685098474E+03  0.10617770973E+03  0.38794237697E+03  0.00000000000E+00 0. -1.
        -14    1    3    3    0    0  0.36063940056E+03 -0.88200787339E+03  0.35623640460E+03  0.10173018441E+04  0.00000000000E+00 0.  1.
         15    1    5    5    0    0  0.10914471828E+02  0.34954272420E+02 -0.49443845599E+03  0.49579579601E+03  0.17770000000E+01 0. -1.
        -16    1    5    5    0    0 -0.40024506112E+02  0.27124701744E+02 -0.16669554343E+03  0.17356588010E+03  0.00000000000E+00 0.  1.
          2    1    6    6  502    0 -0.23225299433E+03  0.70509286875E+03 -0.12251305977E+04  0.14324951617E+04  0.00000000000E+00 0. -1.
         -1    1    6    6    0  502 -0.20828534632E+03  0.47168701522E+03 -0.77377980099E+03  0.92984224803E+03  0.00000000000E+00 0.  1.
<mgrwt>
<rscale>  0 0.13345086E+04</rscale>
<asrwt>0</asrwt>
<pdfrwt beam="1">  1        1 0.51035181E+00 0.13345086E+04</pdfrwt>
<pdfrwt beam="2">  1       -2 0.17225485E+00 0.13345086E+04</pdfrwt>
<totfact> 0.60578804E-02</totfact>
</mgrwt>
</event>
<event>
12    3  0.1201947E-007  0.6301558E+03  0.7818608E-02  0.9844745E-01
         -2   -1    0    0    0  501 -0.00000000000E+00  0.00000000000E+00  0.14794143960E+04  0.14794143960E+04  0.00000000000E+00 0.  1.
          1   -1    0    0  501    0  0.00000000000E+00 -0.00000000000E+00 -0.38942881359E+03  0.38942881359E+03  0.00000000000E+00 0. -1.
        -24    2    1    2    0    0 -0.18850297476E+03  0.58086760410E+03  0.23624291900E+03  0.65978246435E+03  0.81003941274E+02 0.  0.
    5000000    2    1    2    0    0  0.18850297476E+03 -0.58086760410E+03  0.85374266341E+03  0.12090607452E+04  0.60000900439E+03 0.  0.
        -24    2    4    4    0    0  0.69724741274E+02 -0.43327240374E+03  0.14182272564E+03  0.46801663883E+03  0.79620181644E+02 0.  0.
         24    2    4    4    0    0  0.11877823349E+03 -0.14759520036E+03  0.71191993777E+03  0.74104410641E+03  0.80148349500E+02 0.  0.
         11    1    3    3    0    0 -0.43363696496E+02  0.24351554304E+03  0.73056691337E+02  0.25790988742E+03  0.00000000000E+00 0. -1.
        -12    1    3    3    0    0 -0.14513927827E+03  0.33735206105E+03  0.16318622766E+03  0.40187257693E+03  0.00000000000E+00 0.  1.
         15    1    5    5    0    0  0.34203928066E+02 -0.35088425623E+03  0.13678103534E+03  0.37815589288E+03  0.17770000000E+01 0. -1.
        -16    1    5    5    0    0  0.35520813208E+02 -0.82388147509E+02  0.50416903056E+01  0.89860745946E+02  0.00000000000E+00 0.  1.
          4    1    6    6  502    0  0.53517884853E+02 -0.12222252592E+03  0.51662516533E+03  0.53357667799E+03  0.00000000000E+00 0. -1.
         -3    1    6    6    0  502  0.65260348634E+02 -0.25372674434E+02  0.19529477244E+03  0.20746742842E+03  0.00000000000E+00 0.  1.
<mgrwt>
<rscale>  0 0.63015584E+03</rscale>
<asrwt>0</asrwt>
<pdfrwt beam="1">  1        1 0.59912126E-01 0.63015584E+03</pdfrwt>
<pdfrwt beam="2">  1       -2 0.22760221E+00 0.63015584E+03</pdfrwt>
<totfact> 0.50290881E+00</totfact>
</mgrwt>
</event>
<event>
12    3  0.1201947E-007  0.6918547E+03  0.7818608E-02  0.9731264E-01
          1   -1    0    0  501    0  0.00000000000E+00  0.00000000000E+00  0.12045104378E+04  0.12045104378E+04  0.00000000000E+00 0. -1.
         -2   -1    0    0    0  501 -0.00000000000E+00 -0.00000000000E+00 -0.43958381599E+03  0.43958381599E+03  0.00000000000E+00 0.  1.
        -24    2    1    2    0    0 -0.21515674395E+02  0.59626348042E+03  0.38789239673E+03  0.71767068995E+03  0.92723489191E+02 0.  0.
    5000000    2    1    2    0    0  0.21515674395E+02 -0.59626348042E+03  0.37703422512E+03  0.92642356389E+03  0.60009395139E+03 0.  0.
        -24    2    4    4    0    0 -0.60001062710E+02  0.71758153325E+02 -0.43447704113E+02  0.12877464531E+03  0.77109313236E+02 0.  0.
         24    2    4    4    0    0  0.81516737105E+02 -0.66802163374E+03  0.42048192924E+03  0.79764891858E+03  0.80875601496E+02 0.  0.
         11    1    3    3    0    0  0.13077514285E+01  0.47520945194E+03  0.34496202966E+03  0.58721762178E+03  0.00000000000E+00 0. -1.
        -12    1    3    3    0    0 -0.22823425824E+02  0.12105402848E+03  0.42930367069E+02  0.13045306817E+03  0.00000000000E+00 0.  1.
         15    1    5    5    0    0  0.92944578499E+01  0.16848655633E+02 -0.34972252261E+02  0.39955979535E+02  0.17770000000E+01 0. -1.
        -16    1    5    5    0    0 -0.69295520560E+02  0.54909497692E+02 -0.84754518522E+01  0.88818665777E+02  0.00000000000E+00 0.  1.
          2    1    6    6  502    0  0.19011620498E+02 -0.24438379814E+02  0.23840386908E+02  0.39077361347E+02  0.00000000000E+00 0. -1.
         -1    1    6    6    0  502  0.62505116607E+02 -0.64358325393E+03  0.39664154233E+03  0.75857155723E+03  0.00000000000E+00 0.  1.
<mgrwt>
<rscale>  0 0.69185471E+03</rscale>
<asrwt>0</asrwt>
<pdfrwt beam="1">  1        1 0.18530930E+00 0.69185471E+03</pdfrwt>
<pdfrwt beam="2">  1       -2 0.67628280E-01 0.69185471E+03</pdfrwt>
<totfact> 0.19261089E+01</totfact>
</mgrwt>
</event>
<event>
12    3  0.1201947E-007  0.4818706E+03  0.7818608E-02  0.1018622E+00
         -2   -1    0    0    0  501 -0.00000000000E+00  0.00000000000E+00  0.28062176940E+03  0.28062176940E+03  0.00000000000E+00 0.  1.
          1   -1    0    0  501    0  0.00000000000E+00 -0.00000000000E+00 -0.22688267960E+04  0.22688267960E+04  0.00000000000E+00 0. -1.
        -24    2    1    2    0    0 -0.42737376515E+03  0.12767218220E+03 -0.16813539909E+04  0.17412944980E+04  0.78783022526E+02 0.  0.
    5000000    2    1    2    0    0  0.42737376515E+03 -0.12767218220E+03 -0.30685103572E+03  0.80815406746E+03  0.60000576446E+03 0.  0.
        -24    2    4    4    0    0  0.31766935128E+03  0.19350033468E+02  0.10958367716E+03  0.34623815337E+03  0.81142073010E+02 0.  0.
         24    2    4    4    0    0  0.10970441387E+03 -0.14702221566E+03 -0.41643471288E+03  0.46191591409E+03  0.79359002494E+02 0.  0.
         11    1    3    3    0    0 -0.22820735513E+03  0.41880992535E+02 -0.98486912242E+03  0.10118299278E+04  0.00000000000E+00 0. -1.
        -12    1    3    3    0    0 -0.19916641002E+03  0.85791189661E+02 -0.69648486850E+03  0.72946457018E+03  0.00000000000E+00 0.  1.
         15    1    5    5    0    0  0.10174672725E+03 -0.31652820446E+02  0.36280204885E+02  0.11257756679E+03  0.17770000000E+01 0. -1.
        -16    1    5    5    0    0  0.21592262403E+03  0.51002853914E+02  0.73303472275E+02  0.23366058658E+03  0.00000000000E+00 0.  1.
          2    1    6    6  502    0  0.18876857424E+01 -0.18830330629E+02 -0.11953984340E+03  0.12102858699E+03  0.00000000000E+00 0. -1.
         -1    1    6    6    0  502  0.10781672813E+03 -0.12819188504E+03 -0.29689486948E+03  0.34088732710E+03  0.00000000000E+00 0.  1.
<mgrwt>
<rscale>  0 0.48187060E+03</rscale>
<asrwt>0</asrwt>
<pdfrwt beam="1">  1        1 0.34905029E+00 0.48187060E+03</pdfrwt>
<pdfrwt beam="2">  1       -2 0.43172578E-01 0.48187060E+03</pdfrwt>
<totfact> 0.96280377E+00</totfact>
</mgrwt>
</event>
<event>
12    3  0.1201947E-007  0.9213150E+03  0.7818608E-02  0.9399322E-01
         -2   -1    0    0    0  501 -0.00000000000E+00  0.00000000000E+00  0.79471034093E+03  0.79471034093E+03  0.00000000000E+00 0.  1.
          1   -1    0    0  501    0  0.00000000000E+00 -0.00000000000E+00 -0.11797451129E+04  0.11797451129E+04  0.00000000000E+00 0. -1.
        -24    2    1    2    0    0  0.78086981973E+03 -0.29284286119E+03  0.89704667955E+02  0.84267776488E+03  0.80896670229E+02 0.  0.
    5000000    2    1    2    0    0 -0.78086981973E+03  0.29284286119E+03 -0.47473943989E+03  0.11317776889E+04  0.60002382005E+03 0.  0.
        -24    2    4    4    0    0 -0.57520474342E+03 -0.65919953109E+02 -0.38901035851E+03  0.70157531461E+03  0.75318828874E+02 0.  0.
         24    2    4    4    0    0 -0.20566507632E+03  0.35876281430E+03 -0.85729081384E+02  0.43020237431E+03  0.81949538873E+02 0.  0.
         11    1    3    3    0    0  0.11635546020E+03 -0.15560177068E+02  0.22235201004E+02  0.11947851854E+03  0.00000000000E+00 0. -1.
        -12    1    3    3    0    0  0.66451435953E+03 -0.27728268413E+03  0.67469466951E+02  0.72319924634E+03  0.00000000000E+00 0.  1.
         15    1    5    5    0    0 -0.44967425275E+03 -0.19836949851E+02 -0.29807097803E+03  0.53986100418E+03  0.17770000000E+01 0. -1.
        -16    1    5    5    0    0 -0.12553049067E+03 -0.46083003258E+02 -0.90939380475E+02  0.16171431043E+03  0.00000000000E+00 0.  1.
          2    1    6    6  502    0 -0.49925891121E+02  0.31788804056E+02 -0.72718514378E+01  0.59632226948E+02  0.00000000000E+00 0. -1.
         -1    1    6    6    0  502 -0.15573918520E+03  0.32697401025E+03 -0.78457229947E+02  0.37057014736E+03  0.00000000000E+00 0.  1.
<mgrwt>
<rscale>  0 0.92131502E+03</rscale>
<asrwt>0</asrwt>
<pdfrwt beam="1">  1        1 0.18149925E+00 0.92131502E+03</pdfrwt>
<pdfrwt beam="2">  1       -2 0.12226313E+00 0.92131502E+03</pdfrwt>
<totfact> 0.49441875E+00</totfact>
</mgrwt>
</event>
<event>
12    3  0.1201947E-007  0.1207165E+04  0.7818608E-02  0.9106608E-01
          1   -1    0    0  501    0  0.00000000000E+00  0.00000000000E+00  0.23271269647E+04  0.23271269647E+04  0.00000000000E+00 0. -1.
         -2   -1    0    0    0  501 -0.00000000000E+00 -0.00000000000E+00 -0.81054311159E+03  0.81054311159E+03  0.00000000000E+00 0.  1.
        -24    2    1    2    0    0 -0.83518822618E+03  0.76747681719E+03 -0.18221720803E+02  0.11372101496E+04  0.79717344886E+02 0.  0.
    5000000    2    1    2    0    0  0.83518822618E+03 -0.76747681719E+03  0.15348055739E+04  0.20004599267E+04  0.59970970534E+03 0.  0.
        -24    2    4    4    0    0  0.62928848657E+03 -0.83513339789E+03  0.13033488997E+04  0.16728505223E+04  0.79112098269E+02 0.  0.
         24    2    4    4    0    0  0.20589973961E+03  0.67656580698E+02  0.23145667419E+03  0.32760940439E+03  0.82362698694E+02 0.  0.
         13    1    3    3    0    0 -0.33327531699E+03  0.25670441221E+03 -0.18984423392E+02  0.42110568803E+03  0.00000000000E+00 0. -1.
        -14    1    3    3    0    0 -0.50191290919E+03  0.51077240498E+03  0.76270258902E+00  0.71610446152E+03  0.00000000000E+00 0.  1.
         15    1    5    5    0    0  0.25835229243E+03 -0.30508500200E+03  0.54775607930E+03  0.67813173173E+03  0.17770000000E+01 0. -1.
        -16    1    5    5    0    0  0.37093619414E+03 -0.53004839589E+03  0.75559282040E+03  0.99471879059E+03  0.00000000000E+00 0.  1.
          4    1    6    6  502    0  0.20632722733E+02 -0.17367928768E+02  0.37845265939E+02  0.46471694085E+02  0.00000000000E+00 0. -1.
         -3    1    6    6    0  502  0.18526701687E+03  0.85024509466E+02  0.19361140825E+03  0.28113771030E+03  0.00000000000E+00 0.  1.
<mgrwt>
<rscale>  0 0.12071648E+04</rscale>
<asrwt>0</asrwt>
<pdfrwt beam="1">  1        1 0.35801953E+00 0.12071648E+04</pdfrwt>
<pdfrwt beam="2">  1       -2 0.12469894E+00 0.12071648E+04</pdfrwt>
<totfact> 0.74055891E-01</totfact>
</mgrwt>
</event>
<event>
12    3  0.1201947E-007  0.4323269E+03  0.7818608E-02  0.1033127E+00
         -2   -1    0    0    0  501 -0.00000000000E+00  0.00000000000E+00  0.21462787622E+03  0.21462787622E+03  0.00000000000E+00 0.  1.
          1   -1    0    0  501    0  0.00000000000E+00 -0.00000000000E+00 -0.19746680227E+04  0.19746680227E+04  0.00000000000E+00 0. -1.
        -24    2    1    2    0    0 -0.38546965416E+02 -0.41957623095E+03 -0.11768898230E+04  0.12525840593E+04  0.79794035365E+02 0.  0.
    5000000    2    1    2    0    0  0.38546965416E+02  0.41957623095E+03 -0.58315032347E+03  0.93671183957E+03  0.59986222461E+03 0.  0.
        -24    2    4    4    0    0  0.57146343232E+02  0.19800360107E+03  0.78118214707E+02  0.23452269238E+03  0.80170488290E+02 0.  0.
         24    2    4    4    0    0 -0.18599377817E+02  0.22157262989E+03 -0.66126853817E+03  0.70218914719E+03  0.79706660211E+02 0.  0.
         11    1    3    3    0    0 -0.21016862244E+02 -0.32630811536E+03 -0.80734087282E+03  0.87104418922E+03  0.00000000000E+00 0. -1.
        -12    1    3    3    0    0 -0.17530103171E+02 -0.93268115595E+02 -0.36954895018E+03  0.38153987010E+03  0.00000000000E+00 0.  1.
         15    1    5    5    0    0  0.63536474863E+02  0.83797535411E+02  0.51375313605E+02  0.11705336884E+03  0.17770000000E+01 0. -1.
        -16    1    5    5    0    0 -0.63901316306E+01  0.11420606566E+03  0.26742901102E+02  0.11746932355E+03  0.00000000000E+00 0.  1.
          2    1    6    6  502    0 -0.18829215228E+01  0.13622281866E+03 -0.50813838251E+03  0.52608442051E+03  0.00000000000E+00 0. -1.
         -1    1    6    6    0  502 -0.16716456294E+02  0.85349811224E+02 -0.15313015566E+03  0.17610472668E+03  0.00000000000E+00 0.  1.
<mgrwt>
<rscale>  0 0.43232691E+03</rscale>
<asrwt>0</asrwt>
<pdfrwt beam="1">  1        1 0.30379508E+00 0.43232691E+03</pdfrwt>
<pdfrwt beam="2">  1       -2 0.33019673E-01 0.43232691E+03</pdfrwt>
<totfact> 0.25482406E+01</totfact>
</mgrwt>
</event>
<event>
12    3  0.1201947E-007  0.3492147E+03  0.7818608E-02  0.1062938E+00
          1   -1    0    0  501    0  0.00000000000E+00  0.00000000000E+00  0.13148664038E+03  0.13148664038E+03  0.00000000000E+00 0. -1.
         -2   -1    0    0    0  501 -0.00000000000E+00 -0.00000000000E+00 -0.12849547206E+04  0.12849547206E+04  0.00000000000E+00 0.  1.
        -24    2    1    2    0    0 -0.13397926040E+03  0.16506802873E+02 -0.75414313670E+02  0.17543768596E+03  0.82874279424E+02 0.  0.
    5000000    2    1    2    0    0  0.13397926040E+03 -0.16506802873E+02 -0.10780537666E+04  0.12410036750E+04  0.59972267015E+03 0.  0.
        -24    2    4    4    0    0 -0.28757846455E+02 -0.25279531638E+03 -0.26903310406E+03  0.37898003325E+03  0.80712878817E+02 0.  0.
         24    2    4    4    0    0  0.16273710686E+03  0.23628851351E+03 -0.80902066249E+03  0.86202364177E+03  0.79086655489E+02 0.  0.
         13    1    3    3    0    0  0.93438019957E+00  0.26468653092E+01  0.13157695704E+02  0.13453769679E+02  0.00000000000E+00 0. -1.
        -14    1    3    3    0    0 -0.13491364060E+03  0.13859937564E+02 -0.88572009374E+02  0.16198391628E+03  0.00000000000E+00 0.  1.
         15    1    5    5    0    0  0.22979348979E+02 -0.99159877289E+02 -0.76843428832E+02  0.12754921414E+03  0.17770000000E+01 0. -1.
        -16    1    5    5    0    0 -0.51737195434E+02 -0.15363543909E+03 -0.19218967523E+03  0.25143081912E+03  0.00000000000E+00 0.  1.
          4    1    6    6  502    0  0.88271765143E+02  0.18698832842E+03 -0.52332055563E+03  0.56269080624E+03  0.00000000000E+00 0. -1.
         -3    1    6    6    0  502  0.74465341712E+02  0.49300185088E+02 -0.28570010686E+03  0.29933283553E+03  0.00000000000E+00 0.  1.
<mgrwt>
<rscale>  0 0.34921473E+03</rscale>
<asrwt>0</asrwt>
<pdfrwt beam="1">  1        1 0.20228714E-01 0.34921473E+03</pdfrwt>
<pdfrwt beam="2">  1       -2 0.19768534E+00 0.34921473E+03</pdfrwt>
<totfact> 0.32743336E+01</totfact>
</mgrwt>
</event>
<event>
12    3  0.1201947E-007  0.3775492E+03  0.7818608E-02  0.1051843E+00
          1   -1    0    0  501    0  0.00000000000E+00  0.00000000000E+00  0.14414169835E+04  0.14414169835E+04  0.00000000000E+00 0. -1.
         -2   -1    0    0    0  501 -0.00000000000E+00 -0.00000000000E+00 -0.40503678860E+03  0.40503678860E+03  0.00000000000E+00 0.  1.
        -24    2    1    2    0    0  0.14703711029E+03 -0.30035632148E+03 -0.22384512713E+03  0.41114969077E+03  0.84282831121E+02 0.  0.
    5000000    2    1    2    0    0 -0.14703711029E+03  0.30035632148E+03  0.12602253220E+04  0.14353040813E+04  0.60008008792E+03 0.  0.
        -24    2    4    4    0    0 -0.18864603785E+03  0.18670354711E+03  0.12605858226E+04  0.12907810576E+04  0.81200864534E+02 0.  0.
         24    2    4    4    0    0  0.41608927558E+02  0.11365277437E+03 -0.36050061391E+00  0.14452302369E+03  0.78984292372E+02 0.  0.
         11    1    3    3    0    0  0.53947275874E+02 -0.19174582320E+03 -0.10496694619E+03  0.22515512226E+03  0.00000000000E+00 0. -1.
        -12    1    3    3    0    0  0.93089834420E+02 -0.10861049828E+03 -0.11887818094E+03  0.18599456850E+03  0.00000000000E+00 0.  1.
         15    1    5    5    0    0 -0.89681691494E+01  0.50172063774E+02  0.19467608757E+03  0.20124512626E+03  0.17770000000E+01 0. -1.
        -16    1    5    5    0    0 -0.17967786870E+03  0.13653148334E+03  0.10659097350E+04  0.10895359314E+04  0.00000000000E+00 0.  1.
          2    1    6    6  502    0  0.47271883157E+02  0.11922480088E+03  0.13070090453E+02  0.12891862296E+03  0.00000000000E+00 0. -1.
         -1    1    6    6    0  502 -0.56629555997E+01 -0.55720265130E+01 -0.13430591067E+02  0.15604400725E+02  0.00000000000E+00 0.  1.
<mgrwt>
<rscale>  0 0.37754922E+03</rscale>
<asrwt>0</asrwt>
<pdfrwt beam="1">  1        1 0.22175646E+00 0.37754922E+03</pdfrwt>
<pdfrwt beam="2">  1       -2 0.62313353E-01 0.37754922E+03</pdfrwt>
<totfact> 0.16566105E+01</totfact>
</mgrwt>
</event>
<event>
12    3  0.1201947E-007  0.3710730E+03  0.7818608E-02  0.1054283E+00
          1   -1    0    0  501    0  0.00000000000E+00  0.00000000000E+00  0.16077356122E+04  0.16077356122E+04  0.00000000000E+00 0. -1.
         -2   -1    0    0    0  501 -0.00000000000E+00 -0.00000000000E+00 -0.24413920071E+03  0.24413920071E+03  0.00000000000E+00 0.  1.
        -24    2    1    2    0    0  0.27238711354E+03 -0.15129435036E+03  0.10650911116E+04  0.11126948040E+04  0.81153746937E+02 0.  0.
    5000000    2    1    2    0    0 -0.27238711354E+03  0.15129435036E+03  0.29850529984E+03  0.73918000893E+03  0.60016410380E+03 0.  0.
        -24    2    4    4    0    0 -0.15737679830E+03 -0.67398413679E+02  0.41393716830E+03  0.45524602582E+03  0.81209370853E+02 0.  0.
         24    2    4    4    0    0 -0.11501031524E+03  0.21869276404E+03 -0.11543186846E+03  0.28393398310E+03  0.78994258356E+02 0.  0.
         11    1    3    3    0    0  0.22431180975E+03 -0.88310777602E+02  0.74983228520E+03  0.78763128263E+03  0.00000000000E+00 0. -1.
        -12    1    3    3    0    0  0.48075303783E+02 -0.62983572756E+02  0.31525882642E+03  0.32506352134E+03  0.00000000000E+00 0.  1.
         15    1    5    5    0    0 -0.10483409841E+03 -0.26568056317E+02  0.16289898236E+03  0.19553845143E+03  0.17770000000E+01 0. -1.
        -16    1    5    5    0    0 -0.52542699893E+02 -0.40830357362E+02  0.25103818594E+03  0.25970757439E+03  0.00000000000E+00 0.  1.
          2    1    6    6  502    0 -0.58902339776E+02  0.10690799885E+03 -0.13926835714E+02  0.12285260519E+03  0.00000000000E+00 0. -1.
         -1    1    6    6    0  502 -0.56107975461E+02  0.11178476519E+03 -0.10150503274E+03  0.16108137791E+03  0.00000000000E+00 0.  1.
<mgrwt>
<rscale>  0 0.37107296E+03</rscale>
<asrwt>0</asrwt>
<pdfrwt beam="1">  1        1 0.24734393E+00 0.37107296E+03</pdfrwt>
<pdfrwt beam="2">  1       -2 0.37559878E-01 0.37107296E+03</pdfrwt>
<totfact> 0.35383417E+01</totfact>
</mgrwt>
</event>
<event>
12    3  0.1201947E-007  0.8221915E+03  0.7818608E-02  0.9528440E-01
          1   -1    0    0  501    0  0.00000000000E+00  0.00000000000E+00  0.11660885694E+04  0.11660885694E+04  0.00000000000E+00 0. -1.
         -2   -1    0    0    0  501 -0.00000000000E+00 -0.00000000000E+00 -0.68145856427E+03  0.68145856427E+03  0.00000000000E+00 0.  1.
        -24    2    1    2    0    0 -0.46022682384E+03  0.56709102902E+03  0.52235857118E+03  0.90158859498E+03  0.81256095946E+02 0.  0.
    5000000    2    1    2    0    0  0.46022682384E+03 -0.56709102902E+03 -0.37728566087E+02  0.94595853865E+03  0.60001095621E+03 0.  0.
        -24    2    4    4    0    0  0.49544029734E+03 -0.20240520166E+03 -0.13713693904E+03  0.55811788608E+03  0.79120672580E+02 0.  0.
         24    2    4    4    0    0 -0.35213473499E+02 -0.36468582737E+03  0.99408372954E+02  0.38784065257E+03  0.79388952459E+02 0.  0.
         11    1    3    3    0    0 -0.27820700245E+03  0.34386188232E+03  0.36440608023E+03  0.57308980242E+03  0.00000000000E+00 0. -1.
        -12    1    3    3    0    0 -0.18201982140E+03  0.22322914670E+03  0.15795249095E+03  0.32849879256E+03  0.00000000000E+00 0.  1.
         15    1    5    5    0    0  0.36885326768E+03 -0.18666940781E+03 -0.10781278810E+03  0.42722939494E+03  0.17770000000E+01 0. -1.
        -16    1    5    5    0    0  0.12658702966E+03 -0.15735793844E+02 -0.29324150940E+02  0.13088849114E+03  0.00000000000E+00 0.  1.
          4    1    6    6  502    0  0.88765577774E+01 -0.25073335453E+03  0.84559031996E+02  0.26475694183E+03  0.00000000000E+00 0. -1.
         -3    1    6    6    0  502 -0.44090031276E+02 -0.11395247284E+03  0.14849340959E+02  0.12308371074E+03  0.00000000000E+00 0.  1.
<mgrwt>
<rscale>  0 0.82219146E+03</rscale>
<asrwt>0</asrwt>
<pdfrwt beam="1">  1        1 0.17939824E+00 0.82219146E+03</pdfrwt>
<pdfrwt beam="2">  1       -2 0.10483978E+00 0.82219146E+03</pdfrwt>
<totfact> 0.74526193E+00</totfact>
</mgrwt>
</event>
<event>
12    3  0.1201947E-007  0.6401203E+03  0.7818608E-02  0.9825496E-01
          1   -1    0    0  501    0  0.00000000000E+00  0.00000000000E+00  0.10753526689E+04  0.10753526689E+04  0.00000000000E+00 0. -1.
         -2   -1    0    0    0  501 -0.00000000000E+00 -0.00000000000E+00 -0.49695981812E+03  0.49695981812E+03  0.00000000000E+00 0.  1.
        -24    2    1    2    0    0 -0.36960845586E+03  0.42736728929E+03  0.95775475680E+01  0.57087028795E+03  0.80919377442E+02 0.  0.
    5000000    2    1    2    0    0  0.36960845586E+03 -0.42736728929E+03  0.56881530324E+03  0.10014421991E+04  0.60006867800E+03 0.  0.
        -24    2    4    4    0    0  0.29491479635E+03 -0.51461851753E+03  0.61113636740E+03  0.85545474284E+03  0.80673426890E+02 0.  0.
         24    2    4    4    0    0  0.74693659512E+02  0.87251228238E+02 -0.42321064154E+02  0.14598745625E+03  0.79557182652E+02 0.  0.
         11    1    3    3    0    0 -0.23802991853E+03  0.28937583879E+03  0.43484536205E+02  0.37721018422E+03  0.00000000000E+00 0. -1.
        -12    1    3    3    0    0 -0.13157853734E+03  0.13799145050E+03 -0.33906988637E+02  0.19366010373E+03  0.00000000000E+00 0.  1.
         15    1    5    5    0    0  0.18000974849E+03 -0.35146685213E+03  0.45213799755E+03  0.60030357674E+03  0.17770000000E+01 0. -1.
        -16    1    5    5    0    0  0.11490504786E+03 -0.16315166540E+03  0.15899836985E+03  0.25515116610E+03  0.00000000000E+00 0.  1.
          4    1    6    6  502    0  0.51720956493E+02  0.81874570399E+02  0.78627654062E+00  0.96845861292E+02  0.00000000000E+00 0. -1.
         -3    1    6    6    0  502  0.22972703019E+02  0.53766578395E+01 -0.43107340694E+02  0.49141594960E+02  0.00000000000E+00 0.  1.
<mgrwt>
<rscale>  0 0.64012033E+03</rscale>
<asrwt>0</asrwt>
<pdfrwt beam="1">  1        1 0.16543887E+00 0.64012033E+03</pdfrwt>
<pdfrwt beam="2">  1       -2 0.76455357E-01 0.64012033E+03</pdfrwt>
<totfact> 0.18432069E+01</totfact>
</mgrwt>
</event>
<event>
12    3  0.1201947E-007  0.1278739E+04  0.7818608E-02  0.9046598E-01
          1   -1    0    0  501    0  0.00000000000E+00  0.00000000000E+00  0.11542238607E+04  0.11542238607E+04  0.00000000000E+00 0. -1.
         -2   -1    0    0    0  501 -0.00000000000E+00 -0.00000000000E+00 -0.19275102995E+04  0.19275102995E+04  0.00000000000E+00 0.  1.
        -24    2    1    2    0    0 -0.82189671725E+03 -0.94689801314E+03 -0.10825292358E+04  0.16579540509E+04  0.69368776723E+02 0.  0.
    5000000    2    1    2    0    0  0.82189671725E+03  0.94689801314E+03  0.30924279698E+03  0.14237801093E+04  0.59949030948E+03 0.  0.
        -24    2    4    4    0    0  0.80837902202E+02 -0.18150120403E+02  0.15795992351E+03  0.19497789830E+03  0.78745476610E+02 0.  0.
         24    2    4    4    0    0  0.74105881504E+03  0.96504813354E+03  0.15128287348E+03  0.12288022110E+04  0.81131366656E+02 0.  0.
         11    1    3    3    0    0 -0.51492908924E+03 -0.62761247003E+03 -0.73225133420E+03  0.10932709618E+04  0.00000000000E+00 0. -1.
        -12    1    3    3    0    0 -0.30696762801E+03 -0.31928554311E+03 -0.35027790164E+03  0.56468308905E+03  0.00000000000E+00 0.  1.
         15    1    5    5    0    0  0.24214035943E+02 -0.13181874846E+01  0.12497846054E+03  0.12732175966E+03  0.17770000000E+01 0. -1.
        -16    1    5    5    0    0  0.56623866259E+02 -0.16831932918E+02  0.32981462969E+02  0.67656138638E+02  0.00000000000E+00 0.  1.
          4    1    6    6  502    0  0.23332099195E+03  0.36647501910E+03  0.61308692362E+02  0.43874979279E+03  0.00000000000E+00 0. -1.
         -3    1    6    6    0  502  0.50773782309E+03  0.59857311444E+03  0.89974181116E+02  0.79005241826E+03  0.00000000000E+00 0.  1.
<mgrwt>
<rscale>  0 0.12787386E+04</rscale>
<asrwt>0</asrwt>
<pdfrwt beam="1">  1        1 0.17757290E+00 0.12787386E+04</pdfrwt>
<pdfrwt beam="2">  1       -2 0.29654004E+00 0.12787386E+04</pdfrwt>
<totfact> 0.32782598E-01</totfact>
</mgrwt>
</event>
<event>
12    3  0.1201947E-007  0.6462703E+03  0.7818608E-02  0.9813803E-01
         -2   -1    0    0    0  501 -0.00000000000E+00  0.00000000000E+00  0.18352867131E+03  0.18352867131E+03  0.00000000000E+00 0.  1.
          1   -1    0    0  501    0  0.00000000000E+00 -0.00000000000E+00 -0.29191681272E+04  0.29191681272E+04  0.00000000000E+00 0. -1.
        -24    2    1    2    0    0 -0.47964382549E+01  0.59196948185E+03 -0.86774042519E+03  0.10534707979E+04  0.79852383792E+02 0.  0.
    5000000    2    1    2    0    0  0.47964382549E+01 -0.59196948185E+03 -0.18678990307E+04  0.20492260006E+04  0.59985793276E+03 0.  0.
        -24    2    4    4    0    0 -0.14194724973E+03 -0.80879145235E+02 -0.11333078121E+03  0.21412731431E+03  0.79474416802E+02 0.  0.
         24    2    4    4    0    0  0.14674368798E+03 -0.51109033662E+03 -0.17545682495E+04  0.18350986863E+04  0.79563837568E+02 0.  0.
         11    1    3    3    0    0  0.32183301865E+02  0.42819574041E+03 -0.62991491300E+03  0.76235172633E+03  0.00000000000E+00 0. -1.
        -12    1    3    3    0    0 -0.36979740120E+02  0.16377374144E+03 -0.23782551220E+03  0.29111907154E+03  0.00000000000E+00 0.  1.
         15    1    5    5    0    0 -0.37047583458E+02 -0.23650978798E+02  0.70015297362E+01  0.44542916225E+02  0.17770000000E+01 0. -1.
        -16    1    5    5    0    0 -0.10489966627E+03 -0.57228166436E+02 -0.12033231094E+03  0.16958439809E+03  0.00000000000E+00 0.  1.
          2    1    6    6  502    0  0.61577606880E+02 -0.22203800062E+03 -0.62843208989E+03  0.66934263795E+03  0.00000000000E+00 0. -1.
         -1    1    6    6    0  502  0.85166081103E+02 -0.28905233600E+03 -0.11261361596E+04  0.11657560484E+04  0.00000000000E+00 0.  1.
<mgrwt>
<rscale>  0 0.64627032E+03</rscale>
<asrwt>0</asrwt>
<pdfrwt beam="1">  1        1 0.44910275E+00 0.64627032E+03</pdfrwt>
<pdfrwt beam="2">  1       -2 0.28235182E-01 0.64627032E+03</pdfrwt>
<totfact> 0.74564016E+00</totfact>
</mgrwt>
</event>
<event>
12    3  0.1201947E-007  0.1051629E+04  0.7818608E-02  0.9253664E-01
         -2   -1    0    0    0  501 -0.00000000000E+00  0.00000000000E+00  0.34092490402E+03  0.34092490402E+03  0.00000000000E+00 0.  1.
          1   -1    0    0  501    0  0.00000000000E+00 -0.00000000000E+00 -0.35336586890E+04  0.35336586890E+04  0.00000000000E+00 0. -1.
        -24    2    1    2    0    0 -0.99824276057E+03 -0.10513812351E+03 -0.17272143903E+04  0.19994686107E+04  0.84038927560E+02 0.  0.
    5000000    2    1    2    0    0  0.99824276057E+03  0.10513812351E+03 -0.14655193947E+04  0.18751149823E+04  0.60063838242E+03 0.  0.
        -24    2    4    4    0    0  0.43269243544E+03  0.25993322639E+03 -0.37331953391E+03  0.63293293078E+03  0.80303141871E+02 0.  0.
         24    2    4    4    0    0  0.56555032513E+03 -0.15479510289E+03 -0.10921998608E+04  0.12421820515E+04  0.79416742528E+02 0.  0.
         13    1    3    3    0    0 -0.64585010097E+03 -0.68499874151E+02 -0.11955456771E+04  0.13605675477E+04  0.00000000000E+00 0. -1.
        -14    1    3    3    0    0 -0.35239265960E+03 -0.36638249359E+02 -0.53166871310E+03  0.63890106304E+03  0.00000000000E+00 0.  1.
         15    1    5    5    0    0  0.24133904845E+03  0.18729210145E+03 -0.24224346404E+03  0.38988193235E+03  0.17770000000E+01 0. -1.
        -16    1    5    5    0    0  0.19135338699E+03  0.72641124948E+02 -0.13107606987E+03  0.24305099844E+03  0.00000000000E+00 0.  1.
          4    1    6    6  502    0  0.31065658256E+03 -0.54467012375E+02 -0.63975989009E+03  0.71327896695E+03  0.00000000000E+00 0. -1.
         -3    1    6    6    0  502  0.25489374256E+03 -0.10032809051E+03 -0.45243997074E+03  0.52890308457E+03  0.00000000000E+00 0.  1.
<mgrwt>
<rscale>  0 0.10516292E+04</rscale>
<asrwt>0</asrwt>
<pdfrwt beam="1">  1        1 0.54363981E+00 0.10516292E+04</pdfrwt>
<pdfrwt beam="2">  1       -2 0.52449984E-01 0.10516292E+04</pdfrwt>
<totfact> 0.72894992E-01</totfact>
</mgrwt>
</event>
<event>
12    3  0.1201947E-007  0.4545288E+03  0.7818608E-02  0.1026380E+00
         -2   -1    0    0    0  501 -0.00000000000E+00  0.00000000000E+00  0.15339502453E+03  0.15339502453E+03  0.00000000000E+00 0.  1.
          1   -1    0    0  501    0  0.00000000000E+00 -0.00000000000E+00 -0.22898690258E+04  0.22898690258E+04  0.00000000000E+00 0. -1.
        -24    2    1    2    0    0 -0.23492906438E+03 -0.35772982258E+03 -0.62132800989E+03  0.75852243838E+03  0.78393254769E+02 0.  0.
    5000000    2    1    2    0    0  0.23492906438E+03  0.35772982258E+03 -0.15151459913E+04  0.16847416119E+04  0.59960372964E+03 0.  0.
        -24    2    4    4    0    0 -0.49856219872E+01  0.69993403158E+02  0.14897149365E+02  0.10747144717E+03  0.80026582996E+02 0.  0.
         24    2    4    4    0    0  0.23991468637E+03  0.28773641943E+03 -0.15300431407E+04  0.15772701647E+04  0.79986601210E+02 0.  0.
         11    1    3    3    0    0 -0.13922895846E+03 -0.20166401039E+03 -0.42112213427E+03  0.48723395606E+03  0.00000000000E+00 0. -1.
        -12    1    3    3    0    0 -0.95700105921E+02 -0.15606581219E+03 -0.20020587562E+03  0.27128848233E+03  0.00000000000E+00 0.  1.
         15    1    5    5    0    0 -0.88761014512E+01  0.83400898371E+02  0.27884879311E+02  0.88403728707E+02  0.17770000000E+01 0. -1.
        -16    1    5    5    0    0  0.38904794640E+01 -0.13407495213E+02 -0.12987729946E+02  0.19067718466E+02  0.00000000000E+00 0.  1.
          4    1    6    6  502    0  0.13607582033E+03  0.22134990638E+03 -0.10364711085E+04  0.10685432929E+04  0.00000000000E+00 0. -1.
         -3    1    6    6    0  502  0.10383886604E+03  0.66386513043E+02 -0.49357203216E+03  0.50872687186E+03  0.00000000000E+00 0.  1.
<mgrwt>
<rscale>  0 0.45452881E+03</rscale>
<asrwt>0</asrwt>
<pdfrwt beam="1">  1        1 0.35228754E+00 0.45452881E+03</pdfrwt>
<pdfrwt beam="2">  1       -2 0.23599235E-01 0.45452881E+03</pdfrwt>
<totfact> 0.28911765E+01</totfact>
</mgrwt>
</event>
<event>
12    3  0.1201947E-007  0.5306928E+03  0.7818608E-02  0.1006064E+00
          1   -1    0    0  501    0  0.00000000000E+00  0.00000000000E+00  0.15691979301E+04  0.15691979301E+04  0.00000000000E+00 0. -1.
         -2   -1    0    0    0  501 -0.00000000000E+00 -0.00000000000E+00 -0.26015363774E+03  0.26015363774E+03  0.00000000000E+00 0.  1.
        -24    2    1    2    0    0  0.97336513797E+02  0.36064026666E+03  0.97602585033E+03  0.10480929137E+04  0.79602112495E+02 0.  0.
    5000000    2    1    2    0    0 -0.97336513797E+02 -0.36064026666E+03  0.33301844206E+03  0.78125865421E+03  0.59993999965E+03 0.  0.
        -24    2    4    4    0    0 -0.31927193289E+03 -0.11134901910E+03  0.25523374982E+03  0.42950571844E+03  0.70694582105E+02 0.  0.
         24    2    4    4    0    0  0.22193541909E+03 -0.24929124756E+03  0.77784692242E+02  0.35175293578E+03  0.79235176056E+02 0.  0.
         13    1    3    3    0    0  0.54293402872E+02  0.29973892093E+03  0.72982636053E+03  0.79084619923E+03  0.00000000000E+00 0. -1.
        -14    1    3    3    0    0  0.43043110926E+02  0.60901345726E+02  0.24619948980E+03  0.25724671443E+03  0.00000000000E+00 0.  1.
         15    1    5    5    0    0 -0.15746462100E+03 -0.71810104825E+02  0.90799867984E+02  0.19544710737E+03  0.17770000000E+01 0. -1.
        -16    1    5    5    0    0 -0.16180731188E+03 -0.39538914273E+02  0.16443388183E+03  0.23405861107E+03  0.00000000000E+00 0.  1.
          2    1    6    6  502    0 -0.47747245886E+01 -0.18216379057E+02  0.87068956119E+01  0.20747156240E+02  0.00000000000E+00 0. -1.
         -1    1    6    6    0  502  0.22671014368E+03 -0.23107486850E+03  0.69077796630E+02  0.33100577954E+03  0.00000000000E+00 0.  1.
<mgrwt>
<rscale>  0 0.53069280E+03</rscale>
<asrwt>0</asrwt>
<pdfrwt beam="1">  1        1 0.24141506E+00 0.53069280E+03</pdfrwt>
<pdfrwt beam="2">  1       -2 0.40023637E-01 0.53069280E+03</pdfrwt>
<totfact> 0.32215568E+01</totfact>
</mgrwt>
</event>
<event>
12    3  0.1201947E-007  0.1375710E+04  0.7818608E-02  0.8971591E-01
          1   -1    0    0  501    0  0.00000000000E+00  0.00000000000E+00  0.16680519227E+04  0.16680519227E+04  0.00000000000E+00 0. -1.
         -2   -1    0    0    0  501 -0.00000000000E+00 -0.00000000000E+00 -0.18194977038E+04  0.18194977038E+04  0.00000000000E+00 0.  1.
        -24    2    1    2    0    0 -0.70275562541E+03 -0.11268835182E+04  0.97169767142E+03  0.16476537105E+04  0.82670746994E+02 0.  0.
    5000000    2    1    2    0    0  0.70275562541E+03  0.11268835182E+04 -0.11231434526E+04  0.18398959161E+04  0.60002819455E+03 0.  0.
        -24    2    4    4    0    0  0.14208247004E+03  0.69113960015E+03 -0.36529427641E+03  0.79885413078E+03  0.82865183864E+02 0.  0.
         24    2    4    4    0    0  0.56067315537E+03  0.43574391800E+03 -0.75784917620E+03  0.10410417853E+04  0.72148981948E+02 0.  0.
         11    1    3    3    0    0 -0.64506338723E+03 -0.98631718211E+03  0.85268525727E+03  0.14546478973E+04  0.00000000000E+00 0. -1.
        -12    1    3    3    0    0 -0.57692238174E+02 -0.14056633604E+03  0.11901241415E+03  0.19300581311E+03  0.00000000000E+00 0.  1.
         15    1    5    5    0    0  0.39426755949E+02  0.34425514159E+03 -0.14750463849E+03  0.37659905430E+03  0.17770000000E+01 0. -1.
        -16    1    5    5    0    0  0.10265571409E+03  0.34688445857E+03 -0.21778963792E+03  0.42225507648E+03  0.00000000000E+00 0.  1.
          2    1    6    6  502    0  0.50258651339E+03  0.36498377490E+03 -0.67870973435E+03  0.92002894677E+03  0.00000000000E+00 0. -1.
         -1    1    6    6    0  502  0.58086641975E+02  0.70760143104E+02 -0.79139441847E+02  0.12101283851E+03  0.00000000000E+00 0.  1.
<mgrwt>
<rscale>  0 0.13757099E+04</rscale>
<asrwt>0</asrwt>
<pdfrwt beam="1">  1        1 0.25662337E+00 0.13757099E+04</pdfrwt>
<pdfrwt beam="2">  1       -2 0.27992272E+00 0.13757099E+04</pdfrwt>
<totfact> 0.17701526E-01</totfact>
</mgrwt>
</event>
<event>
12    3  0.1201947E-007  0.3938553E+03  0.7818608E-02  0.1045928E+00
         -2   -1    0    0    0  501 -0.00000000000E+00  0.00000000000E+00  0.74972377005E+02  0.74972377005E+02  0.00000000000E+00 0.  1.
          1   -1    0    0  501    0  0.00000000000E+00 -0.00000000000E+00 -0.39406627481E+04  0.39406627481E+04  0.00000000000E+00 0. -1.
        -24    2    1    2    0    0  0.93299182942E+02 -0.17491851616E+03 -0.18819223366E+03  0.28426474691E+03  0.78031434009E+02 0.  0.
    5000000    2    1    2    0    0 -0.93299182942E+02  0.17491851616E+03 -0.36774981375E+04  0.37313703782E+04  0.59985925316E+03 0.  0.
        -24    2    4    4    0    0 -0.29147806463E+03  0.22689116652E+03 -0.28529452492E+04  0.28779470073E+04  0.82724350176E+02 0.  0.
         24    2    4    4    0    0  0.19817888169E+03 -0.51972650360E+02 -0.82455288822E+03  0.85342337091E+03  0.80423622212E+02 0.  0.
         11    1    3    3    0    0  0.57982185975E+02 -0.11086775627E+03 -0.16592265147E+03  0.20780740974E+03  0.00000000000E+00 0. -1.
        -12    1    3    3    0    0  0.35316996967E+02 -0.64050759888E+02 -0.22269582195E+02  0.76457337177E+02  0.00000000000E+00 0.  1.
         15    1    5    5    0    0 -0.13321888533E+03  0.14687623185E+03 -0.16820528925E+04  0.16937015645E+04  0.17770000000E+01 0. -1.
        -16    1    5    5    0    0 -0.15825917930E+03  0.80014934666E+02 -0.11708923568E+04  0.11842454428E+04  0.00000000000E+00 0.  1.
          4    1    6    6  502    0  0.66894704459E+02  0.11694218925E+02 -0.17568542491E+03  0.18835345701E+03  0.00000000000E+00 0. -1.
         -3    1    6    6    0  502  0.13128417723E+03 -0.63666869285E+02 -0.64886746331E+03  0.66506991390E+03  0.00000000000E+00 0.  1.
<mgrwt>
<rscale>  0 0.39385527E+03</rscale>
<asrwt>0</asrwt>
<pdfrwt beam="1">  1        1 0.60625588E+00 0.39385527E+03</pdfrwt>
<pdfrwt beam="2">  1       -2 0.11534210E-01 0.39385527E+03</pdfrwt>
<totfact> 0.61902447E+00</totfact>
</mgrwt>
</event>
<event>
12    3  0.1201947E-007  0.6780414E+03  0.7818608E-02  0.9755539E-01
          1   -1    0    0  501    0  0.00000000000E+00  0.00000000000E+00  0.70719481407E+03  0.70719481407E+03  0.00000000000E+00 0. -1.
         -2   -1    0    0    0  501 -0.00000000000E+00 -0.00000000000E+00 -0.67629757954E+03  0.67629757954E+03  0.00000000000E+00 0.  1.
        -24    2    1    2    0    0 -0.12720892097E+03 -0.53301819560E+03 -0.91134790905E+02  0.56152728310E+03  0.81956287907E+02 0.  0.
    5000000    2    1    2    0    0  0.12720892097E+03  0.53301819560E+03  0.12203202544E+03  0.82196511051E+03  0.60037015353E+03 0.  0.
        -24    2    4    4    0    0 -0.14924595305E+02  0.62133689835E+03  0.67026576263E+02  0.63027558489E+03  0.80451638815E+02 0.  0.
         24    2    4    4    0    0  0.14213351627E+03 -0.88318702749E+02  0.55005449173E+02  0.19168952562E+03  0.75611805226E+02 0.  0.
         13    1    3    3    0    0 -0.21959287218E+02 -0.62375534210E+02  0.14795357392E+02  0.67762970444E+02  0.00000000000E+00 0. -1.
        -14    1    3    3    0    0 -0.10524963375E+03 -0.47064266139E+03 -0.10593014830E+03  0.49376431265E+03  0.00000000000E+00 0.  1.
         15    1    5    5    0    0 -0.43520525366E+02  0.31208790597E+03  0.51731661772E+02  0.31933089381E+03  0.17770000000E+01 0. -1.
        -16    1    5    5    0    0  0.28595930061E+02  0.30924899238E+03  0.15294914492E+02  0.31094469109E+03  0.00000000000E+00 0.  1.
          2    1    6    6  502    0  0.70928154754E+02 -0.85024365170E+02  0.20944143778E+02  0.11268807820E+03  0.00000000000E+00 0. -1.
         -1    1    6    6    0  502  0.71205361520E+02 -0.32943375785E+01  0.34061305395E+02  0.79001447420E+02  0.00000000000E+00 0.  1.
<mgrwt>
<rscale>  0 0.67804141E+03</rscale>
<asrwt>0</asrwt>
<pdfrwt beam="1">  1        1 0.10879920E+00 0.67804141E+03</pdfrwt>
<pdfrwt beam="2">  1       -2 0.10404578E+00 0.67804141E+03</pdfrwt>
<totfact> 0.18138579E+01</totfact>
</mgrwt>
</event>
<event>
12    3  0.1201947E-007  0.1162982E+04  0.7818608E-02  0.9145890E-01
         -2   -1    0    0    0  501 -0.00000000000E+00  0.00000000000E+00  0.81425517980E+03  0.81425517980E+03  0.00000000000E+00 0.  1.
          1   -1    0    0  501    0  0.00000000000E+00 -0.00000000000E+00 -0.18092703437E+04  0.18092703437E+04  0.00000000000E+00 0. -1.
        -24    2    1    2    0    0 -0.64068987145E+03  0.90153506722E+03 -0.17746466098E+03  0.11229438381E+04  0.79121228050E+02 0.  0.
    5000000    2    1    2    0    0  0.64068987145E+03 -0.90153506722E+03 -0.81755050287E+03  0.15005816854E+04  0.60008964415E+03 0.  0.
        -24    2    4    4    0    0  0.57138725012E+03 -0.37623759511E+03 -0.28757103381E+03  0.74676811614E+03  0.83231017209E+02 0.  0.
         24    2    4    4    0    0  0.69302621331E+02 -0.52529747211E+03 -0.52997946907E+03  0.75381356926E+03  0.81341084592E+02 0.  0.
         11    1    3    3    0    0 -0.59727189673E+03  0.85799785589E+03 -0.18260021994E+03  0.10612430823E+04  0.00000000000E+00 0. -1.
        -12    1    3    3    0    0 -0.43417974718E+02  0.43537211325E+02  0.51355589655E+01  0.61700755785E+02  0.00000000000E+00 0.  1.
         15    1    5    5    0    0  0.22017943393E+03 -0.97535314713E+02 -0.10098923546E+03  0.26114000871E+03  0.17770000000E+01 0. -1.
        -16    1    5    5    0    0  0.35120781619E+03 -0.27870228039E+03 -0.18658179834E+03  0.48562810743E+03  0.00000000000E+00 0.  1.
          2    1    6    6  502    0  0.49634783960E+02 -0.35441411810E+03 -0.40930244383E+03  0.54369244009E+03  0.00000000000E+00 0. -1.
         -1    1    6    6    0  502  0.19667837371E+02 -0.17088335401E+03 -0.12067702524E+03  0.21012112917E+03  0.00000000000E+00 0.  1.
<mgrwt>
<rscale>  0 0.11629817E+04</rscale>
<asrwt>0</asrwt>
<pdfrwt beam="1">  1        1 0.27834929E+00 0.11629817E+04</pdfrwt>
<pdfrwt beam="2">  1       -2 0.12527003E+00 0.11629817E+04</pdfrwt>
<totfact> 0.16510235E+00</totfact>
</mgrwt>
</event>
<event>
12    3  0.1201947E-007  0.8938170E+03  0.7818608E-02  0.9433344E-01
         -2   -1    0    0    0  501 -0.00000000000E+00  0.00000000000E+00  0.41239003524E+03  0.41239003524E+03  0.00000000000E+00 0.  1.
          1   -1    0    0  501    0  0.00000000000E+00 -0.00000000000E+00 -0.20572648347E+04  0.20572648347E+04  0.00000000000E+00 0. -1.
        -24    2    1    2    0    0  0.62980065434E+03 -0.51108428793E+03 -0.57040042713E+03  0.99576570648E+03  0.91305428896E+02 0.  0.
    5000000    2    1    2    0    0 -0.62980065434E+03  0.51108428793E+03 -0.10744743723E+04  0.14738891634E+04  0.59999839647E+03 0.  0.
        -24    2    4    4    0    0  0.73059946580E+02  0.17065440317E+03 -0.10959316127E+03  0.22984354190E+03  0.79728988715E+02 0.  0.
         24    2    4    4    0    0 -0.70286060092E+03  0.34042988476E+03 -0.96488121102E+03  0.12440456215E+04  0.82147588365E+02 0.  0.
         11    1    3    3    0    0  0.21056214512E+03 -0.13782335887E+03 -0.13651757540E+03  0.28630184002E+03  0.00000000000E+00 0. -1.
        -12    1    3    3    0    0  0.41923850923E+03 -0.37326092906E+03 -0.43388285173E+03  0.70946386646E+03  0.00000000000E+00 0.  1.
         15    1    5    5    0    0  0.14357034187E+01  0.54547794254E+02 -0.68036156866E+02  0.87233018247E+02  0.17770000000E+01 0. -1.
        -16    1    5    5    0    0  0.71624243162E+02  0.11610660892E+03 -0.41557004404E+02  0.14261052366E+03  0.00000000000E+00 0.  1.
          4    1    6    6  502    0 -0.69522682769E+03  0.34343950109E+03 -0.96136885546E+03  0.12351198764E+04  0.00000000000E+00 0. -1.
         -3    1    6    6    0  502 -0.76337732356E+01 -0.30096163294E+01 -0.35123555626E+01  0.89257451151E+01  0.00000000000E+00 0.  1.
<mgrwt>
<rscale>  0 0.89381702E+03</rscale>
<asrwt>0</asrwt>
<pdfrwt beam="1">  1        1 0.31650228E+00 0.89381702E+03</pdfrwt>
<pdfrwt beam="2">  1       -2 0.63444621E-01 0.89381702E+03</pdfrwt>
<totfact> 0.56267486E+00</totfact>
</mgrwt>
</event>
<event>
12    3  0.1201947E-007  0.1135223E+04  0.7818608E-02  0.9171525E-01
         -2   -1    0    0    0  501 -0.00000000000E+00  0.00000000000E+00  0.10329466895E+04  0.10329466895E+04  0.00000000000E+00 0.  1.
          1   -1    0    0  501    0  0.00000000000E+00 -0.00000000000E+00 -0.12777352118E+04  0.12777352118E+04  0.00000000000E+00 0. -1.
        -24    2    1    2    0    0 -0.16270196483E+03 -0.10532648727E+04 -0.31647320860E+02  0.10691622506E+04  0.79167819664E+02 0.  0.
    5000000    2    1    2    0    0  0.16270196483E+03  0.10532648727E+04 -0.21314120148E+03  0.12415196507E+04  0.60008586864E+03 0.  0.
        -24    2    4    4    0    0 -0.13996928812E+03  0.45867191007E+02 -0.10337524175E+02  0.16732396398E+03  0.78709870347E+02 0.  0.
         24    2    4    4    0    0  0.30267125294E+03  0.10073976817E+04 -0.20280367731E+03  0.10741956867E+04  0.79417033882E+02 0.  0.
         11    1    3    3    0    0 -0.23182117087E+02 -0.39680796131E+03 -0.18465908595E+02  0.39791325498E+03  0.00000000000E+00 0. -1.
        -12    1    3    3    0    0 -0.13951984774E+03 -0.65645691141E+03 -0.13181412265E+02  0.67124899559E+03  0.00000000000E+00 0.  1.
         15    1    5    5    0    0 -0.22953953894E+02  0.40407292101E+01  0.28752225395E+02  0.37054820011E+02  0.17770000000E+01 0. -1.
        -16    1    5    5    0    0 -0.11701533422E+03  0.41826461797E+02 -0.39089749570E+02  0.13026914397E+03  0.00000000000E+00 0.  1.
          2    1    6    6  502    0  0.23201380344E+03  0.65734942231E+03 -0.15226900195E+03  0.71352961884E+03  0.00000000000E+00 0. -1.
         -1    1    6    6    0  502  0.70657449505E+02  0.35004825940E+03 -0.50534675352E+02  0.36066606784E+03  0.00000000000E+00 0.  1.
<mgrwt>
<rscale>  0 0.11352229E+04</rscale>
<asrwt>0</asrwt>
<pdfrwt beam="1">  1        1 0.19657465E+00 0.11352229E+04</pdfrwt>
<pdfrwt beam="2">  1       -2 0.15891488E+00 0.11352229E+04</pdfrwt>
<totfact> 0.20735078E+00</totfact>
</mgrwt>
</event>
<event>
12    3  0.1201947E-007  0.1724086E+04  0.7818608E-02  0.8747745E-01
          1   -1    0    0  501    0  0.00000000000E+00  0.00000000000E+00  0.32866078814E+04  0.32866078814E+04  0.00000000000E+00 0. -1.
         -2   -1    0    0    0  501 -0.00000000000E+00 -0.00000000000E+00 -0.94883196148E+03  0.94883196148E+03  0.00000000000E+00 0.  1.
        -24    2    1    2    0    0  0.16526505480E+04 -0.39177143850E+03  0.14118274269E+04  0.22100821451E+04  0.80422079410E+02 0.  0.
    5000000    2    1    2    0    0 -0.16526505480E+04  0.39177143850E+03  0.92594849296E+03  0.20253576978E+04  0.59996208103E+03 0.  0.
        -24    2    4    4    0    0 -0.42635022864E+02  0.18366365377E+01 -0.47570286970E+02  0.10221819915E+03  0.79777876803E+02 0.  0.
         24    2    4    4    0    0 -0.16100155251E+04  0.38993480197E+03  0.97351877993E+03  0.19231394986E+04  0.80793412511E+02 0.  0.
         11    1    3    3    0    0  0.73927690127E+03 -0.13422093817E+03  0.62528560297E+03  0.97751096274E+03  0.00000000000E+00 0. -1.
        -12    1    3    3    0    0  0.91337364668E+03 -0.25755050033E+03  0.78654182396E+03  0.12325711823E+04  0.00000000000E+00 0.  1.
         15    1    5    5    0    0 -0.62870476869E+02 -0.14240891386E+02 -0.31341135940E+02  0.71700239750E+02  0.17770000000E+01 0. -1.
        -16    1    5    5    0    0  0.20235454005E+02  0.16077527923E+02 -0.16229151029E+02  0.30517959402E+02  0.00000000000E+00 0.  1.
          4    1    6    6  502    0 -0.12729998766E+04  0.33134301437E+03  0.74460503087E+03  0.15115401189E+04  0.00000000000E+00 0. -1.
         -3    1    6    6    0  502 -0.33701564851E+03  0.58591787596E+02  0.22891374907E+03  0.41159937977E+03  0.00000000000E+00 0.  1.
<mgrwt>
<rscale>  0 0.17240860E+04</rscale>
<asrwt>0</asrwt>
<pdfrwt beam="1">  1        1 0.50563198E+00 0.17240860E+04</pdfrwt>
<pdfrwt beam="2">  1       -2 0.14597415E+00 0.17240860E+04</pdfrwt>
<totfact> 0.95774817E-02</totfact>
</mgrwt>
</event>
<event>
12    3  0.1201947E-007  0.4446726E+03  0.7818608E-02  0.1029323E+00
          1   -1    0    0  501    0  0.00000000000E+00  0.00000000000E+00  0.14067623262E+04  0.14067623262E+04  0.00000000000E+00 0. -1.
         -4   -1    0    0    0  501 -0.00000000000E+00 -0.00000000000E+00 -0.34246860793E+03  0.34246860793E+03  0.00000000000E+00 0.  1.
        -24    2    1    2    0    0  0.58469364860E+01 -0.37833017048E+03 -0.87400100077E+02  0.39656924165E+03  0.80377119686E+02 0.  0.
    5000000    2    1    2    0    0 -0.58469364860E+01  0.37833017048E+03  0.11516938183E+04  0.13526616925E+04  0.60010590611E+03 0.  0.
        -24    2    4    4    0    0 -0.16927333030E+03  0.20394826151E+03  0.10383744688E+04  0.10744755211E+04  0.77638612738E+02 0.  0.
         24    2    4    4    0    0  0.16342639382E+03  0.17438190897E+03  0.11331934950E+03  0.27818617138E+03  0.86191847659E+02 0.  0.
         11    1    3    3    0    0  0.23220346423E+02 -0.23112363303E+03 -0.87838665794E+02  0.24834039027E+03  0.00000000000E+00 0. -1.
        -12    1    3    3    0    0 -0.17373409937E+02 -0.14720653745E+03  0.43856571647E+00  0.14822885138E+03  0.00000000000E+00 0.  1.
         15    1    5    5    0    0 -0.71136457609E+02  0.76495099499E+02  0.27140326859E+03  0.29081744752E+03  0.17770000000E+01 0. -1.
        -16    1    5    5    0    0 -0.98136872694E+02  0.12745316201E+03  0.76697120025E+03  0.78365807359E+03  0.00000000000E+00 0.  1.
          4    1    6    6  502    0  0.59821947599E+02  0.97862394086E+02  0.14017597178E+02  0.11555174867E+03  0.00000000000E+00 0. -1.
         -3    1    6    6    0  502  0.10360444622E+03  0.76519514885E+02  0.99301752324E+02  0.16263442271E+03  0.00000000000E+00 0.  1.
<mgrwt>
<rscale>  0 0.44467257E+03</rscale>
<asrwt>0</asrwt>
<pdfrwt beam="1">  1        1 0.21642497E+00 0.44467257E+03</pdfrwt>
<pdfrwt beam="2">  1       -4 0.52687479E-01 0.44467257E+03</pdfrwt>
<totfact> 0.13293655E+01</totfact>
</mgrwt>
</event>
<event>
12    3  0.1201947E-007  0.1086210E+04  0.7818608E-02  0.9218738E-01
          1   -1    0    0  501    0  0.00000000000E+00  0.00000000000E+00  0.18407091306E+04  0.18407091306E+04  0.00000000000E+00 0. -1.
         -2   -1    0    0    0  501 -0.00000000000E+00 -0.00000000000E+00 -0.82459437875E+03  0.82459437875E+03  0.00000000000E+00 0.  1.
        -24    2    1    2    0    0 -0.59134369359E+03 -0.81380067030E+03 -0.14097031022E+03  0.10188226175E+04  0.78536631947E+02 0.  0.
    5000000    2    1    2    0    0  0.59134369359E+03  0.81380067030E+03  0.11570850621E+04  0.16464808919E+04  0.60007882115E+03 0.  0.
        -24    2    4    4    0    0 -0.11049220369E+03  0.66173208967E+02  0.19724338084E+03  0.24085758707E+03  0.50199654451E+02 0.  0.
         24    2    4    4    0    0  0.70183589728E+03  0.74762746133E+03  0.95984168128E+03  0.14056233049E+04  0.54409322618E+02 0.  0.
         13    1    3    3    0    0 -0.10381750929E+03 -0.19535675464E+03 -0.20752162643E+02  0.22220033544E+03  0.00000000000E+00 0. -1.
        -14    1    3    3    0    0 -0.48752618430E+03 -0.61844391567E+03 -0.12021814758E+03  0.79662228202E+03  0.00000000000E+00 0.  1.
         15    1    5    5    0    0 -0.17121096554E+02  0.36332512805E+02  0.57993305761E+02  0.70566030610E+02  0.17770000000E+01 0. -1.
        -16    1    5    5    0    0 -0.93371107134E+02  0.29840696162E+02  0.13925007507E+03  0.17029155647E+03  0.00000000000E+00 0.  1.
          2    1    6    6  502    0  0.31615039097E+03  0.33125474635E+03  0.39208479086E+03  0.60283601412E+03  0.00000000000E+00 0. -1.
         -1    1    6    6    0  502  0.38568550631E+03  0.41637271499E+03  0.56775689042E+03  0.80278729074E+03  0.00000000000E+00 0.  1.
<mgrwt>
<rscale>  0 0.10862102E+04</rscale>
<asrwt>0</asrwt>
<pdfrwt beam="1">  1        1 0.28318602E+00 0.10862102E+04</pdfrwt>
<pdfrwt beam="2">  1       -2 0.12686067E+00 0.10862102E+04</pdfrwt>
<totfact> 0.15363503E+00</totfact>
</mgrwt>
</event>
<event>
12    3  0.1201947E-007  0.5887927E+03  0.7818608E-02  0.9928934E-01
         -2   -1    0    0    0  501 -0.00000000000E+00  0.00000000000E+00  0.62924332051E+03  0.62924332051E+03  0.00000000000E+00 0.  1.
          1   -1    0    0  501    0  0.00000000000E+00 -0.00000000000E+00 -0.72324550322E+03  0.72324550322E+03  0.00000000000E+00 0. -1.
        -24    2    1    2    0    0 -0.44192245367E+03 -0.81481906339E+02 -0.33411280989E+03  0.56567915770E+03  0.80167222755E+02 0.  0.
    5000000    2    1    2    0    0  0.44192245367E+03  0.81481906339E+02  0.24011062718E+03  0.78680966603E+03  0.59956782865E+03 0.  0.
        -24    2    4    4    0    0  0.22498653460E+03  0.32379967330E+03  0.19454751951E+03  0.44685973751E+03  0.79810516093E+02 0.  0.
         24    2    4    4    0    0  0.21693591908E+03 -0.24231776696E+03  0.45563107665E+02  0.33994992852E+03  0.87811525147E+02 0.  0.
         11    1    3    3    0    0 -0.30925834761E+03 -0.31773459266E+02 -0.19415053793E+03  0.36653063945E+03  0.00000000000E+00 0. -1.
        -12    1    3    3    0    0 -0.13266410607E+03 -0.49708447072E+02 -0.13996227196E+03  0.19914851825E+03  0.00000000000E+00 0.  1.
         15    1    5    5    0    0  0.22519177157E+02  0.77842253663E+02  0.19512375442E+02  0.83369180874E+02  0.17770000000E+01 0. -1.
        -16    1    5    5    0    0  0.20246735744E+03  0.24595741964E+03  0.17503514407E+03  0.36349055664E+03  0.00000000000E+00 0.  1.
          2    1    6    6  502    0  0.14224954863E+03 -0.16619493377E+03  0.71592152171E+02  0.23017629406E+03  0.00000000000E+00 0. -1.
         -1    1    6    6    0  502  0.74686370447E+02 -0.76122833194E+02 -0.26029044506E+02  0.10977363446E+03  0.00000000000E+00 0.  1.
<mgrwt>
<rscale>  0 0.58879270E+03</rscale>
<asrwt>0</asrwt>
<pdfrwt beam="1">  1        1 0.11126854E+00 0.58879270E+03</pdfrwt>
<pdfrwt beam="2">  1       -2 0.96806665E-01 0.58879270E+03</pdfrwt>
<totfact> 0.21005050E+01</totfact>
</mgrwt>
</event>
<event>
12    3  0.1201947E-007  0.8013544E+03  0.7818608E-02  0.9558059E-01
         -2   -1    0    0    0  501 -0.00000000000E+00  0.00000000000E+00  0.11988835668E+04  0.11988835668E+04  0.00000000000E+00 0.  1.
          1   -1    0    0  501    0  0.00000000000E+00 -0.00000000000E+00 -0.65016302278E+03  0.65016302278E+03  0.00000000000E+00 0. -1.
        -24    2    1    2    0    0 -0.17694346263E+02 -0.71147111624E+03  0.57403429245E+03  0.91777178523E+03  0.79280777709E+02 0.  0.
    5000000    2    1    2    0    0  0.17694346263E+02  0.71147111624E+03 -0.25313748460E+02  0.93127480433E+03  0.60010643737E+03 0.  0.
        -24    2    4    4    0    0 -0.23487201608E+03  0.50934693740E+03  0.10137456912E+03  0.57545583497E+03  0.79205101803E+02 0.  0.
         24    2    4    4    0    0  0.25256636235E+03  0.20212417884E+03 -0.12668831758E+03  0.35581896936E+03  0.76897711822E+02 0.  0.
         13    1    3    3    0    0  0.14098428178E+02 -0.41680129398E+03  0.29614715384E+03  0.51149312905E+03  0.00000000000E+00 0. -1.
        -14    1    3    3    0    0 -0.31792774442E+02 -0.29466982227E+03  0.27788713861E+03  0.40627865618E+03  0.00000000000E+00 0.  1.
         15    1    5    5    0    0 -0.15702806206E+03  0.35760319265E+03  0.33850534438E+02  0.39202917248E+03  0.17770000000E+01 0. -1.
        -16    1    5    5    0    0 -0.77843954022E+02  0.15174374476E+03  0.67524034683E+02  0.18342666248E+03  0.00000000000E+00 0.  1.
          4    1    6    6  502    0  0.24215904056E+03  0.17399724457E+03 -0.13067578612E+03  0.32556443774E+03  0.00000000000E+00 0. -1.
         -3    1    6    6    0  502  0.10407321783E+02  0.28126934271E+02  0.39874685336E+01  0.30254531619E+02  0.00000000000E+00 0.  1.
<mgrwt>
<rscale>  0 0.80135445E+03</rscale>
<asrwt>0</asrwt>
<pdfrwt beam="1">  1        1 0.10002508E+00 0.80135445E+03</pdfrwt>
<pdfrwt beam="2">  1       -2 0.18444363E+00 0.80135445E+03</pdfrwt>
<totfact> 0.45888134E+00</totfact>
</mgrwt>
</event>
<event>
12    3  0.1201947E-007  0.6982873E+03  0.7818608E-02  0.9720166E-01
          1   -1    0    0  501    0  0.00000000000E+00  0.00000000000E+00  0.15635917827E+04  0.15635917827E+04  0.00000000000E+00 0. -1.
         -2   -1    0    0    0  501 -0.00000000000E+00 -0.00000000000E+00 -0.51024150052E+03  0.51024150052E+03  0.00000000000E+00 0.  1.
        -24    2    1    2    0    0  0.44886210535E+03  0.38980578257E+03 -0.13598665219E+03  0.61503894705E+03  0.79716993655E+02 0.  0.
    5000000    2    1    2    0    0 -0.44886210535E+03 -0.38980578257E+03  0.11893369344E+04  0.14587943362E+04  0.60011068484E+03 0.  0.
        -24    2    4    4    0    0 -0.14057977552E+03  0.11831938692E+03  0.54286783014E+03  0.57866150560E+03  0.79884331732E+02 0.  0.
         24    2    4    4    0    0 -0.30828232983E+03 -0.50812516949E+03  0.64646910423E+03  0.88013283057E+03  0.59011134314E+02 0.  0.
         13    1    3    3    0    0  0.29793556115E+03  0.30496707971E+03 -0.10598950069E+03  0.43932253819E+03  0.00000000000E+00 0. -1.
        -14    1    3    3    0    0  0.15092654419E+03  0.84838702860E+02 -0.29997151496E+02  0.17571640886E+03  0.00000000000E+00 0.  1.
         15    1    5    5    0    0 -0.48121647792E+02  0.92118425725E+02  0.26585502917E+03  0.28545323892E+03  0.17770000000E+01 0. -1.
        -16    1    5    5    0    0 -0.92458127728E+02  0.26200961200E+02  0.27701280096E+03  0.29320826668E+03  0.00000000000E+00 0.  1.
          2    1    6    6  502    0 -0.28466354219E+03 -0.49210816131E+03  0.62030216509E+03  0.84141461284E+03  0.00000000000E+00 0. -1.
         -1    1    6    6    0  502 -0.23618787641E+02 -0.16017008177E+02  0.26166939141E+02  0.38718217735E+02  0.00000000000E+00 0.  1.
<mgrwt>
<rscale>  0 0.69828728E+03</rscale>
<asrwt>0</asrwt>
<pdfrwt beam="1">  1        1 0.24055258E+00 0.69828728E+03</pdfrwt>
<pdfrwt beam="2">  1       -2 0.78498693E-01 0.69828728E+03</pdfrwt>
<totfact> 0.77944578E+00</totfact>
</mgrwt>
</event>
<event>
12    3  0.1201947E-007  0.6880674E+03  0.7818608E-02  0.9737859E-01
          1   -1    0    0  501    0  0.00000000000E+00  0.00000000000E+00  0.37060499555E+03  0.37060499555E+03  0.00000000000E+00 0. -1.
         -2   -1    0    0    0  501 -0.00000000000E+00 -0.00000000000E+00 -0.15836763972E+04  0.15836763972E+04  0.00000000000E+00 0.  1.
        -24    2    1    2    0    0  0.55801136573E+03  0.32471643958E+03 -0.50905915760E+03  0.82627624177E+03  0.82302802900E+02 0.  0.
    5000000    2    1    2    0    0 -0.55801136573E+03 -0.32471643958E+03 -0.70401224408E+03  0.11280051510E+04  0.59995410695E+03 0.  0.
        -24    2    4    4    0    0 -0.39502041868E+03 -0.44931605670E+02 -0.70015027748E+02  0.41148362332E+03  0.79728839137E+02 0.  0.
         24    2    4    4    0    0 -0.16299094706E+03 -0.27978483391E+03 -0.63399721633E+03  0.71652152768E+03  0.81271318434E+02 0.  0.
         13    1    3    3    0    0  0.45726287581E+03  0.28323236887E+03 -0.38680480361E+03  0.66251631562E+03  0.00000000000E+00 0. -1.
        -14    1    3    3    0    0  0.10074848992E+03  0.41484070710E+02 -0.12225435398E+03  0.16375992615E+03  0.00000000000E+00 0.  1.
         15    1    5    5    0    0 -0.23145879463E+03  0.12918270897E+02 -0.45880389184E+02  0.23632228667E+03  0.17770000000E+01 0. -1.
        -16    1    5    5    0    0 -0.16356162405E+03 -0.57849876567E+02 -0.24134638564E+02  0.17516133665E+03  0.00000000000E+00 0.  1.
          4    1    6    6  502    0 -0.56098263399E+02 -0.86062573238E+02 -0.28854998657E+03  0.30629214227E+03  0.00000000000E+00 0. -1.
         -3    1    6    6    0  502 -0.10689268366E+03 -0.19372226067E+03 -0.34544722977E+03  0.41022938541E+03  0.00000000000E+00 0.  1.
<mgrwt>
<rscale>  0 0.68806738E+03</rscale>
<asrwt>0</asrwt>
<pdfrwt beam="1">  1        1 0.57016152E-01 0.68806738E+03</pdfrwt>
<pdfrwt beam="2">  1       -2 0.24364253E+00 0.68806738E+03</pdfrwt>
<totfact> 0.42473045E+00</totfact>
</mgrwt>
</event>
<event>
12    3  0.1201947E-007  0.7121344E+03  0.7818608E-02  0.9696703E-01
          3   -1    0    0  501    0  0.00000000000E+00  0.00000000000E+00  0.27051063157E+04  0.27051063157E+04  0.00000000000E+00 0. -1.
         -4   -1    0    0    0  501 -0.00000000000E+00 -0.00000000000E+00 -0.25616861072E+03  0.25616861072E+03  0.00000000000E+00 0.  1.
        -24    2    1    2    0    0 -0.68752206441E+03 -0.93100474416E+01  0.67907578230E+03  0.96999322006E+03  0.83484506449E+02 0.  0.
    5000000    2    1    2    0    0  0.68752206441E+03  0.93100474416E+01  0.17698619227E+04  0.19912817064E+04  0.60001528537E+03 0.  0.
        -24    2    4    4    0    0  0.31930585482E+03  0.12087199205E+03  0.27326519601E+03  0.44454328285E+03  0.79866110405E+02 0.  0.
         24    2    4    4    0    0  0.36821620959E+03 -0.11156194461E+03  0.14965967267E+04  0.15467384235E+04  0.67592484552E+02 0.  0.
         13    1    3    3    0    0 -0.16619153857E+03  0.31958994565E+02  0.18105380057E+03  0.24783358031E+03  0.00000000000E+00 0. -1.
        -14    1    3    3    0    0 -0.52133052585E+03 -0.41269042006E+02  0.49802198172E+03  0.72215963975E+03  0.00000000000E+00 0.  1.
         15    1    5    5    0    0  0.13517177616E+03  0.42997704553E+02  0.16352476986E+03  0.21648029876E+03  0.17770000000E+01 0. -1.
        -16    1    5    5    0    0  0.18413407866E+03  0.77874287501E+02  0.10974042615E+03  0.22806298409E+03  0.00000000000E+00 0.  1.
          4    1    6    6  502    0  0.32354508614E+03 -0.73939751872E+02  0.12950274062E+04  0.13368786379E+04  0.00000000000E+00 0. -1.
         -3    1    6    6    0  502  0.44671123447E+02 -0.37622192740E+02  0.20156932045E+03  0.20985978558E+03  0.00000000000E+00 0.  1.
<mgrwt>
<rscale>  0 0.71213437E+03</rscale>
<asrwt>0</asrwt>
<pdfrwt beam="1">  1        3 0.41617018E+00 0.71213437E+03</pdfrwt>
<pdfrwt beam="2">  1       -4 0.39410557E-01 0.71213437E+03</pdfrwt>
<totfact> 0.13565765E-01</totfact>
</mgrwt>
</event>
<event>
12    3  0.1201947E-007  0.6735623E+03  0.7818608E-02  0.9763544E-01
          1   -1    0    0  501    0  0.00000000000E+00  0.00000000000E+00  0.20030326614E+04  0.20030326614E+04  0.00000000000E+00 0. -1.
         -2   -1    0    0    0  501 -0.00000000000E+00 -0.00000000000E+00 -0.38505052234E+03  0.38505052234E+03  0.00000000000E+00 0.  1.
        -24    2    1    2    0    0  0.16854438243E+03  0.61174294619E+03  0.13167447993E+04  0.14638600868E+04  0.80205026521E+02 0.  0.
    5000000    2    1    2    0    0 -0.16854438243E+03 -0.61174294619E+03  0.30123733975E+03  0.92422309689E+03  0.60067275359E+03 0.  0.
        -24    2    4    4    0    0 -0.12465242363E+03 -0.52945368776E+02  0.32249384526E+03  0.35765892216E+03  0.74673861403E+02 0.  0.
         24    2    4    4    0    0 -0.43891958795E+02 -0.55879757742E+03 -0.21256505506E+02  0.56656417474E+03  0.79761447405E+02 0.  0.
         11    1    3    3    0    0  0.39462943502E+01  0.29900520655E+02  0.32245775009E+02  0.44152059754E+02  0.00000000000E+00 0. -1.
        -12    1    3    3    0    0  0.16459808808E+03  0.58184242554E+03  0.12844990243E+04  0.14197080271E+04  0.00000000000E+00 0.  1.
         15    1    5    5    0    0 -0.48963757042E+02  0.72635409832E+01  0.59342214335E+02  0.77297248738E+02  0.17770000000E+01 0. -1.
        -16    1    5    5    0    0 -0.75688666589E+02 -0.60208909759E+02  0.26315163092E+03  0.28036167342E+03  0.00000000000E+00 0.  1.
          4    1    6    6  502    0 -0.45575266730E+02 -0.13980849442E+03 -0.10712421642E+02  0.14743905869E+03  0.00000000000E+00 0. -1.
         -3    1    6    6    0  502  0.16833079347E+01 -0.41898908299E+03 -0.10544083865E+02  0.41912511604E+03  0.00000000000E+00 0.  1.
<mgrwt>
<rscale>  0 0.67356234E+03</rscale>
<asrwt>0</asrwt>
<pdfrwt beam="1">  1        1 0.30815887E+00 0.67356234E+03</pdfrwt>
<pdfrwt beam="2">  1       -2 0.59238543E-01 0.67356234E+03</pdfrwt>
<totfact> 0.73143381E+00</totfact>
</mgrwt>
</event>
<event>
12    3  0.1201947E-007  0.1350348E+04  0.7818608E-02  0.8990565E-01
         -2   -1    0    0    0  501 -0.00000000000E+00  0.00000000000E+00  0.25266673467E+04  0.25266673467E+04  0.00000000000E+00 0.  1.
          1   -1    0    0  501    0  0.00000000000E+00 -0.00000000000E+00 -0.97912472098E+03  0.97912472098E+03  0.00000000000E+00 0. -1.
        -24    2    1    2    0    0  0.25837335251E+03 -0.12592560810E+04  0.16387252773E+04  0.20841868757E+04  0.77017733980E+02 0.  0.
    5000000    2    1    2    0    0 -0.25837335251E+03  0.12592560810E+04 -0.91182651562E+02  0.14216051920E+04  0.60013696702E+03 0.  0.
        -24    2    4    4    0    0 -0.43788756608E+03  0.92887636715E+03 -0.16864785303E+02  0.10301751150E+04  0.80121910837E+02 0.  0.
         24    2    4    4    0    0  0.17951421357E+03  0.33037971387E+03 -0.74317866259E+02  0.39143007703E+03  0.79487431386E+02 0.  0.
         11    1    3    3    0    0  0.16475927136E+03 -0.92387481515E+03  0.11555804625E+04  0.14886425014E+04  0.00000000000E+00 0. -1.
        -12    1    3    3    0    0  0.93614081151E+02 -0.33538126587E+03  0.48314481478E+03  0.59554437428E+03  0.00000000000E+00 0.  1.
         15    1    5    5    0    0 -0.14354244143E+03  0.39437719529E+03 -0.15748992292E+02  0.41998689639E+03  0.17770000000E+01 0. -1.
        -16    1    5    5    0    0 -0.29434512466E+03  0.53449917186E+03 -0.11157930110E+01  0.61018821861E+03  0.00000000000E+00 0.  1.
          4    1    6    6  502    0  0.23038921163E+02  0.11877608004E+03 -0.18400540498E+02  0.12238108093E+03  0.00000000000E+00 0. -1.
         -1    1    6    6    0  502  0.15647529241E+03  0.21160363383E+03 -0.55917325761E+02  0.26904899610E+03  0.00000000000E+00 0.  1.
<mgrwt>
<rscale>  0 0.13503475E+04</rscale>
<asrwt>0</asrwt>
<pdfrwt beam="1">  1        1 0.15063457E+00 0.13503475E+04</pdfrwt>
<pdfrwt beam="2">  1       -2 0.38871805E+00 0.13503475E+04</pdfrwt>
<totfact> 0.11730689E-01</totfact>
</mgrwt>
</event>
<event>
12    3  0.1201947E-007  0.3974982E+03  0.7818608E-02  0.1044649E+00
         -2   -1    0    0    0  501 -0.00000000000E+00  0.00000000000E+00  0.53525305274E+03  0.53525305274E+03  0.00000000000E+00 0.  1.
          1   -1    0    0  501    0  0.00000000000E+00 -0.00000000000E+00 -0.23245176584E+04  0.23245176584E+04  0.00000000000E+00 0. -1.
        -24    2    1    2    0    0 -0.20890608903E+03 -0.18338321136E+03 -0.21067065833E+04  0.21263924002E+04  0.77851493662E+02 0.  0.
    5000000    2    1    2    0    0  0.20890608903E+03  0.18338321136E+03  0.31744197773E+03  0.73337831090E+03  0.59983596210E+03 0.  0.
        -24    2    4    4    0    0 -0.66157468714E+02  0.21697763733E+03 -0.68441981434E+02  0.25089511558E+03  0.82510292876E+02 0.  0.
         24    2    4    4    0    0  0.27506355775E+03 -0.33594425971E+02  0.38588395916E+03  0.48248319532E+03  0.84232164685E+02 0.  0.
         11    1    3    3    0    0 -0.15826786025E+03 -0.14444144761E+03 -0.13393399042E+04  0.13563714190E+04  0.00000000000E+00 0. -1.
        -12    1    3    3    0    0 -0.50638228781E+02 -0.38941763754E+02 -0.76736667915E+03  0.77002098118E+03  0.00000000000E+00 0.  1.
         15    1    5    5    0    0 -0.46764148917E+02  0.68309288103E+02 -0.57013433293E+02  0.10053225239E+03  0.17770000000E+01 0. -1.
        -16    1    5    5    0    0 -0.19393319796E+02  0.14866834923E+03 -0.11428548141E+02  0.15036286319E+03  0.00000000000E+00 0.  1.
          2    1    6    6  502    0  0.37110464681E+02 -0.27314811466E+02  0.32424444956E+02  0.56343856320E+02  0.00000000000E+00 0. -1.
         -1    1    6    6    0  502  0.23795309307E+03 -0.62796145054E+01  0.35345951421E+03  0.42613933900E+03  0.00000000000E+00 0.  1.
<mgrwt>
<rscale>  0 0.39749821E+03</rscale>
<asrwt>0</asrwt>
<pdfrwt beam="1">  1        1 0.35761810E+00 0.39749821E+03</pdfrwt>
<pdfrwt beam="2">  1       -2 0.82346623E-01 0.39749821E+03</pdfrwt>
<totfact> 0.23420937E+00</totfact>
</mgrwt>
</event>
<event>
12    3  0.1201947E-007  0.4566356E+03  0.7818608E-02  0.1025762E+00
         -2   -1    0    0    0  501 -0.00000000000E+00  0.00000000000E+00  0.23361522052E+04  0.23361522052E+04  0.00000000000E+00 0.  1.
          1   -1    0    0  501    0  0.00000000000E+00 -0.00000000000E+00 -0.94760230368E+02  0.94760230368E+02  0.00000000000E+00 0. -1.
        -24    2    1    2    0    0 -0.17623016318E+03 -0.20393207857E+03  0.60244849848E+03  0.66485255259E+03  0.80245624715E+02 0.  0.
    5000000    2    1    2    0    0  0.17623016318E+03  0.20393207857E+03  0.16389434763E+04  0.17660598830E+04  0.60015533695E+03 0.  0.
        -24    2    4    4    0    0  0.95405000915E+02 -0.19349594071E+03  0.41887172104E+03  0.47781363212E+03  0.79432707900E+02 0.  0.
         24    2    4    4    0    0  0.80825162267E+02  0.39742801929E+03  0.12200717553E+04  0.12882462508E+04  0.80756283600E+02 0.  0.
         13    1    3    3    0    0 -0.70575512126E+02 -0.13532665711E+03  0.28442719943E+03  0.32278946515E+03  0.00000000000E+00 0. -1.
        -14    1    3    3    0    0 -0.10565465106E+03 -0.68605421469E+02  0.31802129905E+03  0.34206308745E+03  0.00000000000E+00 0.  1.
         15    1    5    5    0    0  0.24703571481E+02 -0.10767690030E+03  0.27211638130E+03  0.29369212452E+03  0.17770000000E+01 0. -1.
        -16    1    5    5    0    0  0.70701429433E+02 -0.85819040409E+02  0.14675533973E+03  0.18412150760E+03  0.00000000000E+00 0.  1.
          4    1    6    6  502    0 -0.13323322058E+02  0.10348513360E+03  0.28057753057E+03  0.29935001996E+03  0.00000000000E+00 0. -1.
         -3    1    6    6    0  502  0.94148484326E+02  0.29394288569E+03  0.93949422474E+03  0.98889623089E+03  0.00000000000E+00 0.  1.
<mgrwt>
<rscale>  0 0.45663558E+03</rscale>
<asrwt>0</asrwt>
<pdfrwt beam="1">  1        1 0.14578499E-01 0.45663558E+03</pdfrwt>
<pdfrwt beam="2">  1       -2 0.35940799E+00 0.45663558E+03</pdfrwt>
<totfact> 0.52379487E+00</totfact>
</mgrwt>
</event>
<event>
12    3  0.1201947E-007  0.6298517E+03  0.7818608E-02  0.9845338E-01
          3   -1    0    0  501    0  0.00000000000E+00  0.00000000000E+00  0.26066332869E+04  0.26066332869E+04  0.00000000000E+00 0. -1.
         -4   -1    0    0    0  501 -0.00000000000E+00 -0.00000000000E+00 -0.21053772653E+03  0.21053772653E+03  0.00000000000E+00 0.  1.
        -24    2    1    2    0    0 -0.64982479574E+02  0.60076417659E+03  0.12356294852E+04  0.13777937675E+04  0.79969510383E+02 0.  0.
    5000000    2    1    2    0    0  0.64982479574E+02 -0.60076417659E+03  0.11604660752E+04  0.14393772460E+04  0.59998752145E+03 0.  0.
        -24    2    4    4    0    0  0.89500380992E+02 -0.60734220640E+03  0.11958988540E+04  0.13466856947E+04  0.80705745399E+02 0.  0.
         24    2    4    4    0    0 -0.24517901419E+02  0.65780298004E+01 -0.35432778795E+02  0.92691551279E+02  0.81803691233E+02 0.  0.
         11    1    3    3    0    0  0.88413207311E+01  0.23788160874E+03  0.44226246074E+03  0.50225681968E+03  0.00000000000E+00 0. -1.
        -12    1    3    3    0    0 -0.73823800305E+02  0.36288256785E+03  0.79336702443E+03  0.87553694782E+03  0.00000000000E+00 0.  1.
         15    1    5    5    0    0  0.17600168449E+02 -0.34333740369E+03  0.61496904101E+03  0.70454270121E+03  0.17770000000E+01 0. -1.
        -16    1    5    5    0    0  0.71900212543E+02 -0.26400480271E+03  0.58092981300E+03  0.64214299346E+03  0.00000000000E+00 0.  1.
          2    1    6    6  502    0 -0.56709226031E+01 -0.82059875638E+01 -0.58555109311E+02  0.59398639896E+02  0.00000000000E+00 0. -1.
         -1    1    6    6    0  502 -0.18846978815E+02  0.14784017364E+02  0.23122330515E+02  0.33292911383E+02  0.00000000000E+00 0.  1.
<mgrwt>
<rscale>  0 0.62985166E+03</rscale>
<asrwt>0</asrwt>
<pdfrwt beam="1">  1        3 0.40102048E+00 0.62985166E+03</pdfrwt>
<pdfrwt beam="2">  1       -4 0.32390421E-01 0.62985166E+03</pdfrwt>
<totfact> 0.24274809E-01</totfact>
</mgrwt>
</event>
<event>
12    3  0.1201947E-007  0.1144119E+04  0.7818608E-02  0.9163227E-01
          1   -1    0    0  501    0  0.00000000000E+00  0.00000000000E+00  0.35913371665E+04  0.35913371665E+04  0.00000000000E+00 0. -1.
         -2   -1    0    0    0  501 -0.00000000000E+00 -0.00000000000E+00 -0.49597036138E+03  0.49597036138E+03  0.00000000000E+00 0.  1.
        -24    2    1    2    0    0 -0.10684836265E+03  0.10919589122E+04  0.24378687436E+04  0.26746008899E+04  0.80592002617E+02 0.  0.
    5000000    2    1    2    0    0  0.10684836265E+03 -0.10919589122E+04  0.65749806153E+03  0.14127066379E+04  0.59970451500E+03 0.  0.
        -24    2    4    4    0    0 -0.17212027032E+03 -0.51743473376E+03  0.51181984522E+03  0.75268124634E+03  0.84884706999E+02 0.  0.
         24    2    4    4    0    0  0.27896863297E+03 -0.57452417849E+03  0.14567821631E+03  0.66002539159E+03  0.80683610382E+02 0.  0.
         13    1    3    3    0    0 -0.97686920813E+02  0.90305064661E+03  0.20844509246E+04  0.22737587519E+04  0.00000000000E+00 0. -1.
        -14    1    3    3    0    0 -0.91614418354E+01  0.18890826564E+03  0.35341781903E+03  0.40084213807E+03  0.00000000000E+00 0.  1.
         15    1    5    5    0    0 -0.61909266846E+01 -0.13261087682E+03  0.12694434205E+03  0.18368994510E+03  0.17770000000E+01 0. -1.
        -16    1    5    5    0    0 -0.16592934364E+03 -0.38482385694E+03  0.38487550317E+03  0.56899130124E+03  0.00000000000E+00 0.  1.
          2    1    6    6  502    0  0.15036354515E+03 -0.28815684326E+03  0.11430477845E+03  0.34454193417E+03  0.00000000000E+00 0. -1.
         -3    1    6    6    0  502  0.12860508782E+03 -0.28636733523E+03  0.31373437861E+02  0.31548345742E+03  0.00000000000E+00 0.  1.
<mgrwt>
<rscale>  0 0.11441186E+04</rscale>
<asrwt>0</asrwt>
<pdfrwt beam="1">  1        1 0.55251339E+00 0.11441186E+04</pdfrwt>
<pdfrwt beam="2">  1       -2 0.76303135E-01 0.11441186E+04</pdfrwt>
<totfact> 0.28922028E-01</totfact>
</mgrwt>
</event>
<event>
12    3  0.1201947E-007  0.6586311E+03  0.7818608E-02  0.9790717E-01
         -2   -1    0    0    0  501 -0.00000000000E+00  0.00000000000E+00  0.35738090294E+03  0.35738090294E+03  0.00000000000E+00 0.  1.
          1   -1    0    0  501    0  0.00000000000E+00 -0.00000000000E+00 -0.12512231167E+04  0.12512231167E+04  0.00000000000E+00 0. -1.
        -24    2    1    2    0    0 -0.10023788278E+03 -0.51216900148E+03 -0.47234301903E+03  0.70862239954E+03  0.81688789174E+02 0.  0.
    5000000    2    1    2    0    0  0.10023788278E+03  0.51216900148E+03 -0.42149919471E+03  0.89998162008E+03  0.59995051973E+03 0.  0.
        -24    2    4    4    0    0 -0.10314545060E+03  0.55294409177E+03 -0.34420582131E+03  0.66430638775E+03  0.80244481299E+02 0.  0.
         24    2    4    4    0    0  0.20338333338E+03 -0.40775090290E+02 -0.77293373392E+02  0.23567523232E+03  0.80877446020E+02 0.  0.
         13    1    3    3    0    0 -0.93196270733E+01 -0.26000337650E+03 -0.23528364871E+03  0.35078056758E+03  0.00000000000E+00 0. -1.
        -14    1    3    3    0    0 -0.90918255709E+02 -0.25216562498E+03 -0.23705937032E+03  0.35784183196E+03  0.00000000000E+00 0.  1.
         15    1    5    5    0    0 -0.71011573415E+02  0.18443148155E+03 -0.10509815066E+03  0.22384457543E+03  0.17770000000E+01 0. -1.
        -16    1    5    5    0    0 -0.32133877186E+02  0.36851261022E+03 -0.23910767065E+03  0.44046181233E+03  0.00000000000E+00 0.  1.
          4    1    6    6  502    0  0.54124586121E+02 -0.47592915803E+02 -0.36518776478E+02  0.80797137900E+02  0.00000000000E+00 0. -1.
         -3    1    6    6    0  502  0.14925874726E+03  0.68178255130E+01 -0.40774596914E+02  0.15487809442E+03  0.00000000000E+00 0.  1.
<mgrwt>
<rscale>  0 0.65863112E+03</rscale>
<asrwt>0</asrwt>
<pdfrwt beam="1">  1        1 0.19249587E+00 0.65863112E+03</pdfrwt>
<pdfrwt beam="2">  1       -2 0.54981677E-01 0.65863112E+03</pdfrwt>
<totfact> 0.27750237E+01</totfact>
</mgrwt>
</event>
<event>
12    3  0.1201947E-007  0.1230209E+04  0.7818608E-02  0.9086818E-01
         -2   -1    0    0    0  501 -0.00000000000E+00  0.00000000000E+00  0.88011561789E+03  0.88011561789E+03  0.00000000000E+00 0.  1.
          1   -1    0    0  501    0  0.00000000000E+00 -0.00000000000E+00 -0.18660578656E+04  0.18660578656E+04  0.00000000000E+00 0. -1.
        -24    2    1    2    0    0 -0.98156673812E+03 -0.62918918540E+03 -0.81290543678E+03  0.14235505904E+04  0.79553389263E+02 0.  0.
    5000000    2    1    2    0    0  0.98156673812E+03  0.62918918540E+03 -0.17303681088E+03  0.13226228931E+04  0.60003107170E+03 0.  0.
        -24    2    4    4    0    0  0.23156129084E+03  0.46777042565E+03 -0.15862854755E+03  0.55121157081E+03  0.79002387101E+02 0.  0.
         24    2    4    4    0    0  0.75000544728E+03  0.16141875975E+03 -0.14408263336E+02  0.77141132229E+03  0.79395485693E+02 0.  0.
         13    1    3    3    0    0 -0.63948018677E+03 -0.36432069260E+03 -0.51367061580E+03  0.89750876200E+03  0.00000000000E+00 0. -1.
        -14    1    3    3    0    0 -0.34208655135E+03 -0.26486849280E+03 -0.29923482098E+03  0.52604182835E+03  0.00000000000E+00 0.  1.
         15    1    5    5    0    0  0.23228700248E+02  0.76336981942E+02 -0.51652115970E+02  0.95068428726E+02  0.17770000000E+01 0. -1.
        -16    1    5    5    0    0  0.20833259059E+03  0.39143344371E+03 -0.10697643158E+03  0.45614314208E+03  0.00000000000E+00 0.  1.
          4    1    6    6  502    0  0.25913283230E+03  0.33431655359E+02 -0.35547145563E+02  0.26368750428E+03  0.00000000000E+00 0. -1.
         -3    1    6    6    0  502  0.49087261498E+03  0.12798710439E+03  0.21138882227E+02  0.50772381801E+03  0.00000000000E+00 0.  1.
<mgrwt>
<rscale>  0 0.12302091E+04</rscale>
<asrwt>0</asrwt>
<pdfrwt beam="1">  1        1 0.28708582E+00 0.12302091E+04</pdfrwt>
<pdfrwt beam="2">  1       -2 0.13540240E+00 0.12302091E+04</pdfrwt>
<totfact> 0.12300094E+00</totfact>
</mgrwt>
</event>
<event>
12    3  0.1201947E-007  0.4774059E+03  0.7818608E-02  0.1019851E+00
          1   -1    0    0  501    0  0.00000000000E+00  0.00000000000E+00  0.19664743967E+04  0.19664743967E+04  0.00000000000E+00 0. -1.
         -2   -1    0    0    0  501 -0.00000000000E+00 -0.00000000000E+00 -0.15397853393E+03  0.15397853393E+03  0.00000000000E+00 0.  1.
        -24    2    1    2    0    0  0.14585287282E+03  0.34369471956E+03  0.49759561950E+03  0.62763085086E+03  0.83186318874E+02 0.  0.
    5000000    2    1    2    0    0 -0.14585287282E+03 -0.34369471956E+03  0.13149002433E+04  0.14928220798E+04  0.60012997868E+03 0.  0.
        -24    2    4    4    0    0 -0.29367975563E+03 -0.23224774798E+03  0.12028524036E+04  0.12623432382E+04  0.80434637021E+02 0.  0.
         24    2    4    4    0    0  0.14782688281E+03 -0.11144697158E+03  0.11204783967E+03  0.23047884157E+03  0.79325678595E+02 0.  0.
         11    1    3    3    0    0  0.35334643763E+02  0.35331535787E+02  0.10530779118E+03  0.11656150889E+03  0.00000000000E+00 0. -1.
        -12    1    3    3    0    0  0.11051822906E+03  0.30836318377E+03  0.39228782832E+03  0.51106934197E+03  0.00000000000E+00 0.  1.
         15    1    5    5    0    0 -0.13138282366E+03 -0.12510697771E+03  0.70185813821E+03  0.72492841449E+03  0.17770000000E+01 0. -1.
        -16    1    5    5    0    0 -0.16229693196E+03 -0.10714077027E+03  0.50099426543E+03  0.53741482374E+03  0.00000000000E+00 0.  1.
          2    1    6    6  502    0  0.15181560035E+02  0.12624538397E+02  0.12321049699E+02  0.23273740579E+02  0.00000000000E+00 0. -1.
         -1    1    6    6    0  502  0.13264532277E+03 -0.12407150997E+03  0.99726789968E+02  0.20720510099E+03  0.00000000000E+00 0.  1.
<mgrwt>
<rscale>  0 0.47740586E+03</rscale>
<asrwt>0</asrwt>
<pdfrwt beam="1">  1        1 0.30253450E+00 0.47740586E+03</pdfrwt>
<pdfrwt beam="2">  1       -2 0.23689007E-01 0.47740586E+03</pdfrwt>
<totfact> 0.46799933E+01</totfact>
</mgrwt>
</event>
<event>
12    3  0.1201947E-007  0.8052176E+03  0.7818608E-02  0.9552495E-01
          1   -1    0    0  501    0  0.00000000000E+00  0.00000000000E+00  0.14893790960E+04  0.14893790960E+04  0.00000000000E+00 0. -1.
         -2   -1    0    0    0  501 -0.00000000000E+00 -0.00000000000E+00 -0.54485175307E+03  0.54485175307E+03  0.00000000000E+00 0.  1.
        -24    2    1    2    0    0  0.65915184605E+03 -0.23779173568E+03 -0.11814012084E+02  0.70546736434E+03  0.80737634138E+02 0.  0.
    5000000    2    1    2    0    0 -0.65915184605E+03  0.23779173568E+03  0.95634135503E+03  0.13287634847E+04  0.59999795444E+03 0.  0.
        -24    2    4    4    0    0  0.86182186429E+02  0.96247409900E+02  0.96498650577E+02  0.17926005019E+03  0.78302253237E+02 0.  0.
         24    2    4    4    0    0 -0.74533403247E+03  0.14154432578E+03  0.85984270446E+03  0.11495034345E+04  0.80442858624E+02 0.  0.
         11    1    3    3    0    0  0.17722290596E+03 -0.29839079433E+02  0.11352920344E+02  0.18007558929E+03  0.00000000000E+00 0. -1.
        -12    1    3    3    0    0  0.48192894009E+03 -0.20795265624E+03 -0.23166932428E+02  0.52539177505E+03  0.00000000000E+00 0.  1.
         15    1    5    5    0    0 -0.61192086924E+00  0.41317231689E+02  0.54193797915E+02  0.68173407888E+02  0.17770000000E+01 0. -1.
        -16    1    5    5    0    0  0.86794107298E+02  0.54930178211E+02  0.42304852661E+02  0.11108664231E+03  0.00000000000E+00 0.  1.
          2    1    6    6  502    0 -0.44901822902E+03  0.11938429902E+03  0.49342466322E+03  0.67774470055E+03  0.00000000000E+00 0. -1.
         -1    1    6    6    0  502 -0.29631580346E+03  0.22160026759E+02  0.36641804123E+03  0.47175873400E+03  0.00000000000E+00 0.  1.
<mgrwt>
<rscale>  0 0.80521764E+03</rscale>
<asrwt>0</asrwt>
<pdfrwt beam="1">  1        1 0.22913524E+00 0.80521764E+03</pdfrwt>
<pdfrwt beam="2">  1       -2 0.83823347E-01 0.80521764E+03</pdfrwt>
<totfact> 0.74415983E+00</totfact>
</mgrwt>
</event>
<event>
12    3  0.1201947E-007  0.3276454E+03  0.7818608E-02  0.1072183E+00
          1   -1    0    0  501    0  0.00000000000E+00  0.00000000000E+00  0.39239288597E+03  0.39239288597E+03  0.00000000000E+00 0. -1.
         -2   -1    0    0    0  501 -0.00000000000E+00 -0.00000000000E+00 -0.64194765379E+03  0.64194765379E+03  0.00000000000E+00 0.  1.
        -24    2    1    2    0    0  0.81724216516E+02 -0.27325315735E+03 -0.22237356025E+03  0.36946069931E+03  0.75531930116E+02 0.  0.
    5000000    2    1    2    0    0 -0.81724216516E+02  0.27325315735E+03 -0.27181207571E+02  0.66487984045E+03  0.59998354029E+03 0.  0.
        -24    2    4    4    0    0 -0.91995620360E+02  0.27683038383E+03  0.24004855946E+03  0.38606607494E+03  0.79532683492E+02 0.  0.
         24    2    4    4    0    0  0.10271403843E+02 -0.35772264813E+01 -0.26722976703E+03  0.27881376551E+03  0.78784955163E+02 0.  0.
         13    1    3    3    0    0  0.47813633769E+02 -0.17964474172E+03 -0.98008559036E+02  0.21015245525E+03  0.00000000000E+00 0. -1.
        -14    1    3    3    0    0  0.33910582747E+02 -0.93608415633E+02 -0.12436500121E+03  0.15930824406E+03  0.00000000000E+00 0.  1.
         15    1    5    5    0    0 -0.23126833016E+02  0.10952059153E+03  0.46798584930E+02  0.12133785747E+03  0.17770000000E+01 0. -1.
        -16    1    5    5    0    0 -0.68868787343E+02  0.16730979230E+03  0.19324997453E+03  0.26472821748E+03  0.00000000000E+00 0.  1.
          2    1    6    6  502    0 -0.32700512469E+02  0.51457235881E+01 -0.81245091078E+02  0.87730079285E+02  0.00000000000E+00 0. -1.
         -1    1    6    6    0  502  0.42971916312E+02 -0.87229500694E+01 -0.18598467596E+03  0.19108368622E+03  0.00000000000E+00 0.  1.
<mgrwt>
<rscale>  0 0.32764537E+03</rscale>
<asrwt>0</asrwt>
<pdfrwt beam="1">  1        1 0.60368137E-01 0.32764537E+03</pdfrwt>
<pdfrwt beam="2">  1       -2 0.98761177E-01 0.32764537E+03</pdfrwt>
<totfact> 0.48356512E+01</totfact>
</mgrwt>
</event>
<event>
12    3  0.1201947E-007  0.5787227E+03  0.7818608E-02  0.9950560E-01
         -2   -1    0    0    0  501 -0.00000000000E+00  0.00000000000E+00  0.41384085713E+03  0.41384085713E+03  0.00000000000E+00 0.  1.
          1   -1    0    0  501    0  0.00000000000E+00 -0.00000000000E+00 -0.86087825030E+03  0.86087825030E+03  0.00000000000E+00 0. -1.
        -24    2    1    2    0    0 -0.41656355349E+03  0.11651753388E+03 -0.73752133144E+02  0.44619259402E+03  0.80913064555E+02 0.  0.
    5000000    2    1    2    0    0  0.41656355349E+03 -0.11651753388E+03 -0.37328526002E+03  0.82852651342E+03  0.60001064015E+03 0.  0.
        -24    2    4    4    0    0  0.18550575179E+03 -0.34605017734E+03 -0.15936503359E+03  0.43101967159E+03  0.78851976400E+02 0.  0.
         24    2    4    4    0    0  0.23105780170E+03  0.22953264346E+03 -0.21392022643E+03  0.39750684183E+03  0.78593154191E+02 0.  0.
         13    1    3    3    0    0 -0.38089111801E+03  0.11204022199E+03 -0.89422646229E+02  0.40697354309E+03  0.00000000000E+00 0. -1.
        -14    1    3    3    0    0 -0.35672435480E+02  0.44773118920E+01  0.15670513085E+02  0.39219050922E+02  0.00000000000E+00 0.  1.
         15    1    5    5    0    0  0.10762566961E+03 -0.19763341331E+03 -0.13283275739E+03  0.26132345854E+03  0.17770000000E+01 0. -1.
        -16    1    5    5    0    0  0.77880082182E+02 -0.14841676403E+03 -0.26532276203E+02  0.16969621306E+03  0.00000000000E+00 0.  1.
          4    1    6    6  502    0  0.39720789823E+02  0.78755950793E+02 -0.82203802369E+02  0.12057241000E+03  0.00000000000E+00 0. -1.
         -3    1    6    6    0  502  0.19133701187E+03  0.15077669267E+03 -0.13171642406E+03  0.27693443183E+03  0.00000000000E+00 0.  1.
<mgrwt>
<rscale>  0 0.57872272E+03</rscale>
<asrwt>0</asrwt>
<pdfrwt beam="1">  1        1 0.13244281E+00 0.57872272E+03</pdfrwt>
<pdfrwt beam="2">  1       -2 0.63667825E-01 0.57872272E+03</pdfrwt>
<totfact> 0.40716554E+01</totfact>
</mgrwt>
</event>
<event>
12    3  0.1201947E-007  0.6073630E+03  0.7818608E-02  0.9890247E-01
          1   -1    0    0  501    0  0.00000000000E+00  0.00000000000E+00  0.85767329456E+03  0.85767329456E+03  0.00000000000E+00 0. -1.
         -2   -1    0    0    0  501 -0.00000000000E+00 -0.00000000000E+00 -0.59367567627E+03  0.59367567627E+03  0.00000000000E+00 0.  1.
        -24    2    1    2    0    0  0.55792123913E+03 -0.17537088048E+03  0.10131301608E+03  0.59796894103E+03  0.72604906297E+02 0.  0.
    5000000    2    1    2    0    0 -0.55792123913E+03  0.17537088048E+03  0.16268460221E+03  0.85338002979E+03  0.59980008391E+03 0.  0.
        -24    2    4    4    0    0 -0.38423880225E+03  0.18316400814E+02 -0.17892973502E+03  0.43142199038E+03  0.78320725358E+02 0.  0.
         24    2    4    4    0    0 -0.17368243688E+03  0.15705447966E+03  0.34161433723E+03  0.42195803941E+03  0.80725046674E+02 0.  0.
         13    1    3    3    0    0  0.42232770585E+03 -0.15203267727E+03  0.10233802202E+03  0.46037777622E+03  0.00000000000E+00 0. -1.
        -14    1    3    3    0    0  0.13559353328E+03 -0.23338203203E+02 -0.10250059435E+01  0.13759116481E+03  0.00000000000E+00 0.  1.
         15    1    5    5    0    0 -0.37014203825E+03  0.28827076334E+02 -0.15645618543E+03  0.40288686315E+03  0.17770000000E+01 0. -1.
        -16    1    5    5    0    0 -0.14096763996E+02 -0.10510675520E+02 -0.22473549590E+02  0.28535127233E+02  0.00000000000E+00 0.  1.
          4    1    6    6  502    0 -0.13402271466E+03  0.14614854660E+03  0.23382267372E+03  0.30658527111E+03  0.00000000000E+00 0. -1.
         -3    1    6    6    0  502 -0.39659722228E+02  0.10905933061E+02  0.10779166351E+03  0.11537276830E+03  0.00000000000E+00 0.  1.
<mgrwt>
<rscale>  0 0.60736299E+03</rscale>
<asrwt>0</asrwt>
<pdfrwt beam="1">  1        1 0.13194974E+00 0.60736299E+03</pdfrwt>
<pdfrwt beam="2">  1       -2 0.91334719E-01 0.60736299E+03</pdfrwt>
<totfact> 0.18340421E+01</totfact>
</mgrwt>
</event>
<event>
12    3  0.1201947E-007  0.8406627E+03  0.7818608E-02  0.9502956E-01
          1   -1    0    0  501    0  0.00000000000E+00  0.00000000000E+00  0.88900938269E+03  0.88900938269E+03  0.00000000000E+00 0. -1.
         -2   -1    0    0    0  501 -0.00000000000E+00 -0.00000000000E+00 -0.80938836402E+03  0.80938836402E+03  0.00000000000E+00 0.  1.
        -24    2    1    2    0    0  0.45748055645E+03  0.57825423605E+03  0.94355096386E+02  0.74767719515E+03  0.80323613526E+02 0.  0.
    5000000    2    1    2    0    0 -0.45748055645E+03 -0.57825423605E+03 -0.14734077717E+02  0.95072055156E+03  0.59998837744E+03 0.  0.
        -24    2    4    4    0    0 -0.49409656780E+03 -0.16963549497E+03  0.40199451933E+02  0.52994677480E+03  0.79498230876E+02 0.  0.
         24    2    4    4    0    0  0.36616011358E+02 -0.40861874108E+03 -0.54933529650E+02  0.42077377676E+03  0.75649657500E+02 0.  0.
         11    1    3    3    0    0  0.20472889474E+03  0.32336281910E+03  0.51053364617E+02  0.38611381632E+03  0.00000000000E+00 0. -1.
        -12    1    3    3    0    0  0.25275166171E+03  0.25489141695E+03  0.43301731770E+02  0.36156337883E+03  0.00000000000E+00 0.  1.
         15    1    5    5    0    0 -0.24601458086E+03 -0.98188459141E+02 -0.17300825854E+02  0.26545550250E+03  0.17770000000E+01 0. -1.
        -16    1    5    5    0    0 -0.24808198695E+03 -0.71447035832E+02  0.57500277787E+02  0.26449127230E+03  0.00000000000E+00 0.  1.
          4    1    6    6  502    0  0.25024904196E+02 -0.36328459350E+02 -0.12767413022E+02  0.45923954795E+02  0.00000000000E+00 0. -1.
         -3    1    6    6    0  502  0.11591107162E+02 -0.37229028173E+03 -0.42166116628E+02  0.37484982196E+03  0.00000000000E+00 0.  1.
<mgrwt>
<rscale>  0 0.84066272E+03</rscale>
<asrwt>0</asrwt>
<pdfrwt beam="1">  1        1 0.13677068E+00 0.84066272E+03</pdfrwt>
<pdfrwt beam="2">  1       -2 0.12452129E+00 0.84066272E+03</pdfrwt>
<totfact> 0.79829113E+00</totfact>
</mgrwt>
</event>
<event>
12    3  0.1700252E-007  0.1440398E+04  0.7818608E-02  0.8925085E-01
          1   -1    0    0  501    0  0.00000000000E+00  0.00000000000E+00  0.17284118613E+04  0.17284118613E+04  0.00000000000E+00 0. -1.
         -2   -1    0    0    0  501 -0.00000000000E+00 -0.00000000000E+00 -0.12224143701E+04  0.12224143701E+04  0.00000000000E+00 0.  1.
        -24    2    1    2    0    0 -0.47201403554E+03 -0.12987132645E+04  0.39927545871E+03  0.14405807061E+04  0.79990534669E+02 0.  0.
    5000000    2    1    2    0    0  0.47201403554E+03  0.12987132645E+04  0.10672203246E+03  0.15102455254E+04  0.59999880123E+03 0.  0.
        -24    2    4    4    0    0  0.92549889360E+02  0.10218132194E+04  0.92220122696E+02  0.10337002405E+04  0.85813162401E+02 0.  0.
         24    2    4    4    0    0  0.37946414618E+03  0.27690004512E+03  0.14501909759E+02  0.47654528485E+03  0.78857021893E+02 0.  0.
         11    1    3    3    0    0 -0.23567208686E+03 -0.74105463284E+03  0.24935777144E+03  0.81662880157E+03  0.00000000000E+00 0. -1.
        -12    1    3    3    0    0 -0.23634194868E+03 -0.55765863168E+03  0.14991768728E+03  0.62395190452E+03  0.00000000000E+00 0.  1.
         15    1    5    5    0    0  0.45317107621E+02  0.32365339313E+03 -0.73371765186E+01  0.32689776845E+03  0.17770000000E+01 0. -1.
        -16    1    5    5    0    0  0.47232781739E+02  0.69815982627E+03  0.99557299215E+02  0.70680247206E+03  0.00000000000E+00 0.  1.
          4    1    6    6  502    0  0.24825721590E+03  0.16129329475E+03 -0.25524892821E+02  0.29715095882E+03  0.00000000000E+00 0. -1.
         -3    1    6    6    0  502  0.13120693028E+03  0.11560675037E+03  0.40026802580E+02  0.17939432602E+03  0.00000000000E+00 0.  1.
<mgrwt>
<rscale>  0 0.14403981E+04</rscale>
<asrwt>0</asrwt>
<pdfrwt beam="1">  1        1 0.26590952E+00 0.14403981E+04</pdfrwt>
<pdfrwt beam="2">  1       -2 0.18806375E+00 0.14403981E+04</pdfrwt>
<totfact> 0.60598969E-01</totfact>
</mgrwt>
</event>
<event>
12    3  0.1201947E-007  0.5331284E+03  0.7818608E-02  0.1005476E+00
          1   -1    0    0  501    0  0.00000000000E+00  0.00000000000E+00  0.48801406374E+03  0.48801406374E+03  0.00000000000E+00 0. -1.
         -2   -1    0    0    0  501 -0.00000000000E+00 -0.00000000000E+00 -0.10751514757E+04  0.10751514757E+04  0.00000000000E+00 0.  1.
        -24    2    1    2    0    0  0.48074853211E+03  0.15008183878E+03 -0.59000937915E+03  0.77980960044E+03  0.79675818138E+02 0.  0.
    5000000    2    1    2    0    0 -0.48074853211E+03 -0.15008183878E+03  0.28719672053E+01  0.78335593899E+03  0.59999547457E+03 0.  0.
        -24    2    4    4    0    0 -0.28227987724E+03  0.22700779266E+02  0.26928714535E+03  0.40015108081E+03  0.86070124623E+02 0.  0.
         24    2    4    4    0    0 -0.19846865487E+03 -0.17278261805E+03 -0.26641517814E+03  0.38320485818E+03  0.81395799165E+02 0.  0.
         13    1    3    3    0    0  0.24133106046E+03  0.80757080545E+02 -0.23758776415E+03  0.34815274302E+03  0.00000000000E+00 0. -1.
        -14    1    3    3    0    0  0.23941747165E+03  0.69324758240E+02 -0.35242161500E+03  0.43165685742E+03  0.00000000000E+00 0.  1.
         15    1    5    5    0    0 -0.75873428252E+02  0.28369159909E+02  0.36152424440E+02  0.88722837368E+02  0.17770000000E+01 0. -1.
        -16    1    5    5    0    0 -0.20640644898E+03 -0.56683806426E+01  0.23313472091E+03  0.31142824344E+03  0.00000000000E+00 0.  1.
          2    1    6    6  502    0 -0.92816743858E+02 -0.30308900120E+02 -0.10495616777E+03  0.14335053024E+03  0.00000000000E+00 0. -1.
         -1    1    6    6    0  502 -0.10565191101E+03 -0.14247371793E+03 -0.16145901037E+03  0.23985432794E+03  0.00000000000E+00 0.  1.
<mgrwt>
<rscale>  0 0.53312844E+03</rscale>
<asrwt>0</asrwt>
<pdfrwt beam="1">  1        1 0.75079088E-01 0.53312844E+03</pdfrwt>
<pdfrwt beam="2">  1       -2 0.16540792E+00 0.53312844E+03</pdfrwt>
<totfact> 0.96648600E+00</totfact>
</mgrwt>
</event>
<event>
12    3  0.1201947E-007  0.9834008E+03  0.7818608E-02  0.9326940E-01
         -2   -1    0    0    0  501 -0.00000000000E+00  0.00000000000E+00  0.17746865322E+04  0.17746865322E+04  0.00000000000E+00 0.  1.
          1   -1    0    0  501    0  0.00000000000E+00 -0.00000000000E+00 -0.10347910713E+04  0.10347910713E+04  0.00000000000E+00 0. -1.
        -24    2    1    2    0    0  0.89335995512E+03  0.13722770969E+03  0.13024870932E+04  0.15873867175E+04  0.80003181503E+02 0.  0.
    5000000    2    1    2    0    0 -0.89335995512E+03 -0.13722770969E+03 -0.56259163234E+03  0.12220908861E+04  0.60006110973E+03 0.  0.
        -24    2    4    4    0    0 -0.56212237777E+03  0.18502739494E+03 -0.41071868845E+03  0.72512191152E+03  0.83037588183E+02 0.  0.
         24    2    4    4    0    0 -0.33123757735E+03 -0.32225510463E+03 -0.15187294389E+03  0.49696897459E+03  0.10171570928E+03 0.  0.
         13    1    3    3    0    0  0.57343340421E+03  0.60889084533E+02  0.87686533606E+03  0.10494885265E+04  0.00000000000E+00 0. -1.
        -14    1    3    3    0    0  0.31992655091E+03  0.76338625153E+02  0.42562175715E+03  0.53789819095E+03  0.00000000000E+00 0.  1.
         15    1    5    5    0    0 -0.13467614188E+03  0.12584214077E+02 -0.11446806722E+03  0.17720643831E+03  0.17770000000E+01 0. -1.
        -16    1    5    5    0    0 -0.42744623589E+03  0.17244318086E+03 -0.29625062123E+03  0.54791547321E+03  0.00000000000E+00 0.  1.
          2    1    6    6  502    0 -0.29447654816E+03 -0.26044178526E+03 -0.92870839486E+02  0.40394474096E+03  0.00000000000E+00 0. -1.
         -1    1    6    6    0  502 -0.36761029190E+02 -0.61813319363E+02 -0.59002104400E+02  0.93024233624E+02  0.00000000000E+00 0.  1.
<mgrwt>
<rscale>  0 0.98340081E+03</rscale>
<asrwt>0</asrwt>
<pdfrwt beam="1">  1        1 0.15919863E+00 0.98340081E+03</pdfrwt>
<pdfrwt beam="2">  1       -2 0.27302870E+00 0.98340081E+03</pdfrwt>
<totfact> 0.58304253E-01</totfact>
</mgrwt>
</event>
<event>
12    3  0.1201947E-007  0.5427737E+03  0.7818608E-02  0.1003180E+00
         -2   -1    0    0    0  501 -0.00000000000E+00  0.00000000000E+00  0.19403038959E+03  0.19403038959E+03  0.00000000000E+00 0.  1.
          1   -1    0    0  501    0  0.00000000000E+00 -0.00000000000E+00 -0.16294015944E+04  0.16294015944E+04  0.00000000000E+00 0. -1.
        -24    2    1    2    0    0  0.33946759013E+03 -0.17821844264E+03 -0.34900781395E+03  0.52453165172E+03  0.79542073234E+02 0.  0.
    5000000    2    1    2    0    0 -0.33946759013E+03  0.17821844264E+03 -0.10863633908E+04  0.12989003322E+04  0.59996383067E+03 0.  0.
        -24    2    4    4    0    0  0.54923304657E+02 -0.15294106644E+03 -0.17559394946E+03  0.24955850655E+03  0.70983617160E+02 0.  0.
         24    2    4    4    0    0 -0.39439089478E+03  0.33115950908E+03 -0.91076944137E+03  0.10493418257E+04  0.80040573896E+02 0.  0.
         13    1    3    3    0    0  0.30251243502E+03 -0.13039646613E+03 -0.27603946858E+03  0.42978459714E+03  0.00000000000E+00 0. -1.
        -14    1    3    3    0    0  0.36955155100E+02 -0.47821976504E+02 -0.72968345368E+02  0.94747054577E+02  0.00000000000E+00 0.  1.
         15    1    5    5    0    0  0.30525436790E+02 -0.14831685354E+03 -0.14055267066E+03  0.20661050868E+03  0.17770000000E+01 0. -1.
        -16    1    5    5    0    0  0.24397867867E+02 -0.46242128965E+01 -0.35041278797E+02  0.42947997871E+02  0.00000000000E+00 0.  1.
          4    1    6    6  502    0 -0.19293363843E+03  0.11814590955E+03 -0.35452077214E+03  0.42055537407E+03  0.00000000000E+00 0. -1.
         -3    1    6    6    0  502 -0.20145725636E+03  0.21301359952E+03 -0.55624866923E+03  0.62878645162E+03  0.00000000000E+00 0.  1.
<mgrwt>
<rscale>  0 0.54277372E+03</rscale>
<asrwt>0</asrwt>
<pdfrwt beam="1">  1        1 0.25067717E+00 0.54277372E+03</pdfrwt>
<pdfrwt beam="2">  1       -2 0.29850829E-01 0.54277372E+03</pdfrwt>
<totfact> 0.51007445E+01</totfact>
</mgrwt>
</event>
<event>
12    3  0.1201947E-007  0.4958582E+03  0.7818608E-02  0.1014866E+00
         -2   -1    0    0    0  501 -0.00000000000E+00  0.00000000000E+00  0.16073846116E+03  0.16073846116E+03  0.00000000000E+00 0.  1.
          1   -1    0    0  501    0  0.00000000000E+00 -0.00000000000E+00 -0.21058032115E+04  0.21058032115E+04  0.00000000000E+00 0. -1.
        -24    2    1    2    0    0 -0.22259802548E+03 -0.33073541979E+03 -0.44607914303E+03  0.60347375391E+03  0.79108602306E+02 0.  0.
    5000000    2    1    2    0    0  0.22259802548E+03  0.33073541979E+03 -0.14989856073E+04  0.16630679188E+04  0.59991770486E+03 0.  0.
        -24    2    4    4    0    0  0.26867754383E+03  0.21097382611E+02 -0.26067963714E+03  0.38322663929E+03  0.79221598884E+02 0.  0.
         24    2    4    4    0    0 -0.46079518343E+02  0.30963803718E+03 -0.12383059702E+04  0.12798412795E+04  0.81197221549E+02 0.  0.
         13    1    3    3    0    0 -0.48262765522E+02 -0.13559167475E+03 -0.17711980372E+03  0.22822318390E+03  0.00000000000E+00 0. -1.
        -14    1    3    3    0    0 -0.17433525996E+03 -0.19514374504E+03 -0.26895933931E+03  0.37525057001E+03  0.00000000000E+00 0.  1.
         15    1    5    5    0    0  0.73626117572E+02 -0.11293989505E+02 -0.32469166452E+02  0.81275850576E+02  0.17770000000E+01 0. -1.
        -16    1    5    5    0    0  0.19505142625E+03  0.32391372116E+02 -0.22821047069E+03  0.30195078871E+03  0.00000000000E+00 0.  1.
          4    1    6    6  502    0 -0.23022462581E+02  0.84859111971E+02 -0.22328311785E+03  0.23997177623E+03  0.00000000000E+00 0. -1.
         -3    1    6    6    0  502 -0.23057055762E+02  0.22477892521E+03 -0.10150228523E+04  0.10398695033E+04  0.00000000000E+00 0.  1.
<mgrwt>
<rscale>  0 0.49585817E+03</rscale>
<asrwt>0</asrwt>
<pdfrwt beam="1">  1        1 0.32396974E+00 0.49585817E+03</pdfrwt>
<pdfrwt beam="2">  1       -2 0.24728993E-01 0.49585817E+03</pdfrwt>
<totfact> 0.34942706E+01</totfact>
</mgrwt>
</event>
<event>
12    3  0.1201947E-007  0.7959164E+03  0.7818608E-02  0.9565947E-01
         -2   -1    0    0    0  501 -0.00000000000E+00  0.00000000000E+00  0.26166096852E+03  0.26166096852E+03  0.00000000000E+00 0.  1.
          1   -1    0    0  501    0  0.00000000000E+00 -0.00000000000E+00 -0.45908544061E+04  0.45908544061E+04  0.00000000000E+00 0. -1.
        -24    2    1    2    0    0 -0.61483858305E+03 -0.32578050990E+03 -0.36332162474E+04  0.37001179734E+04  0.80332387534E+02 0.  0.
    5000000    2    1    2    0    0  0.61483858305E+03  0.32578050990E+03 -0.69597719014E+03  0.11523974012E+04  0.59956325547E+03 0.  0.
        -24    2    4    4    0    0  0.26991297854E+03 -0.14325251687E+03 -0.35835052819E+03  0.47483003178E+03  0.60614836872E+02 0.  0.
         24    2    4    4    0    0  0.34492560451E+03  0.46903302677E+03 -0.33762666195E+03  0.67756736944E+03  0.78358946080E+02 0.  0.
         11    1    3    3    0    0 -0.28474597593E+03 -0.18720469408E+03 -0.18994624608E+04  0.19297884621E+04  0.00000000000E+00 0. -1.
        -12    1    3    3    0    0 -0.33009260712E+03 -0.13857581582E+03 -0.17337537866E+04  0.17703295113E+04  0.00000000000E+00 0.  1.
         15    1    5    5    0    0  0.26937493661E+03 -0.13302635720E+03 -0.33925642006E+03  0.45316326469E+03  0.17770000000E+01 0. -1.
        -16    1    5    5    0    0  0.53804193068E+00 -0.10226159669E+02 -0.19094108134E+02  0.21666767089E+02  0.00000000000E+00 0.  1.
          2    1    6    6  502    0  0.30302351058E+03  0.40385912732E+03 -0.32105741278E+03  0.59833377390E+03  0.00000000000E+00 0. -1.
         -1    1    6    6    0  502  0.41902093931E+02  0.65173899448E+02 -0.16569249161E+02  0.79233595544E+02  0.00000000000E+00 0.  1.
<mgrwt>
<rscale>  0 0.79591643E+03</rscale>
<asrwt>0</asrwt>
<pdfrwt beam="1">  1        1 0.70628528E+00 0.79591643E+03</pdfrwt>
<pdfrwt beam="2">  1       -2 0.40255534E-01 0.79591643E+03</pdfrwt>
<totfact> 0.14947425E-01</totfact>
</mgrwt>
</event>
<event>
12    3  0.1201947E-007  0.8673981E+03  0.7818608E-02  0.9467279E-01
         -4   -1    0    0    0  501 -0.00000000000E+00  0.00000000000E+00  0.23823989120E+04  0.23823989120E+04  0.00000000000E+00 0.  1.
          3   -1    0    0  501    0  0.00000000000E+00 -0.00000000000E+00 -0.41791508368E+03  0.41791508368E+03  0.00000000000E+00 0. -1.
        -24    2    1    2    0    0 -0.38984687257E+03  0.72656706037E+03  0.14209101439E+04  0.16447220395E+04  0.79023243095E+02 0.  0.
    5000000    2    1    2    0    0  0.38984687257E+03 -0.72656706037E+03  0.54357368438E+03  0.11555919561E+04  0.60003345028E+03 0.  0.
        -24    2    4    4    0    0  0.16989173032E+03 -0.62715263288E+03  0.12776158608E+03  0.66696392804E+03  0.79587897773E+02 0.  0.
         24    2    4    4    0    0  0.21995514225E+03 -0.99414427489E+02  0.41581209830E+03  0.48862802809E+03  0.87144453352E+02 0.  0.
         13    1    3    3    0    0 -0.24736270798E+03  0.38147805266E+03  0.75737055315E+03  0.88335947877E+03  0.00000000000E+00 0. -1.
        -14    1    3    3    0    0 -0.14248416460E+03  0.34508900771E+03  0.66353959075E+03  0.76136256074E+03  0.00000000000E+00 0.  1.
         15    1    5    5    0    0 -0.22492413496E+01 -0.19799260096E+02 -0.74878551269E+01  0.21361074187E+02  0.17770000000E+01 0. -1.
        -16    1    5    5    0    0  0.17214097167E+03 -0.60735337278E+03  0.13524944121E+03  0.64560285385E+03  0.00000000000E+00 0.  1.
          2    1    6    6  502    0  0.16776112390E+03 -0.11213442021E+03  0.34595209517E+03  0.40050065548E+03  0.00000000000E+00 0. -1.
         -1    1    6    6    0  502  0.52194018353E+02  0.12719992717E+02  0.69860003126E+02  0.88127372611E+02  0.00000000000E+00 0.  1.
<mgrwt>
<rscale>  0 0.86739814E+03</rscale>
<asrwt>0</asrwt>
<pdfrwt beam="1">  1        3 0.64294630E-01 0.86739814E+03</pdfrwt>
<pdfrwt beam="2">  1       -4 0.36652290E+00 0.86739814E+03</pdfrwt>
<totfact> 0.62749807E-02</totfact>
</mgrwt>
</event>
<event>
12    3  0.1201947E-007  0.1507735E+04  0.7818608E-02  0.8879325E-01
         -2   -1    0    0    0  501 -0.00000000000E+00  0.00000000000E+00  0.12715743944E+04  0.12715743944E+04  0.00000000000E+00 0.  1.
          1   -1    0    0  501    0  0.00000000000E+00 -0.00000000000E+00 -0.18623324277E+04  0.18623324277E+04  0.00000000000E+00 0. -1.
        -24    2    1    2    0    0  0.31871815387E+03  0.14203786683E+04 -0.55239668240E+03  0.15589354237E+04  0.77979084730E+02 0.  0.
    5000000    2    1    2    0    0 -0.31871815387E+03 -0.14203786683E+04 -0.38361350862E+02  0.15749713984E+04  0.60000540803E+03 0.  0.
        -24    2    4    4    0    0  0.13521591638E+03 -0.18394179724E+03 -0.80208244078E+02  0.25477890520E+03  0.79755873144E+02 0.  0.
         24    2    4    4    0    0 -0.45393407025E+03 -0.12364368710E+04  0.41846893216E+02  0.13201924932E+04  0.79528488386E+02 0.  0.
         11    1    3    3    0    0  0.21796207729E+03  0.91010065984E+03 -0.31756094528E+03  0.98824877037E+03  0.00000000000E+00 0. -1.
        -12    1    3    3    0    0  0.10075607658E+03  0.51027800842E+03 -0.23483573712E+03  0.57068665331E+03  0.00000000000E+00 0.  1.
         15    1    5    5    0    0  0.10741407515E+03 -0.18318538180E+03 -0.60902453201E+02  0.22092291456E+03  0.17770000000E+01 0. -1.
        -16    1    5    5    0    0  0.27801841236E+02 -0.75641544048E+00 -0.19305790878E+02  0.33855990635E+02  0.00000000000E+00 0.  1.
          2    1    6    6  502    0 -0.54327676075E+02 -0.23298435896E+03 -0.12836514172E+01  0.23923807320E+03  0.00000000000E+00 0. -1.
         -1    1    6    6    0  502 -0.39960639417E+03 -0.10034525121E+04  0.43130544633E+02  0.10809544200E+04  0.00000000000E+00 0.  1.
<mgrwt>
<rscale>  0 0.15077350E+04</rscale>
<asrwt>0</asrwt>
<pdfrwt beam="1">  1        1 0.28651268E+00 0.15077350E+04</pdfrwt>
<pdfrwt beam="2">  1       -2 0.19562683E+00 0.15077350E+04</pdfrwt>
<totfact> 0.43381193E-01</totfact>
</mgrwt>
</event>
<event>
12    3  0.1201947E-007  0.9875091E+03  0.7818608E-02  0.9322352E-01
         -4   -1    0    0    0  501 -0.00000000000E+00  0.00000000000E+00  0.94545904880E+03  0.94545904880E+03  0.00000000000E+00 0.  1.
          1   -1    0    0  501    0  0.00000000000E+00 -0.00000000000E+00 -0.10924822709E+04  0.10924822709E+04  0.00000000000E+00 0. -1.
        -24    2    1    2    0    0  0.92359496731E+03  0.49943499942E+02 -0.23659736185E+02  0.92856398635E+03  0.78417324645E+02 0.  0.
    5000000    2    1    2    0    0 -0.92359496731E+03 -0.49943499942E+02 -0.12336348588E+03  0.11093773333E+04  0.59998125069E+03 0.  0.
        -24    2    4    4    0    0  0.58353097989E+02 -0.49897331641E+00  0.44785759302E+02  0.10862662896E+03  0.79929013906E+02 0.  0.
         24    2    4    4    0    0 -0.98194806530E+03 -0.49444526626E+02 -0.16814924519E+03  0.10007507043E+04  0.81000243383E+02 0.  0.
         13    1    3    3    0    0  0.62119856513E+03  0.58566238270E+01  0.84904761198E+01  0.62128419065E+03  0.00000000000E+00 0. -1.
        -14    1    3    3    0    0  0.30239640219E+03  0.44086876115E+02 -0.32150212305E+02  0.30727979571E+03  0.00000000000E+00 0.  1.
         15    1    5    5    0    0  0.55391820259E+02 -0.60672562550E+01 -0.72403800240E+01  0.56219624527E+02  0.17770000000E+01 0. -1.
        -16    1    5    5    0    0  0.29612777307E+01  0.55682829385E+01  0.52026139326E+02  0.52407004435E+02  0.00000000000E+00 0.  1.
          4    1    6    6  502    0 -0.26845296647E+03  0.20446400491E+02 -0.58353354799E+02  0.27548169542E+03  0.00000000000E+00 0. -1.
         -3    1    6    6    0  502 -0.71349509884E+03 -0.69890927116E+02 -0.10979589039E+03  0.72526900892E+03  0.00000000000E+00 0.  1.
<mgrwt>
<rscale>  0 0.98750906E+03</rscale>
<asrwt>0</asrwt>
<pdfrwt beam="1">  1        1 0.16807419E+00 0.98750906E+03</pdfrwt>
<pdfrwt beam="2">  1       -4 0.14545524E+00 0.98750906E+03</pdfrwt>
<totfact> 0.19737327E+00</totfact>
</mgrwt>
</event>
<event>
12    3  0.1201947E-007  0.1206942E+04  0.7818608E-02  0.9106802E-01
         -2   -1    0    0    0  501 -0.00000000000E+00  0.00000000000E+00  0.11383126275E+04  0.11383126275E+04  0.00000000000E+00 0.  1.
          1   -1    0    0  501    0  0.00000000000E+00 -0.00000000000E+00 -0.23329149943E+04  0.23329149943E+04  0.00000000000E+00 0. -1.
        -24    2    1    2    0    0 -0.11268370927E+04 -0.35888036456E+03 -0.16826953207E+04  0.20581520041E+04  0.77260470178E+02 0.  0.
    5000000    2    1    2    0    0  0.11268370927E+04  0.35888036456E+03  0.48809295390E+03  0.14130756176E+04  0.59999251654E+03 0.  0.
        -24    2    4    4    0    0  0.11131333396E+03 -0.61740415661E+02  0.24004926163E+03  0.28342541258E+03  0.80646011971E+02 0.  0.
         24    2    4    4    0    0  0.10155237587E+04  0.42062078022E+03  0.24804369227E+03  0.11296502050E+04  0.79834623718E+02 0.  0.
         11    1    3    3    0    0 -0.39967998783E+03 -0.89836322297E+02 -0.56664182645E+03  0.69921214016E+03  0.00000000000E+00 0. -1.
        -12    1    3    3    0    0 -0.72715710486E+03 -0.26904404226E+03 -0.11160534943E+04  0.13589398640E+04  0.00000000000E+00 0.  1.
         15    1    5    5    0    0  0.59627031572E+02 -0.18958041100E+02  0.18906431279E+03  0.19915637654E+03  0.17770000000E+01 0. -1.
        -16    1    5    5    0    0  0.51686302392E+02 -0.42782374562E+02  0.50984948837E+02  0.84269036045E+02  0.00000000000E+00 0.  1.
          2    1    6    6  502    0  0.47810402136E+03  0.20184163328E+03  0.76451144470E+02  0.52456484600E+03  0.00000000000E+00 0. -1.
         -1    1    6    6    0  502  0.53741973736E+03  0.21877914695E+03  0.17159254780E+03  0.60508535902E+03  0.00000000000E+00 0.  1.
<mgrwt>
<rscale>  0 0.12069417E+04</rscale>
<asrwt>0</asrwt>
<pdfrwt beam="1">  1        1 0.35891000E+00 0.12069417E+04</pdfrwt>
<pdfrwt beam="2">  1       -2 0.17512502E+00 0.12069417E+04</pdfrwt>
<totfact> 0.29708319E-01</totfact>
</mgrwt>
</event>
<event>
12    3  0.1201947E-007  0.5298292E+03  0.7818608E-02  0.1006274E+00
         -2   -1    0    0    0  501 -0.00000000000E+00  0.00000000000E+00  0.38376731502E+03  0.38376731502E+03  0.00000000000E+00 0.  1.
          1   -1    0    0  501    0  0.00000000000E+00 -0.00000000000E+00 -0.20265121531E+04  0.20265121531E+04  0.00000000000E+00 0. -1.
        -24    2    1    2    0    0  0.36288438369E+03 -0.36835586073E+03  0.65143814910E+02  0.52765972815E+03  0.82522457787E+02 0.  0.
    5000000    2    1    2    0    0 -0.36288438369E+03  0.36835586073E+03 -0.17078886530E+04  0.18826197400E+04  0.60000193185E+03 0.  0.
        -24    2    4    4    0    0 -0.17979077958E+03  0.15888045684E+03 -0.15356204299E+03  0.30153279904E+03  0.98858504254E+02 0.  0.
         24    2    4    4    0    0 -0.18309360411E+03  0.20947540389E+03 -0.15543266100E+04  0.15810869409E+04  0.80631826741E+02 0.  0.
         11    1    3    3    0    0  0.48161469144E+02 -0.96043359004E+02  0.13972761465E+02  0.10834709032E+03  0.00000000000E+00 0. -1.
        -12    1    3    3    0    0  0.31472291454E+03 -0.27231250172E+03  0.51171053445E+02  0.41931263783E+03  0.00000000000E+00 0.  1.
         15    1    5    5    0    0 -0.77315448352E+02  0.12686034301E+03 -0.11339620386E+03  0.18690393778E+03  0.17770000000E+01 0. -1.
        -16    1    5    5    0    0 -0.10247533123E+03  0.32020113837E+02 -0.40165839137E+02  0.11462886126E+03  0.00000000000E+00 0.  1.
          2    1    6    6  502    0 -0.44697728217E+02  0.73888771095E+02 -0.31146680068E+03  0.32321665385E+03  0.00000000000E+00 0. -1.
         -1    1    6    6    0  502 -0.13839587589E+03  0.13558663279E+03 -0.12428598093E+04  0.12578702871E+04  0.00000000000E+00 0.  1.
<mgrwt>
<rscale>  0 0.52982920E+03</rscale>
<asrwt>0</asrwt>
<pdfrwt beam="1">  1        1 0.31177110E+00 0.52982920E+03</pdfrwt>
<pdfrwt beam="2">  1       -2 0.59041125E-01 0.52982920E+03</pdfrwt>
<totfact> 0.73081837E+00</totfact>
</mgrwt>
</event>
<event>
12    3  0.1201947E-007  0.6492088E+03  0.7818608E-02  0.9808265E-01
         -2   -1    0    0    0  501 -0.00000000000E+00  0.00000000000E+00  0.50923599210E+03  0.50923599210E+03  0.00000000000E+00 0.  1.
          1   -1    0    0  501    0  0.00000000000E+00 -0.00000000000E+00 -0.90692509622E+03  0.90692509622E+03  0.00000000000E+00 0. -1.
        -24    2    1    2    0    0  0.53849843793E+03 -0.68363694713E+02 -0.19352258042E+03  0.58168887010E+03  0.79099873949E+02 0.  0.
    5000000    2    1    2    0    0 -0.53849843793E+03  0.68363694713E+02 -0.20416652370E+03  0.83447221821E+03  0.60000479261E+03 0.  0.
        -24    2    4    4    0    0 -0.17214407846E+03 -0.21096067422E+03  0.71373964924E+02  0.29248614156E+03  0.79472701691E+02 0.  0.
         24    2    4    4    0    0 -0.36635435947E+03  0.27932436894E+03 -0.27554048863E+03  0.54198607665E+03  0.74757786419E+02 0.  0.
         11    1    3    3    0    0  0.30336801249E+03  0.98714666498E+00 -0.10356806558E+03  0.32056117929E+03  0.00000000000E+00 0. -1.
        -12    1    3    3    0    0  0.23513042545E+03 -0.69350841378E+02 -0.89954514838E+02  0.26112769081E+03  0.00000000000E+00 0.  1.
         15    1    5    5    0    0 -0.77659471991E+02 -0.15543512300E+03  0.37346175230E+02  0.17773284892E+03  0.17770000000E+01 0. -1.
        -16    1    5    5    0    0 -0.94484606473E+02 -0.55525551222E+02  0.34027789694E+02  0.11475329263E+03  0.00000000000E+00 0.  1.
          2    1    6    6  502    0 -0.21009563910E+03  0.20489945929E+03 -0.18040805783E+03  0.34448662284E+03  0.00000000000E+00 0. -1.
         -1    1    6    6    0  502 -0.15625872037E+03  0.74424909645E+02 -0.95132430797E+02  0.19749945381E+03  0.00000000000E+00 0.  1.
<mgrwt>
<rscale>  0 0.64920880E+03</rscale>
<asrwt>0</asrwt>
<pdfrwt beam="1">  1        1 0.13952694E+00 0.64920880E+03</pdfrwt>
<pdfrwt beam="2">  1       -2 0.78343999E-01 0.64920880E+03</pdfrwt>
<totfact> 0.23561116E+01</totfact>
</mgrwt>
</event>
<event>
12    3  0.1201947E-007  0.4611691E+03  0.7818608E-02  0.1024443E+00
          3   -1    0    0  501    0  0.00000000000E+00  0.00000000000E+00  0.24210096657E+03  0.24210096657E+03  0.00000000000E+00 0. -1.
         -4   -1    0    0    0  501 -0.00000000000E+00 -0.00000000000E+00 -0.13720059692E+04  0.13720059692E+04  0.00000000000E+00 0.  1.
        -24    2    1    2    0    0 -0.41165771049E+03  0.54154019680E+02 -0.42926078655E+03  0.60252091883E+03  0.79824221297E+02 0.  0.
    5000000    2    1    2    0    0  0.41165771049E+03 -0.54154019680E+02 -0.70064421603E+03  0.10115860169E+04  0.60000768635E+03 0.  0.
        -24    2    4    4    0    0  0.28117834550E+03  0.90475774116E+02 -0.73635336827E+03  0.79744336578E+03  0.80327523199E+02 0.  0.
         24    2    4    4    0    0  0.13047936499E+03 -0.14462979380E+03  0.35709152241E+02  0.21414265112E+03  0.81481835596E+02 0.  0.
         13    1    3    3    0    0 -0.25721912076E+03 -0.40745040181E+01 -0.24700373891E+03  0.35663584327E+03  0.00000000000E+00 0. -1.
        -14    1    3    3    0    0 -0.15443858972E+03  0.58228523698E+02 -0.18225704765E+03  0.24588507556E+03  0.00000000000E+00 0.  1.
         15    1    5    5    0    0  0.45515190090E+02  0.40153739282E+02 -0.20897322667E+03  0.21761645733E+03  0.17770000000E+01 0. -1.
        -16    1    5    5    0    0  0.23566315541E+03  0.50322034834E+02 -0.52738014160E+03  0.57982690845E+03  0.00000000000E+00 0.  1.
          2    1    6    6  502    0  0.19236607793E+02 -0.45251145119E+02 -0.22430642559E+02  0.54044860436E+02  0.00000000000E+00 0. -1.
         -3    1    6    6    0  502  0.11124275720E+03 -0.99378648677E+02  0.58139794800E+02  0.16009779068E+03  0.00000000000E+00 0.  1.
<mgrwt>
<rscale>  0 0.46116908E+03</rscale>
<asrwt>0</asrwt>
<pdfrwt beam="1">  1        3 0.37246303E-01 0.46116908E+03</pdfrwt>
<pdfrwt beam="2">  1       -4 0.21107784E+00 0.46116908E+03</pdfrwt>
<totfact> 0.18352744E+00</totfact>
</mgrwt>
</event>
<event>
12    3  0.1201947E-007  0.6248345E+03  0.7818608E-02  0.9855181E-01
          1   -1    0    0  501    0  0.00000000000E+00  0.00000000000E+00  0.11082661178E+04  0.11082661178E+04  0.00000000000E+00 0. -1.
         -2   -1    0    0    0  501 -0.00000000000E+00 -0.00000000000E+00 -0.10768617071E+04  0.10768617071E+04  0.00000000000E+00 0.  1.
        -24    2    1    2    0    0 -0.54920394252E+02 -0.59046295182E+03 -0.80097894958E+03  0.10000138933E+04  0.82448541447E+02 0.  0.
    5000000    2    1    2    0    0  0.54920394252E+02  0.59046295182E+03  0.83238336026E+03  0.11851139315E+04  0.59997518700E+03 0.  0.
        -24    2    4    4    0    0  0.14728880449E+03  0.34865326909E+03  0.91464037476E+02  0.39641872491E+03  0.74357523728E+02 0.  0.
         24    2    4    4    0    0 -0.92368410241E+02  0.24180968273E+03  0.74091932278E+03  0.78869520659E+03  0.77941260883E+02 0.  0.
         13    1    3    3    0    0  0.12735918161E+02 -0.32607913504E+02 -0.67274646044E+02  0.75837705891E+02  0.00000000000E+00 0. -1.
        -14    1    3    3    0    0 -0.67656312413E+02 -0.55785503832E+03 -0.73370430353E+03  0.92417618743E+03  0.00000000000E+00 0.  1.
         15    1    5    5    0    0  0.14313691524E+03  0.28792083656E+03  0.95459487539E+02  0.33541355983E+03  0.17770000000E+01 0. -1.
        -16    1    5    5    0    0  0.41518892532E+01  0.60732432526E+02 -0.39954500629E+01  0.61005165078E+02  0.00000000000E+00 0.  1.
          2    1    6    6  502    0  0.13800589680E+02  0.39249618618E+02  0.10997897943E+03  0.11758556354E+03  0.00000000000E+00 0. -1.
         -1    1    6    6    0  502 -0.10616899992E+03  0.20256006412E+03  0.63094034336E+03  0.67110964305E+03  0.00000000000E+00 0.  1.
<mgrwt>
<rscale>  0 0.62483446E+03</rscale>
<asrwt>0</asrwt>
<pdfrwt beam="1">  1        1 0.17050248E+00 0.62483446E+03</pdfrwt>
<pdfrwt beam="2">  1       -2 0.16567103E+00 0.62483446E+03</pdfrwt>
<totfact> 0.26370892E+00</totfact>
</mgrwt>
</event>
<event>
12    3  0.1201947E-007  0.6032661E+03  0.7818608E-02  0.9898653E-01
         -2   -1    0    0    0  501 -0.00000000000E+00  0.00000000000E+00  0.42024087156E+03  0.42024087156E+03  0.00000000000E+00 0.  1.
          1   -1    0    0  501    0  0.00000000000E+00 -0.00000000000E+00 -0.14194216334E+04  0.14194216334E+04  0.00000000000E+00 0. -1.
        -24    2    1    2    0    0  0.54259658806E+03  0.18805075429E+03 -0.79613849051E+03  0.98485855047E+03  0.79597266226E+02 0.  0.
    5000000    2    1    2    0    0 -0.54259658806E+03 -0.18805075429E+03 -0.20304227136E+03  0.85480395453E+03  0.59974118847E+03 0.  0.
        -24    2    4    4    0    0 -0.24493168039E+03 -0.20941101430E+03 -0.37557207414E+03  0.50143220558E+03  0.80841653531E+02 0.  0.
         24    2    4    4    0    0 -0.29766490768E+03  0.21360260007E+02  0.17252980279E+03  0.35337174895E+03  0.77745753183E+02 0.  0.
         13    1    3    3    0    0  0.10436429716E+03  0.57315929756E+02 -0.21019542083E+03  0.24157635908E+03  0.00000000000E+00 0. -1.
        -14    1    3    3    0    0  0.43823229090E+03  0.13073482454E+03 -0.58594306967E+03  0.74328219139E+03  0.00000000000E+00 0.  1.
         15    1    5    5    0    0 -0.24151341927E+03 -0.21404356170E+03 -0.37618476501E+03  0.49564252557E+03  0.17770000000E+01 0. -1.
        -16    1    5    5    0    0 -0.34182611125E+01  0.46325474036E+01  0.61269086938E+00  0.57896800068E+01  0.00000000000E+00 0.  1.
          2    1    6    6  502    0 -0.26993124695E+03  0.60609862012E+01  0.17475622643E+03  0.32161988792E+03  0.00000000000E+00 0. -1.
         -1    1    6    6    0  502 -0.27733660730E+02  0.15299273805E+02 -0.22264236449E+01  0.31751861027E+02  0.00000000000E+00 0.  1.
<mgrwt>
<rscale>  0 0.60326611E+03</rscale>
<asrwt>0</asrwt>
<pdfrwt beam="1">  1        1 0.21837256E+00 0.60326611E+03</pdfrwt>
<pdfrwt beam="2">  1       -2 0.64652442E-01 0.60326611E+03</pdfrwt>
<totfact> 0.15168206E+01</totfact>
</mgrwt>
</event>
<event>
12    3  0.1201947E-007  0.3762972E+03  0.7818608E-02  0.1052311E+00
         -2   -1    0    0    0  501 -0.00000000000E+00  0.00000000000E+00  0.33725208328E+03  0.33725208328E+03  0.00000000000E+00 0.  1.
          1   -1    0    0  501    0  0.00000000000E+00 -0.00000000000E+00 -0.65990002155E+03  0.65990002155E+03  0.00000000000E+00 0. -1.
        -24    2    1    2    0    0 -0.24336118446E+03 -0.11332882242E+03 -0.42902040573E+02  0.28278136971E+03  0.77824352705E+02 0.  0.
    5000000    2    1    2    0    0  0.24336118446E+03  0.11332882242E+03 -0.27974589770E+03  0.71437073512E+03  0.59999974318E+03 0.  0.
        -24    2    4    4    0    0  0.33292145428E+03  0.50430805482E+01  0.52785617525E+02  0.34557578147E+03  0.75987972345E+02 0.  0.
         24    2    4    4    0    0 -0.89560269815E+02  0.10828574188E+03 -0.33253151522E+03  0.36879495365E+03  0.75403351376E+02 0.  0.
         13    1    3    3    0    0 -0.18987256953E+03 -0.89495695983E+02  0.47425385489E+00  0.20990783019E+03  0.00000000000E+00 0. -1.
        -14    1    3    3    0    0 -0.53488614933E+02 -0.23833126442E+02 -0.43376294428E+02  0.72873539517E+02  0.00000000000E+00 0.  1.
         15    1    5    5    0    0  0.75547626667E+02 -0.41930288206E+01  0.44721301915E+02  0.87910056078E+02  0.17770000000E+01 0. -1.
        -16    1    5    5    0    0  0.25737382761E+03  0.92361093689E+01  0.80643156098E+01  0.25766572539E+03  0.00000000000E+00 0.  1.
          4    1    6    6  502    0 -0.76916022876E+02  0.51112850348E+02 -0.14132377001E+03  0.16882240970E+03  0.00000000000E+00 0. -1.
         -3    1    6    6    0  502 -0.12644246939E+02  0.57172891529E+02 -0.19120774521E+03  0.19997254395E+03  0.00000000000E+00 0.  1.
<mgrwt>
<rscale>  0 0.37629722E+03</rscale>
<asrwt>0</asrwt>
<pdfrwt beam="1">  1        1 0.10152308E+00 0.37629722E+03</pdfrwt>
<pdfrwt beam="2">  1       -2 0.51884936E-01 0.37629722E+03</pdfrwt>
<totfact> 0.96016333E+01</totfact>
</mgrwt>
</event>
<event>
12    3  0.1201947E-007  0.4318973E+03  0.7818608E-02  0.1033262E+00
          1   -1    0    0  501    0  0.00000000000E+00  0.00000000000E+00  0.12571572517E+04  0.12571572517E+04  0.00000000000E+00 0. -1.
         -2   -1    0    0    0  501 -0.00000000000E+00 -0.00000000000E+00 -0.42997624424E+03  0.42997624424E+03  0.00000000000E+00 0.  1.
        -24    2    1    2    0    0  0.36004030142E+03  0.10177915213E+03 -0.20640978679E+03  0.43479020541E+03  0.80308830038E+02 0.  0.
    5000000    2    1    2    0    0 -0.36004030142E+03 -0.10177915213E+03  0.10335907942E+04  0.12523432905E+04  0.60005480827E+03 0.  0.
        -24    2    4    4    0    0 -0.38004914819E+03 -0.62788799470E+01  0.25815815873E+03  0.46679267759E+03  0.82298174671E+02 0.  0.
         24    2    4    4    0    0  0.20008846767E+02 -0.95500272182E+02  0.77543263547E+03  0.78555061291E+03  0.79204402348E+02 0.  0.
         13    1    3    3    0    0  0.18884874282E+02  0.23051852431E+02 -0.31670576650E+02  0.43486225434E+02  0.00000000000E+00 0. -1.
        -14    1    3    3    0    0  0.34115542714E+03  0.78727299698E+02 -0.17473921013E+03  0.39130397998E+03  0.00000000000E+00 0.  1.
         15    1    5    5    0    0 -0.34273016347E+03 -0.24193892360E+02  0.20754586504E+03  0.40140721618E+03  0.17770000000E+01 0. -1.
        -16    1    5    5    0    0 -0.37318984724E+02  0.17915012413E+02  0.50612293688E+02  0.65385461404E+02  0.00000000000E+00 0.  1.
          4    1    6    6  502    0  0.70516479314E+01 -0.90472113372E+01  0.10227239800E+02  0.15367960355E+02  0.00000000000E+00 0. -1.
         -3    1    6    6    0  502  0.12957198835E+02 -0.86453060845E+02  0.76520539567E+03  0.77018265256E+03  0.00000000000E+00 0.  1.
<mgrwt>
<rscale>  0 0.43189727E+03</rscale>
<asrwt>0</asrwt>
<pdfrwt beam="1">  1        1 0.19340881E+00 0.43189727E+03</pdfrwt>
<pdfrwt beam="2">  1       -2 0.66150192E-01 0.43189727E+03</pdfrwt>
<totfact> 0.19299920E+01</totfact>
</mgrwt>
</event>
<event>
12    3  0.1201947E-007  0.6834772E+03  0.7818608E-02  0.9745913E-01
          1   -1    0    0  501    0  0.00000000000E+00  0.00000000000E+00  0.28706290043E+03  0.28706290043E+03  0.00000000000E+00 0. -1.
         -2   -1    0    0    0  501 -0.00000000000E+00 -0.00000000000E+00 -0.17992965709E+04  0.17992965709E+04  0.00000000000E+00 0.  1.
        -24    2    1    2    0    0 -0.28659138289E+03 -0.51307425430E+03 -0.71748409247E+03  0.93016333496E+03  0.70997151964E+02 0.  0.
    5000000    2    1    2    0    0  0.28659138289E+03  0.51307425430E+03 -0.79474957804E+03  0.11561961364E+04  0.59981897512E+03 0.  0.
        -24    2    4    4    0    0 -0.13374261030E+03  0.15866701765E+03 -0.45228089170E+03  0.50365193455E+03  0.77749327206E+02 0.  0.
         24    2    4    4    0    0  0.42033399319E+03  0.35440723664E+03 -0.34246868634E+03  0.65254420187E+03  0.79018852522E+02 0.  0.
         13    1    3    3    0    0 -0.62307763026E+02 -0.60579499785E+02 -0.10872134642E+03  0.13918500025E+03  0.00000000000E+00 0. -1.
        -14    1    3    3    0    0 -0.22428361986E+03 -0.45249475451E+03 -0.60876274605E+03  0.79097833471E+03  0.00000000000E+00 0.  1.
         15    1    5    5    0    0 -0.63261855414E+02  0.22619629585E+02 -0.16268633000E+03  0.17602190117E+03  0.17770000000E+01 0. -1.
        -16    1    5    5    0    0 -0.70480754886E+02  0.13604738807E+03 -0.28959456170E+03  0.32763003339E+03  0.00000000000E+00 0.  1.
          2    1    6    6  502    0  0.23631693876E+03  0.24553168569E+03 -0.19264777115E+03  0.39146477230E+03  0.00000000000E+00 0. -1.
         -1    1    6    6    0  502  0.18401705443E+03  0.10887555096E+03 -0.14982091520E+03  0.26107942957E+03  0.00000000000E+00 0.  1.
<mgrwt>
<rscale>  0 0.68347716E+03</rscale>
<asrwt>0</asrwt>
<pdfrwt beam="1">  1        1 0.44163522E-01 0.68347716E+03</pdfrwt>
<pdfrwt beam="2">  1       -2 0.27681486E+00 0.68347716E+03</pdfrwt>
<totfact> 0.37428908E+00</totfact>
</mgrwt>
</event>
<event>
12    3  0.1201947E-007  0.7936620E+03  0.7818608E-02  0.9569237E-01
          1   -1    0    0  501    0  0.00000000000E+00  0.00000000000E+00  0.10239178430E+04  0.10239178430E+04  0.00000000000E+00 0. -1.
         -2   -1    0    0    0  501 -0.00000000000E+00 -0.00000000000E+00 -0.64277812941E+03  0.64277812941E+03  0.00000000000E+00 0.  1.
        -24    2    1    2    0    0  0.10787979409E+03  0.67694183683E+03  0.29961820948E+03  0.75208310132E+03  0.77263312234E+02 0.  0.
    5000000    2    1    2    0    0 -0.10787979409E+03 -0.67694183683E+03  0.81521504117E+02  0.91461287109E+03  0.59998553974E+03 0.  0.
        -24    2    4    4    0    0 -0.24316677251E+03 -0.50973875523E+02 -0.33351983586E+02  0.25964608035E+03  0.67641089538E+02 0.  0.
         24    2    4    4    0    0  0.13528697842E+03 -0.62596796131E+03  0.11487348770E+03  0.65496679073E+03  0.75147346399E+02 0.  0.
         13    1    3    3    0    0  0.19461728981E+02  0.35733885609E+03  0.16744692305E+03  0.39510541505E+03  0.00000000000E+00 0. -1.
        -14    1    3    3    0    0  0.88418065110E+02  0.31960298075E+03  0.13217128643E+03  0.35697768627E+03  0.00000000000E+00 0.  1.
         15    1    5    5    0    0 -0.81120118759E+02  0.14911789928E+02 -0.13476145349E+02  0.83591861858E+02  0.17770000000E+01 0. -1.
        -16    1    5    5    0    0 -0.16204665375E+03 -0.65885665451E+02 -0.19875838237E+02  0.17605421850E+03  0.00000000000E+00 0.  1.
          4    1    6    6  502    0  0.15260906709E+02 -0.70240799424E+02  0.37838085381E+02  0.81230449233E+02  0.00000000000E+00 0. -1.
         -3    1    6    6    0  502  0.12002607171E+03 -0.55572716188E+03  0.77035402322E+02  0.57373634150E+03  0.00000000000E+00 0.  1.
<mgrwt>
<rscale>  0 0.79366203E+03</rscale>
<asrwt>0</asrwt>
<pdfrwt beam="1">  1        1 0.15752582E+00 0.79366203E+03</pdfrwt>
<pdfrwt beam="2">  1       -2 0.98888943E-01 0.79366203E+03</pdfrwt>
<totfact> 0.10986562E+01</totfact>
</mgrwt>
</event>
<event>
12    3  0.1201947E-007  0.6602028E+03  0.7818608E-02  0.9787820E-01
          1   -1    0    0  501    0  0.00000000000E+00  0.00000000000E+00  0.98464342140E+03  0.98464342140E+03  0.00000000000E+00 0. -1.
         -2   -1    0    0    0  501 -0.00000000000E+00 -0.00000000000E+00 -0.50568512964E+03  0.50568512964E+03  0.00000000000E+00 0.  1.
        -24    2    1    2    0    0 -0.37449477061E+03  0.40228548534E+03  0.19643046695E+02  0.55600568120E+03  0.81709995220E+02 0.  0.
    5000000    2    1    2    0    0  0.37449477061E+03 -0.40228548534E+03  0.45931524507E+03  0.93432286984E+03  0.59992398337E+03 0.  0.
        -24    2    4    4    0    0  0.49891013407E+03 -0.22997188204E+03  0.20048477242E+03  0.59050333575E+03  0.81863649806E+02 0.  0.
         24    2    4    4    0    0 -0.12441536346E+03 -0.17231360330E+03  0.25883047264E+03  0.34381953408E+03  0.77765660178E+02 0.  0.
         13    1    3    3    0    0 -0.17440575352E+03  0.22645605902E+03  0.41118118102E+02  0.28877398284E+03  0.00000000000E+00 0. -1.
        -14    1    3    3    0    0 -0.20008901709E+03  0.17582942632E+03 -0.21475071407E+02  0.26723169836E+03  0.00000000000E+00 0.  1.
         15    1    5    5    0    0  0.32925575495E+02 -0.83817905931E+01  0.34552574240E+02  0.48491092490E+02  0.17770000000E+01 0. -1.
        -16    1    5    5    0    0  0.46598455857E+03 -0.22159009145E+03  0.16593219818E+03  0.54201224326E+03  0.00000000000E+00 0.  1.
          4    1    6    6  502    0  0.34852806155E+01  0.14215383440E+00  0.29352242243E+02  0.29558780648E+02  0.00000000000E+00 0. -1.
         -3    1    6    6    0  502 -0.12790064408E+03 -0.17245575713E+03  0.22947823040E+03  0.31426075344E+03  0.00000000000E+00 0.  1.
<mgrwt>
<rscale>  0 0.66020280E+03</rscale>
<asrwt>0</asrwt>
<pdfrwt beam="1">  1        1 0.15148360E+00 0.66020280E+03</pdfrwt>
<pdfrwt beam="2">  1       -2 0.77797712E-01 0.66020280E+03</pdfrwt>
<totfact> 0.20742770E+01</totfact>
</mgrwt>
</event>
<event>
12    3  0.2402797E-007  0.1150409E+04  0.7818608E-02  0.9157406E-01
         -2   -1    0    0    0  501 -0.00000000000E+00  0.00000000000E+00  0.75399204375E+03  0.75399204375E+03  0.00000000000E+00 0.  1.
          1   -1    0    0  501    0  0.00000000000E+00 -0.00000000000E+00 -0.20310838959E+04  0.20310838959E+04  0.00000000000E+00 0. -1.
        -24    2    1    2    0    0 -0.90313203348E+03  0.69648484594E+03 -0.34437697214E+03  0.11944416971E+04  0.85772129824E+02 0.  0.
    5000000    2    1    2    0    0  0.90313203348E+03 -0.69648484594E+03 -0.93271487999E+03  0.15906342426E+04  0.59951783605E+03 0.  0.
        -24    2    4    4    0    0  0.66943319415E+03 -0.56071569546E+03 -0.35168969239E+03  0.94478878586E+03  0.79983233215E+02 0.  0.
         24    2    4    4    0    0  0.23369883933E+03 -0.13576915048E+03 -0.58102518759E+03  0.64584545670E+03  0.80484008293E+02 0.  0.
         11    1    3    3    0    0 -0.24911594834E+03  0.14586885073E+03 -0.79956678595E+02  0.29954890716E+03  0.00000000000E+00 0. -1.
        -12    1    3    3    0    0 -0.65401608515E+03  0.55061599521E+03 -0.26442029354E+03  0.89489278992E+03  0.00000000000E+00 0.  1.
         15    1    5    5    0    0  0.31768276576E+03 -0.21875327193E+03 -0.17212504564E+03  0.42238077928E+03  0.17770000000E+01 0. -1.
        -16    1    5    5    0    0  0.35175042839E+03 -0.34196242353E+03 -0.17956464675E+03  0.52240800658E+03  0.00000000000E+00 0.  1.
          4    1    6    6  502    0  0.11994727050E+03 -0.25802383009E+02 -0.22582754749E+03  0.25700426432E+03  0.00000000000E+00 0. -1.
         -3    1    6    6    0  502  0.11375156883E+03 -0.10996676747E+03 -0.35519764010E+03  0.38884119238E+03  0.00000000000E+00 0.  1.
<mgrwt>
<rscale>  0 0.11504094E+04</rscale>
<asrwt>0</asrwt>
<pdfrwt beam="1">  1        1 0.31247444E+00 0.11504094E+04</pdfrwt>
<pdfrwt beam="2">  1       -2 0.11599878E+00 0.11504094E+04</pdfrwt>
<totfact> 0.14185873E+00</totfact>
</mgrwt>
</event>
<event>
12    3  0.1201947E-007  0.5499909E+03  0.7818608E-02  0.1001496E+00
          1   -1    0    0  501    0  0.00000000000E+00  0.00000000000E+00  0.16070189775E+04  0.16070189775E+04  0.00000000000E+00 0. -1.
         -2   -1    0    0    0  501 -0.00000000000E+00 -0.00000000000E+00 -0.50942826857E+03  0.50942826857E+03  0.00000000000E+00 0.  1.
        -24    2    1    2    0    0  0.50219972132E+03 -0.13257207661E+01  0.12225098423E+04  0.13241346709E+04  0.81215728464E+02 0.  0.
    5000000    2    1    2    0    0 -0.50219972132E+03  0.13257207661E+01 -0.12491913337E+03  0.79231257516E+03  0.59995675616E+03 0.  0.
        -24    2    4    4    0    0  0.11635422453E+02  0.70595277757E+02  0.16152069459E+03  0.19398226065E+03  0.80131806222E+02 0.  0.
         24    2    4    4    0    0 -0.51383514377E+03 -0.69269556991E+02 -0.28643982796E+03  0.59833031452E+03  0.84418977319E+02 0.  0.
         11    1    3    3    0    0  0.17222280850E+03 -0.10821526219E+02  0.32740355838E+03  0.37009578657E+03  0.00000000000E+00 0. -1.
        -12    1    3    3    0    0  0.32997691282E+03  0.94958054527E+01  0.89510628389E+03  0.95403888431E+03  0.00000000000E+00 0.  1.
         15    1    5    5    0    0 -0.98154847402E+01  0.16060649666E+02  0.12163313175E+03  0.12309372314E+03  0.17770000000E+01 0. -1.
        -16    1    5    5    0    0  0.21450907194E+02  0.54534628091E+02  0.39887562835E+02  0.70888537503E+02  0.00000000000E+00 0.  1.
          4    1    6    6  502    0 -0.22356896957E+03 -0.48643892632E+02 -0.83515972655E+02  0.24356565877E+03  0.00000000000E+00 0. -1.
         -3    1    6    6    0  502 -0.29026617420E+03 -0.20625664358E+02 -0.20292385530E+03  0.35476465575E+03  0.00000000000E+00 0.  1.
<mgrwt>
<rscale>  0 0.54999088E+03</rscale>
<asrwt>0</asrwt>
<pdfrwt beam="1">  1        1 0.24723369E+00 0.54999088E+03</pdfrwt>
<pdfrwt beam="2">  1       -2 0.78373581E-01 0.54999088E+03</pdfrwt>
<totfact> 0.75022733E+00</totfact>
</mgrwt>
</event>
<event>
12    3  0.1201947E-007  0.4084625E+03  0.7818608E-02  0.1040888E+00
          1   -1    0    0  501    0  0.00000000000E+00  0.00000000000E+00  0.70348814402E+03  0.70348814402E+03  0.00000000000E+00 0. -1.
         -2   -1    0    0    0  501 -0.00000000000E+00 -0.00000000000E+00 -0.40083366870E+03  0.40083366870E+03  0.00000000000E+00 0.  1.
        -24    2    1    2    0    0  0.61794391748E+02 -0.21103935380E+03  0.39474019955E+03  0.45873792264E+03  0.79148599597E+02 0.  0.
    5000000    2    1    2    0    0 -0.61794391748E+02  0.21103935380E+03 -0.92085724236E+02  0.64558389008E+03  0.59995218378E+03 0.  0.
        -24    2    4    4    0    0  0.24396232923E+02 -0.17997701488E+03  0.43140345887E+02  0.21519892365E+03  0.10706346355E+03 0.  0.
         24    2    4    4    0    0 -0.86190624671E+02  0.39101636869E+03 -0.13522607012E+03  0.43038496643E+03  0.81378774442E+02 0.  0.
         13    1    3    3    0    0  0.20770938255E+02 -0.18244171989E+03  0.31517730009E+03  0.36476450420E+03  0.00000000000E+00 0. -1.
        -14    1    3    3    0    0  0.41023453493E+02 -0.28597633914E+02  0.79562899457E+02  0.93973418433E+02  0.00000000000E+00 0.  1.
         15    1    5    5    0    0  0.62783946278E+01 -0.17320456984E+02  0.48020181531E+02  0.51463696257E+02  0.17770000000E+01 0. -1.
        -16    1    5    5    0    0  0.18117838295E+02 -0.16265655790E+03 -0.48798356436E+01  0.16373522739E+03  0.00000000000E+00 0.  1.
          2    1    6    6  502    0 -0.25404739554E+02  0.17060903847E+03 -0.17937948362E+02  0.17342034135E+03  0.00000000000E+00 0. -1.
         -1    1    6    6    0  502 -0.60785885116E+02  0.22040733021E+03 -0.11728812176E+03  0.25696462509E+03  0.00000000000E+00 0.  1.
<mgrwt>
<rscale>  0 0.40846247E+03</rscale>
<asrwt>0</asrwt>
<pdfrwt beam="1">  1        1 0.10822894E+00 0.40846247E+03</pdfrwt>
<pdfrwt beam="2">  1       -2 0.61666719E-01 0.40846247E+03</pdfrwt>
<totfact> 0.60921919E+01</totfact>
</mgrwt>
</event>
<event>
12    3  0.1201947E-007  0.6986335E+03  0.7818608E-02  0.9719572E-01
         -2   -1    0    0    0  501 -0.00000000000E+00  0.00000000000E+00  0.12038171064E+04  0.12038171064E+04  0.00000000000E+00 0.  1.
          1   -1    0    0  501    0  0.00000000000E+00 -0.00000000000E+00 -0.54945911275E+03  0.54945911275E+03  0.00000000000E+00 0. -1.
        -24    2    1    2    0    0 -0.15220714455E+02 -0.58501116516E+03  0.69686589311E+03  0.91408657594E+03  0.86385541806E+02 0.  0.
    5000000    2    1    2    0    0  0.15220714455E+02  0.58501116516E+03 -0.42507899500E+02  0.83918964317E+03  0.59996883433E+03 0.  0.
        -24    2    4    4    0    0 -0.26467862284E+03  0.34973008908E+03 -0.10422049062E+03  0.45793840288E+03  0.80496966229E+02 0.  0.
         24    2    4    4    0    0  0.27989933729E+03  0.23528107608E+03  0.61712591120E+02  0.38125124028E+03  0.88562071671E+02 0.  0.
         13    1    3    3    0    0 -0.50987145821E+02 -0.36752835221E+03  0.44520511503E+03  0.57955532365E+03  0.00000000000E+00 0. -1.
        -14    1    3    3    0    0  0.35766431366E+02 -0.21748281295E+03  0.25166077808E+03  0.33453125230E+03  0.00000000000E+00 0.  1.
         15    1    5    5    0    0 -0.10280275956E+03  0.10953499841E+03 -0.36562121057E+00  0.15023186965E+03  0.17770000000E+01 0. -1.
        -16    1    5    5    0    0 -0.16187586328E+03  0.24019509068E+03 -0.10385486941E+03  0.30770653324E+03  0.00000000000E+00 0.  1.
          4    1    6    6  502    0  0.94254998730E+02  0.88185649756E+02 -0.20165621565E+02  0.13064212912E+03  0.00000000000E+00 0. -1.
         -3    1    6    6    0  502  0.18564433856E+03  0.14709542632E+03  0.81878212685E+02  0.25060911116E+03  0.00000000000E+00 0.  1.
<mgrwt>
<rscale>  0 0.69863355E+03</rscale>
<asrwt>0</asrwt>
<pdfrwt beam="1">  1        1 0.84532171E-01 0.69863355E+03</pdfrwt>
<pdfrwt beam="2">  1       -2 0.18520263E+00 0.69863355E+03</pdfrwt>
<totfact> 0.58496242E+00</totfact>
</mgrwt>
</event>
<event>
12    3  0.1201947E-007  0.9392414E+03  0.7818608E-02  0.9377815E-01
         -2   -1    0    0    0  501 -0.00000000000E+00  0.00000000000E+00  0.11443532249E+04  0.11443532249E+04  0.00000000000E+00 0.  1.
          1   -1    0    0  501    0  0.00000000000E+00 -0.00000000000E+00 -0.11847867417E+04  0.11847867417E+04  0.00000000000E+00 0. -1.
        -24    2    1    2    0    0 -0.77497464457E+03 -0.35614802384E+03 -0.69036349454E+03  0.11004307366E+04  0.83180146553E+02 0.  0.
    5000000    2    1    2    0    0  0.77497464457E+03  0.35614802384E+03  0.64992997772E+03  0.12287092301E+04  0.59990856094E+03 0.  0.
        -24    2    4    4    0    0  0.84045516137E+03  0.39529415341E+03  0.58818738493E+03  0.11021957937E+04  0.79049489358E+02 0.  0.
         24    2    4    4    0    0 -0.65480516803E+02 -0.39146129574E+02  0.61742592793E+02  0.12651343640E+03  0.79833478466E+02 0.  0.
         13    1    3    3    0    0 -0.47467051378E+03 -0.24397285369E+03 -0.38873067840E+03  0.66026236476E+03  0.00000000000E+00 0. -1.
        -14    1    3    3    0    0 -0.30030413079E+03 -0.11217517015E+03 -0.30163281614E+03  0.44016837180E+03  0.00000000000E+00 0.  1.
         15    1    5    5    0    0  0.13852692618E+03  0.86568478526E+02  0.76943104698E+02  0.18057466555E+03  0.17770000000E+01 0. -1.
        -16    1    5    5    0    0  0.70192823519E+03  0.30872567489E+03  0.51124428023E+03  0.92162112810E+03  0.00000000000E+00 0.  1.
          2    1    6    6  502    0  0.69672608321E+01  0.55467493771E+01 -0.11271684838E+02  0.14365236901E+02  0.00000000000E+00 0. -1.
         -1    1    6    6    0  502 -0.72447777636E+02 -0.44692878951E+02  0.73014277631E+02  0.11214819950E+03  0.00000000000E+00 0.  1.
<mgrwt>
<rscale>  0 0.93924141E+03</rscale>
<asrwt>0</asrwt>
<pdfrwt beam="1">  1        1 0.18227488E+00 0.93924141E+03</pdfrwt>
<pdfrwt beam="2">  1       -2 0.17605434E+00 0.93924141E+03</pdfrwt>
<totfact> 0.18644271E+00</totfact>
</mgrwt>
</event>
<event>
12    3  0.1201947E-007  0.2448232E+03  0.7818608E-02  0.1116621E+00
          1   -1    0    0  501    0  0.00000000000E+00  0.00000000000E+00  0.48285755343E+03  0.48285755343E+03  0.00000000000E+00 0. -1.
         -2   -1    0    0    0  501 -0.00000000000E+00 -0.00000000000E+00 -0.87341024512E+03  0.87341024512E+03  0.00000000000E+00 0.  1.
        -24    2    1    2    0    0  0.83254397646E+02 -0.19579350135E+03 -0.63499795280E+03  0.67442099251E+03  0.79717533760E+02 0.  0.
    5000000    2    1    2    0    0 -0.83254397646E+02  0.19579350135E+03  0.24444526111E+03  0.68184680603E+03  0.59991265308E+03 0.  0.
        -24    2    4    4    0    0 -0.78812043599E+02  0.14668510176E+03  0.43291402298E+03  0.47045425468E+03  0.78643481328E+02 0.  0.
         24    2    4    4    0    0 -0.44423540471E+01  0.49108399597E+02 -0.18846876188E+03  0.21139255135E+03  0.82066845588E+02 0.  0.
         13    1    3    3    0    0  0.15405075747E+02 -0.12700420631E+03 -0.41158938892E+03  0.43101416433E+03  0.00000000000E+00 0. -1.
        -14    1    3    3    0    0  0.67849321899E+02 -0.68789295041E+02 -0.22340856387E+03  0.24340682818E+03  0.00000000000E+00 0.  1.
         15    1    5    5    0    0 -0.15747159287E+02  0.98554843827E+02  0.18578017663E+03  0.21089917502E+03  0.17770000000E+01 0. -1.
        -16    1    5    5    0    0 -0.63064884312E+02  0.48130257929E+02  0.24713384636E+03  0.25955507966E+03  0.00000000000E+00 0.  1.
          2    1    6    6  502    0  0.45986666112E+00  0.67195842187E+02 -0.96862382385E+02  0.11788898933E+03  0.00000000000E+00 0. -1.
         -1    1    6    6    0  502 -0.49022207083E+01 -0.18087442590E+02 -0.91606379492E+02  0.93503562022E+02  0.00000000000E+00 0.  1.
<mgrwt>
<rscale>  0 0.24482325E+03</rscale>
<asrwt>0</asrwt>
<pdfrwt beam="1">  1        1 0.74285779E-01 0.24482325E+03</pdfrwt>
<pdfrwt beam="2">  1       -2 0.13437080E+00 0.24482325E+03</pdfrwt>
<totfact> 0.17824846E+01</totfact>
</mgrwt>
</event>
<event>
12    3  0.1201947E-007  0.8677264E+03  0.7818608E-02  0.9466849E-01
          1   -1    0    0  501    0  0.00000000000E+00  0.00000000000E+00  0.32702108888E+04  0.32702108888E+04  0.00000000000E+00 0. -1.
         -2   -1    0    0    0  501 -0.00000000000E+00 -0.00000000000E+00 -0.27796522493E+03  0.27796522493E+03  0.00000000000E+00 0.  1.
        -24    2    1    2    0    0  0.29375087742E+03  0.79521785989E+03  0.15848745312E+04  0.17990829683E+04  0.78811321540E+02 0.  0.
    5000000    2    1    2    0    0 -0.29375087742E+03 -0.79521785989E+03  0.14073711327E+04  0.17490931455E+04  0.59997691936E+03 0.  0.
        -24    2    4    4    0    0 -0.27219406825E+03 -0.36258176370E+03  0.11504556182E+04  0.12391103584E+04  0.79317113872E+02 0.  0.
         24    2    4    4    0    0 -0.21556809165E+02 -0.43263609619E+03  0.25691551446E+03  0.50998278711E+03  0.80238231690E+02 0.  0.
         11    1    3    3    0    0  0.19217195813E+03  0.47552841347E+03  0.10315756464E+04  0.11520441171E+04  0.00000000000E+00 0. -1.
        -12    1    3    3    0    0  0.10157891929E+03  0.31968944642E+03  0.55329888479E+03  0.64703885116E+03  0.00000000000E+00 0.  1.
         15    1    5    5    0    0 -0.22212708533E+03 -0.30703084519E+03  0.87198804015E+03  0.95077583154E+03  0.17770000000E+01 0. -1.
        -16    1    5    5    0    0 -0.50066982922E+02 -0.55550918504E+02  0.27846757806E+03  0.28833452682E+03  0.00000000000E+00 0.  1.
          2    1    6    6  502    0 -0.18823761554E+02 -0.42115084566E+03  0.22918056100E+03  0.47983965899E+03  0.00000000000E+00 0. -1.
         -1    1    6    6    0  502 -0.27330476109E+01 -0.11485250529E+02  0.27734953463E+02  0.30143128115E+02  0.00000000000E+00 0.  1.
<mgrwt>
<rscale>  0 0.86772636E+03</rscale>
<asrwt>0</asrwt>
<pdfrwt beam="1">  1        1 0.50310934E+00 0.86772636E+03</pdfrwt>
<pdfrwt beam="2">  1       -2 0.42763883E-01 0.86772636E+03</pdfrwt>
<totfact> 0.18050070E+00</totfact>
</mgrwt>
</event>
<event>
12    3  0.1201947E-007  0.4967115E+03  0.7818608E-02  0.1014641E+00
         -2   -1    0    0    0  501 -0.00000000000E+00  0.00000000000E+00  0.14607394157E+03  0.14607394157E+03  0.00000000000E+00 0.  1.
          1   -1    0    0  501    0  0.00000000000E+00 -0.00000000000E+00 -0.17905032969E+04  0.17905032969E+04  0.00000000000E+00 0. -1.
        -24    2    1    2    0    0  0.86437946854E+02  0.30843586621E+03 -0.40076959646E+03  0.51911592477E+03  0.79125670206E+02 0.  0.
    5000000    2    1    2    0    0 -0.86437946854E+02 -0.30843586621E+03 -0.12436597589E+04  0.14174613137E+04  0.59991897604E+03 0.  0.
        -24    2    4    4    0    0 -0.17809301409E+03 -0.45003416522E+03 -0.84521226809E+03  0.97754540658E+03  0.83446822988E+02 0.  0.
         24    2    4    4    0    0  0.91655067231E+02  0.14159829901E+03 -0.39844749081E+03  0.43991590715E+03  0.79466173952E+02 0.  0.
         13    1    3    3    0    0  0.51940379910E+01  0.41624036603E+02 -0.18328357964E+02  0.45776272887E+02  0.00000000000E+00 0. -1.
        -14    1    3    3    0    0  0.81243908863E+02  0.26681182960E+03 -0.38244123850E+03  0.47333965188E+03  0.00000000000E+00 0.  1.
         15    1    5    5    0    0 -0.17265241414E+03 -0.34535090039E+03 -0.65310401517E+03  0.75869896064E+03  0.17770000000E+01 0. -1.
        -16    1    5    5    0    0 -0.54405999439E+01 -0.10468326483E+03 -0.19210825291E+03  0.21884644594E+03  0.00000000000E+00 0.  1.
          4    1    6    6  502    0  0.45497892489E+02  0.12426508653E+03 -0.24116032161E+03  0.27508211623E+03  0.00000000000E+00 0. -1.
         -3    1    6    6    0  502  0.46157174742E+02  0.17333212482E+02 -0.15728716920E+03  0.16483379093E+03  0.00000000000E+00 0.  1.
<mgrwt>
<rscale>  0 0.49671154E+03</rscale>
<asrwt>0</asrwt>
<pdfrwt beam="1">  1        1 0.27546205E+00 0.49671154E+03</pdfrwt>
<pdfrwt beam="2">  1       -2 0.22472914E-01 0.49671154E+03</pdfrwt>
<totfact> 0.66940943E+01</totfact>
</mgrwt>
</event>
<event>
12    3  0.1201947E-007  0.7491378E+03  0.7818608E-02  0.9636704E-01
         -2   -1    0    0    0  501 -0.00000000000E+00  0.00000000000E+00  0.73384890978E+03  0.73384890978E+03  0.00000000000E+00 0.  1.
          1   -1    0    0  501    0  0.00000000000E+00 -0.00000000000E+00 -0.86969273142E+03  0.86969273142E+03  0.00000000000E+00 0. -1.
        -24    2    1    2    0    0  0.22987412130E+03 -0.60495465779E+03 -0.27785761752E+03  0.70920882909E+03  0.83426962204E+02 0.  0.
    5000000    2    1    2    0    0 -0.22987412130E+03  0.60495465779E+03  0.14201379588E+03  0.89433281211E+03  0.60070875720E+03 0.  0.
        -24    2    4    4    0    0  0.16396837203E+03  0.61665225594E+02 -0.35165233258E+02  0.19554843285E+03  0.79463003256E+02 0.  0.
         24    2    4    4    0    0 -0.39384249334E+03  0.54328943219E+03  0.17717902914E+03  0.69878437926E+03  0.81436377889E+02 0.  0.
         11    1    3    3    0    0  0.12075615924E+03 -0.41239849190E+03 -0.16063043914E+03  0.45875560388E+03  0.00000000000E+00 0. -1.
        -12    1    3    3    0    0  0.10911796206E+03 -0.19255616589E+03 -0.11722717838E+03  0.25045322521E+03  0.00000000000E+00 0.  1.
         15    1    5    5    0    0  0.10664111033E+03  0.49138172259E+02  0.14952251044E+02  0.11837911102E+03  0.17770000000E+01 0. -1.
        -16    1    5    5    0    0  0.57327261706E+02  0.12527053335E+02 -0.50117484302E+02  0.77169321837E+02  0.00000000000E+00 0.  1.
          2    1    6    6  502    0 -0.28630466448E+03  0.40362059800E+03  0.16679337097E+03  0.52220683320E+03  0.00000000000E+00 0. -1.
         -1    1    6    6    0  502 -0.10753782885E+03  0.13966883419E+03  0.10385658163E+02  0.17657754606E+03  0.00000000000E+00 0.  1.
<mgrwt>
<rscale>  0 0.74913776E+03</rscale>
<asrwt>0</asrwt>
<pdfrwt beam="1">  1        1 0.13379888E+00 0.74913776E+03</pdfrwt>
<pdfrwt beam="2">  1       -2 0.11289983E+00 0.74913776E+03</pdfrwt>
<totfact> 0.10655465E+01</totfact>
</mgrwt>
</event>
<event>
12    3  0.1201947E-007  0.1457788E+04  0.7818608E-02  0.8913019E-01
         -2   -1    0    0    0  501 -0.00000000000E+00  0.00000000000E+00  0.10098065615E+04  0.10098065615E+04  0.00000000000E+00 0.  1.
          1   -1    0    0  501    0  0.00000000000E+00 -0.00000000000E+00 -0.30228203069E+04  0.30228203069E+04  0.00000000000E+00 0. -1.
        -24    2    1    2    0    0  0.12423334998E+04 -0.71029948495E+03  0.70308496446E+02  0.14349180567E+04  0.78285769127E+02 0.  0.
    5000000    2    1    2    0    0 -0.12423334998E+04  0.71029948495E+03 -0.20833222419E+04  0.25977088117E+04  0.59995135131E+03 0.  0.
        -24    2    4    4    0    0 -0.83082898754E+01  0.80332772628E+02 -0.40183065152E+03  0.41759235532E+03  0.79956992676E+02 0.  0.
         24    2    4    4    0    0 -0.12340252100E+04  0.62996671232E+03 -0.16814915903E+04  0.21801164564E+04  0.76272653413E+02 0.  0.
         13    1    3    3    0    0  0.79620816953E+03 -0.46550560395E+03  0.81725921565E+02  0.92591686603E+03  0.00000000000E+00 0. -1.
        -14    1    3    3    0    0  0.44612533031E+03 -0.24479388100E+03 -0.11417425119E+02  0.50900119068E+03  0.00000000000E+00 0.  1.
         15    1    5    5    0    0 -0.27388198664E+02  0.71945434958E+02 -0.37873172838E+03  0.38648045080E+03  0.17770000000E+01 0. -1.
        -16    1    5    5    0    0  0.19079908788E+02  0.83873376699E+01 -0.23098923143E+02  0.31111904521E+02  0.00000000000E+00 0.  1.
          4    1    6    6  502    0 -0.10352558046E+04  0.50600813846E+03 -0.14285868642E+04  0.18353907611E+04  0.00000000000E+00 0. -1.
         -3    1    6    6    0  502 -0.19876940538E+03  0.12395857386E+03 -0.25290472611E+03  0.34472569535E+03  0.00000000000E+00 0.  1.
<mgrwt>
<rscale>  0 0.14577883E+04</rscale>
<asrwt>0</asrwt>
<pdfrwt beam="1">  1        1 0.46504927E+00 0.14577883E+04</pdfrwt>
<pdfrwt beam="2">  1       -2 0.15535486E+00 0.14577883E+04</pdfrwt>
<totfact> 0.13122352E-01</totfact>
</mgrwt>
</event>
<event>
12    3  0.1201947E-007  0.1020959E+04  0.7818608E-02  0.9285851E-01
         -2   -1    0    0    0  501 -0.00000000000E+00  0.00000000000E+00  0.36605139914E+03  0.36605139914E+03  0.00000000000E+00 0.  1.
          1   -1    0    0  501    0  0.00000000000E+00 -0.00000000000E+00 -0.32310429009E+04  0.32310429009E+04  0.00000000000E+00 0. -1.
        -24    2    1    2    0    0  0.38472126269E+03  0.88249676574E+03 -0.17904734561E+04  0.20346094649E+04  0.83842030279E+02 0.  0.
    5000000    2    1    2    0    0 -0.38472126269E+03 -0.88249676574E+03 -0.10745180456E+04  0.15624848352E+04  0.59996569751E+03 0.  0.
        -24    2    4    4    0    0 -0.42252732286E+03 -0.38225610191E+03 -0.79874620354E+03  0.98435117658E+03  0.79389389407E+02 0.  0.
         24    2    4    4    0    0  0.37806060174E+02 -0.50024066383E+03 -0.27577184211E+03  0.57813365858E+03  0.80736598600E+02 0.  0.
         11    1    3    3    0    0  0.99936532942E+02  0.23096201122E+03 -0.39361298806E+03  0.46718512992E+03  0.00000000000E+00 0. -1.
        -12    1    3    3    0    0  0.28478472975E+03  0.65153475452E+03 -0.13968604681E+04  0.15674243350E+04  0.00000000000E+00 0.  1.
         15    1    5    5    0    0 -0.28342470713E+03 -0.29133154898E+03 -0.60823863219E+03  0.73154700974E+03  0.17770000000E+01 0. -1.
        -16    1    5    5    0    0 -0.13910261573E+03 -0.90924552931E+02 -0.19050757135E+03  0.25280416684E+03  0.00000000000E+00 0.  1.
          2    1    6    6  502    0 -0.77083799896E+01 -0.33734482097E+03 -0.20473578159E+03  0.39468682220E+03  0.00000000000E+00 0. -1.
         -1    1    6    6    0  502  0.45514440164E+02 -0.16289584286E+03 -0.71036060517E+02  0.18344683638E+03  0.00000000000E+00 0.  1.
<mgrwt>
<rscale>  0 0.10209594E+04</rscale>
<asrwt>0</asrwt>
<pdfrwt beam="1">  1        1 0.49708352E+00 0.10209594E+04</pdfrwt>
<pdfrwt beam="2">  1       -2 0.56315600E-01 0.10209594E+04</pdfrwt>
<totfact> 0.10753857E+00</totfact>
</mgrwt>
</event>
<event>
12    3  0.1201947E-007  0.8677989E+03  0.7818608E-02  0.9466754E-01
          1   -1    0    0  501    0  0.00000000000E+00  0.00000000000E+00  0.14477950845E+04  0.14477950845E+04  0.00000000000E+00 0. -1.
         -4   -1    0    0    0  501 -0.00000000000E+00 -0.00000000000E+00 -0.65183479128E+03  0.65183479128E+03  0.00000000000E+00 0.  1.
        -24    2    1    2    0    0  0.51253413528E+03 -0.69079390046E+03  0.54448513199E+03  0.10212707215E+04  0.81500765636E+02 0.  0.
    5000000    2    1    2    0    0 -0.51253413528E+03  0.69079390046E+03  0.25147516123E+03  0.10783591543E+04  0.59977600508E+03 0.  0.
        -24    2    4    4    0    0 -0.18525058564E+03  0.14128692890E+03 -0.17873412437E+03  0.30503188399E+03  0.82575948557E+02 0.  0.
         24    2    4    4    0    0 -0.32728354963E+03  0.54950697157E+03  0.43020928559E+03  0.77332727034E+03  0.62310544636E+02 0.  0.
         13    1    3    3    0    0  0.21605956767E+03 -0.23611055130E+03  0.22782487530E+03  0.39285379344E+03  0.00000000000E+00 0. -1.
        -14    1    3    3    0    0  0.29647456761E+03 -0.45468334916E+03  0.31666025669E+03  0.62841692801E+03  0.00000000000E+00 0.  1.
         15    1    5    5    0    0 -0.11281230004E+03  0.90573399187E+02 -0.59154652549E+02  0.15630926501E+03  0.17770000000E+01 0. -1.
        -16    1    5    5    0    0 -0.72438285607E+02  0.50713529710E+02 -0.11957947182E+03  0.14872261899E+03  0.00000000000E+00 0.  1.
          2    1    6    6  502    0 -0.20507019165E+03  0.35194803322E+03  0.23765442327E+03  0.47159392118E+03  0.00000000000E+00 0. -1.
         -1    1    6    6    0  502 -0.12221335798E+03  0.19755893835E+03  0.19255486232E+03  0.30173334916E+03  0.00000000000E+00 0.  1.
<mgrwt>
<rscale>  0 0.86779886E+03</rscale>
<asrwt>0</asrwt>
<pdfrwt beam="1">  1        1 0.22273770E+00 0.86779886E+03</pdfrwt>
<pdfrwt beam="2">  1       -4 0.10028228E+00 0.86779886E+03</pdfrwt>
<totfact> 0.28286493E+00</totfact>
</mgrwt>
</event>
<event>
12    3  0.1201947E-007  0.7847388E+03  0.7818608E-02  0.9582374E-01
         -2   -1    0    0    0  501 -0.00000000000E+00  0.00000000000E+00  0.46403270533E+03  0.46403270533E+03  0.00000000000E+00 0.  1.
          1   -1    0    0  501    0  0.00000000000E+00 -0.00000000000E+00 -0.13965178984E+04  0.13965178984E+04  0.00000000000E+00 0. -1.
        -24    2    1    2    0    0  0.20558572260E+03  0.64736811686E+03 -0.25865628111E+03  0.73121530268E+03  0.80136003475E+02 0.  0.
    5000000    2    1    2    0    0 -0.20558572260E+03 -0.64736811686E+03 -0.67382891195E+03  0.11293353010E+04  0.60000154294E+03 0.  0.
        -24    2    4    4    0    0 -0.22385368079E+02 -0.69461695074E+03 -0.54758636334E+03  0.88826871205E+03  0.78591771401E+02 0.  0.
         24    2    4    4    0    0 -0.18320035453E+03  0.47248833882E+02 -0.12624254861E+03  0.24106658899E+03  0.79881769173E+02 0.  0.
         13    1    3    3    0    0  0.32106819028E+02  0.47842826990E+02 -0.38975262362E+02  0.69561878918E+02  0.00000000000E+00 0. -1.
        -14    1    3    3    0    0  0.17347890358E+03  0.59952528987E+03 -0.21968101874E+03  0.66165342376E+03  0.00000000000E+00 0.  1.
         15    1    5    5    0    0 -0.39232295097E+02 -0.61495225500E+03 -0.50299227896E+03  0.79543059995E+03  0.17770000000E+01 0. -1.
        -16    1    5    5    0    0  0.16846927019E+02 -0.79664695735E+02 -0.44594084376E+02  0.92838112098E+02  0.00000000000E+00 0.  1.
          2    1    6    6  502    0 -0.12748445864E+03  0.23935412610E+02 -0.12576039305E+03  0.18066783785E+03  0.00000000000E+00 0. -1.
         -1    1    6    6    0  502 -0.55715895885E+02  0.23313421272E+02 -0.48215555803E+00  0.60398751143E+02  0.00000000000E+00 0.  1.
<mgrwt>
<rscale>  0 0.78473884E+03</rscale>
<asrwt>0</asrwt>
<pdfrwt beam="1">  1        1 0.21484891E+00 0.78473884E+03</pdfrwt>
<pdfrwt beam="2">  1       -2 0.71389648E-01 0.78473884E+03</pdfrwt>
<totfact> 0.12379952E+01</totfact>
</mgrwt>
</event>
<event>
12    3  0.1201947E-007  0.3243338E+03  0.7818608E-02  0.1073672E+00
         -2   -1    0    0    0  501 -0.00000000000E+00  0.00000000000E+00  0.36499208452E+03  0.36499208452E+03  0.00000000000E+00 0.  1.
          1   -1    0    0  501    0  0.00000000000E+00 -0.00000000000E+00 -0.56346452312E+03  0.56346452312E+03  0.00000000000E+00 0. -1.
        -24    2    1    2    0    0 -0.21929159437E+03  0.11141409643E+03 -0.62051001516E+02  0.26578921840E+03  0.79320095713E+02 0.  0.
    5000000    2    1    2    0    0  0.21929159437E+03 -0.11141409643E+03 -0.13642143708E+03  0.66266738923E+03  0.60001279654E+03 0.  0.
        -24    2    4    4    0    0  0.22608512540E+01 -0.14868454051E+03  0.19449097162E+03  0.25745290922E+03  0.79643319778E+02 0.  0.
         24    2    4    4    0    0  0.21703074312E+03  0.37270444080E+02 -0.33091240870E+03  0.40521448002E+03  0.78767525799E+02 0.  0.
         13    1    3    3    0    0 -0.74198281008E+02 -0.20812748639E+01 -0.18722201062E+02  0.76552187573E+02  0.00000000000E+00 0. -1.
        -14    1    3    3    0    0 -0.14509331337E+03  0.11349537129E+03 -0.43328800454E+02  0.18923703083E+03  0.00000000000E+00 0.  1.
         15    1    5    5    0    0 -0.22542344747E+02 -0.87913239309E+02  0.63015468110E+02  0.11050340222E+03  0.17770000000E+01 0. -1.
        -16    1    5    5    0    0  0.24803196001E+02 -0.60771301202E+02  0.13147550351E+03  0.14694950699E+03  0.00000000000E+00 0.  1.
          4    1    6    6  502    0  0.10356741882E+03 -0.21892337696E+02 -0.15414328806E+03  0.18699101033E+03  0.00000000000E+00 0. -1.
         -3    1    6    6    0  502  0.11346332430E+03  0.59162781776E+02 -0.17676912065E+03  0.21822346969E+03  0.00000000000E+00 0.  1.
<mgrwt>
<rscale>  0 0.32433380E+03</rscale>
<asrwt>0</asrwt>
<pdfrwt beam="1">  1        1 0.86686850E-01 0.32433380E+03</pdfrwt>
<pdfrwt beam="2">  1       -2 0.56152628E-01 0.32433380E+03</pdfrwt>
<totfact> 0.10278849E+02</totfact>
</mgrwt>
</event>
<event>
12    3  0.1201947E-007  0.7295904E+03  0.7818608E-02  0.9667925E-01
          1   -1    0    0  501    0  0.00000000000E+00  0.00000000000E+00  0.42048684145E+03  0.42048684145E+03  0.00000000000E+00 0. -1.
         -2   -1    0    0    0  501 -0.00000000000E+00 -0.00000000000E+00 -0.18881696421E+04  0.18881696421E+04  0.00000000000E+00 0.  1.
        -24    2    1    2    0    0 -0.64547133422E+03 -0.20271529519E+03 -0.12956500967E+03  0.69365359809E+03  0.81495326297E+02 0.  0.
    5000000    2    1    2    0    0  0.64547133422E+03  0.20271529519E+03 -0.13381177910E+04  0.16150028854E+04  0.59995696787E+03 0.  0.
        -24    2    4    4    0    0 -0.15510713671E+02 -0.21977860241E+01  0.23629986749E+02  0.84060145118E+02  0.79134816747E+02 0.  0.
         24    2    4    4    0    0  0.66098204789E+03  0.20491308121E+03 -0.13617477777E+04  0.15309427403E+04  0.10267436666E+03 0.  0.
         11    1    3    3    0    0 -0.48039228612E+03 -0.18677824095E+03 -0.10473821145E+03  0.52595907901E+03  0.00000000000E+00 0. -1.
        -12    1    3    3    0    0 -0.16507904810E+03 -0.15937054241E+02 -0.24826798226E+02  0.16769451908E+03  0.00000000000E+00 0.  1.
         15    1    5    5    0    0  0.20489086656E+02 -0.29165008793E+02  0.10836458153E+02  0.37295937637E+02  0.17770000000E+01 0. -1.
        -16    1    5    5    0    0 -0.35999800326E+02  0.26967222769E+02  0.12793528596E+02  0.46764207481E+02  0.00000000000E+00 0.  1.
          2    1    6    6  502    0  0.56909620735E+03  0.14410502338E+03 -0.10975652862E+04  0.12447033014E+04  0.00000000000E+00 0. -1.
         -3    1    6    6    0  502  0.91885840540E+02  0.60808057830E+02 -0.26418249152E+03  0.28623943896E+03  0.00000000000E+00 0.  1.
<mgrwt>
<rscale>  0 0.72959042E+03</rscale>
<asrwt>0</asrwt>
<pdfrwt beam="1">  1        1 0.64690281E-01 0.72959042E+03</pdfrwt>
<pdfrwt beam="2">  1       -2 0.29048765E+00 0.72959042E+03</pdfrwt>
<totfact> 0.18676420E+00</totfact>
</mgrwt>
</event>
<event>
12    3  0.1201947E-007  0.5562946E+03  0.7818608E-02  0.1000047E+00
         -2   -1    0    0    0  501 -0.00000000000E+00  0.00000000000E+00  0.44760611592E+03  0.44760611592E+03  0.00000000000E+00 0.  1.
          1   -1    0    0  501    0  0.00000000000E+00 -0.00000000000E+00 -0.93547203696E+03  0.93547203696E+03  0.00000000000E+00 0. -1.
        -24    2    1    2    0    0  0.26794111233E+03 -0.33450549827E+03 -0.47642921214E+03  0.64583778329E+03  0.80220197496E+02 0.  0.
    5000000    2    1    2    0    0 -0.26794111233E+03  0.33450549827E+03 -0.11436708890E+02  0.73724036960E+03  0.59975511353E+03 0.  0.
        -24    2    4    4    0    0  0.92051685520E+02 -0.76215630306E+02  0.99326013311E+02  0.17448372137E+03  0.79350973481E+02 0.  0.
         24    2    4    4    0    0 -0.35999279785E+03  0.41072112857E+03 -0.11076272220E+03  0.56275664823E+03  0.78358181019E+02 0.  0.
         13    1    3    3    0    0  0.10562738498E+03 -0.18977941150E+03 -0.26363810747E+03  0.34158223197E+03  0.00000000000E+00 0. -1.
        -14    1    3    3    0    0  0.16231372735E+03 -0.14472608676E+03 -0.21279110467E+03  0.30425555131E+03  0.00000000000E+00 0.  1.
         15    1    5    5    0    0  0.12384261327E+02 -0.33614869009E+02 -0.52930846235E+01  0.36256086674E+02  0.17770000000E+01 0. -1.
        -16    1    5    5    0    0  0.79667424193E+02 -0.42600761297E+02  0.10461909793E+03  0.13822763469E+03  0.00000000000E+00 0.  1.
          2    1    6    6  502    0 -0.30582333258E+03  0.29971976603E+03 -0.88394987440E+02  0.43723394505E+03  0.00000000000E+00 0. -1.
         -1    1    6    6    0  502 -0.54169465271E+02  0.11100136255E+03 -0.22367734760E+02  0.12552270318E+03  0.00000000000E+00 0.  1.
<mgrwt>
<rscale>  0 0.55629455E+03</rscale>
<asrwt>0</asrwt>
<pdfrwt beam="1">  1        1 0.14391877E+00 0.55629455E+03</pdfrwt>
<pdfrwt beam="2">  1       -2 0.68862481E-01 0.55629455E+03</pdfrwt>
<totfact> 0.30025092E+01</totfact>
</mgrwt>
</event>
<event>
12    3  0.1201947E-007  0.1883909E+04  0.7818608E-02  0.8662908E-01
         -2   -1    0    0    0  501 -0.00000000000E+00  0.00000000000E+00  0.21081707984E+04  0.21081707984E+04  0.00000000000E+00 0.  1.
          1   -1    0    0  501    0  0.00000000000E+00 -0.00000000000E+00 -0.19467862915E+04  0.19467862915E+04  0.00000000000E+00 0. -1.
        -24    2    1    2    0    0  0.40522786716E+03  0.18378465162E+04  0.69660519014E+03  0.20084114023E+04  0.81043991099E+02 0.  0.
    5000000    2    1    2    0    0 -0.40522786716E+03 -0.18378465162E+04 -0.53522068328E+03  0.20465456876E+04  0.59999885864E+03 0.  0.
        -24    2    4    4    0    0 -0.12680805727E+03 -0.42814640706E+03 -0.39431159089E+03  0.60053275619E+03  0.75949531099E+02 0.  0.
         24    2    4    4    0    0 -0.27841980989E+03 -0.14097001091E+04 -0.14090909238E+03  0.14460129314E+04  0.79536390288E+02 0.  0.
         13    1    3    3    0    0  0.10896862405E+03  0.63569243471E+03  0.21363903447E+03  0.67942672130E+03  0.00000000000E+00 0. -1.
        -14    1    3    3    0    0  0.29625924311E+03  0.12021540815E+04  0.48296615567E+03  0.13289846810E+04  0.00000000000E+00 0.  1.
         15    1    5    5    0    0 -0.43541618773E+02 -0.15750513134E+03 -0.97408756429E+02  0.19025078849E+03  0.17770000000E+01 0. -1.
        -16    1    5    5    0    0 -0.83266438497E+02 -0.27064127572E+03 -0.29690283446E+03  0.41028196770E+03  0.00000000000E+00 0.  1.
          2    1    6    6  502    0 -0.10111638453E+03 -0.37626927339E+03 -0.61954325779E+02  0.39451416680E+03  0.00000000000E+00 0. -1.
         -1    1    6    6    0  502 -0.17730342536E+03 -0.10334308357E+04 -0.78954766604E+02  0.10514987646E+04  0.00000000000E+00 0.  1.
<mgrwt>
<rscale>  0 0.18839091E+04</rscale>
<asrwt>0</asrwt>
<pdfrwt beam="1">  1        1 0.29950558E+00 0.18839091E+04</pdfrwt>
<pdfrwt beam="2">  1       -2 0.32433397E+00 0.18839091E+04</pdfrwt>
<totfact> 0.57570616E-02</totfact>
</mgrwt>
</event>
<event>
12    3  0.1201947E-007  0.1195255E+04  0.7818608E-02  0.9117020E-01
          1   -1    0    0  501    0  0.00000000000E+00  0.00000000000E+00  0.16310631762E+04  0.16310631762E+04  0.00000000000E+00 0. -1.
         -2   -1    0    0    0  501 -0.00000000000E+00 -0.00000000000E+00 -0.14487604711E+04  0.14487604711E+04  0.00000000000E+00 0.  1.
        -24    2    1    2    0    0 -0.11839696499E+04 -0.10052154914E+03  0.96745267988E+03  0.15343794122E+04  0.80416286210E+02 0.  0.
    5000000    2    1    2    0    0  0.11839696499E+04  0.10052154914E+03 -0.78514997477E+03  0.15454442352E+04  0.60004057148E+03 0.  0.
        -24    2    4    4    0    0  0.97468837574E+03  0.13417336058E+03 -0.33680109528E+03  0.10430322294E+04  0.80382419636E+02 0.  0.
         24    2    4    4    0    0  0.20928127414E+03 -0.33651811448E+02 -0.44834887950E+03  0.50241200572E+03  0.80436370013E+02 0.  0.
         13    1    3    3    0    0 -0.90565316094E+03 -0.47806529995E+02  0.76034563862E+03  0.11834773350E+04  0.00000000000E+00 0. -1.
        -14    1    3    3    0    0 -0.27831648894E+03 -0.52715019141E+02  0.20710704126E+03  0.35090207722E+03  0.00000000000E+00 0.  1.
         15    1    5    5    0    0  0.64316057513E+03  0.12616397274E+03 -0.23108958922E+03  0.69496649516E+03  0.17770000000E+01 0. -1.
        -16    1    5    5    0    0  0.33152780061E+03  0.80093878471E+01 -0.10571150606E+03  0.34806573428E+03  0.00000000000E+00 0.  1.
          2    1    6    6  502    0  0.10064852028E+03 -0.42155752132E+01 -0.29824784162E+03  0.31480100181E+03  0.00000000000E+00 0. -1.
         -1    1    6    6    0  502  0.10863275386E+03 -0.29436236235E+02 -0.15010103788E+03  0.18761100391E+03  0.00000000000E+00 0.  1.
<mgrwt>
<rscale>  0 0.11952555E+04</rscale>
<asrwt>0</asrwt>
<pdfrwt beam="1">  1        1 0.25093280E+00 0.11952555E+04</pdfrwt>
<pdfrwt beam="2">  1       -2 0.22288623E+00 0.11952555E+04</pdfrwt>
<totfact> 0.43056981E-01</totfact>
</mgrwt>
</event>
<event>
12    3  0.1201947E-007  0.1452195E+04  0.7818608E-02  0.8916880E-01
          1   -1    0    0  501    0  0.00000000000E+00  0.00000000000E+00  0.22954255361E+04  0.22954255361E+04  0.00000000000E+00 0. -1.
         -2   -1    0    0    0  501 -0.00000000000E+00 -0.00000000000E+00 -0.18642454341E+04  0.18642454341E+04  0.00000000000E+00 0.  1.
        -24    2    1    2    0    0 -0.10177328724E+04 -0.99845695957E+03  0.16559614014E+04  0.21866712249E+04  0.81402597579E+02 0.  0.
    5000000    2    1    2    0    0  0.10177328724E+04  0.99845695957E+03 -0.12247812995E+04  0.19729997453E+04  0.59995188464E+03 0.  0.
        -24    2    4    4    0    0  0.56429840405E+03  0.30357508084E+03 -0.82577950610E+03  0.10483069289E+04  0.80281416633E+02 0.  0.
         24    2    4    4    0    0  0.45343446832E+03  0.69488187873E+03 -0.39900179337E+03  0.92469281648E+03  0.85969362437E+02 0.  0.
         13    1    3    3    0    0 -0.15553845042E+03 -0.11590251264E+03  0.23970793593E+03  0.30835936267E+03  0.00000000000E+00 0. -1.
        -14    1    3    3    0    0 -0.86219442195E+03 -0.88255444694E+03  0.14162534655E+04  0.18783118622E+04  0.00000000000E+00 0.  1.
         15    1    5    5    0    0  0.32162021534E+03  0.21275753021E+03 -0.46447847200E+03  0.60369589882E+03  0.17770000000E+01 0. -1.
        -16    1    5    5    0    0  0.24267818871E+03  0.90817550634E+02 -0.36130103411E+03  0.44461103003E+03  0.00000000000E+00 0.  1.
          4    1    6    6  502    0  0.36433208379E+03  0.51154672934E+03 -0.33028194867E+03  0.70958022041E+03  0.00000000000E+00 0. -1.
         -3    1    6    6    0  502  0.89102384529E+02  0.18333514939E+03 -0.68719844702E+02  0.21511259606E+03  0.00000000000E+00 0.  1.
<mgrwt>
<rscale>  0 0.14521955E+04</rscale>
<asrwt>0</asrwt>
<pdfrwt beam="1">  1        1 0.35314239E+00 0.14521955E+04</pdfrwt>
<pdfrwt beam="2">  1       -2 0.28680699E+00 0.14521955E+04</pdfrwt>
<totfact> 0.59515505E-02</totfact>
</mgrwt>
</event>
<event>
12    3  0.1201947E-007  0.4535702E+03  0.7818608E-02  0.1026663E+00
         -2   -1    0    0    0  501 -0.00000000000E+00  0.00000000000E+00  0.17141421529E+03  0.17141421529E+03  0.00000000000E+00 0.  1.
          1   -1    0    0  501    0  0.00000000000E+00 -0.00000000000E+00 -0.13382790083E+04  0.13382790083E+04  0.00000000000E+00 0. -1.
        -24    2    1    2    0    0  0.43824701367E+02 -0.24757934651E+03 -0.15413286602E+03  0.30606580049E+03  0.81873051585E+02 0.  0.
    5000000    2    1    2    0    0 -0.43824701367E+02  0.24757934651E+03 -0.10127319270E+04  0.12036274231E+04  0.59989739157E+03 0.  0.
        -24    2    4    4    0    0 -0.30341084301E+03  0.77967632679E+02 -0.42389120120E+03  0.53327590315E+03  0.81008314540E+02 0.  0.
         24    2    4    4    0    0  0.25958614164E+03  0.16961171383E+03 -0.58884072577E+03  0.67035151992E+03  0.80527396238E+02 0.  0.
         11    1    3    3    0    0 -0.22183354724E+02 -0.84788001680E+02 -0.64764501468E+02  0.10897498385E+03  0.00000000000E+00 0. -1.
        -12    1    3    3    0    0  0.66008056092E+02 -0.16279134483E+03 -0.89368364547E+02  0.19709081663E+03  0.00000000000E+00 0.  1.
         15    1    5    5    0    0 -0.22775424552E+03  0.93668128311E+02 -0.31931342236E+03  0.40324922075E+03  0.17770000000E+01 0. -1.
        -16    1    5    5    0    0 -0.75656597492E+02 -0.15700495632E+02 -0.10457777884E+03  0.13002668239E+03  0.00000000000E+00 0.  1.
          4    1    6    6  502    0  0.16934624027E+03  0.63158450648E+02 -0.33949946461E+03  0.38461282539E+03  0.00000000000E+00 0. -1.
         -3    1    6    6    0  502  0.90239901372E+02  0.10645326318E+03 -0.24934126115E+03  0.28573869453E+03  0.00000000000E+00 0.  1.
<mgrwt>
<rscale>  0 0.45357019E+03</rscale>
<asrwt>0</asrwt>
<pdfrwt beam="1">  1        1 0.20588909E+00 0.45357019E+03</pdfrwt>
<pdfrwt beam="2">  1       -2 0.26371417E-01 0.45357019E+03</pdfrwt>
<totfact> 0.10209071E+02</totfact>
</mgrwt>
</event>
<event>
12    3  0.1201947E-007  0.9737668E+03  0.7818608E-02  0.9337794E-01
         -2   -1    0    0    0  501 -0.00000000000E+00  0.00000000000E+00  0.52196140128E+03  0.52196140128E+03  0.00000000000E+00 0.  1.
          1   -1    0    0  501    0  0.00000000000E+00 -0.00000000000E+00 -0.21755242167E+04  0.21755242167E+04  0.00000000000E+00 0. -1.
        -24    2    1    2    0    0  0.26659614200E+03 -0.93062045460E+03 -0.57337363216E+03  0.11277410488E+04  0.76906551910E+02 0.  0.
    5000000    2    1    2    0    0 -0.26659614200E+03  0.93062045460E+03 -0.10801891833E+04  0.15697445691E+04  0.60013449098E+03 0.  0.
        -24    2    4    4    0    0 -0.19982683755E+03  0.70722984200E+03 -0.10968665236E+04  0.13227159816E+04  0.79728182062E+02 0.  0.
         24    2    4    4    0    0 -0.66769304442E+02  0.22339061260E+03  0.16677340364E+02  0.24702858750E+03  0.79896705477E+02 0.  0.
         11    1    3    3    0    0  0.89195802812E+02 -0.20653557576E+03 -0.11595889898E+03  0.25309939065E+03  0.00000000000E+00 0. -1.
        -12    1    3    3    0    0  0.17740033918E+03 -0.72408487884E+03 -0.45741473318E+03  0.87464165819E+03  0.00000000000E+00 0.  1.
         15    1    5    5    0    0 -0.55427498082E+02  0.28005415680E+03 -0.48238540703E+03  0.56053668652E+03  0.17770000000E+01 0. -1.
        -16    1    5    5    0    0 -0.14439933947E+03  0.42717568520E+03 -0.61448111660E+03  0.76217929513E+03  0.00000000000E+00 0.  1.
          2    1    6    6  502    0 -0.77965909373E+02  0.20154386814E+03 -0.21209289813E+01  0.21610902838E+03  0.00000000000E+00 0. -1.
         -1    1    6    6    0  502  0.11196604932E+02  0.21846744465E+02  0.18798269345E+02  0.30919559119E+02  0.00000000000E+00 0.  1.
<mgrwt>
<rscale>  0 0.97376683E+03</rscale>
<asrwt>0</asrwt>
<pdfrwt beam="1">  1        1 0.33469603E+00 0.97376683E+03</pdfrwt>
<pdfrwt beam="2">  1       -2 0.80301755E-01 0.97376683E+03</pdfrwt>
<totfact> 0.27602563E+00</totfact>
</mgrwt>
</event>
<event>
12    3  0.1201947E-007  0.1557122E+04  0.7818608E-02  0.8847331E-01
          1   -1    0    0  501    0  0.00000000000E+00  0.00000000000E+00  0.13349077041E+04  0.13349077041E+04  0.00000000000E+00 0. -1.
         -2   -1    0    0    0  501 -0.00000000000E+00 -0.00000000000E+00 -0.23838894672E+04  0.23838894672E+04  0.00000000000E+00 0.  1.
        -24    2    1    2    0    0 -0.14003065452E+04  0.66372288193E+03 -0.13179041385E+04  0.20354136265E+04  0.68196980491E+02 0.  0.
    5000000    2    1    2    0    0  0.14003065452E+04 -0.66372288193E+03  0.26892237537E+03  0.16833835448E+04  0.60006202210E+03 0.  0.
        -24    2    4    4    0    0  0.11505881202E+04 -0.45084905252E+03  0.42877753762E+03  0.13104438008E+04  0.79340329124E+02 0.  0.
         24    2    4    4    0    0  0.24971842496E+03 -0.21287382941E+03 -0.15985516225E+03  0.37293974394E+03  0.76523334366E+02 0.  0.
         13    1    3    3    0    0 -0.31223605549E+03  0.14161050547E+03 -0.25586664091E+03  0.42779975167E+03  0.00000000000E+00 0. -1.
        -14    1    3    3    0    0 -0.10880704897E+04  0.52211237646E+03 -0.10620374976E+04  0.16076138748E+04  0.00000000000E+00 0.  1.
         15    1    5    5    0    0  0.73815004060E+03 -0.28625259900E+03  0.23428419313E+03  0.82565021271E+03  0.17770000000E+01 0. -1.
        -16    1    5    5    0    0  0.41243807961E+03 -0.16459645352E+03  0.19449334449E+03  0.48479358811E+03  0.00000000000E+00 0.  1.
          2    1    6    6  502    0  0.13805087742E+03 -0.13078627400E+03 -0.51497764320E+02  0.19701551704E+03  0.00000000000E+00 0. -1.
         -1    1    6    6    0  502  0.11166754754E+03 -0.82087555406E+02 -0.10835739793E+03  0.17592422691E+03  0.00000000000E+00 0.  1.
<mgrwt>
<rscale>  0 0.15571219E+04</rscale>
<asrwt>0</asrwt>
<pdfrwt beam="1">  1        1 0.20537042E+00 0.15571219E+04</pdfrwt>
<pdfrwt beam="2">  1       -2 0.36675222E+00 0.15571219E+04</pdfrwt>
<totfact> 0.85699378E-02</totfact>
</mgrwt>
</event>
<event>
12    3  0.1201947E-007  0.1591542E+04  0.7818608E-02  0.8825761E-01
         -2   -1    0    0    0  501 -0.00000000000E+00  0.00000000000E+00  0.16611524044E+04  0.16611524044E+04  0.00000000000E+00 0.  1.
          1   -1    0    0  501    0  0.00000000000E+00 -0.00000000000E+00 -0.24256825534E+04  0.24256825534E+04  0.00000000000E+00 0. -1.
        -24    2    1    2    0    0  0.89282283690E+03 -0.12747907001E+04 -0.15895170898E+04  0.22260343225E+04  0.80251350167E+02 0.  0.
    5000000    2    1    2    0    0 -0.89282283690E+03  0.12747907001E+04  0.82498694072E+03  0.18608006352E+04  0.59979296802E+03 0.  0.
        -24    2    4    4    0    0  0.27448583939E+02  0.75693409998E+01  0.12655102432E+03  0.14417389532E+03  0.62930363500E+02 0.  0.
         24    2    4    4    0    0 -0.92027142084E+03  0.12672213591E+04  0.69843591640E+03  0.17166267399E+04  0.79026412183E+02 0.  0.
         11    1    3    3    0    0  0.79646111019E+03 -0.10909291643E+04 -0.13690284196E+04  0.19232045017E+04  0.00000000000E+00 0. -1.
        -12    1    3    3    0    0  0.96361726708E+02 -0.18386153586E+03 -0.22048867011E+03  0.30282982084E+03  0.00000000000E+00 0.  1.
         15    1    5    5    0    0 -0.66454713117E+01 -0.14737982795E+02  0.82828972499E+02  0.84410703351E+02  0.17770000000E+01 0. -1.
        -16    1    5    5    0    0  0.34094055250E+02  0.22307323795E+02  0.43722051823E+02  0.59763191966E+02  0.00000000000E+00 0.  1.
          4    1    6    6  502    0 -0.78609737294E+03  0.10367287493E+04  0.56573943167E+03  0.14187377080E+04  0.00000000000E+00 0. -1.
         -3    1    6    6    0  502 -0.13417404790E+03  0.23049260977E+03  0.13269648473E+03  0.29788903194E+03  0.00000000000E+00 0.  1.
<mgrwt>
<rscale>  0 0.15915415E+04</rscale>
<asrwt>0</asrwt>
<pdfrwt beam="1">  1        1 0.37318193E+00 0.15915415E+04</pdfrwt>
<pdfrwt beam="2">  1       -2 0.25556191E+00 0.15915415E+04</pdfrwt>
<totfact> 0.73831586E-02</totfact>
</mgrwt>
</event>
<event>
12    3  0.1201947E-007  0.5462213E+03  0.7818608E-02  0.1002372E+00
         -2   -1    0    0    0  501 -0.00000000000E+00  0.00000000000E+00  0.50434968032E+03  0.50434968032E+03  0.00000000000E+00 0.  1.
          1   -1    0    0  501    0  0.00000000000E+00 -0.00000000000E+00 -0.69271288164E+03  0.69271288164E+03  0.00000000000E+00 0. -1.
        -24    2    1    2    0    0  0.34936917244E+03  0.25459330247E+03 -0.10860038633E+03  0.45317332941E+03  0.81825755501E+02 0.  0.
    5000000    2    1    2    0    0 -0.34936917244E+03 -0.25459330247E+03 -0.79762814992E+02  0.74388923255E+03  0.60011041929E+03 0.  0.
        -24    2    4    4    0    0  0.72918881274E+02  0.67718458078E+02  0.11673950459E+03  0.17174525652E+03  0.77235797350E+02 0.  0.
         24    2    4    4    0    0 -0.42228805372E+03 -0.32231176055E+03 -0.19650231958E+03  0.57214397603E+03  0.80768164607E+02 0.  0.
         13    1    3    3    0    0  0.31104960997E+03  0.20976997471E+03 -0.67258631958E+02  0.38115485793E+03  0.00000000000E+00 0. -1.
        -14    1    3    3    0    0  0.38319562468E+02  0.44823327759E+02 -0.41341754371E+02  0.72018471475E+02  0.00000000000E+00 0.  1.
         15    1    5    5    0    0  0.73074758741E+02  0.16978921358E+02  0.74207680826E+02  0.10553739507E+03  0.17770000000E+01 0. -1.
        -16    1    5    5    0    0 -0.15587746629E+00  0.50739536720E+02  0.42531823766E+02  0.66207861446E+02  0.00000000000E+00 0.  1.
          2    1    6    6  502    0 -0.14557301066E+03 -0.89449040324E+02 -0.99435420882E+02  0.19768670965E+03  0.00000000000E+00 0. -1.
         -1    1    6    6    0  502 -0.27671504306E+03 -0.23286272022E+03 -0.97066898702E+02  0.37445726638E+03  0.00000000000E+00 0.  1.
<mgrwt>
<rscale>  0 0.54622127E+03</rscale>
<asrwt>0</asrwt>
<pdfrwt beam="1">  1        1 0.10657121E+00 0.54622127E+03</pdfrwt>
<pdfrwt beam="2">  1       -2 0.77592259E-01 0.54622127E+03</pdfrwt>
<totfact> 0.37299285E+01</totfact>
</mgrwt>
</event>
<event>
12    3  0.1201947E-007  0.4664737E+03  0.7818608E-02  0.1022920E+00
         -2   -1    0    0    0  501 -0.00000000000E+00  0.00000000000E+00  0.60216541253E+03  0.60216541253E+03  0.00000000000E+00 0.  1.
          1   -1    0    0  501    0  0.00000000000E+00 -0.00000000000E+00 -0.14618837281E+04  0.14618837281E+04  0.00000000000E+00 0. -1.
        -24    2    1    2    0    0  0.43446791870E+03 -0.29059866816E+02  0.40378085264E+03  0.59908578099E+03  0.79107191747E+02 0.  0.
    5000000    2    1    2    0    0 -0.43446791870E+03  0.29059866816E+02 -0.12634991682E+04  0.14649633597E+04  0.60006720356E+03 0.  0.
        -24    2    4    4    0    0 -0.34577086908E+02  0.26362529915E+02 -0.93992372963E+03  0.94431773821E+03  0.79930064819E+02 0.  0.
         24    2    4    4    0    0 -0.39989083179E+03  0.26973369005E+01 -0.32357543861E+03  0.52064562145E+03  0.80317156875E+02 0.  0.
         11    1    3    3    0    0  0.97570604180E+02  0.24052273387E+02  0.75369672531E+02  0.12561497599E+03  0.00000000000E+00 0. -1.
        -12    1    3    3    0    0  0.33689731452E+03 -0.53112140203E+02  0.32841118011E+03  0.47347080500E+03  0.00000000000E+00 0.  1.
         15    1    5    5    0    0 -0.60369476792E+02  0.20469199181E+02 -0.71674610595E+03  0.71957737594E+03  0.17770000000E+01 0. -1.
        -16    1    5    5    0    0  0.25792389884E+02  0.58933307342E+01 -0.22317762367E+03  0.22474036227E+03  0.00000000000E+00 0.  1.
          4    1    6    6  502    0 -0.24710089063E+03 -0.13840757990E+02 -0.24416484964E+03  0.34765915856E+03  0.00000000000E+00 0. -1.
         -3    1    6    6    0  502 -0.15278994116E+03  0.16538094891E+02 -0.79410588967E+02  0.17298646289E+03  0.00000000000E+00 0.  1.
<mgrwt>
<rscale>  0 0.46647372E+03</rscale>
<asrwt>0</asrwt>
<pdfrwt beam="1">  1        1 0.22490519E+00 0.46647372E+03</pdfrwt>
<pdfrwt beam="2">  1       -2 0.92640834E-01 0.46647372E+03</pdfrwt>
<totfact> 0.65510706E+00</totfact>
</mgrwt>
</event>
<event>
12    3  0.1440170E-007  0.5678458E+03  0.7818608E-02  0.9974457E-01
         -2   -1    0    0    0  501 -0.00000000000E+00  0.00000000000E+00  0.25058945794E+03  0.25058945794E+03  0.00000000000E+00 0.  1.
          1   -1    0    0  501    0  0.00000000000E+00 -0.00000000000E+00 -0.13814638256E+04  0.13814638256E+04  0.00000000000E+00 0. -1.
        -24    2    1    2    0    0 -0.39730057900E+03 -0.85943448124E+02 -0.22275650044E+03  0.47021316567E+03  0.79031236409E+02 0.  0.
    5000000    2    1    2    0    0  0.39730057900E+03  0.85943448124E+02 -0.90811786720E+03  0.11618401178E+04  0.59996697607E+03 0.  0.
        -24    2    4    4    0    0  0.44265808646E+03 -0.14883897114E+03 -0.60127000798E+03  0.76499758559E+03  0.74809508947E+02 0.  0.
         24    2    4    4    0    0 -0.45357507465E+02  0.23478241926E+03 -0.30684785922E+03  0.39684253226E+03  0.78411088638E+02 0.  0.
         13    1    3    3    0    0 -0.15898717189E+03 -0.72520964244E+02 -0.81056337996E+02  0.19263006258E+03  0.00000000000E+00 0. -1.
        -14    1    3    3    0    0 -0.23831340711E+03 -0.13422483880E+02 -0.14170016245E+03  0.27758310309E+03  0.00000000000E+00 0.  1.
         15    1    5    5    0    0  0.27773038743E+03 -0.13024370745E+03 -0.40155633132E+03  0.50531993468E+03  0.17770000000E+01 0. -1.
        -16    1    5    5    0    0  0.16492769904E+03 -0.18595263693E+02 -0.19971367665E+03  0.25967765091E+03  0.00000000000E+00 0.  1.
          4    1    6    6  502    0 -0.60320177817E+02  0.12574990996E+03 -0.14563195449E+03  0.20164381934E+03  0.00000000000E+00 0. -1.
         -1    1    6    6    0  502  0.14962670352E+02  0.10903250930E+03 -0.16121590473E+03  0.19519871292E+03  0.00000000000E+00 0.  1.
<mgrwt>
<rscale>  0 0.56784581E+03</rscale>
<asrwt>0</asrwt>
<pdfrwt beam="1">  1        1 0.21253289E+00 0.56784581E+03</pdfrwt>
<pdfrwt beam="2">  1       -2 0.38552225E-01 0.56784581E+03</pdfrwt>
<totfact> 0.46239476E+01</totfact>
</mgrwt>
</event>
<event>
12    3  0.1201947E-007  0.4133118E+03  0.7818608E-02  0.1039265E+00
         -2   -1    0    0    0  501 -0.00000000000E+00  0.00000000000E+00  0.21302451716E+03  0.21302451716E+03  0.00000000000E+00 0.  1.
          1   -1    0    0  501    0  0.00000000000E+00 -0.00000000000E+00 -0.19008501712E+04  0.19008501712E+04  0.00000000000E+00 0. -1.
        -24    2    1    2    0    0  0.28718009613E+03  0.27463734192E+03 -0.11370529591E+04  0.12076579847E+04  0.87465987931E+02 0.  0.
    5000000    2    1    2    0    0 -0.28718009613E+03 -0.27463734192E+03 -0.55077269495E+03  0.90621670366E+03  0.59998339585E+03 0.  0.
        -24    2    4    4    0    0 -0.84808935243E+02 -0.87327476834E+02  0.11251731019E+03  0.18307131455E+03  0.77693741140E+02 0.  0.
         24    2    4    4    0    0 -0.20237116088E+03 -0.18730986508E+03 -0.66329000513E+03  0.72314538910E+03  0.83345969051E+02 0.  0.
         13    1    3    3    0    0  0.36453988018E+02  0.83455478171E+02 -0.28073540245E+03  0.29513738541E+03  0.00000000000E+00 0. -1.
        -14    1    3    3    0    0  0.25072610811E+03  0.19118186374E+03 -0.85631755669E+03  0.91252059933E+03  0.00000000000E+00 0.  1.
         15    1    5    5    0    0 -0.40427936925E+02 -0.90602728395E+02  0.69257849058E+02  0.12100859416E+03  0.17770000000E+01 0. -1.
        -16    1    5    5    0    0 -0.44380998318E+02  0.32752515606E+01  0.43259461131E+02  0.62062720387E+02  0.00000000000E+00 0.  1.
          4    1    6    6  502    0 -0.91216107646E+02 -0.98480823672E+02 -0.22142971128E+03  0.25894008566E+03  0.00000000000E+00 0. -1.
         -3    1    6    6    0  502 -0.11115505324E+03 -0.88829041409E+02 -0.44186029386E+03  0.46420530345E+03  0.00000000000E+00 0.  1.
<mgrwt>
<rscale>  0 0.41331179E+03</rscale>
<asrwt>0</asrwt>
<pdfrwt beam="1">  1        1 0.29243850E+00 0.41331179E+03</pdfrwt>
<pdfrwt beam="2">  1       -2 0.32773001E-01 0.41331179E+03</pdfrwt>
<totfact> 0.29025103E+01</totfact>
</mgrwt>
</event>
<event>
12    3  0.1201947E-007  0.1841150E+03  0.7818608E-02  0.1163879E+00
          1   -1    0    0  501    0  0.00000000000E+00  0.00000000000E+00  0.98643631732E+03  0.98643631732E+03  0.00000000000E+00 0. -1.
         -2   -1    0    0    0  501 -0.00000000000E+00 -0.00000000000E+00 -0.12747518889E+03  0.12747518889E+03  0.00000000000E+00 0.  1.
        -24    2    1    2    0    0 -0.10063241522E+02 -0.56547503930E+02  0.19067885247E+03  0.21394946306E+03  0.78211629154E+02 0.  0.
    5000000    2    1    2    0    0  0.10063241522E+02  0.56547503930E+02  0.66828227597E+03  0.89996204315E+03  0.60002632419E+03 0.  0.
        -24    2    4    4    0    0 -0.35403777156E+02 -0.11134480742E+03 -0.54521280599E+02  0.15193896903E+03  0.80385239292E+02 0.  0.
         24    2    4    4    0    0  0.45467018678E+02  0.16789231135E+03  0.72280355656E+03  0.74802307412E+03  0.82694981916E+02 0.  0.
         11    1    3    3    0    0 -0.70718767366E+00 -0.13942749838E+02  0.16003180187E+03  0.16063959038E+03  0.00000000000E+00 0. -1.
        -12    1    3    3    0    0 -0.93560538484E+01 -0.42604754092E+02  0.30647050594E+02  0.53309872678E+02  0.00000000000E+00 0.  1.
         15    1    5    5    0    0 -0.41772811288E+02 -0.78171178115E+02 -0.10078386365E+01  0.88655932224E+02  0.17770000000E+01 0. -1.
        -16    1    5    5    0    0  0.63690341318E+01 -0.33173629307E+02 -0.53513441963E+02  0.63283036810E+02  0.00000000000E+00 0.  1.
          4    1    6    6  502    0  0.34687681271E+01  0.13455174999E+03  0.58182960672E+03  0.59719502429E+03  0.00000000000E+00 0. -1.
         -3    1    6    6    0  502  0.41998250551E+02  0.33340561363E+02  0.14097394984E+03  0.15082804983E+03  0.00000000000E+00 0.  1.
<mgrwt>
<rscale>  0 0.18411499E+03</rscale>
<asrwt>0</asrwt>
<pdfrwt beam="1">  1        1 0.15175943E+00 0.18411499E+03</pdfrwt>
<pdfrwt beam="2">  1       -2 0.19611568E-01 0.18411499E+03</pdfrwt>
<totfact> 0.31848846E+02</totfact>
</mgrwt>
</event>
<event>
12    3  0.1201947E-007  0.1317245E+04  0.7818608E-02  0.9016001E-01
         -2   -1    0    0    0  501 -0.00000000000E+00  0.00000000000E+00  0.20526033118E+04  0.20526033118E+04  0.00000000000E+00 0.  1.
          1   -1    0    0  501    0  0.00000000000E+00 -0.00000000000E+00 -0.14796525210E+04  0.14796525210E+04  0.00000000000E+00 0. -1.
        -24    2    1    2    0    0  0.63194723107E+03 -0.10833617733E+04  0.14263167429E+04  0.19009395763E+04  0.78497050874E+02 0.  0.
    5000000    2    1    2    0    0 -0.63194723107E+03  0.10833617733E+04 -0.85336595202E+03  0.16313162564E+04  0.59994103517E+03 0.  0.
        -24    2    4    4    0    0 -0.19194163030E+03  0.87055471565E+03 -0.55241461031E+03  0.10517841220E+04  0.79880130870E+02 0.  0.
         24    2    4    4    0    0 -0.44000560077E+03  0.21280705770E+03 -0.30095134171E+03  0.57953213441E+03  0.79962567631E+02 0.  0.
         11    1    3    3    0    0  0.32755203886E+03 -0.55705296569E+03  0.79405368011E+03  0.10237771201E+04  0.00000000000E+00 0. -1.
        -12    1    3    3    0    0  0.30439519221E+03 -0.52630880766E+03  0.63226306276E+03  0.87716245622E+03  0.00000000000E+00 0.  1.
         15    1    5    5    0    0 -0.38144267098E+02  0.17058940405E+03 -0.72353339296E+02  0.18919274120E+03  0.17770000000E+01 0. -1.
        -16    1    5    5    0    0 -0.15379736320E+03  0.69996531160E+03 -0.48006127101E+03  0.86259138084E+03  0.00000000000E+00 0.  1.
          4    1    6    6  502    0 -0.19539255353E+03  0.97827910102E+02 -0.88554927647E+02  0.23577643050E+03  0.00000000000E+00 0. -1.
         -3    1    6    6    0  502 -0.24461304724E+03  0.11497914760E+03 -0.21239641407E+03  0.34375570391E+03  0.00000000000E+00 0.  1.
<mgrwt>
<rscale>  0 0.13172446E+04</rscale>
<asrwt>0</asrwt>
<pdfrwt beam="1">  1        1 0.22763885E+00 0.13172446E+04</pdfrwt>
<pdfrwt beam="2">  1       -2 0.31578512E+00 0.13172446E+04</pdfrwt>
<totfact> 0.14539390E-01</totfact>
</mgrwt>
</event>
<event>
12    3  0.1201947E-007  0.1091644E+04  0.7818608E-02  0.9213375E-01
          1   -1    0    0  501    0  0.00000000000E+00  0.00000000000E+00  0.21139926547E+04  0.21139926547E+04  0.00000000000E+00 0. -1.
         -2   -1    0    0    0  501 -0.00000000000E+00 -0.00000000000E+00 -0.11032503133E+04  0.11032503133E+04  0.00000000000E+00 0.  1.
        -24    2    1    2    0    0  0.10076555828E+04  0.30806577554E+03  0.15615344791E+04  0.18854687166E+04  0.79549081622E+02 0.  0.
    5000000    2    1    2    0    0 -0.10076555828E+04 -0.30806577554E+03 -0.55079213770E+03  0.13317742513E+04  0.59998031805E+03 0.  0.
        -24    2    4    4    0    0 -0.52818353855E+02 -0.12729201342E+03  0.71781573996E+02  0.17491659063E+03  0.80313038341E+02 0.  0.
         24    2    4    4    0    0 -0.95483722890E+03 -0.18077376213E+03 -0.62257371170E+03  0.11568576607E+04  0.79550825711E+02 0.  0.
         11    1    3    3    0    0  0.54354572297E+03  0.18774934137E+03  0.79092745284E+03  0.97788445320E+03  0.00000000000E+00 0. -1.
        -12    1    3    3    0    0  0.46410985978E+03  0.12031643417E+03  0.77060702625E+03  0.90758426341E+03  0.00000000000E+00 0.  1.
         15    1    5    5    0    0 -0.66671160694E+02 -0.12488767884E+03  0.52387411952E+02  0.15096216299E+03  0.17770000000E+01 0. -1.
        -16    1    5    5    0    0  0.13852806839E+02 -0.24043345771E+01  0.19394162044E+02  0.23954427638E+02  0.00000000000E+00 0.  1.
          2    1    6    6  502    0 -0.32717749970E+03 -0.37384465016E+02 -0.17679161543E+03  0.37376194271E+03  0.00000000000E+00 0. -1.
         -1    1    6    6    0  502 -0.62765972919E+03 -0.14338929711E+03 -0.44578209627E+03  0.78309571799E+03  0.00000000000E+00 0.  1.
<mgrwt>
<rscale>  0 0.10916436E+04</rscale>
<asrwt>0</asrwt>
<pdfrwt beam="1">  1        1 0.32522964E+00 0.10916436E+04</pdfrwt>
<pdfrwt beam="2">  1       -2 0.16973082E+00 0.10916436E+04</pdfrwt>
<totfact> 0.46420475E-01</totfact>
</mgrwt>
</event>
<event>
12    3  0.1449607E-007  0.5882505E+03  0.7818608E-02  0.9930087E-01
          1   -1    0    0  501    0  0.00000000000E+00  0.00000000000E+00  0.93178996119E+03  0.93178996119E+03  0.00000000000E+00 0. -1.
         -2   -1    0    0    0  501 -0.00000000000E+00 -0.00000000000E+00 -0.41111198741E+03  0.41111198741E+03  0.00000000000E+00 0.  1.
        -24    2    1    2    0    0  0.29834002226E+03  0.34118769947E+03  0.33281763874E+03  0.56789619680E+03  0.79515372917E+02 0.  0.
    5000000    2    1    2    0    0 -0.29834002226E+03 -0.34118769947E+03  0.18786033504E+03  0.77500575180E+03  0.59993882579E+03 0.  0.
        -24    2    4    4    0    0  0.55640258070E+02  0.11846111691E+03  0.99265041903E+02  0.18268920925E+03  0.79955763359E+02 0.  0.
         24    2    4    4    0    0 -0.35398028033E+03 -0.45964881638E+03  0.88595293140E+02  0.59231654256E+03  0.80066768126E+02 0.  0.
         11    1    3    3    0    0  0.11173931599E+03  0.18163059735E+03  0.17673213816E+03  0.27696497485E+03  0.00000000000E+00 0. -1.
        -12    1    3    3    0    0  0.18660070626E+03  0.15955710212E+03  0.15608550057E+03  0.29093122195E+03  0.00000000000E+00 0.  1.
         15    1    5    5    0    0  0.23710007684E+02  0.76415269791E+02  0.10220766743E+03  0.12981148998E+03  0.17770000000E+01 0. -1.
        -16    1    5    5    0    0  0.31930250385E+02  0.42045847118E+02 -0.29426255263E+01  0.52877719264E+02  0.00000000000E+00 0.  1.
          4    1    6    6  502    0 -0.30168949612E+03 -0.34129899396E+03  0.81320362376E+02  0.46272514162E+03  0.00000000000E+00 0. -1.
         -3    1    6    6    0  502 -0.52290784209E+02 -0.11834982242E+03  0.72749307642E+01  0.12959140094E+03  0.00000000000E+00 0.  1.
<mgrwt>
<rscale>  0 0.58825046E+03</rscale>
<asrwt>0</asrwt>
<pdfrwt beam="1">  1        1 0.14335230E+00 0.58825046E+03</pdfrwt>
<pdfrwt beam="2">  1       -2 0.63247998E-01 0.58825046E+03</pdfrwt>
<totfact> 0.36139709E+01</totfact>
</mgrwt>
</event>
<event>
12    3  0.1201947E-007  0.9382996E+03  0.7818608E-02  0.9378932E-01
         -2   -1    0    0    0  501 -0.00000000000E+00  0.00000000000E+00  0.36158318632E+04  0.36158318632E+04  0.00000000000E+00 0.  1.
          1   -1    0    0  501    0  0.00000000000E+00 -0.00000000000E+00 -0.24994651737E+03  0.24994651737E+03  0.00000000000E+00 0. -1.
        -24    2    1    2    0    0  0.36121365904E+03  0.76372203531E+03  0.17701052785E+04  0.19630703661E+04  0.81399696365E+02 0.  0.
    5000000    2    1    2    0    0 -0.36121365904E+03 -0.76372203531E+03  0.15957800674E+04  0.19027080145E+04  0.60003092453E+03 0.  0.
        -24    2    4    4    0    0 -0.25936674473E+03 -0.84110734791E+03  0.13909734346E+04  0.16480831151E+04  0.81475022981E+02 0.  0.
         24    2    4    4    0    0 -0.10184691431E+03  0.77385312607E+02  0.20480663271E+03  0.25462489941E+03  0.80788625672E+02 0.  0.
         11    1    3    3    0    0  0.20488269268E+03  0.43769080928E+03  0.11044264670E+04  0.12055322407E+04  0.00000000000E+00 0. -1.
        -12    1    3    3    0    0  0.15633096636E+03  0.32603122602E+03  0.66567881149E+03  0.75753812541E+03  0.00000000000E+00 0.  1.
         15    1    5    5    0    0 -0.14201550276E+03 -0.50494989521E+03  0.75712755752E+03  0.92107985310E+03  0.17770000000E+01 0. -1.
        -16    1    5    5    0    0 -0.11735124197E+03 -0.33615745271E+03  0.63384587712E+03  0.72700326199E+03  0.00000000000E+00 0.  1.
          4    1    6    6  502    0  0.11652478076E+02 -0.30534608033E+01  0.13616207589E+02  0.18179795854E+02  0.00000000000E+00 0. -1.
         -3    1    6    6    0  502 -0.11349939238E+03  0.80438773410E+02  0.19119042512E+03  0.23644510356E+03  0.00000000000E+00 0.  1.
<mgrwt>
<rscale>  0 0.93829959E+03</rscale>
<asrwt>0</asrwt>
<pdfrwt beam="1">  1        1 0.38453313E-01 0.93829959E+03</pdfrwt>
<pdfrwt beam="2">  1       -2 0.55628179E+00 0.93829959E+03</pdfrwt>
<totfact> 0.77628255E-02</totfact>
</mgrwt>
</event>
<event>
12    3  0.1201947E-007  0.9615448E+03  0.7818608E-02  0.9351757E-01
         -2   -1    0    0    0  501 -0.00000000000E+00  0.00000000000E+00  0.83227494321E+03  0.83227494321E+03  0.00000000000E+00 0.  1.
          1   -1    0    0  501    0  0.00000000000E+00 -0.00000000000E+00 -0.17700611373E+04  0.17700611373E+04  0.00000000000E+00 0. -1.
        -24    2    1    2    0    0 -0.85384485043E+03  0.37139966106E+03 -0.11425338375E+04  0.14758932561E+04  0.76737192932E+02 0.  0.
    5000000    2    1    2    0    0  0.85384485043E+03 -0.37139966106E+03  0.20474764340E+03  0.11264428244E+04  0.59996925116E+03 0.  0.
        -24    2    4    4    0    0  0.19250326558E+03 -0.24788248380E+03  0.30165634159E+03  0.44238208541E+03  0.78753590634E+02 0.  0.
         24    2    4    4    0    0  0.66134158484E+03 -0.12351717726E+03 -0.96908698190E+02  0.68406073899E+03  0.76932528399E+02 0.  0.
         13    1    3    3    0    0 -0.27584920016E+03  0.12424399998E+03 -0.42901211198E+03  0.52495785067E+03  0.00000000000E+00 0. -1.
        -14    1    3    3    0    0 -0.57799565026E+03  0.24715566108E+03 -0.71352172551E+03  0.95093540543E+03  0.00000000000E+00 0.  1.
         15    1    5    5    0    0  0.12256608159E+01 -0.15874959560E+02  0.42512153815E+02  0.45430799425E+02  0.17770000000E+01 0. -1.
        -16    1    5    5    0    0  0.19127760477E+03 -0.23200752424E+03  0.25914418778E+03  0.39695128599E+03  0.00000000000E+00 0.  1.
          4    1    6    6  502    0  0.38288237774E+03 -0.42624472765E+02 -0.80885983618E+02  0.39364743516E+03  0.00000000000E+00 0. -1.
         -3    1    6    6    0  502  0.27845920711E+03 -0.80892704494E+02 -0.16022714571E+02  0.29041330384E+03  0.00000000000E+00 0.  1.
<mgrwt>
<rscale>  0 0.96154476E+03</rscale>
<asrwt>0</asrwt>
<pdfrwt beam="1">  1        1 0.27231710E+00 0.96154476E+03</pdfrwt>
<pdfrwt beam="2">  1       -2 0.12804230E+00 0.96154476E+03</pdfrwt>
<totfact> 0.17020322E+00</totfact>
</mgrwt>
</event>
<event>
12    3  0.1201947E-007  0.5150340E+03  0.7818608E-02  0.1009928E+00
         -2   -1    0    0    0  501 -0.00000000000E+00  0.00000000000E+00  0.16380787203E+03  0.16380787203E+03  0.00000000000E+00 0.  1.
          1   -1    0    0  501    0  0.00000000000E+00 -0.00000000000E+00 -0.24808847517E+04  0.24808847517E+04  0.00000000000E+00 0. -1.
        -24    2    1    2    0    0 -0.38966638948E+03 -0.24194727244E+03 -0.53619303582E+03  0.71028733382E+03  0.81404835175E+02 0.  0.
    5000000    2    1    2    0    0  0.38966638948E+03  0.24194727244E+03 -0.17808838439E+04  0.19344052900E+04  0.59999848554E+03 0.  0.
        -24    2    4    4    0    0  0.66758746172E+02 -0.82878371859E+02 -0.51750818613E+02  0.14377532155E+03  0.81655625323E+02 0.  0.
         24    2    4    4    0    0  0.32290764331E+03  0.32482564430E+03 -0.17291330253E+04  0.17906299684E+04  0.81692223381E+02 0.  0.
         13    1    3    3    0    0 -0.20915244564E+03 -0.13819519262E+03 -0.35303163631E+03  0.43298267058E+03  0.00000000000E+00 0. -1.
        -14    1    3    3    0    0 -0.18051394384E+03 -0.10375207983E+03 -0.18316139951E+03  0.27730466325E+03  0.00000000000E+00 0.  1.
         15    1    5    5    0    0  0.52244664925E+02 -0.54954899580E+02 -0.73423883928E+02  0.10556405857E+03  0.17770000000E+01 0. -1.
        -16    1    5    5    0    0  0.14514081247E+02 -0.27923472279E+02  0.21673065315E+02  0.38211262982E+02  0.00000000000E+00 0.  1.
          4    1    6    6  502    0  0.82021496048E+02  0.41334233236E+02 -0.40062343908E+03  0.41101725583E+03  0.00000000000E+00 0. -1.
         -3    1    6    6    0  502  0.24088614726E+03  0.28349141107E+03 -0.13285095862E+04  0.13796127126E+04  0.00000000000E+00 0.  1.
<mgrwt>
<rscale>  0 0.51503404E+03</rscale>
<asrwt>0</asrwt>
<pdfrwt beam="1">  1        1 0.38167451E+00 0.51503404E+03</pdfrwt>
<pdfrwt beam="2">  1       -2 0.25201215E-01 0.51503404E+03</pdfrwt>
<totfact> 0.18898689E+01</totfact>
</mgrwt>
</event>
<event>
12    3  0.1201947E-007  0.3573240E+03  0.7818608E-02  0.1059648E+00
         -2   -1    0    0    0  501 -0.00000000000E+00  0.00000000000E+00  0.88081958233E+03  0.88081958233E+03  0.00000000000E+00 0.  1.
          1   -1    0    0  501    0  0.00000000000E+00 -0.00000000000E+00 -0.21233469716E+03  0.21233469716E+03  0.00000000000E+00 0. -1.
        -24    2    1    2    0    0  0.81796183135E+02  0.19634789131E+03  0.15242561882E+03  0.27360267024E+03  0.79885805335E+02 0.  0.
    5000000    2    1    2    0    0 -0.81796183135E+02 -0.19634789131E+03  0.51605926635E+03  0.81955160924E+03  0.60008713020E+03 0.  0.
        -24    2    4    4    0    0  0.15140745897E+03  0.36405527435E+02  0.43841194068E+03  0.47163585848E+03  0.77367772466E+02 0.  0.
         24    2    4    4    0    0 -0.23320364210E+03 -0.23275341875E+03  0.77647325670E+02  0.34791575076E+03  0.80362738996E+02 0.  0.
         13    1    3    3    0    0  0.27340830832E+01  0.79229423475E+02  0.87568129548E+02  0.11812262301E+03  0.00000000000E+00 0. -1.
        -14    1    3    3    0    0  0.79062100051E+02  0.11711846784E+03  0.64857489274E+02  0.15548004723E+03  0.00000000000E+00 0.  1.
         15    1    5    5    0    0  0.11413678248E+03  0.24680995775E+02  0.21349797744E+03  0.24335344823E+03  0.17770000000E+01 0. -1.
        -16    1    5    5    0    0  0.37270676488E+02  0.11724531659E+02  0.22491396324E+03  0.22828241025E+03  0.00000000000E+00 0.  1.
          4    1    6    6  502    0 -0.16579975535E+03 -0.11254704639E+03  0.58656256574E+02  0.20879883371E+03  0.00000000000E+00 0. -1.
         -3    1    6    6    0  502 -0.67403886752E+02 -0.12020637236E+03  0.18991069096E+02  0.13911691705E+03  0.00000000000E+00 0.  1.
<mgrwt>
<rscale>  0 0.35732400E+03</rscale>
<asrwt>0</asrwt>
<pdfrwt beam="1">  1        1 0.32666877E-01 0.35732400E+03</pdfrwt>
<pdfrwt beam="2">  1       -2 0.13551070E+00 0.35732400E+03</pdfrwt>
<totfact> 0.48975102E+01</totfact>
</mgrwt>
</event>
<event>
12    3  0.1201947E-007  0.1163601E+04  0.7818608E-02  0.9145327E-01
          1   -1    0    0  501    0  0.00000000000E+00  0.00000000000E+00  0.25787590136E+04  0.25787590136E+04  0.00000000000E+00 0. -1.
         -2   -1    0    0    0  501 -0.00000000000E+00 -0.00000000000E+00 -0.56142897676E+03  0.56142897676E+03  0.00000000000E+00 0.  1.
        -24    2    1    2    0    0  0.35689376046E+03 -0.10519495178E+04  0.69912711927E+03  0.13149117682E+04  0.79014460741E+02 0.  0.
    5000000    2    1    2    0    0 -0.35689376046E+03  0.10519495178E+04  0.13182029175E+04  0.18252762221E+04  0.60000284252E+03 0.  0.
        -24    2    4    4    0    0  0.59210265096E+02  0.56038145078E+03  0.85547614378E+03  0.10275888235E+04  0.81031670787E+02 0.  0.
         24    2    4    4    0    0 -0.41610402556E+03  0.49156806700E+03  0.46272677375E+03  0.79768739865E+03  0.86066220101E+02 0.  0.
         11    1    3    3    0    0  0.94030128113E+02 -0.38847646600E+03  0.23624728986E+03  0.46429345418E+03  0.00000000000E+00 0. -1.
        -12    1    3    3    0    0  0.26286363235E+03 -0.66347305178E+03  0.46287982941E+03  0.85061831401E+03  0.00000000000E+00 0.  1.
         15    1    5    5    0    0  0.79198451252E+02  0.43141023232E+03  0.64882943801E+03  0.78317940511E+03  0.17770000000E+01 0. -1.
        -16    1    5    5    0    0 -0.19988186156E+02  0.12897121846E+03  0.20664670577E+03  0.24440941836E+03  0.00000000000E+00 0.  1.
          4    1    6    6  502    0 -0.39327641444E+02  0.61020737791E+02  0.23177367298E+02  0.76206195135E+02  0.00000000000E+00 0. -1.
         -3    1    6    6    0  502 -0.37677638411E+03  0.43054732921E+03  0.43954940645E+03  0.72148120352E+03  0.00000000000E+00 0.  1.
<mgrwt>
<rscale>  0 0.11636009E+04</rscale>
<asrwt>0</asrwt>
<pdfrwt beam="1">  1        1 0.39673215E+00 0.11636009E+04</pdfrwt>
<pdfrwt beam="2">  1       -2 0.86373690E-01 0.11636009E+04</pdfrwt>
<totfact> 0.12097411E+00</totfact>
</mgrwt>
</event>
<event>
12    3  0.1201947E-007  0.6663291E+03  0.7818608E-02  0.9776612E-01
         -2   -1    0    0    0  501 -0.00000000000E+00  0.00000000000E+00  0.33255869539E+03  0.33255869539E+03  0.00000000000E+00 0.  1.
          1   -1    0    0  501    0  0.00000000000E+00 -0.00000000000E+00 -0.16129983751E+04  0.16129983751E+04  0.00000000000E+00 0. -1.
        -24    2    1    2    0    0  0.35150245735E+03  0.46881116185E+03 -0.32473238959E+03  0.67408660937E+03  0.74858193207E+02 0.  0.
    5000000    2    1    2    0    0 -0.35150245735E+03 -0.46881116185E+03 -0.95570729007E+03  0.12714704611E+04  0.59993568497E+03 0.  0.
        -24    2    4    4    0    0 -0.24748795061E+03 -0.55033825832E+03 -0.93557419282E+03  0.11161241152E+04  0.79444861695E+02 0.  0.
         24    2    4    4    0    0 -0.10401450674E+03  0.81527096473E+02 -0.20133097254E+02  0.15534634585E+03  0.79129390830E+02 0.  0.
         13    1    3    3    0    0  0.19476364957E+03  0.25065571530E+03 -0.21778189804E+03  0.38495470113E+03  0.00000000000E+00 0. -1.
        -14    1    3    3    0    0  0.15673880777E+03  0.21815544655E+03 -0.10695049155E+03  0.28913190825E+03  0.00000000000E+00 0.  1.
         15    1    5    5    0    0 -0.22548204336E+03 -0.43757247370E+03 -0.72654780248E+03  0.87760280802E+03  0.17770000000E+01 0. -1.
        -16    1    5    5    0    0 -0.22005907245E+02 -0.11276578462E+03 -0.20902639033E+03  0.23852130720E+03  0.00000000000E+00 0.  1.
          4    1    6    6  502    0 -0.79447392494E+02  0.34943355828E+02  0.20078985828E+02  0.89084745959E+02  0.00000000000E+00 0. -1.
         -3    1    6    6    0  502 -0.24567114246E+02  0.46583740645E+02 -0.40212083081E+02  0.66261599894E+02  0.00000000000E+00 0.  1.
<mgrwt>
<rscale>  0 0.66632910E+03</rscale>
<asrwt>0</asrwt>
<pdfrwt beam="1">  1        1 0.24815360E+00 0.66632910E+03</pdfrwt>
<pdfrwt beam="2">  1       -2 0.51162876E-01 0.66632910E+03</pdfrwt>
<totfact> 0.18089145E+01</totfact>
</mgrwt>
</event>
<event>
12    3  0.1201947E-007  0.1194429E+04  0.7818608E-02  0.9117747E-01
          1   -1    0    0  501    0  0.00000000000E+00  0.00000000000E+00  0.21308598279E+04  0.21308598279E+04  0.00000000000E+00 0. -1.
         -2   -1    0    0    0  501 -0.00000000000E+00 -0.00000000000E+00 -0.69121870860E+03  0.69121870860E+03  0.00000000000E+00 0.  1.
        -24    2    1    2    0    0  0.75644982409E+03 -0.83798114043E+03  0.50781655978E+03  0.12400683853E+04  0.73913555323E+02 0.  0.
    5000000    2    1    2    0    0 -0.75644982409E+03  0.83798114043E+03  0.93182455956E+03  0.15820101513E+04  0.60002531684E+03 0.  0.
        -24    2    4    4    0    0 -0.72364221572E+03  0.42174497742E+03  0.73822177305E+03  0.11189696908E+04  0.74799066255E+02 0.  0.
         24    2    4    4    0    0 -0.32807608372E+02  0.41623616302E+03  0.19360278650E+03  0.46304046050E+03  0.50946506722E+02 0.  0.
         13    1    3    3    0    0  0.33771290340E+03 -0.41839100735E+03  0.21747917385E+03  0.57999847518E+03  0.00000000000E+00 0. -1.
        -14    1    3    3    0    0  0.41873692069E+03 -0.41959013308E+03  0.29033738593E+03  0.66006991008E+03  0.00000000000E+00 0.  1.
         15    1    5    5    0    0 -0.25415328552E+03  0.12701827206E+03  0.21050324976E+03  0.35361322072E+03  0.17770000000E+01 0. -1.
        -16    1    5    5    0    0 -0.46948893020E+03  0.29472670535E+03  0.52771852329E+03  0.76535647005E+03  0.00000000000E+00 0.  1.
          2    1    6    6  502    0 -0.40169883492E+02  0.22556598194E+03  0.11886622565E+03  0.25811395032E+03  0.00000000000E+00 0. -1.
         -1    1    6    6    0  502  0.73622751196E+01  0.19067018108E+03  0.74736560852E+02  0.20492651018E+03  0.00000000000E+00 0.  1.
<mgrwt>
<rscale>  0 0.11944293E+04</rscale>
<asrwt>0</asrwt>
<pdfrwt beam="1">  1        1 0.32782459E+00 0.11944293E+04</pdfrwt>
<pdfrwt beam="2">  1       -2 0.10634134E+00 0.11944293E+04</pdfrwt>
<totfact> 0.14939706E+00</totfact>
</mgrwt>
</event>
<event>
12    3  0.1201947E-007  0.4034748E+03  0.7818608E-02  0.1042583E+00
         -2   -1    0    0    0  501 -0.00000000000E+00  0.00000000000E+00  0.38887518549E+03  0.38887518549E+03  0.00000000000E+00 0.  1.
          1   -1    0    0  501    0  0.00000000000E+00 -0.00000000000E+00 -0.10836344809E+04  0.10836344809E+04  0.00000000000E+00 0. -1.
        -24    2    1    2    0    0  0.23012946944E+03  0.20452273652E+03  0.18091205745E+03  0.36690799849E+03  0.84280391345E+02 0.  0.
    5000000    2    1    2    0    0 -0.23012946944E+03 -0.20452273652E+03 -0.87567135285E+03  0.11056016679E+04  0.60063766729E+03 0.  0.
        -24    2    4    4    0    0 -0.26648507112E+03 -0.78381069650E+01 -0.92072692852E+02  0.29302397573E+03  0.79435134106E+02 0.  0.
         24    2    4    4    0    0  0.36355601681E+02 -0.19668462956E+03 -0.78359866000E+03  0.81257769216E+03  0.79051075685E+02 0.  0.
         13    1    3    3    0    0  0.10570405919E+03  0.14077989280E+03  0.12698136991E+03  0.21706357283E+03  0.00000000000E+00 0. -1.
        -14    1    3    3    0    0  0.12442541025E+03  0.63742843720E+02  0.53930687533E+02  0.14984442565E+03  0.00000000000E+00 0.  1.
         15    1    5    5    0    0 -0.19772382933E+03  0.26553133597E+02 -0.81109521803E+02  0.21536409600E+03  0.17770000000E+01 0. -1.
        -16    1    5    5    0    0 -0.68761241791E+02 -0.34391240562E+02 -0.10963171049E+02  0.77659879729E+02  0.00000000000E+00 0.  1.
          4    1    6    6  502    0  0.66756502326E+01 -0.18103558477E+03 -0.64316011452E+03  0.66818663573E+03  0.00000000000E+00 0. -1.
         -3    1    6    6    0  502  0.29679951448E+02 -0.15649044786E+02 -0.14043854548E+03  0.14439105643E+03  0.00000000000E+00 0.  1.
<mgrwt>
<rscale>  0 0.40347478E+03</rscale>
<asrwt>0</asrwt>
<pdfrwt beam="1">  1        1 0.16671300E+00 0.40347478E+03</pdfrwt>
<pdfrwt beam="2">  1       -2 0.59826951E-01 0.40347478E+03</pdfrwt>
<totfact> 0.31973859E+01</totfact>
</mgrwt>
</event>
<event>
12    3  0.1201947E-007  0.1193707E+04  0.7818608E-02  0.9118383E-01
         -2   -1    0    0    0  501 -0.00000000000E+00  0.00000000000E+00  0.16068290406E+04  0.16068290406E+04  0.00000000000E+00 0.  1.
          1   -1    0    0  501    0  0.00000000000E+00 -0.00000000000E+00 -0.97194739652E+03  0.97194739652E+03  0.00000000000E+00 0. -1.
        -24    2    1    2    0    0  0.10296410346E+04  0.56847543944E+03  0.32008230176E+03  0.12214392648E+04  0.78333979858E+02 0.  0.
    5000000    2    1    2    0    0 -0.10296410346E+04 -0.56847543944E+03  0.31479934228E+03  0.13573371723E+04  0.59995048800E+03 0.  0.
        -24    2    4    4    0    0 -0.16553821841E+03  0.75521056077E+01 -0.13023032682E+03  0.22472309946E+03  0.77978185138E+02 0.  0.
         24    2    4    4    0    0 -0.86410281615E+03 -0.57602754505E+03  0.44502966910E+03  0.11326140728E+04  0.79257946130E+02 0.  0.
         13    1    3    3    0    0  0.83863492341E+03  0.42787549877E+03  0.26200429189E+03  0.97725750249E+03  0.00000000000E+00 0. -1.
        -14    1    3    3    0    0  0.19100611115E+03  0.14059994067E+03  0.58078009861E+02  0.24418176230E+03  0.00000000000E+00 0.  1.
         15    1    5    5    0    0 -0.14261227922E+03  0.14991431807E+02 -0.69455189077E+02  0.15934298300E+03  0.17770000000E+01 0. -1.
        -16    1    5    5    0    0 -0.22925939187E+02 -0.74393261997E+01 -0.60775137739E+02  0.65380116466E+02  0.00000000000E+00 0.  1.
          2    1    6    6  502    0 -0.72458799089E+03 -0.44804582388E+03  0.35404751184E+03  0.92256298293E+03  0.00000000000E+00 0. -1.
         -1    1    6    6    0  502 -0.13951482526E+03 -0.12798172116E+03  0.90982157262E+02  0.21005108988E+03  0.00000000000E+00 0.  1.
<mgrwt>
<rscale>  0 0.11937071E+04</rscale>
<asrwt>0</asrwt>
<pdfrwt beam="1">  1        1 0.14953037E+00 0.11937071E+04</pdfrwt>
<pdfrwt beam="2">  1       -2 0.24720447E+00 0.11937071E+04</pdfrwt>
<totfact> 0.91254294E-01</totfact>
</mgrwt>
</event>
<event>
12    3  0.1201947E-007  0.8317857E+03  0.7818608E-02  0.9515115E-01
          1   -1    0    0  501    0  0.00000000000E+00  0.00000000000E+00  0.10797654544E+04  0.10797654544E+04  0.00000000000E+00 0. -1.
         -2   -1    0    0    0  501 -0.00000000000E+00 -0.00000000000E+00 -0.99161909541E+03  0.99161909541E+03  0.00000000000E+00 0.  1.
        -24    2    1    2    0    0  0.21709273276E+03  0.79299973087E+03  0.50853531288E+03  0.97012259047E+03  0.80943488397E+02 0.  0.
    5000000    2    1    2    0    0 -0.21709273276E+03 -0.79299973087E+03 -0.42038895384E+03  0.11012619594E+04  0.60006099932E+03 0.  0.
        -24    2    4    4    0    0 -0.74045034026E+01 -0.18343599250E+03  0.13996460098E+03  0.24349212569E+03  0.77425678756E+02 0.  0.
         24    2    4    4    0    0 -0.20968822936E+03 -0.60956373836E+03 -0.56035355483E+03  0.85776983369E+03  0.78967566257E+02 0.  0.
         13    1    3    3    0    0  0.78298118498E+02  0.43767790611E+03  0.26789421540E+03  0.51909522778E+03  0.00000000000E+00 0. -1.
        -14    1    3    3    0    0  0.13879461426E+03  0.35532182476E+03  0.24064109748E+03  0.45102736268E+03  0.00000000000E+00 0.  1.
         15    1    5    5    0    0 -0.18105048113E+02 -0.36529809270E+02  0.68596498423E+02  0.79817648784E+02  0.17770000000E+01 0. -1.
        -16    1    5    5    0    0  0.10700544710E+02 -0.14690618323E+03  0.71368102562E+02  0.16367447691E+03  0.00000000000E+00 0.  1.
          4    1    6    6  502    0 -0.15107296253E+03 -0.31911232640E+03 -0.29850297439E+03  0.46234158648E+03  0.00000000000E+00 0. -1.
         -3    1    6    6    0  502 -0.58615266829E+02 -0.29045141196E+03 -0.26185058043E+03  0.39542824721E+03  0.00000000000E+00 0.  1.
<mgrwt>
<rscale>  0 0.83178569E+03</rscale>
<asrwt>0</asrwt>
<pdfrwt beam="1">  1        1 0.16611776E+00 0.83178569E+03</pdfrwt>
<pdfrwt beam="2">  1       -2 0.15255678E+00 0.83178569E+03</pdfrwt>
<totfact> 0.33514678E+00</totfact>
</mgrwt>
</event>
<event>
12    3  0.1201947E-007  0.7347167E+03  0.7818608E-02  0.9659637E-01
         -2   -1    0    0    0  501 -0.00000000000E+00  0.00000000000E+00  0.24712647600E+03  0.24712647600E+03  0.00000000000E+00 0.  1.
          1   -1    0    0  501    0  0.00000000000E+00 -0.00000000000E+00 -0.23479812531E+04  0.23479812531E+04  0.00000000000E+00 0. -1.
        -24    2    1    2    0    0  0.28325381294E+03  0.54639288434E+03 -0.59296383300E+03  0.85946984994E+03  0.91128530693E+02 0.  0.
    5000000    2    1    2    0    0 -0.28325381294E+03 -0.54639288434E+03 -0.15078909441E+04  0.17356378792E+04  0.59993819822E+03 0.  0.
        -24    2    4    4    0    0  0.17598577473E+03 -0.19831044008E+03 -0.51672415348E+03  0.58631512930E+03  0.80396246836E+02 0.  0.
         24    2    4    4    0    0 -0.45923958767E+03 -0.34808244426E+03 -0.99116679063E+03  0.11493227499E+04  0.80428786156E+02 0.  0.
         13    1    3    3    0    0  0.93840391740E+02  0.17939788533E+03 -0.25645816387E+03  0.32674211574E+03  0.00000000000E+00 0. -1.
        -14    1    3    3    0    0  0.18941342120E+03  0.36699499901E+03 -0.33650566913E+03  0.53272773420E+03  0.00000000000E+00 0.  1.
         15    1    5    5    0    0  0.16219652640E+02 -0.70768588097E+02 -0.13650045332E+03  0.15461824497E+03  0.17770000000E+01 0. -1.
        -16    1    5    5    0    0  0.15976612209E+03 -0.12754185198E+03 -0.38022370016E+03  0.43169688433E+03  0.00000000000E+00 0.  1.
          4    1    6    6  502    0 -0.37484635424E+03 -0.29729532511E+03 -0.76004804177E+03  0.89809093383E+03  0.00000000000E+00 0. -1.
         -3    1    6    6    0  502 -0.84393233427E+02 -0.50787119147E+02 -0.23111874886E+03  0.25123181604E+03  0.00000000000E+00 0.  1.
<mgrwt>
<rscale>  0 0.73471667E+03</rscale>
<asrwt>0</asrwt>
<pdfrwt beam="1">  1        1 0.36122788E+00 0.73471667E+03</pdfrwt>
<pdfrwt beam="2">  1       -2 0.38019458E-01 0.73471667E+03</pdfrwt>
<totfact> 0.10389030E+01</totfact>
</mgrwt>
</event>
<event>
12    3  0.1201947E-007  0.6887410E+03  0.7818608E-02  0.9736683E-01
          1   -1    0    0  501    0  0.00000000000E+00  0.00000000000E+00  0.38304876452E+04  0.38304876452E+04  0.00000000000E+00 0. -1.
         -2   -1    0    0    0  501 -0.00000000000E+00 -0.00000000000E+00 -0.17164279179E+03  0.17164279179E+03  0.00000000000E+00 0.  1.
        -24    2    1    2    0    0  0.67685431150E+03 -0.61939509783E+02  0.19681512561E+04  0.20836898886E+04  0.78587042352E+02 0.  0.
    5000000    2    1    2    0    0 -0.67685431150E+03  0.61939509783E+02  0.16906935973E+04  0.19184405483E+04  0.60000086310E+03 0.  0.
        -24    2    4    4    0    0 -0.25173707047E+03  0.67083057712E+02  0.13224610264E+04  0.13502118256E+04  0.79354384470E+02 0.  0.
         24    2    4    4    0    0 -0.42511724103E+03 -0.51435479297E+01  0.36823257084E+03  0.56822872270E+03  0.80854995933E+02 0.  0.
         11    1    3    3    0    0  0.35626176554E+03 -0.76687349382E+01  0.11213430542E+04  0.11766016744E+04  0.00000000000E+00 0. -1.
        -12    1    3    3    0    0  0.32059254596E+03 -0.54270774844E+02  0.84680820190E+03  0.90708821419E+03  0.00000000000E+00 0.  1.
         15    1    5    5    0    0 -0.14749963719E+03  0.12459865031E+02  0.58609375059E+03  0.60450015171E+03  0.17770000000E+01 0. -1.
        -16    1    5    5    0    0 -0.10423743327E+03  0.54623192682E+02  0.73636727585E+03  0.74571167392E+03  0.00000000000E+00 0.  1.
          2    1    6    6  502    0 -0.32049622307E+03 -0.32465353695E+02  0.24811803510E+03  0.40661331451E+03  0.00000000000E+00 0. -1.
         -1    1    6    6    0  502 -0.10462101796E+03  0.27321805765E+02  0.12011453574E+03  0.16161540819E+03  0.00000000000E+00 0.  1.
<mgrwt>
<rscale>  0 0.68874100E+03</rscale>
<asrwt>0</asrwt>
<pdfrwt beam="1">  1        1 0.58930573E+00 0.68874100E+03</pdfrwt>
<pdfrwt beam="2">  1       -2 0.26406586E-01 0.68874100E+03</pdfrwt>
<totfact> 0.16980530E+00</totfact>
</mgrwt>
</event>
<event>
12    3  0.1201947E-007  0.1167493E+04  0.7818608E-02  0.9141796E-01
          1   -1    0    0  501    0  0.00000000000E+00  0.00000000000E+00  0.37675567040E+03  0.37675567040E+03  0.00000000000E+00 0. -1.
         -2   -1    0    0    0  501 -0.00000000000E+00 -0.00000000000E+00 -0.39917746586E+04  0.39917746586E+04  0.00000000000E+00 0.  1.
        -24    2    1    2    0    0  0.97336353550E+03 -0.50302440347E+03 -0.23315310288E+04  0.25775007625E+04  0.83684642581E+02 0.  0.
    5000000    2    1    2    0    0 -0.97336353550E+03  0.50302440347E+03 -0.12834879594E+04  0.17910295666E+04  0.59997953600E+03 0.  0.
        -24    2    4    4    0    0 -0.14186769629E+03  0.36324112977E+03 -0.34283024748E+03  0.52521629303E+03  0.79050706953E+02 0.  0.
         24    2    4    4    0    0 -0.83149583921E+03  0.13978327370E+03 -0.94065771194E+03  0.12658132735E+04  0.80756536596E+02 0.  0.
         13    1    3    3    0    0  0.69052691077E+03 -0.32295959443E+03 -0.15618651353E+04  0.17379738246E+04  0.00000000000E+00 0. -1.
        -14    1    3    3    0    0  0.28283662473E+03 -0.18006480904E+03 -0.76966589351E+03  0.83952693785E+03  0.00000000000E+00 0.  1.
         15    1    5    5    0    0 -0.38856865892E+02  0.12190367662E+03 -0.66727384322E+02  0.14431238321E+03  0.17770000000E+01 0. -1.
        -16    1    5    5    0    0 -0.10301083039E+03  0.24133745315E+03 -0.27610286316E+03  0.38090390982E+03  0.00000000000E+00 0.  1.
          4    1    6    6  502    0 -0.27422156062E+03  0.78443699184E+01 -0.30206157272E+03  0.40804435073E+03  0.00000000000E+00 0. -1.
         -3    1    6    6    0  502 -0.55727427860E+03  0.13193890378E+03 -0.63859613922E+03  0.85776892281E+03  0.00000000000E+00 0.  1.
<mgrwt>
<rscale>  0 0.11674925E+04</rscale>
<asrwt>0</asrwt>
<pdfrwt beam="1">  1        1 0.57962406E-01 0.11674925E+04</pdfrwt>
<pdfrwt beam="2">  1       -2 0.61411923E+00 0.11674925E+04</pdfrwt>
<totfact> 0.24627890E-02</totfact>
</mgrwt>
</event>
<event>
12    3  0.1201947E-007  0.1009328E+04  0.7818608E-02  0.9298372E-01
         -2   -1    0    0    0  501 -0.00000000000E+00  0.00000000000E+00  0.12994842143E+04  0.12994842143E+04  0.00000000000E+00 0.  1.
          1   -1    0    0  501    0  0.00000000000E+00 -0.00000000000E+00 -0.13809927893E+04  0.13809927893E+04  0.00000000000E+00 0. -1.
        -24    2    1    2    0    0 -0.74933783049E+03 -0.64398282775E+03 -0.83889580680E+03  0.12985554268E+04  0.79239858028E+02 0.  0.
    5000000    2    1    2    0    0  0.74933783049E+03  0.64398282775E+03  0.75738723184E+03  0.13819215768E+04  0.59987561954E+03 0.  0.
        -24    2    4    4    0    0  0.22398104575E+03  0.37937925277E+03  0.63462146364E+03  0.77652343798E+03  0.78409956849E+02 0.  0.
         24    2    4    4    0    0  0.52535678474E+03  0.26460357498E+03  0.12276576820E+03  0.60539813885E+03  0.73625196188E+02 0.  0.
         11    1    3    3    0    0 -0.44474069718E+03 -0.41300705069E+03 -0.55456512445E+03  0.82213842442E+03  0.00000000000E+00 0. -1.
        -12    1    3    3    0    0 -0.30459713332E+03 -0.23097577706E+03 -0.28433068235E+03  0.47641700236E+03  0.00000000000E+00 0.  1.
         15    1    5    5    0    0  0.27054410582E+02  0.57803812532E+02  0.14574866372E+03  0.15911961721E+03  0.17770000000E+01 0. -1.
        -16    1    5    5    0    0  0.19692663517E+03  0.32157544024E+03  0.48887279992E+03  0.61740382077E+03  0.00000000000E+00 0.  1.
          4    1    6    6  502    0  0.79820260880E+02  0.32823138933E+02 -0.72864408543E+01  0.86612497462E+02  0.00000000000E+00 0. -1.
         -3    1    6    6    0  502  0.44553652386E+03  0.23178043605E+03  0.13005220905E+03  0.51878564139E+03  0.00000000000E+00 0.  1.
<mgrwt>
<rscale>  0 0.10093284E+04</rscale>
<asrwt>0</asrwt>
<pdfrwt beam="1">  1        1 0.21246043E+00 0.10093284E+04</pdfrwt>
<pdfrwt beam="2">  1       -2 0.19992065E+00 0.10093284E+04</pdfrwt>
<totfact> 0.92266560E-01</totfact>
</mgrwt>
</event>
<event>
12    3  0.1201947E-007  0.5019075E+03  0.7818608E-02  0.1013282E+00
          1   -1    0    0  501    0  0.00000000000E+00  0.00000000000E+00  0.39786929932E+03  0.39786929932E+03  0.00000000000E+00 0. -1.
         -2   -1    0    0    0  501 -0.00000000000E+00 -0.00000000000E+00 -0.81515186951E+03  0.81515186951E+03  0.00000000000E+00 0.  1.
        -24    2    1    2    0    0 -0.34102134014E+03  0.21278941024E+03 -0.83943432696E+02  0.41760213874E+03  0.75961561668E+02 0.  0.
    5000000    2    1    2    0    0  0.34102134014E+03 -0.21278941024E+03 -0.33333913749E+03  0.79541903009E+03  0.60000130442E+03 0.  0.
        -24    2    4    4    0    0 -0.36956055610E+02  0.80317792355E+02  0.91743472858E+02  0.15072384291E+03  0.80523997622E+02 0.  0.
         24    2    4    4    0    0  0.37797739575E+03 -0.29310720259E+03 -0.42508261035E+03  0.64469518718E+03  0.78472382701E+02 0.  0.
         11    1    3    3    0    0 -0.75064473359E+02  0.60632923989E+02 -0.51790207564E+02  0.10951370796E+03  0.00000000000E+00 0. -1.
        -12    1    3    3    0    0 -0.26595686678E+03  0.15215648625E+03 -0.32153225132E+02  0.30808843078E+03  0.00000000000E+00 0.  1.
         15    1    5    5    0    0 -0.28219048658E+01 -0.16101452754E+02  0.19462155103E+02  0.25478483827E+02  0.17770000000E+01 0. -1.
        -16    1    5    5    0    0 -0.34134150744E+02  0.96419245109E+02  0.72281317755E+02  0.12524535908E+03  0.00000000000E+00 0.  1.
          2    1    6    6  502    0  0.14813106405E+03 -0.15323516882E+03 -0.15557609217E+03  0.26387070613E+03  0.00000000000E+00 0. -1.
         -1    1    6    6    0  502  0.22984633170E+03 -0.13987203378E+03 -0.26950651818E+03  0.38082448105E+03  0.00000000000E+00 0.  1.
<mgrwt>
<rscale>  0 0.50190748E+03</rscale>
<asrwt>0</asrwt>
<pdfrwt beam="1">  1        1 0.61210662E-01 0.50190748E+03</pdfrwt>
<pdfrwt beam="2">  1       -2 0.12540798E+00 0.50190748E+03</pdfrwt>
<totfact> 0.26143272E+01</totfact>
</mgrwt>
</event>
<event>
12    3  0.1201947E-007  0.8235214E+03  0.7818608E-02  0.9526581E-01
         -2   -1    0    0    0  501 -0.00000000000E+00  0.00000000000E+00  0.44244374021E+03  0.44244374021E+03  0.00000000000E+00 0.  1.
          1   -1    0    0  501    0  0.00000000000E+00 -0.00000000000E+00 -0.19469925367E+04  0.19469925367E+04  0.00000000000E+00 0. -1.
        -24    2    1    2    0    0  0.21489578167E+03 -0.73764867216E+03 -0.10760571797E+04  0.13246471500E+04  0.80531096807E+02 0.  0.
    5000000    2    1    2    0    0 -0.21489578167E+03  0.73764867216E+03 -0.42849161680E+03  0.10647891269E+04  0.59988753827E+03 0.  0.
        -24    2    4    4    0    0  0.12071601517E+03  0.19438840033E+03  0.67295888503E+02  0.25206305132E+03  0.81534279479E+02 0.  0.
         24    2    4    4    0    0 -0.33561179684E+03  0.54326027182E+03 -0.49578750530E+03  0.81272607557E+03  0.83375190455E+02 0.  0.
         13    1    3    3    0    0  0.70188341468E+02 -0.13627157906E+03 -0.19186624750E+03  0.24557891495E+03  0.00000000000E+00 0. -1.
        -14    1    3    3    0    0  0.14470744020E+03 -0.60137709309E+03 -0.88419093222E+03  0.10790682351E+04  0.00000000000E+00 0.  1.
         15    1    5    5    0    0  0.76572582026E+02  0.73808890482E+02 -0.15202353078E+01  0.10637942224E+03  0.17770000000E+01 0. -1.
        -16    1    5    5    0    0  0.44143433146E+02  0.12057950985E+03  0.68816123811E+02  0.14568362908E+03  0.00000000000E+00 0.  1.
          4    1    6    6  502    0 -0.83491109930E+02  0.17810373464E+03 -0.19264846623E+03  0.27532732751E+03  0.00000000000E+00 0. -1.
         -1    1    6    6    0  502 -0.25212068691E+03  0.36515653718E+03 -0.30313903907E+03  0.53739874807E+03  0.00000000000E+00 0.  1.
<mgrwt>
<rscale>  0 0.82352142E+03</rscale>
<asrwt>0</asrwt>
<pdfrwt beam="1">  1        1 0.29953731E+00 0.82352142E+03</pdfrwt>
<pdfrwt beam="2">  1       -2 0.68068268E-01 0.82352142E+03</pdfrwt>
<totfact> 0.57876568E+00</totfact>
</mgrwt>
</event>
<event>
12    3  0.1201947E-007  0.7928541E+03  0.7818608E-02  0.9570418E-01
         -2   -1    0    0    0  501 -0.00000000000E+00  0.00000000000E+00  0.13811586217E+04  0.13811586217E+04  0.00000000000E+00 0.  1.
          1   -1    0    0  501    0  0.00000000000E+00 -0.00000000000E+00 -0.78538315839E+03  0.78538315839E+03  0.00000000000E+00 0. -1.
        -24    2    1    2    0    0  0.69856266185E+03 -0.28761330428E+02 -0.40041704075E+03  0.80962701658E+03  0.79656090736E+02 0.  0.
    5000000    2    1    2    0    0 -0.69856266185E+03  0.28761330428E+02  0.99619250411E+03  0.13569147636E+04  0.60000096973E+03 0.  0.
        -24    2    4    4    0    0 -0.69275269993E+03  0.19351307194E+03  0.88179083918E+03  0.11408018323E+04  0.80747285949E+02 0.  0.
         24    2    4    4    0    0 -0.58099619162E+01 -0.16475174151E+03  0.11440166493E+03  0.21611293129E+03  0.80250645741E+02 0.  0.
         11    1    3    3    0    0  0.95333509714E+02  0.91179809896E+01 -0.28374930836E+02  0.99883694123E+02  0.00000000000E+00 0. -1.
        -12    1    3    3    0    0  0.60322915213E+03 -0.37879311418E+02 -0.37204210992E+03  0.70974332245E+03  0.00000000000E+00 0.  1.
         15    1    5    5    0    0 -0.56974159058E+03  0.15521551015E+03  0.76902006748E+03  0.96958359957E+03  0.17770000000E+01 0. -1.
        -16    1    5    5    0    0 -0.12301110935E+03  0.38297561795E+02  0.11277077170E+03  0.17121823271E+03  0.00000000000E+00 0.  1.
          2    1    6    6  502    0  0.48132493967E+01 -0.12308801334E+03  0.12093324181E+03  0.17262292829E+03  0.00000000000E+00 0. -1.
         -1    1    6    6    0  502 -0.10623211313E+02 -0.41663728177E+02 -0.65315768796E+01  0.43490002998E+02  0.00000000000E+00 0.  1.
<mgrwt>
<rscale>  0 0.79285412E+03</rscale>
<asrwt>0</asrwt>
<pdfrwt beam="1">  1        1 0.12082818E+00 0.79285412E+03</pdfrwt>
<pdfrwt beam="2">  1       -2 0.21248594E+00 0.79285412E+03</pdfrwt>
<totfact> 0.22558278E+00</totfact>
</mgrwt>
</event>
<event>
12    3  0.1201947E-007  0.3915554E+03  0.7818608E-02  0.1046744E+00
          1   -1    0    0  501    0  0.00000000000E+00  0.00000000000E+00  0.79967345692E+03  0.79967345692E+03  0.00000000000E+00 0. -1.
         -2   -1    0    0    0  501 -0.00000000000E+00 -0.00000000000E+00 -0.23002622174E+03  0.23002622174E+03  0.00000000000E+00 0.  1.
        -24    2    1    2    0    0  0.16805300906E+03 -0.41804669714E+02  0.28495787502E+03  0.34322181488E+03  0.81306699663E+02 0.  0.
    5000000    2    1    2    0    0 -0.16805300906E+03  0.41804669714E+02  0.28468936017E+03  0.68647786378E+03  0.60017862458E+03 0.  0.
        -24    2    4    4    0    0 -0.34867958711E+03 -0.94159690806E+02  0.92831291802E+02  0.37937285341E+03  0.69732426670E+02 0.  0.
         24    2    4    4    0    0  0.18062657804E+03  0.13596436052E+03  0.19185806837E+03  0.30710501037E+03  0.79948114220E+02 0.  0.
         13    1    3    3    0    0  0.12790221227E+03 -0.10665087994E+02  0.25158295000E+03  0.28242999263E+03  0.00000000000E+00 0. -1.
        -14    1    3    3    0    0  0.40150796791E+02 -0.31139581721E+02  0.33374925019E+02  0.60791822252E+02  0.00000000000E+00 0.  1.
         15    1    5    5    0    0 -0.33752868039E+03 -0.79860441839E+02  0.98157255920E+02  0.36047372286E+03  0.17770000000E+01 0. -1.
        -16    1    5    5    0    0 -0.11150906717E+02 -0.14299248968E+02 -0.53259641176E+01  0.18899130547E+02  0.00000000000E+00 0.  1.
          4    1    6    6  502    0  0.83117791340E+02  0.11035086649E+03  0.98192568778E+02  0.16949236424E+03  0.00000000000E+00 0. -1.
         -3    1    6    6    0  502  0.97508786704E+02  0.25613494031E+02  0.93665499589E+02  0.13761264613E+03  0.00000000000E+00 0.  1.
<mgrwt>
<rscale>  0 0.39155544E+03</rscale>
<asrwt>0</asrwt>
<pdfrwt beam="1">  1        1 0.12302668E+00 0.39155544E+03</pdfrwt>
<pdfrwt beam="2">  1       -2 0.35388650E-01 0.39155544E+03</pdfrwt>
<totfact> 0.15173411E+02</totfact>
</mgrwt>
</event>
<event>
12    3  0.1201947E-007  0.7715606E+03  0.7818608E-02  0.9602119E-01
         -2   -1    0    0    0  501 -0.00000000000E+00  0.00000000000E+00  0.81291447181E+03  0.81291447181E+03  0.00000000000E+00 0.  1.
          1   -1    0    0  501    0  0.00000000000E+00 -0.00000000000E+00 -0.91633244861E+03  0.91633244861E+03  0.00000000000E+00 0. -1.
        -24    2    1    2    0    0  0.71571906364E+03  0.60461687387E+00 -0.29091879414E+03  0.77669499776E+03  0.79794931766E+02 0.  0.
    5000000    2    1    2    0    0 -0.71571906364E+03 -0.60461687387E+00  0.18750081735E+03  0.95255192266E+03  0.59995371924E+03 0.  0.
        -24    2    4    4    0    0 -0.12183050700E+03 -0.16198085737E+03 -0.13208875918E+03  0.25449217801E+03  0.78983275290E+02 0.  0.
         24    2    4    4    0    0 -0.59388855664E+03  0.16137624050E+03  0.31958957652E+03  0.69805974465E+03  0.80025002124E+02 0.  0.
         11    1    3    3    0    0  0.37852924310E+03 -0.38437957725E+02 -0.14383539380E+03  0.40675605095E+03  0.00000000000E+00 0. -1.
        -12    1    3    3    0    0  0.33718982055E+03  0.39042574599E+02 -0.14708340034E+03  0.36993894681E+03  0.00000000000E+00 0.  1.
         15    1    5    5    0    0 -0.10017096948E+03 -0.13424251171E+03 -0.66824735345E+02  0.18034405469E+03  0.17770000000E+01 0. -1.
        -16    1    5    5    0    0 -0.21659537517E+02 -0.27738345661E+02 -0.65264023832E+02  0.74148123322E+02  0.00000000000E+00 0.  1.
          2    1    6    6  502    0 -0.31107966145E+03  0.43477642037E+02  0.15547481453E+03  0.35047578957E+03  0.00000000000E+00 0. -1.
         -3    1    6    6    0  502 -0.28280889520E+03  0.11789859846E+03  0.16411476199E+03  0.34758395508E+03  0.00000000000E+00 0.  1.
<mgrwt>
<rscale>  0 0.77156065E+03</rscale>
<asrwt>0</asrwt>
<pdfrwt beam="1">  1        1 0.14097422E+00 0.77156065E+03</pdfrwt>
<pdfrwt beam="2">  1       -2 0.12506376E+00 0.77156065E+03</pdfrwt>
<totfact> 0.75602537E+00</totfact>
</mgrwt>
</event>
<event>
12    3  0.1201947E-007  0.9632598E+03  0.7818608E-02  0.9349785E-01
         -2   -1    0    0    0  501 -0.00000000000E+00  0.00000000000E+00  0.81075052849E+03  0.81075052849E+03  0.00000000000E+00 0.  1.
          1   -1    0    0  501    0  0.00000000000E+00 -0.00000000000E+00 -0.23296883116E+04  0.23296883116E+04  0.00000000000E+00 0. -1.
        -24    2    1    2    0    0 -0.93827109675E+03  0.50950725155E+02 -0.17628908509E+04  0.19991988237E+04  0.77866277547E+02 0.  0.
    5000000    2    1    2    0    0  0.93827109675E+03 -0.50950725155E+02  0.24395306776E+03  0.11412400164E+04  0.59997253968E+03 0.  0.
        -24    2    4    4    0    0  0.42379266616E+03 -0.14496625073E+03  0.37948749729E+03  0.59520734891E+03  0.98211963909E+02 0.  0.
         24    2    4    4    0    0  0.51447843059E+03  0.94015525575E+02 -0.13553442953E+03  0.54603266749E+03  0.79089302606E+02 0.  0.
         13    1    3    3    0    0 -0.64189609350E+03  0.66948035586E+02 -0.11715457164E+04  0.13375470085E+04  0.00000000000E+00 0. -1.
        -14    1    3    3    0    0 -0.29637500325E+03 -0.15997310430E+02 -0.59134513444E+03  0.66165181517E+03  0.00000000000E+00 0.  1.
         15    1    5    5    0    0  0.26951265970E+03 -0.42740149899E+02  0.21132639892E+03  0.34514605424E+03  0.17770000000E+01 0. -1.
        -16    1    5    5    0    0  0.15428000647E+03 -0.10222610083E+03  0.16816109837E+03  0.25006129467E+03  0.00000000000E+00 0.  1.
          4    1    6    6  502    0  0.79590329000E+02  0.36982001206E+02 -0.29208583198E+01  0.87811276593E+02  0.00000000000E+00 0. -1.
         -3    1    6    6    0  502  0.43488810158E+03  0.57033524368E+02 -0.13261357121E+03  0.45822139089E+03  0.00000000000E+00 0.  1.
<mgrwt>
<rscale>  0 0.96325982E+03</rscale>
<asrwt>0</asrwt>
<pdfrwt beam="1">  1        1 0.35841358E+00 0.96325982E+03</pdfrwt>
<pdfrwt beam="2">  1       -2 0.12473085E+00 0.96325982E+03</pdfrwt>
<totfact> 0.76241204E-01</totfact>
</mgrwt>
</event>
<event>
12    3  0.1201947E-007  0.5688980E+03  0.7818608E-02  0.9972120E-01
         -2   -1    0    0    0  501 -0.00000000000E+00  0.00000000000E+00  0.54844235329E+03  0.54844235329E+03  0.00000000000E+00 0.  1.
          1   -1    0    0  501    0  0.00000000000E+00 -0.00000000000E+00 -0.75343249669E+03  0.75343249669E+03  0.00000000000E+00 0. -1.
        -24    2    1    2    0    0 -0.86605629157E+02 -0.43328516990E+03  0.15431073621E+03  0.47453656599E+03  0.78336298665E+02 0.  0.
    5000000    2    1    2    0    0  0.86605629157E+02  0.43328516990E+03 -0.35930087961E+03  0.82733828399E+03  0.60012910328E+03 0.  0.
        -24    2    4    4    0    0  0.14875659940E+03  0.53273099197E+03 -0.40061199092E+03  0.68762829516E+03  0.80074149202E+02 0.  0.
         24    2    4    4    0    0 -0.62150970238E+02 -0.99445822065E+02  0.41311111312E+02  0.13970998882E+03  0.63718587802E+02 0.  0.
         13    1    3    3    0    0 -0.98631588873E+02 -0.34357018630E+03  0.13422047068E+03  0.38181644541E+03  0.00000000000E+00 0. -1.
        -14    1    3    3    0    0  0.12025959716E+02 -0.89714983609E+02  0.20090265528E+02  0.92720120578E+02  0.00000000000E+00 0.  1.
         15    1    5    5    0    0  0.11610522095E+03  0.26807716603E+03 -0.21489344066E+03  0.36266808220E+03  0.17770000000E+01 0. -1.
        -16    1    5    5    0    0  0.32651378449E+02  0.26465382594E+03 -0.18571855026E+03  0.32496021296E+03  0.00000000000E+00 0.  1.
          2    1    6    6  502    0 -0.15249828702E+00 -0.54376055092E+02  0.30373851695E+02  0.62284424136E+02  0.00000000000E+00 0. -1.
         -1    1    6    6    0  502 -0.61998471951E+02 -0.45069766972E+02  0.10937259617E+02  0.77425564687E+02  0.00000000000E+00 0.  1.
<mgrwt>
<rscale>  0 0.56889804E+03</rscale>
<asrwt>0</asrwt>
<pdfrwt beam="1">  1        1 0.11591269E+00 0.56889804E+03</pdfrwt>
<pdfrwt beam="2">  1       -2 0.84375747E-01 0.56889804E+03</pdfrwt>
<totfact> 0.27134811E+01</totfact>
</mgrwt>
</event>
<event>
12    3  0.1578839E-007  0.1694615E+04  0.7818608E-02  0.8764441E-01
         -2   -1    0    0    0  501 -0.00000000000E+00  0.00000000000E+00  0.96569448639E+03  0.96569448639E+03  0.00000000000E+00 0.  1.
          1   -1    0    0  501    0  0.00000000000E+00 -0.00000000000E+00 -0.33340285611E+04  0.33340285611E+04  0.00000000000E+00 0. -1.
        -24    2    1    2    0    0 -0.14711941049E+04 -0.83347630199E+03 -0.64076044102E+03  0.18090498985E+04  0.54706051798E+02 0.  0.
    5000000    2    1    2    0    0  0.14711941049E+04  0.83347630199E+03 -0.17275736337E+04  0.24906731490E+04  0.59987268235E+03 0.  0.
        -24    2    4    4    0    0  0.55897428960E+03  0.28679036723E+03 -0.27958436189E+03  0.69227981989E+03  0.79893444324E+02 0.  0.
         24    2    4    4    0    0  0.91221981531E+03  0.54668593476E+03 -0.14479892718E+04  0.17983933291E+04  0.80840164667E+02 0.  0.
         11    1    3    3    0    0 -0.10258026155E+04 -0.57950963215E+03 -0.41948962452E+03  0.12506294275E+04  0.00000000000E+00 0. -1.
        -12    1    3    3    0    0 -0.44539148939E+03 -0.25396666984E+03 -0.22127081650E+03  0.55842047101E+03  0.00000000000E+00 0.  1.
         15    1    5    5    0    0  0.30824143835E+03  0.19749388889E+03 -0.18162984379E+03  0.40866756459E+03  0.17770000000E+01 0. -1.
        -16    1    5    5    0    0  0.25073285125E+03  0.89296478340E+02 -0.97954518097E+02  0.28361225530E+03  0.00000000000E+00 0.  1.
          2    1    6    6  502    0  0.34293842876E+03  0.24800376862E+03 -0.60086547637E+03  0.73495030843E+03  0.00000000000E+00 0. -1.
         -1    1    6    6    0  502  0.56928138655E+03  0.29868216614E+03 -0.84712379545E+03  0.10634430207E+04  0.00000000000E+00 0.  1.
<mgrwt>
<rscale>  0 0.16946152E+04</rscale>
<asrwt>0</asrwt>
<pdfrwt beam="1">  1        1 0.51292746E+00 0.16946152E+04</pdfrwt>
<pdfrwt beam="2">  1       -2 0.14856839E+00 0.16946152E+04</pdfrwt>
<totfact> 0.84354814E-02</totfact>
</mgrwt>
</event>
<event>
12    3  0.1201947E-007  0.1097238E+04  0.7818608E-02  0.9207889E-01
         -2   -1    0    0    0  501 -0.00000000000E+00  0.00000000000E+00  0.10144326363E+04  0.10144326363E+04  0.00000000000E+00 0.  1.
          1   -1    0    0  501    0  0.00000000000E+00 -0.00000000000E+00 -0.19634569196E+04  0.19634569196E+04  0.00000000000E+00 0. -1.
        -24    2    1    2    0    0  0.70572427515E+03  0.74531301195E+03 -0.13726203343E+04  0.17157684650E+04  0.78972177773E+02 0.  0.
    5000000    2    1    2    0    0 -0.70572427515E+03 -0.74531301195E+03  0.42359605102E+03  0.12621210910E+04  0.59998149604E+03 0.  0.
        -24    2    4    4    0    0 -0.22298636637E+03  0.53076086606E+02  0.15495228424E+03  0.28797187669E+03  0.79859882419E+02 0.  0.
         24    2    4    4    0    0 -0.48273790878E+03 -0.79838909855E+03  0.26864376678E+03  0.97414921430E+03  0.79600107022E+02 0.  0.
         11    1    3    3    0    0  0.50630663886E+03  0.56525331478E+03 -0.10585493900E+04  0.13024532750E+04  0.00000000000E+00 0. -1.
        -12    1    3    3    0    0  0.19941763629E+03  0.18005969717E+03 -0.31407094428E+03  0.41331518996E+03  0.00000000000E+00 0.  1.
         15    1    5    5    0    0 -0.80113744946E+02 -0.31823150197E+01  0.91923043554E+02  0.12198910986E+03  0.17770000000E+01 0. -1.
        -16    1    5    5    0    0 -0.14287262143E+03  0.56258401625E+02  0.63029240682E+02  0.16598276684E+03  0.00000000000E+00 0.  1.
          4    1    6    6  502    0 -0.40070993305E+03 -0.67667291666E+03  0.19648002106E+03  0.81059181174E+03  0.00000000000E+00 0. -1.
         -1    1    6    6    0  502 -0.82027975730E+02 -0.12171618189E+03  0.72163745717E+02  0.16355740256E+03  0.00000000000E+00 0.  1.
<mgrwt>
<rscale>  0 0.10972375E+04</rscale>
<asrwt>0</asrwt>
<pdfrwt beam="1">  1        1 0.30207029E+00 0.10972375E+04</pdfrwt>
<pdfrwt beam="2">  1       -2 0.15606656E+00 0.10972375E+04</pdfrwt>
<totfact> 0.73816270E-01</totfact>
</mgrwt>
</event>
<event>
12    3  0.1377247E-007  0.8617975E+03  0.7818608E-02  0.9474638E-01
         -2   -1    0    0    0  501 -0.00000000000E+00  0.00000000000E+00  0.49111052646E+03  0.49111052646E+03  0.00000000000E+00 0.  1.
          1   -1    0    0  501    0  0.00000000000E+00 -0.00000000000E+00 -0.17862147268E+04  0.17862147268E+04  0.00000000000E+00 0. -1.
        -24    2    1    2    0    0 -0.63518821976E+03  0.54584533411E+03 -0.53346103674E+03  0.99614713023E+03  0.79480966678E+02 0.  0.
    5000000    2    1    2    0    0  0.63518821976E+03 -0.54584533411E+03 -0.76164316358E+03  0.12811781230E+04  0.59992155400E+03 0.  0.
        -24    2    4    4    0    0  0.32692010135E+03 -0.12114423669E+03 -0.64535474753E+03  0.73778301197E+03  0.79299078413E+02 0.  0.
         24    2    4    4    0    0  0.30826811841E+03 -0.42470109742E+03 -0.11628841604E+03  0.54339511104E+03  0.79718228866E+02 0.  0.
         13    1    3    3    0    0 -0.50904761155E+03  0.39307566037E+03 -0.40672769887E+03  0.76096344632E+03  0.00000000000E+00 0. -1.
        -14    1    3    3    0    0 -0.12614060821E+03  0.15276967374E+03 -0.12673333786E+03  0.23518368391E+03  0.00000000000E+00 0.  1.
         15    1    5    5    0    0  0.16006466895E+03 -0.17313115086E+02 -0.29417150024E+03  0.33535126581E+03  0.17770000000E+01 0. -1.
        -16    1    5    5    0    0  0.16685543240E+03 -0.10383112160E+03 -0.35118324730E+03  0.40243174616E+03  0.00000000000E+00 0.  1.
          2    1    6    6  502    0  0.56545829804E+02 -0.75400896441E+02  0.98107448532E+01  0.94757462856E+02  0.00000000000E+00 0. -1.
         -1    1    6    6    0  502  0.25172228861E+03 -0.34930020098E+03 -0.12609916090E+03  0.44863764818E+03  0.00000000000E+00 0.  1.
<mgrwt>
<rscale>  0 0.86179747E+03</rscale>
<asrwt>0</asrwt>
<pdfrwt beam="1">  1        1 0.27480227E+00 0.86179747E+03</pdfrwt>
<pdfrwt beam="2">  1       -2 0.75555466E-01 0.86179747E+03</pdfrwt>
<totfact> 0.58678607E+00</totfact>
</mgrwt>
</event>
<event>
12    3  0.1201947E-007  0.7041100E+03  0.7818608E-02  0.9710229E-01
          1   -1    0    0  501    0  0.00000000000E+00  0.00000000000E+00  0.22212106387E+03  0.22212106387E+03  0.00000000000E+00 0. -1.
         -2   -1    0    0    0  501 -0.00000000000E+00 -0.00000000000E+00 -0.30161043669E+04  0.30161043669E+04  0.00000000000E+00 0.  1.
        -24    2    1    2    0    0  0.66481059460E+03 -0.15016993814E+03 -0.15784616643E+04  0.17209909377E+04  0.75792116475E+02 0.  0.
    5000000    2    1    2    0    0 -0.66481059460E+03  0.15016993814E+03 -0.12155216387E+04  0.15172344931E+04  0.59998626301E+03 0.  0.
        -24    2    4    4    0    0 -0.54919987186E+02  0.23394865067E+02 -0.69450599470E+03  0.70119144896E+03  0.75943049131E+02 0.  0.
         24    2    4    4    0    0 -0.60989060741E+03  0.12677507308E+03 -0.52101564400E+03  0.81604304412E+03  0.80190251227E+02 0.  0.
         11    1    3    3    0    0  0.55463493462E+03 -0.95635918791E+02 -0.12986802149E+04  0.14153926806E+04  0.00000000000E+00 0. -1.
        -12    1    3    3    0    0  0.11017565998E+03 -0.54534019353E+02 -0.27978144941E+03  0.30559825712E+03  0.00000000000E+00 0.  1.
         15    1    5    5    0    0  0.19275286260E+02  0.70283529094E+01 -0.14179742966E+03  0.14328504176E+03  0.17770000000E+01 0. -1.
        -16    1    5    5    0    0 -0.74195273446E+02  0.16366512158E+02 -0.55270856504E+03  0.55790640719E+03  0.00000000000E+00 0.  1.
          2    1    6    6  502    0 -0.50282896658E+03  0.12784687885E+03 -0.45631418970E+03  0.69094459531E+03  0.00000000000E+00 0. -1.
         -1    1    6    6    0  502 -0.10706164083E+03 -0.10718057784E+01 -0.64701454303E+02  0.12509844880E+03  0.00000000000E+00 0.  1.
<mgrwt>
<rscale>  0 0.70411003E+03</rscale>
<asrwt>0</asrwt>
<pdfrwt beam="1">  1        1 0.34172474E-01 0.70411003E+03</pdfrwt>
<pdfrwt beam="2">  1       -2 0.46401602E+00 0.70411003E+03</pdfrwt>
<totfact> 0.34183721E-01</totfact>
</mgrwt>
</event>
<event>
12    3  0.1201947E-007  0.1193362E+04  0.7818608E-02  0.9118687E-01
         -2   -1    0    0    0  501 -0.00000000000E+00  0.00000000000E+00  0.59660565203E+03  0.59660565203E+03  0.00000000000E+00 0.  1.
          1   -1    0    0  501    0  0.00000000000E+00 -0.00000000000E+00 -0.27902673172E+04  0.27902673172E+04  0.00000000000E+00 0. -1.
        -24    2    1    2    0    0  0.10810621833E+04 -0.45755433789E+03 -0.14704056834E+04  0.18831955701E+04  0.79254431450E+02 0.  0.
    5000000    2    1    2    0    0 -0.10810621833E+04  0.45755433789E+03 -0.72325598170E+03  0.15036773991E+04  0.59991256806E+03 0.  0.
        -24    2    4    4    0    0 -0.30714645470E+03  0.27364751041E+03 -0.53986547819E+03  0.68341943285E+03  0.79909211361E+02 0.  0.
         24    2    4    4    0    0 -0.77391572861E+03  0.18390682748E+03 -0.18339050351E+03  0.82025796630E+03  0.80148476699E+02 0.  0.
         11    1    3    3    0    0  0.57159568419E+03 -0.20462545036E+03 -0.72757803568E+03  0.94760909616E+03  0.00000000000E+00 0. -1.
        -12    1    3    3    0    0  0.50946649912E+03 -0.25292888753E+03 -0.74282764776E+03  0.93558647390E+03  0.00000000000E+00 0.  1.
         15    1    5    5    0    0 -0.22065548250E+03  0.16255040190E+03 -0.30922617526E+03  0.41320147665E+03  0.17770000000E+01 0. -1.
        -16    1    5    5    0    0 -0.86490972204E+02  0.11109710851E+03 -0.23063930293E+03  0.27021795619E+03  0.00000000000E+00 0.  1.
          4    1    6    6  502    0 -0.39163005708E+03  0.10720379221E+03 -0.13214489253E+03  0.42700003196E+03  0.00000000000E+00 0. -1.
         -3    1    6    6    0  502 -0.38228567153E+03  0.76703035269E+02 -0.51245610987E+02  0.39325793434E+03  0.00000000000E+00 0.  1.
<mgrwt>
<rscale>  0 0.11933616E+04</rscale>
<asrwt>0</asrwt>
<pdfrwt beam="1">  1        1 0.42927188E+00 0.11933616E+04</pdfrwt>
<pdfrwt beam="2">  1       -2 0.91785487E-01 0.11933616E+04</pdfrwt>
<totfact> 0.74440346E-01</totfact>
</mgrwt>
</event>
<event>
12    3  0.1201947E-007  0.7031179E+03  0.7818608E-02  0.9711915E-01
          1   -1    0    0  501    0  0.00000000000E+00  0.00000000000E+00  0.33960067134E+04  0.33960067134E+04  0.00000000000E+00 0. -1.
         -2   -1    0    0    0  501 -0.00000000000E+00 -0.00000000000E+00 -0.22195090693E+03  0.22195090693E+03  0.00000000000E+00 0.  1.
        -24    2    1    2    0    0  0.47052127145E+03  0.35179738414E+03  0.38892525811E+03  0.70898732563E+03  0.79047486542E+02 0.  0.
    5000000    2    1    2    0    0 -0.47052127145E+03 -0.35179738414E+03  0.27851305484E+04  0.29089702947E+04  0.60000361475E+03 0.  0.
        -24    2    4    4    0    0  0.12878196127E+03 -0.52569890831E+02  0.43179763299E+03  0.46052453889E+03  0.79279682726E+02 0.  0.
         24    2    4    4    0    0 -0.59930323272E+03 -0.29922749331E+03  0.23533329154E+04  0.24484457558E+04  0.89494978197E+02 0.  0.
         13    1    3    3    0    0  0.34335272793E+03  0.28938982413E+03  0.26949395057E+03  0.52370273579E+03  0.00000000000E+00 0. -1.
        -14    1    3    3    0    0  0.12716854352E+03  0.62407560009E+02  0.11943130755E+03  0.18528458983E+03  0.00000000000E+00 0.  1.
         15    1    5    5    0    0  0.52212281445E+02 -0.13780673076E+02  0.28826591077E+03  0.29328556446E+03  0.17770000000E+01 0. -1.
        -16    1    5    5    0    0  0.76569679824E+02 -0.38789217755E+02  0.14353172223E+03  0.16723897443E+03  0.00000000000E+00 0.  1.
          4    1    6    6  502    0 -0.17992893784E+03 -0.45769937021E+02  0.66818460226E+03  0.69349835797E+03  0.00000000000E+00 0. -1.
         -1    1    6    6    0  502 -0.41937429488E+03 -0.25345755629E+03  0.16851483131E+04  0.17549473979E+04  0.00000000000E+00 0.  1.
<mgrwt>
<rscale>  0 0.70311793E+03</rscale>
<asrwt>0</asrwt>
<pdfrwt beam="1">  1        1 0.52246254E+00 0.70311793E+03</pdfrwt>
<pdfrwt beam="2">  1       -2 0.34146296E-01 0.70311793E+03</pdfrwt>
<totfact> 0.23162077E+00</totfact>
</mgrwt>
</event>
<event>
12    3  0.1201947E-007  0.1711390E+04  0.7818608E-02  0.8754895E-01
          3   -1    0    0  501    0  0.00000000000E+00  0.00000000000E+00  0.32714997002E+04  0.32714997002E+04  0.00000000000E+00 0. -1.
         -4   -1    0    0    0  501 -0.00000000000E+00 -0.00000000000E+00 -0.97079477714E+03  0.97079477714E+03  0.00000000000E+00 0.  1.
        -24    2    1    2    0    0 -0.87494526123E+03  0.14630677073E+04  0.76387613775E+03  0.18697923021E+04  0.80747587961E+02 0.  0.
    5000000    2    1    2    0    0  0.87494526123E+03 -0.14630677073E+04  0.15368287853E+04  0.23725021752E+04  0.60068921214E+03 0.  0.
        -24    2    4    4    0    0  0.65657170720E+03 -0.12239293614E+04  0.90997152277E+03  0.16625958473E+04  0.84186047978E+02 0.  0.
         24    2    4    4    0    0  0.21837355403E+03 -0.23913834593E+03  0.62685726252E+03  0.70990632793E+03  0.78376075834E+02 0.  0.
         13    1    3    3    0    0 -0.30540656440E+03  0.51673644414E+03  0.31133495506E+03  0.67617984037E+03  0.00000000000E+00 0. -1.
        -14    1    3    3    0    0 -0.56953869682E+03  0.94633126318E+03  0.45254118269E+03  0.11936124618E+04  0.00000000000E+00 0.  1.
         15    1    5    5    0    0  0.27684191476E+03 -0.59623480459E+03  0.40840335803E+03  0.77390816545E+03  0.17770000000E+01 0. -1.
        -16    1    5    5    0    0  0.37972979243E+03 -0.62769455681E+03  0.50156816474E+03  0.88868768180E+03  0.00000000000E+00 0.  1.
          2    1    6    6  502    0  0.91629661061E+02 -0.68086930118E+02  0.28706684476E+03  0.30893235214E+03  0.00000000000E+00 0. -1.
         -1    1    6    6    0  502  0.12674389297E+03 -0.17105141581E+03  0.33979041776E+03  0.40097397579E+03  0.00000000000E+00 0.  1.
<mgrwt>
<rscale>  0 0.17113900E+04</rscale>
<asrwt>0</asrwt>
<pdfrwt beam="1">  1        3 0.50330764E+00 0.17113900E+04</pdfrwt>
<pdfrwt beam="2">  1       -4 0.14935304E+00 0.17113900E+04</pdfrwt>
<totfact> 0.20549134E-03</totfact>
</mgrwt>
</event>
<event>
12    3  0.1201947E-007  0.5597657E+03  0.7818608E-02  0.9992585E-01
         -2   -1    0    0    0  501 -0.00000000000E+00  0.00000000000E+00  0.56338395642E+03  0.56338395642E+03  0.00000000000E+00 0.  1.
          1   -1    0    0  501    0  0.00000000000E+00 -0.00000000000E+00 -0.98364063324E+03  0.98364063324E+03  0.00000000000E+00 0. -1.
        -24    2    1    2    0    0 -0.48059158556E+03  0.75604482931E+02 -0.57685926075E+03  0.75867493015E+03  0.78337302599E+02 0.  0.
    5000000    2    1    2    0    0  0.48059158556E+03 -0.75604482931E+02  0.15660258393E+03  0.78834965950E+03  0.60023870784E+03 0.  0.
        -24    2    4    4    0    0  0.24155148074E+02  0.12076125271E+03 -0.14122145942E+03  0.20334055868E+03  0.78975508028E+02 0.  0.
         24    2    4    4    0    0  0.45643643749E+03 -0.19636573565E+03  0.29782404334E+03  0.58500910082E+03  0.81503151159E+02 0.  0.
         11    1    3    3    0    0 -0.19253991115E+02 -0.10611828507E+02 -0.39600837060E+02  0.45294076587E+02  0.00000000000E+00 0. -1.
        -12    1    3    3    0    0 -0.46133759445E+03  0.86216311438E+02 -0.53725842369E+03  0.71338085356E+03  0.00000000000E+00 0.  1.
         15    1    5    5    0    0  0.32386129132E+01 -0.29675105233E+01 -0.44902716340E+02  0.45152036454E+02  0.17770000000E+01 0. -1.
        -16    1    5    5    0    0  0.20916535161E+02  0.12372876324E+03 -0.96318743077E+02  0.15818852222E+03  0.00000000000E+00 0.  1.
          2    1    6    6  502    0  0.37844460993E+02 -0.26771301895E+02  0.47258554126E+01  0.46596561487E+02  0.00000000000E+00 0. -1.
         -1    1    6    6    0  502  0.41859197650E+03 -0.16959443375E+03  0.29309818793E+03  0.53841253934E+03  0.00000000000E+00 0.  1.
<mgrwt>
<rscale>  0 0.55976574E+03</rscale>
<asrwt>0</asrwt>
<pdfrwt beam="1">  1        1 0.15132933E+00 0.55976574E+03</pdfrwt>
<pdfrwt beam="2">  1       -2 0.86674455E-01 0.55976574E+03</pdfrwt>
<totfact> 0.16505259E+01</totfact>
</mgrwt>
</event>
<event>
12    3  0.1201947E-007  0.6182492E+03  0.7818608E-02  0.9868252E-01
         -2   -1    0    0    0  501 -0.00000000000E+00  0.00000000000E+00  0.32547381653E+03  0.32547381653E+03  0.00000000000E+00 0.  1.
          1   -1    0    0  501    0  0.00000000000E+00 -0.00000000000E+00 -0.24818776336E+04  0.24818776336E+04  0.00000000000E+00 0. -1.
        -24    2    1    2    0    0  0.84523730082E+02  0.56924232557E+03 -0.10009217446E+03  0.58939425036E+03  0.78651464076E+02 0.  0.
    5000000    2    1    2    0    0 -0.84523730082E+02 -0.56924232557E+03 -0.20563116426E+04  0.22179571998E+04  0.59977952808E+03 0.  0.
        -24    2    4    4    0    0  0.37547782373E+02 -0.49061639032E+03 -0.75222415474E+03  0.90336541197E+03  0.90075580223E+02 0.  0.
         24    2    4    4    0    0 -0.12207151245E+03 -0.78625935253E+02 -0.13040874879E+04  0.13145917878E+04  0.80149240070E+02 0.  0.
         13    1    3    3    0    0  0.58131487781E+02  0.39656079962E+03 -0.32599441514E+02  0.40212244560E+03  0.00000000000E+00 0. -1.
        -14    1    3    3    0    0  0.26392242300E+02  0.17268152595E+03 -0.67492732946E+02  0.18727180477E+03  0.00000000000E+00 0.  1.
         15    1    5    5    0    0 -0.14871165045E+02 -0.34309168660E+02 -0.32527456739E+02  0.49592981104E+02  0.17770000000E+01 0. -1.
        -16    1    5    5    0    0  0.52418947418E+02 -0.45630722166E+03 -0.71969669800E+03  0.85377243086E+03  0.00000000000E+00 0.  1.
          4    1    6    6  502    0 -0.94877226194E+02 -0.16298147267E+02 -0.67278841582E+03  0.67964076549E+03  0.00000000000E+00 0. -1.
         -3    1    6    6    0  502 -0.27194286261E+02 -0.62327787986E+02 -0.63129907208E+03  0.63495102234E+03  0.00000000000E+00 0.  1.
<mgrwt>
<rscale>  0 0.61824923E+03</rscale>
<asrwt>0</asrwt>
<pdfrwt beam="1">  1        1 0.38182734E+00 0.61824923E+03</pdfrwt>
<pdfrwt beam="2">  1       -2 0.50072894E-01 0.61824923E+03</pdfrwt>
<totfact> 0.49927353E+00</totfact>
</mgrwt>
</event>
<event>
12    3  0.1201947E-007  0.5070634E+03  0.7818608E-02  0.1011952E+00
         -2   -1    0    0    0  501 -0.00000000000E+00  0.00000000000E+00  0.44629371152E+03  0.44629371152E+03  0.00000000000E+00 0.  1.
          1   -1    0    0  501    0  0.00000000000E+00 -0.00000000000E+00 -0.12208416727E+04  0.12208416727E+04  0.00000000000E+00 0. -1.
        -24    2    1    2    0    0 -0.39319497302E+03  0.16666118299E+03  0.17253727695E+03  0.46745054736E+03  0.79766318507E+02 0.  0.
    5000000    2    1    2    0    0  0.39319497302E+03 -0.16666118299E+03 -0.94708523813E+03  0.11996848369E+04  0.59991251262E+03 0.  0.
        -24    2    4    4    0    0  0.44711911962E+03 -0.65950212683E+02 -0.32670059429E+03  0.56340471022E+03  0.80166398846E+02 0.  0.
         24    2    4    4    0    0 -0.53924146601E+02 -0.10071097030E+03 -0.62038464384E+03  0.63628012664E+03  0.83215263766E+02 0.  0.
         13    1    3    3    0    0 -0.28773251104E+03  0.15857822485E+03  0.13546821789E+03  0.35537119940E+03  0.00000000000E+00 0. -1.
        -14    1    3    3    0    0 -0.10546246198E+03  0.80829581343E+01  0.37069059056E+02  0.11207934796E+03  0.00000000000E+00 0.  1.
         15    1    5    5    0    0  0.35212437431E+03 -0.68883613567E+02 -0.29065962562E+03  0.46176043886E+03  0.17770000000E+01 0. -1.
        -16    1    5    5    0    0  0.94994745316E+02  0.29334008839E+01 -0.36040968672E+02  0.10164427136E+03  0.00000000000E+00 0.  1.
          4    1    6    6  502    0 -0.25103745578E+02 -0.92731628200E+02 -0.56707954741E+03  0.57515960046E+03  0.00000000000E+00 0. -1.
         -3    1    6    6    0  502 -0.28820401024E+02 -0.79793421031E+01 -0.53305096427E+02  0.61120526181E+02  0.00000000000E+00 0.  1.
<mgrwt>
<rscale>  0 0.50706339E+03</rscale>
<asrwt>0</asrwt>
<pdfrwt beam="1">  1        1 0.18782180E+00 0.50706339E+03</pdfrwt>
<pdfrwt beam="2">  1       -2 0.68660571E-01 0.50706339E+03</pdfrwt>
<totfact> 0.18635821E+01</totfact>
</mgrwt>
</event>
<event>
12    3  0.1201947E-007  0.4354768E+03  0.7818608E-02  0.1032144E+00
          1   -1    0    0  501    0  0.00000000000E+00  0.00000000000E+00  0.92391079598E+03  0.92391079598E+03  0.00000000000E+00 0. -1.
         -2   -1    0    0    0  501 -0.00000000000E+00 -0.00000000000E+00 -0.31443682638E+03  0.31443682638E+03  0.00000000000E+00 0.  1.
        -24    2    1    2    0    0 -0.14431217667E+03 -0.19697719001E+03  0.52595251115E+03  0.58516274971E+03  0.78507209544E+02 0.  0.
    5000000    2    1    2    0    0  0.14431217667E+03  0.19697719001E+03  0.83521458457E+02  0.65318487265E+03  0.60004052040E+03 0.  0.
        -24    2    4    4    0    0 -0.27423711019E+01 -0.20011718340E+03  0.23016256948E+02  0.21639705867E+03  0.79016018793E+02 0.  0.
         24    2    4    4    0    0  0.14705454777E+03  0.39709437341E+03  0.60505201509E+02  0.43678781398E+03  0.88395325777E+02 0.  0.
         13    1    3    3    0    0 -0.12999039935E+02 -0.28692001573E+02  0.14597475928E+03  0.14933464548E+03  0.00000000000E+00 0. -1.
        -14    1    3    3    0    0 -0.13131313673E+03 -0.16828518843E+03  0.37997775187E+03  0.43582810423E+03  0.00000000000E+00 0.  1.
         15    1    5    5    0    0  0.12378626615E+02 -0.13716316138E+03 -0.19260028234E+02  0.13907217425E+03  0.17770000000E+01 0. -1.
        -16    1    5    5    0    0 -0.15120997717E+02 -0.62954022025E+02  0.42276285182E+02  0.77324884416E+02  0.00000000000E+00 0.  1.
          4    1    6    6  502    0  0.79046008996E+02  0.20206969524E+03  0.75403396533E+02  0.22970874054E+03  0.00000000000E+00 0. -1.
         -3    1    6    6    0  502  0.68008538773E+02  0.19502467817E+03 -0.14898195025E+02  0.20707907344E+03  0.00000000000E+00 0.  1.
<mgrwt>
<rscale>  0 0.43547681E+03</rscale>
<asrwt>0</asrwt>
<pdfrwt beam="1">  1        1 0.14214012E+00 0.43547681E+03</pdfrwt>
<pdfrwt beam="2">  1       -2 0.48374897E-01 0.43547681E+03</pdfrwt>
<totfact> 0.65030886E+01</totfact>
</mgrwt>
</event>
<event>
12    3  0.1201947E-007  0.2284647E+04  0.7818608E-02  0.8483999E-01
          1   -1    0    0  501    0  0.00000000000E+00  0.00000000000E+00  0.20077992001E+04  0.20077992001E+04  0.00000000000E+00 0. -1.
         -2   -1    0    0    0  501 -0.00000000000E+00 -0.00000000000E+00 -0.29819973453E+04  0.29819973453E+04  0.00000000000E+00 0.  1.
        -24    2    1    2    0    0  0.22003106441E+02 -0.22483068073E+04 -0.13628033752E+04  0.26303938881E+04  0.79820615609E+02 0.  0.
    5000000    2    1    2    0    0 -0.22003106441E+02  0.22483068073E+04  0.38860522997E+03  0.23594026573E+04  0.60033260614E+03 0.  0.
        -24    2    4    4    0    0 -0.16793089306E+03  0.21558420775E+03  0.86585088342E+02  0.29762453713E+03  0.80037816708E+02 0.  0.
         24    2    4    4    0    0  0.14592778661E+03  0.20327225996E+04  0.30202014163E+03  0.20617781202E+04  0.80353999126E+02 0.  0.
         11    1    3    3    0    0 -0.42808375019E+01 -0.90140772055E+03 -0.58957217763E+03  0.10771023892E+04  0.00000000000E+00 0. -1.
        -12    1    3    3    0    0  0.26283943943E+02 -0.13468990868E+04 -0.77323119757E+03  0.15532914989E+04  0.00000000000E+00 0.  1.
         15    1    5    5    0    0 -0.24369756293E+02  0.90180076028E+00  0.18149280505E+02  0.30450819008E+02  0.17770000000E+01 0. -1.
        -16    1    5    5    0    0 -0.14356113676E+03  0.21468240699E+03  0.68435807837E+02  0.26717371812E+03  0.00000000000E+00 0.  1.
          2    1    6    6  502    0  0.54419169557E+02  0.65903226785E+03  0.13542880956E+03  0.67500069522E+03  0.00000000000E+00 0. -1.
         -1    1    6    6    0  502  0.91508617057E+02  0.13736903317E+04  0.16659133207E+03  0.13867774250E+04  0.00000000000E+00 0.  1.
<mgrwt>
<rscale>  0 0.22846474E+04</rscale>
<asrwt>0</asrwt>
<pdfrwt beam="1">  1        1 0.30889219E+00 0.22846474E+04</pdfrwt>
<pdfrwt beam="2">  1       -2 0.45876882E+00 0.22846474E+04</pdfrwt>
<totfact> 0.67179400E-03</totfact>
</mgrwt>
</event>
<event>
12    3  0.1201947E-007  0.8332673E+03  0.7818608E-02  0.9513074E-01
          1   -1    0    0  501    0  0.00000000000E+00  0.00000000000E+00  0.86639417483E+03  0.86639417483E+03  0.00000000000E+00 0. -1.
         -2   -1    0    0    0  501 -0.00000000000E+00 -0.00000000000E+00 -0.85785685376E+03  0.85785685376E+03  0.00000000000E+00 0.  1.
        -24    2    1    2    0    0 -0.61609893001E+03 -0.43471304631E+03  0.48945267359E+02  0.75979376180E+03  0.79609026392E+02 0.  0.
    5000000    2    1    2    0    0  0.61609893001E+03  0.43471304631E+03 -0.40407946290E+02  0.96445726679E+03  0.59999307758E+03 0.  0.
        -24    2    4    4    0    0  0.60432428621E+02  0.33546366068E+03  0.12411398115E+03  0.37113931241E+03  0.78435724235E+02 0.  0.
         24    2    4    4    0    0  0.55566650139E+03  0.99249385632E+02 -0.16452192744E+03  0.59331795438E+03  0.79643135673E+02 0.  0.
         11    1    3    3    0    0 -0.43329176997E+03 -0.25988801235E+03  0.34679421977E+02  0.50644466549E+03  0.00000000000E+00 0. -1.
        -12    1    3    3    0    0 -0.18280716004E+03 -0.17482503396E+03  0.14265845383E+02  0.25334909632E+03  0.00000000000E+00 0.  1.
         15    1    5    5    0    0  0.22628704354E+02  0.21693948113E+03  0.11452996585E+03  0.24636368957E+03  0.17770000000E+01 0. -1.
        -16    1    5    5    0    0  0.37803724267E+02  0.11852417955E+03  0.95840153067E+01  0.12477562284E+03  0.00000000000E+00 0.  1.
          4    1    6    6  502    0  0.37081107804E+03  0.47518082812E+02 -0.74041451084E+02  0.38110492029E+03  0.00000000000E+00 0. -1.
         -3    1    6    6    0  502  0.18485542335E+03  0.51731302820E+02 -0.90480476359E+02  0.21221303409E+03  0.00000000000E+00 0.  1.
<mgrwt>
<rscale>  0 0.83326725E+03</rscale>
<asrwt>0</asrwt>
<pdfrwt beam="1">  1        1 0.13329141E+00 0.83326725E+03</pdfrwt>
<pdfrwt beam="2">  1       -2 0.13197798E+00 0.83326725E+03</pdfrwt>
<totfact> 0.72011403E+00</totfact>
</mgrwt>
</event>
<event>
12    3  0.1201947E-007  0.1817012E+04  0.7818608E-02  0.8697305E-01
         -2   -1    0    0    0  501 -0.00000000000E+00  0.00000000000E+00  0.20098398984E+04  0.20098398984E+04  0.00000000000E+00 0.  1.
          1   -1    0    0  501    0  0.00000000000E+00 -0.00000000000E+00 -0.17338558885E+04  0.17338558885E+04  0.00000000000E+00 0. -1.
        -24    2    1    2    0    0 -0.15234474185E+04  0.95913320891E+03 -0.11710391964E+03  0.18058414839E+04  0.80756347040E+02 0.  0.
    5000000    2    1    2    0    0  0.15234474185E+04 -0.95913320891E+03  0.39308792948E+03  0.19378543031E+04  0.59994385598E+03 0.  0.
        -24    2    4    4    0    0  0.65121280308E+03 -0.23057137546E+03  0.39247832356E+03  0.79860741271E+03  0.80580959847E+02 0.  0.
         24    2    4    4    0    0  0.87223461539E+03 -0.72856183345E+03  0.60960592497E+00  0.11392468904E+04  0.79293985467E+02 0.  0.
         13    1    3    3    0    0 -0.93009978400E+03  0.62506895921E+03 -0.52394323794E+02  0.11218475730E+04  0.00000000000E+00 0. -1.
        -14    1    3    3    0    0 -0.59334763446E+03  0.33406424970E+03 -0.64709595848E+02  0.68399391083E+03  0.00000000000E+00 0.  1.
         15    1    5    5    0    0  0.72840012480E+01 -0.10422805309E+02  0.17217924935E+02  0.21478040244E+02  0.17770000000E+01 0. -1.
        -16    1    5    5    0    0  0.64392880183E+03 -0.22014857015E+03  0.37526039862E+03  0.77712937246E+03  0.00000000000E+00 0.  1.
          2    1    6    6  502    0  0.59768427790E+03 -0.54494543425E+03 -0.74733440854E+01  0.80885590387E+03  0.00000000000E+00 0. -1.
         -1    1    6    6    0  502  0.27455033749E+03 -0.18361639920E+03  0.80829500104E+01  0.33039098649E+03  0.00000000000E+00 0.  1.
<mgrwt>
<rscale>  0 0.18170120E+04</rscale>
<asrwt>0</asrwt>
<pdfrwt beam="1">  1        1 0.26674706E+00 0.18170120E+04</pdfrwt>
<pdfrwt beam="2">  1       -2 0.30920614E+00 0.18170120E+04</pdfrwt>
<totfact> 0.10056914E-01</totfact>
</mgrwt>
</event>
<event>
12    3  0.1201947E-007  0.5839584E+03  0.7818608E-02  0.9939258E-01
          1   -1    0    0  501    0  0.00000000000E+00  0.00000000000E+00  0.12642065004E+04  0.12642065004E+04  0.00000000000E+00 0. -1.
         -2   -1    0    0    0  501 -0.00000000000E+00 -0.00000000000E+00 -0.51001456695E+03  0.51001456695E+03  0.00000000000E+00 0.  1.
        -24    2    1    2    0    0 -0.41660325025E+03  0.25028358186E+03 -0.21328898485E+03  0.53673648410E+03  0.79960758154E+02 0.  0.
    5000000    2    1    2    0    0  0.41660325025E+03 -0.25028358186E+03  0.96748091830E+03  0.12374845832E+04  0.59929010258E+03 0.  0.
        -24    2    4    4    0    0  0.42065109015E+03  0.74676994645E+01  0.83189273554E+03  0.93566002039E+03  0.80068996109E+02 0.  0.
         24    2    4    4    0    0 -0.40478399036E+01 -0.25775128133E+03  0.13558818276E+03  0.30182456286E+03  0.79131557585E+02 0.  0.
         13    1    3    3    0    0 -0.13958695147E+03  0.85726971755E+02 -0.11401920863E+03  0.19958459521E+03  0.00000000000E+00 0. -1.
        -14    1    3    3    0    0 -0.27701629877E+03  0.16455661011E+03 -0.99269776222E+02  0.33715188890E+03  0.00000000000E+00 0.  1.
         15    1    5    5    0    0  0.18374964843E+03 -0.17528312662E+02  0.43840783999E+03  0.47568452460E+03  0.17770000000E+01 0. -1.
        -16    1    5    5    0    0  0.23690144172E+03  0.24996012126E+02  0.39348489555E+03  0.45997549579E+03  0.00000000000E+00 0.  1.
          2    1    6    6  502    0 -0.12098484038E+02 -0.61670663415E+02  0.71918384871E+02  0.95508628535E+02  0.00000000000E+00 0. -1.
         -1    1    6    6    0  502  0.80506441341E+01 -0.19608061791E+03  0.63669797885E+02  0.20631593432E+03  0.00000000000E+00 0.  1.
<mgrwt>
<rscale>  0 0.58395845E+03</rscale>
<asrwt>0</asrwt>
<pdfrwt beam="1">  1        1 0.19449331E+00 0.58395845E+03</pdfrwt>
<pdfrwt beam="2">  1       -2 0.78463780E-01 0.58395845E+03</pdfrwt>
<totfact> 0.12787376E+01</totfact>
</mgrwt>
</event>
<event>
12    3  0.1201947E-007  0.9047823E+03  0.7818608E-02  0.9419623E-01
          3   -1    0    0  501    0  0.00000000000E+00  0.00000000000E+00  0.58550980954E+03  0.58550980954E+03  0.00000000000E+00 0. -1.
         -4   -1    0    0    0  501 -0.00000000000E+00 -0.00000000000E+00 -0.15182811850E+04  0.15182811850E+04  0.00000000000E+00 0.  1.
        -24    2    1    2    0    0  0.17415690095E+03 -0.82203859569E+03 -0.52433162195E+03  0.99358272263E+03  0.78771174849E+02 0.  0.
    5000000    2    1    2    0    0 -0.17415690095E+03  0.82203859569E+03 -0.40843975351E+03  0.11102082719E+04  0.59971768008E+03 0.  0.
        -24    2    4    4    0    0 -0.33149806041E+03  0.54539555108E+03 -0.83673728999E+02  0.64859254171E+03  0.79521827482E+02 0.  0.
         24    2    4    4    0    0  0.15734115946E+03  0.27664304461E+03 -0.32476602451E+03  0.46161573019E+03  0.79551851596E+02 0.  0.
         11    1    3    3    0    0  0.49321632008E+02 -0.10521904250E+03 -0.65718817728E+02  0.13350143555E+03  0.00000000000E+00 0. -1.
        -12    1    3    3    0    0  0.12483526895E+03 -0.71681955319E+03 -0.45861280422E+03  0.86008128709E+03  0.00000000000E+00 0.  1.
         15    1    5    5    0    0 -0.18011839573E+03  0.29968833470E+03 -0.85636318037E+02  0.35998954309E+03  0.17770000000E+01 0. -1.
        -16    1    5    5    0    0 -0.15137966468E+03  0.24570721637E+03  0.19625890379E+01  0.28860299862E+03  0.00000000000E+00 0.  1.
          4    1    6    6  502    0  0.10780782932E+02  0.87782903524E+02 -0.76087872275E+02  0.11666802364E+03  0.00000000000E+00 0. -1.
         -3    1    6    6    0  502  0.14656037652E+03  0.18886014109E+03 -0.24867815224E+03  0.34494770656E+03  0.00000000000E+00 0.  1.
<mgrwt>
<rscale>  0 0.90478231E+03</rscale>
<asrwt>0</asrwt>
<pdfrwt beam="1">  1        3 0.90078432E-01 0.90478231E+03</pdfrwt>
<pdfrwt beam="2">  1       -4 0.23358172E+00 0.90478231E+03</pdfrwt>
<totfact> 0.20017969E-01</totfact>
</mgrwt>
</event>
<event>
12    3  0.1201947E-007  0.5875103E+03  0.7818608E-02  0.9931662E-01
          1   -1    0    0  501    0  0.00000000000E+00  0.00000000000E+00  0.36294228494E+03  0.36294228494E+03  0.00000000000E+00 0. -1.
         -2   -1    0    0    0  501 -0.00000000000E+00 -0.00000000000E+00 -0.18056508253E+04  0.18056508253E+04  0.00000000000E+00 0.  1.
        -24    2    1    2    0    0  0.38367817877E+03  0.21463734361E+03  0.98417193858E+02  0.45741322520E+03  0.79137730612E+02 0.  0.
    5000000    2    1    2    0    0 -0.38367817877E+03 -0.21463734361E+03 -0.15411257342E+04  0.17111798850E+04  0.59982492129E+03 0.  0.
        -24    2    4    4    0    0  0.12383373814E+03 -0.16303424034E+03 -0.35845886399E+03  0.42071126280E+03  0.81180362452E+02 0.  0.
         24    2    4    4    0    0 -0.50751191691E+03 -0.51603103272E+02 -0.11826668702E+04  0.12904686222E+04  0.79856828225E+02 0.  0.
         11    1    3    3    0    0  0.29498579356E+03  0.19052327207E+03  0.53858161889E+02  0.35526952755E+03  0.00000000000E+00 0. -1.
        -12    1    3    3    0    0  0.88692385203E+02  0.24114071542E+02  0.44559031968E+02  0.10214369765E+03  0.00000000000E+00 0.  1.
         15    1    5    5    0    0  0.63021966949E+02 -0.22990966182E+02 -0.12217733239E+03  0.13939444437E+03  0.17770000000E+01 0. -1.
        -16    1    5    5    0    0  0.60811771191E+02 -0.14004327415E+03 -0.23628153160E+03  0.28131681842E+03  0.00000000000E+00 0.  1.
          4    1    6    6  502    0 -0.28095223290E+03 -0.57733191125E+01 -0.56641198506E+03  0.63228951059E+03  0.00000000000E+00 0. -1.
         -3    1    6    6    0  502 -0.22655968401E+03 -0.45829784159E+02 -0.61625488516E+03  0.65817911166E+03  0.00000000000E+00 0.  1.
<mgrwt>
<rscale>  0 0.58751026E+03</rscale>
<asrwt>0</asrwt>
<pdfrwt beam="1">  1        1 0.55837273E-01 0.58751026E+03</pdfrwt>
<pdfrwt beam="2">  1       -2 0.27779244E+00 0.58751026E+03</pdfrwt>
<totfact> 0.27665174E+00</totfact>
</mgrwt>
</event>
<event>
12    3  0.1201947E-007  0.5404706E+03  0.7818608E-02  0.1003724E+00
          1   -1    0    0  501    0  0.00000000000E+00  0.00000000000E+00  0.19224952838E+04  0.19224952838E+04  0.00000000000E+00 0. -1.
         -2   -1    0    0    0  501 -0.00000000000E+00 -0.00000000000E+00 -0.22777230585E+03  0.22777230585E+03  0.00000000000E+00 0.  1.
        -24    2    1    2    0    0 -0.13836804736E+03 -0.37508896608E+03  0.12253984591E+04  0.12900897241E+04  0.53783488654E+02 0.  0.
    5000000    2    1    2    0    0  0.13836804736E+03  0.37508896608E+03  0.46932451887E+03  0.86017786558E+03  0.59983581705E+03 0.  0.
        -24    2    4    4    0    0 -0.12058220531E+03 -0.84239188393E+02  0.20637762312E+03  0.26595587079E+03  0.80650435735E+02 0.  0.
         24    2    4    4    0    0  0.25895025267E+03  0.45932815447E+03  0.26294689575E+03  0.59422199479E+03  0.76948828793E+02 0.  0.
         11    1    3    3    0    0 -0.91206690871E+02 -0.29555923251E+03  0.89197082759E+03  0.94407938102E+03  0.00000000000E+00 0. -1.
        -12    1    3    3    0    0 -0.47161356487E+02 -0.79529733568E+02  0.33342763147E+03  0.34601034304E+03  0.00000000000E+00 0.  1.
         15    1    5    5    0    0 -0.31023670158E+02 -0.92059545902E+01  0.10945066933E+03  0.11414825647E+03  0.17770000000E+01 0. -1.
        -16    1    5    5    0    0 -0.89558535156E+02 -0.75033233802E+02  0.96926953789E+02  0.15180761432E+03  0.00000000000E+00 0.  1.
          4    1    6    6  502    0  0.94914401811E+02  0.11978018068E+03  0.10479714403E+03  0.18530644012E+03  0.00000000000E+00 0. -1.
         -3    1    6    6    0  502  0.16403585086E+03  0.33954797380E+03  0.15814975172E+03  0.40891555466E+03  0.00000000000E+00 0.  1.
<mgrwt>
<rscale>  0 0.54047064E+03</rscale>
<asrwt>0</asrwt>
<pdfrwt beam="1">  1        1 0.29576849E+00 0.54047064E+03</pdfrwt>
<pdfrwt beam="2">  1       -2 0.35041895E-01 0.54047064E+03</pdfrwt>
<totfact> 0.24135256E+01</totfact>
</mgrwt>
</event>
<event>
12    3  0.1201947E-007  0.7722061E+03  0.7818608E-02  0.9601143E-01
          1   -1    0    0  501    0  0.00000000000E+00  0.00000000000E+00  0.40792176883E+03  0.40792176883E+03  0.00000000000E+00 0. -1.
         -2   -1    0    0    0  501 -0.00000000000E+00 -0.00000000000E+00 -0.20794210291E+04  0.20794210291E+04  0.00000000000E+00 0.  1.
        -24    2    1    2    0    0 -0.45809996856E+02  0.70393927988E+03 -0.18099830835E+03  0.73263289032E+03  0.79759004404E+02 0.  0.
    5000000    2    1    2    0    0  0.45809996856E+02 -0.70393927988E+03 -0.14905009520E+04  0.17547099076E+04  0.59982056200E+03 0.  0.
        -24    2    4    4    0    0 -0.13998239406E+03 -0.60036891794E+03 -0.13520331171E+04  0.14880784568E+04  0.79662008668E+02 0.  0.
         24    2    4    4    0    0  0.18579239091E+03 -0.10357036194E+03 -0.13846783488E+03  0.26663145084E+03  0.81690616882E+02 0.  0.
         13    1    3    3    0    0 -0.68689433125E+02  0.50722978160E+03 -0.13340562748E+03  0.52895874226E+03  0.00000000000E+00 0. -1.
        -14    1    3    3    0    0  0.22879436269E+02  0.19670949828E+03 -0.47592680867E+02  0.20367414807E+03  0.00000000000E+00 0.  1.
         15    1    5    5    0    0 -0.91529998181E+01 -0.17350623515E+03 -0.42461654669E+03  0.45879250266E+03  0.17770000000E+01 0. -1.
        -16    1    5    5    0    0 -0.13082939424E+03 -0.42686268279E+03 -0.92741657039E+03  0.10292859541E+04  0.00000000000E+00 0.  1.
          4    1    6    6  502    0  0.12248723286E+03 -0.82077522638E+02 -0.13463771979E+03  0.19966761762E+03  0.00000000000E+00 0. -1.
         -3    1    6    6    0  502  0.63305158056E+02 -0.21492839304E+02 -0.38301150871E+01  0.66963833220E+02  0.00000000000E+00 0.  1.
<mgrwt>
<rscale>  0 0.77220606E+03</rscale>
<asrwt>0</asrwt>
<pdfrwt beam="1">  1        1 0.62757194E-01 0.77220606E+03</pdfrwt>
<pdfrwt beam="2">  1       -2 0.31991093E+00 0.77220606E+03</pdfrwt>
<totfact> 0.12835739E+00</totfact>
</mgrwt>
</event>
<event>
12    3  0.1201947E-007  0.1263598E+04  0.7818608E-02  0.9058941E-01
         -2   -1    0    0    0  501 -0.00000000000E+00  0.00000000000E+00  0.75626860204E+03  0.75626860204E+03  0.00000000000E+00 0.  1.
          1   -1    0    0  501    0  0.00000000000E+00 -0.00000000000E+00 -0.27469947657E+04  0.27469947657E+04  0.00000000000E+00 0. -1.
        -24    2    1    2    0    0  0.12209166535E+04  0.18463297207E+03 -0.21022817096E+03  0.12549651143E+04  0.77554787404E+02 0.  0.
    5000000    2    1    2    0    0 -0.12209166535E+04 -0.18463297207E+03 -0.17804979927E+04  0.22482982535E+04  0.59995426947E+03 0.  0.
        -24    2    4    4    0    0 -0.11506298387E+04 -0.23102607465E+03 -0.12986511622E+04  0.17527525549E+04  0.91239271146E+02 0.  0.
         24    2    4    4    0    0 -0.70286814754E+02  0.46393102577E+02 -0.48184683051E+03  0.49554569861E+03  0.79351213250E+02 0.  0.
         11    1    3    3    0    0  0.10139445140E+03  0.14969177085E+02  0.40030603255E+01  0.10257161171E+03  0.00000000000E+00 0. -1.
        -12    1    3    3    0    0  0.11195222021E+04  0.16966379498E+03 -0.21423123129E+03  0.11523935026E+04  0.00000000000E+00 0.  1.
         15    1    5    5    0    0 -0.59079223494E+03 -0.73683784962E+02 -0.63945406205E+03  0.87371014658E+03  0.17770000000E+01 0. -1.
        -16    1    5    5    0    0 -0.55983760378E+03 -0.15734228968E+03 -0.65919710014E+03  0.87904240828E+03  0.00000000000E+00 0.  1.
          4    1    6    6  502    0 -0.81089310749E+02  0.15221384856E+02 -0.35749035964E+03  0.36688761782E+03  0.00000000000E+00 0. -1.
         -3    1    6    6    0  502  0.10802495995E+02  0.31171717720E+02 -0.12435647087E+03  0.12865808079E+03  0.00000000000E+00 0.  1.
<mgrwt>
<rscale>  0 0.12635975E+04</rscale>
<asrwt>0</asrwt>
<pdfrwt beam="1">  1        1 0.42261458E+00 0.12635975E+04</pdfrwt>
<pdfrwt beam="2">  1       -2 0.11634901E+00 0.12635975E+04</pdfrwt>
<totfact> 0.44753908E-01</totfact>
</mgrwt>
</event>
<event>
12    3  0.1201947E-007  0.4497614E+03  0.7818608E-02  0.1027793E+00
         -2   -1    0    0    0  501 -0.00000000000E+00  0.00000000000E+00  0.79721772793E+03  0.79721772793E+03  0.00000000000E+00 0.  1.
          1   -1    0    0  501    0  0.00000000000E+00 -0.00000000000E+00 -0.32686910415E+03  0.32686910415E+03  0.00000000000E+00 0. -1.
        -24    2    1    2    0    0 -0.85597255304E+02 -0.25600816475E+03 -0.49441214024E+02  0.28561558490E+03  0.79150225275E+02 0.  0.
    5000000    2    1    2    0    0  0.85597255304E+02  0.25600816475E+03  0.51978983780E+03  0.83847124717E+03  0.59998790514E+03 0.  0.
        -24    2    4    4    0    0  0.16232767572E+03 -0.13025329923E+03  0.68194226618E+02  0.23383941659E+03  0.81940368210E+02 0.  0.
         24    2    4    4    0    0 -0.76730420417E+02  0.38626146398E+03  0.45159561118E+03  0.60463183058E+03  0.80966527258E+02 0.  0.
         11    1    3    3    0    0 -0.55027075425E+02 -0.57680873597E+02 -0.37316912151E+01  0.79805937924E+02  0.00000000000E+00 0. -1.
        -12    1    3    3    0    0 -0.30570179879E+02 -0.19832729115E+03 -0.45709522809E+02  0.20580964698E+03  0.00000000000E+00 0.  1.
         15    1    5    5    0    0 -0.48494369078E+01 -0.25213646129E+02  0.29728357214E+01  0.25908308911E+02  0.17770000000E+01 0. -1.
        -16    1    5    5    0    0  0.16717711263E+03 -0.10503965310E+03  0.65221390896E+02  0.20793110768E+03  0.00000000000E+00 0.  1.
          4    1    6    6  502    0 -0.67381658886E+02  0.23662475476E+03  0.22807076645E+03  0.33548150028E+03  0.00000000000E+00 0. -1.
         -3    1    6    6    0  502 -0.93487615315E+01  0.14963670922E+03  0.22352484473E+03  0.26915033030E+03  0.00000000000E+00 0.  1.
<mgrwt>
<rscale>  0 0.44976140E+03</rscale>
<asrwt>0</asrwt>
<pdfrwt beam="1">  1        1 0.50287555E-01 0.44976140E+03</pdfrwt>
<pdfrwt beam="2">  1       -2 0.12264888E+00 0.44976140E+03</pdfrwt>
<totfact> 0.35864146E+01</totfact>
</mgrwt>
</event>
<event>
12    3  0.1201947E-007  0.5748107E+03  0.7818608E-02  0.9959089E-01
         -2   -1    0    0    0  501 -0.00000000000E+00  0.00000000000E+00  0.72017802989E+03  0.72017802989E+03  0.00000000000E+00 0.  1.
          1   -1    0    0  501    0  0.00000000000E+00 -0.00000000000E+00 -0.52850850258E+03  0.52850850258E+03  0.00000000000E+00 0. -1.
        -24    2    1    2    0    0 -0.43750409966E+03  0.14726203729E+03  0.14153095049E+03  0.49000966980E+03  0.83561484569E+02 0.  0.
    5000000    2    1    2    0    0  0.43750409966E+03 -0.14726203729E+03  0.50138576822E+02  0.75867686266E+03  0.59998396663E+03 0.  0.
        -24    2    4    4    0    0  0.68082780476E+02  0.17460160719E+03 -0.11565752602E+03  0.23417778731E+03  0.79634078842E+02 0.  0.
         24    2    4    4    0    0  0.36942131918E+03 -0.32186364448E+03  0.16579610284E+03  0.52449907536E+03  0.86848233309E+02 0.  0.
         13    1    3    3    0    0 -0.15154981400E+03  0.62729862128E+02  0.90996990388E+02  0.18757087723E+03  0.00000000000E+00 0. -1.
        -14    1    3    3    0    0 -0.28595428567E+03  0.84532175167E+02  0.50533960101E+02  0.30243879257E+03  0.00000000000E+00 0.  1.
         15    1    5    5    0    0  0.43032054782E+02  0.14558278234E+03 -0.53156844137E+02  0.16085680607E+03  0.17770000000E+01 0. -1.
        -16    1    5    5    0    0  0.25050725695E+02  0.29018824849E+02 -0.62500681882E+02  0.73320981234E+02  0.00000000000E+00 0.  1.
          2    1    6    6  502    0  0.23624150772E+03 -0.15002334262E+03  0.83592782727E+02  0.29206986600E+03  0.00000000000E+00 0. -1.
         -1    1    6    6    0  502  0.13317981146E+03 -0.17184030186E+03  0.82203320113E+02  0.23242920936E+03  0.00000000000E+00 0.  1.
<mgrwt>
<rscale>  0 0.57481067E+03</rscale>
<asrwt>0</asrwt>
<pdfrwt beam="1">  1        1 0.81309001E-01 0.57481067E+03</pdfrwt>
<pdfrwt beam="2">  1       -2 0.11079662E+00 0.57481067E+03</pdfrwt>
<totfact> 0.23998556E+01</totfact>
</mgrwt>
</event>
<event>
12    3  0.1201947E-007  0.8432451E+03  0.7818608E-02  0.9499448E-01
          1   -1    0    0  501    0  0.00000000000E+00  0.00000000000E+00  0.91281381617E+03  0.91281381617E+03  0.00000000000E+00 0. -1.
         -2   -1    0    0    0  501 -0.00000000000E+00 -0.00000000000E+00 -0.94641029907E+03  0.94641029907E+03  0.00000000000E+00 0.  1.
        -24    2    1    2    0    0 -0.69235798809E+03 -0.25609156242E+03 -0.39581664726E+03  0.84130229732E+03  0.78589218174E+02 0.  0.
    5000000    2    1    2    0    0  0.69235798809E+03  0.25609156242E+03  0.36222016436E+03  0.10179218179E+04  0.60001575639E+03 0.  0.
        -24    2    4    4    0    0  0.22339154744E+02  0.26251140071E+03  0.12602823233E+03  0.30281957980E+03  0.80033175813E+02 0.  0.
         24    2    4    4    0    0  0.67001883334E+03 -0.64198382918E+01  0.23619193202E+03  0.71510223811E+03  0.81351895130E+02 0.  0.
         13    1    3    3    0    0 -0.44108627556E+03 -0.13272192015E+03 -0.27457592377E+03  0.53625008018E+03  0.00000000000E+00 0. -1.
        -14    1    3    3    0    0 -0.25127171253E+03 -0.12336964227E+03 -0.12124072349E+03  0.30505221714E+03  0.00000000000E+00 0.  1.
         15    1    5    5    0    0 -0.21876244889E+02  0.62423422633E+02  0.88280935008E+01  0.66755874254E+02  0.17770000000E+01 0. -1.
        -16    1    5    5    0    0  0.44215399633E+02  0.20008797808E+03  0.11720013883E+03  0.23606370555E+03  0.00000000000E+00 0.  1.
          2    1    6    6  502    0  0.18856923298E+03  0.34405882668E+02  0.72931689635E+02  0.20508815603E+03  0.00000000000E+00 0. -1.
         -1    1    6    6    0  502  0.48144960036E+03 -0.40825720960E+02  0.16326024239E+03  0.51001408208E+03  0.00000000000E+00 0.  1.
<mgrwt>
<rscale>  0 0.84324510E+03</rscale>
<asrwt>0</asrwt>
<pdfrwt beam="1">  1        1 0.14043290E+00 0.84324510E+03</pdfrwt>
<pdfrwt beam="2">  1       -2 0.14560158E+00 0.84324510E+03</pdfrwt>
<totfact> 0.51105065E+00</totfact>
</mgrwt>
</event>
<event>
12    3  0.1384598E-007  0.1310536E+04  0.7818608E-02  0.9021252E-01
          1   -1    0    0  501    0  0.00000000000E+00  0.00000000000E+00  0.17206354690E+04  0.17206354690E+04  0.00000000000E+00 0. -1.
         -2   -1    0    0    0  501 -0.00000000000E+00 -0.00000000000E+00 -0.10171324253E+04  0.10171324253E+04  0.00000000000E+00 0.  1.
        -24    2    1    2    0    0  0.12523064959E+04  0.18978695682E+02  0.28033825600E+03  0.12858135566E+04  0.78071852416E+02 0.  0.
    5000000    2    1    2    0    0 -0.12523064959E+04 -0.18978695682E+02  0.42316478770E+03  0.14519543376E+04  0.60039254692E+03 0.  0.
        -24    2    4    4    0    0 -0.29536941428E+03  0.22781343179E+03  0.21007974325E+02  0.38198750813E+03  0.79568026158E+02 0.  0.
         24    2    4    4    0    0 -0.95693708160E+03 -0.24679212747E+03  0.40215681338E+03  0.10699668295E+04  0.80398888611E+02 0.  0.
         11    1    3    3    0    0  0.10279556440E+04  0.26140812795E+01  0.20201392112E+03  0.10476207634E+04  0.00000000000E+00 0. -1.
        -12    1    3    3    0    0  0.22435085185E+03  0.16364614402E+02  0.78324334882E+02  0.23819279327E+03  0.00000000000E+00 0.  1.
         15    1    5    5    0    0 -0.10241387440E+03  0.11334278565E+03 -0.19486987532E+02  0.15400678278E+03  0.17770000000E+01 0. -1.
        -16    1    5    5    0    0 -0.19295553987E+03  0.11447064614E+03  0.40494961856E+02  0.22798072535E+03  0.00000000000E+00 0.  1.
          4    1    6    6  502    0 -0.51914453987E+03 -0.17206951535E+03  0.20549623554E+03  0.58424966771E+03  0.00000000000E+00 0. -1.
         -3    1    6    6    0  502 -0.43779254173E+03 -0.74722612121E+02  0.19666057784E+03  0.48571716176E+03  0.00000000000E+00 0.  1.
<mgrwt>
<rscale>  0 0.13105358E+04</rscale>
<asrwt>0</asrwt>
<pdfrwt beam="1">  1        1 0.26471315E+00 0.13105358E+04</pdfrwt>
<pdfrwt beam="2">  1       -2 0.15648191E+00 0.13105358E+04</pdfrwt>
<totfact> 0.10441098E+00</totfact>
</mgrwt>
</event>
<event>
12    3  0.1201947E-007  0.9481924E+03  0.7818608E-02  0.9367266E-01
         -2   -1    0    0    0  501 -0.00000000000E+00  0.00000000000E+00  0.88910925361E+03  0.88910925361E+03  0.00000000000E+00 0.  1.
          1   -1    0    0  501    0  0.00000000000E+00 -0.00000000000E+00 -0.12700014575E+04  0.12700014575E+04  0.00000000000E+00 0. -1.
        -24    2    1    2    0    0  0.12433469647E+03 -0.87425858874E+03 -0.59811328879E+03  0.10696116588E+04  0.80885089673E+02 0.  0.
    5000000    2    1    2    0    0 -0.12433469647E+03  0.87425858874E+03  0.21722108490E+03  0.10894990523E+04  0.60002998967E+03 0.  0.
        -24    2    4    4    0    0 -0.30147689912E+03  0.67100482090E+03  0.89507862030E+01  0.74029289847E+03  0.82569174470E+02 0.  0.
         24    2    4    4    0    0  0.17714220265E+03  0.20325376784E+03  0.20827029870E+03  0.34920615383E+03  0.76661375226E+02 0.  0.
         13    1    3    3    0    0  0.77329570428E+02 -0.60729313251E+03 -0.45736246506E+03  0.76417618106E+03  0.00000000000E+00 0. -1.
        -14    1    3    3    0    0  0.47005126039E+02 -0.26696545623E+03 -0.14075082373E+03  0.30543547776E+03  0.00000000000E+00 0.  1.
         15    1    5    5    0    0 -0.41750388682E+02  0.15225968343E+03 -0.21574929831E+02  0.15935727621E+03  0.17770000000E+01 0. -1.
        -16    1    5    5    0    0 -0.25972651044E+03  0.51874513747E+03  0.30525716034E+02  0.58093562226E+03  0.00000000000E+00 0.  1.
          2    1    6    6  502    0  0.47230558487E+02  0.94593527514E+02  0.48307734418E+02  0.11624241183E+03  0.00000000000E+00 0. -1.
         -1    1    6    6    0  502  0.12991164416E+03  0.10866024032E+03  0.15996256428E+03  0.23296374200E+03  0.00000000000E+00 0.  1.
<mgrwt>
<rscale>  0 0.94819239E+03</rscale>
<asrwt>0</asrwt>
<pdfrwt beam="1">  1        1 0.19538484E+00 0.94819239E+03</pdfrwt>
<pdfrwt beam="2">  1       -2 0.13678604E+00 0.94819239E+03</pdfrwt>
<totfact> 0.31899072E+00</totfact>
</mgrwt>
</event>
<event>
12    3  0.1201947E-007  0.4004154E+03  0.7818608E-02  0.1043636E+00
         -2   -1    0    0    0  501 -0.00000000000E+00  0.00000000000E+00  0.24910499050E+03  0.24910499050E+03  0.00000000000E+00 0.  1.
          1   -1    0    0  501    0  0.00000000000E+00 -0.00000000000E+00 -0.87577393594E+03  0.87577393594E+03  0.00000000000E+00 0. -1.
        -24    2    1    2    0    0  0.19953897184E+03  0.31906844832E+02 -0.39510470057E+03  0.45088369394E+03  0.79715324851E+02 0.  0.
    5000000    2    1    2    0    0 -0.19953897184E+03 -0.31906844832E+02 -0.23156424488E+03  0.67399523250E+03  0.59984475150E+03 0.  0.
        -24    2    4    4    0    0 -0.38374961552E+03 -0.51734193542E+01 -0.38305751223E+02  0.39384422290E+03  0.79720823220E+02 0.  0.
         24    2    4    4    0    0  0.18421064368E+03 -0.26733425477E+02 -0.19325849365E+03  0.28015100960E+03  0.80545052788E+02 0.  0.
         13    1    3    3    0    0  0.12588430984E+03  0.43523344428E+02 -0.31193667799E+03  0.33918377326E+03  0.00000000000E+00 0. -1.
        -14    1    3    3    0    0  0.73654662004E+02 -0.11616499596E+02 -0.83168022583E+02  0.11169992067E+03  0.00000000000E+00 0.  1.
         15    1    5    5    0    0 -0.17399626371E+03 -0.41665028419E+02 -0.12086539170E+02  0.17933186147E+03  0.17770000000E+01 0. -1.
        -16    1    5    5    0    0 -0.20975335181E+03  0.36491609065E+02 -0.26219212053E+02  0.21451236144E+03  0.00000000000E+00 0.  1.
          2    1    6    6  502    0  0.30679588910E+02 -0.36160340744E+02 -0.31486545570E+02  0.56922842255E+02  0.00000000000E+00 0. -1.
         -3    1    6    6    0  502  0.15353105477E+03  0.94269152667E+01 -0.16177194808E+03  0.22322816735E+03  0.00000000000E+00 0.  1.
<mgrwt>
<rscale>  0 0.40041541E+03</rscale>
<asrwt>0</asrwt>
<pdfrwt beam="1">  1        1 0.13473445E+00 0.40041541E+03</pdfrwt>
<pdfrwt beam="2">  1       -2 0.38323845E-01 0.40041541E+03</pdfrwt>
<totfact> 0.11266580E+02</totfact>
</mgrwt>
</event>
<event>
12    3  0.1201947E-007  0.3195730E+03  0.7818608E-02  0.1075846E+00
          1   -1    0    0  501    0  0.00000000000E+00  0.00000000000E+00  0.27017442021E+03  0.27017442021E+03  0.00000000000E+00 0. -1.
         -2   -1    0    0    0  501 -0.00000000000E+00 -0.00000000000E+00 -0.15883440898E+04  0.15883440898E+04  0.00000000000E+00 0.  1.
        -24    2    1    2    0    0 -0.10906137218E+03 -0.18092792780E+03  0.14140768345E+03  0.26633358971E+03  0.79423863608E+02 0.  0.
    5000000    2    1    2    0    0  0.10906137218E+03  0.18092792780E+03 -0.14595773530E+04  0.15921849203E+04  0.60004789220E+03 0.  0.
        -24    2    4    4    0    0  0.15057857677E+03 -0.66590978948E+02 -0.12279410647E+04  0.12413532766E+04  0.77526981615E+02 0.  0.
         24    2    4    4    0    0 -0.41517204594E+02  0.24751890675E+03 -0.23163628836E+03  0.35083164364E+03  0.80238298934E+02 0.  0.
         11    1    3    3    0    0 -0.57676170363E+02 -0.97665093616E+02  0.28537755356E+02  0.11695902966E+03  0.00000000000E+00 0. -1.
        -12    1    3    3    0    0 -0.51385201817E+02 -0.83262834183E+02  0.11286992809E+03  0.14937456005E+03  0.00000000000E+00 0.  1.
         15    1    5    5    0    0  0.44872972315E+02 -0.36964546627E+02 -0.68253099858E+03  0.68500487816E+03  0.17770000000E+01 0. -1.
        -16    1    5    5    0    0  0.10570560446E+03 -0.29626432322E+02 -0.54541006608E+03  0.55634839848E+03  0.00000000000E+00 0.  1.
          2    1    6    6  502    0 -0.60397404648E+02  0.18278615877E+03 -0.14477844144E+03  0.24087221391E+03  0.00000000000E+00 0. -1.
         -1    1    6    6    0  502  0.18880200054E+02  0.64732747976E+02 -0.86857846921E+02  0.10995942973E+03  0.00000000000E+00 0.  1.
<mgrwt>
<rscale>  0 0.31957299E+03</rscale>
<asrwt>0</asrwt>
<pdfrwt beam="1">  1        1 0.41565296E-01 0.31957299E+03</pdfrwt>
<pdfrwt beam="2">  1       -2 0.24436063E+00 0.31957299E+03</pdfrwt>
<totfact> 0.67716288E+00</totfact>
</mgrwt>
</event>
<event>
12    3  0.1201947E-007  0.9807437E+03  0.7818608E-02  0.9329921E-01
         -2   -1    0    0    0  501 -0.00000000000E+00  0.00000000000E+00  0.95057623475E+03  0.95057623475E+03  0.00000000000E+00 0.  1.
          1   -1    0    0  501    0  0.00000000000E+00 -0.00000000000E+00 -0.11585612204E+04  0.11585612204E+04  0.00000000000E+00 0. -1.
        -24    2    1    2    0    0  0.94861601202E+03 -0.11477810246E+03  0.15407553079E+02  0.95895481103E+03  0.79439195948E+02 0.  0.
    5000000    2    1    2    0    0 -0.94861601202E+03  0.11477810246E+03 -0.22339253877E+03  0.11501826442E+04  0.59997461402E+03 0.  0.
        -24    2    4    4    0    0 -0.31230218525E+03  0.18832966360E+03  0.15190890328E+03  0.40356813797E+03  0.82402730430E+02 0.  0.
         24    2    4    4    0    0 -0.63631382677E+03 -0.73551561139E+02 -0.37530144205E+03  0.74661450619E+03  0.79227079711E+02 0.  0.
         11    1    3    3    0    0  0.43913038524E+03 -0.56186127910E+02  0.46644358185E+02  0.44516072644E+03  0.00000000000E+00 0. -1.
        -12    1    3    3    0    0  0.50948562677E+03 -0.58591974547E+02 -0.31236805106E+02  0.51379408459E+03  0.00000000000E+00 0.  1.
         15    1    5    5    0    0 -0.12715706409E+03  0.88060173524E+02  0.22197080746E+02  0.15626701901E+03  0.17770000000E+01 0. -1.
        -16    1    5    5    0    0 -0.18514512116E+03  0.10026949007E+03  0.12971182254E+03  0.24730111895E+03  0.00000000000E+00 0.  1.
          2    1    6    6  502    0 -0.52446936079E+03 -0.55353581494E+02 -0.27253249466E+03  0.59363801263E+03  0.00000000000E+00 0. -1.
         -1    1    6    6    0  502 -0.11184446597E+03 -0.18197979646E+02 -0.10276894739E+03  0.15297649356E+03  0.00000000000E+00 0.  1.
<mgrwt>
<rscale>  0 0.98074365E+03</rscale>
<asrwt>0</asrwt>
<pdfrwt beam="1">  1        1 0.17824019E+00 0.98074365E+03</pdfrwt>
<pdfrwt beam="2">  1       -2 0.14624250E+00 0.98074365E+03</pdfrwt>
<totfact> 0.32160326E+00</totfact>
</mgrwt>
</event>
<event>
12    3  0.1201947E-007  0.6666962E+03  0.7818608E-02  0.9775945E-01
          1   -1    0    0  501    0  0.00000000000E+00  0.00000000000E+00  0.21677752050E+04  0.21677752050E+04  0.00000000000E+00 0. -1.
         -2   -1    0    0    0  501 -0.00000000000E+00 -0.00000000000E+00 -0.36850993536E+03  0.36850993536E+03  0.00000000000E+00 0.  1.
        -24    2    1    2    0    0 -0.91199854463E+02 -0.54258970459E+03  0.16064640881E+04  0.16999129583E+04  0.79096133550E+02 0.  0.
    5000000    2    1    2    0    0  0.91199854463E+02  0.54258970459E+03  0.19280118150E+03  0.83637218204E+03  0.59968752724E+03 0.  0.
        -24    2    4    4    0    0  0.12011912914E+03  0.65279140209E+03  0.20238035495E+03  0.69805801143E+03  0.75907571627E+02 0.  0.
         24    2    4    4    0    0 -0.28919274673E+02 -0.11020169750E+03 -0.95791734559E+01  0.13831417061E+03  0.77835150464E+02 0.  0.
         13    1    3    3    0    0 -0.62523898168E+02 -0.49760161482E+03  0.14196510074E+04  0.15056312921E+04  0.00000000000E+00 0. -1.
        -14    1    3    3    0    0 -0.28675956295E+02 -0.44988089776E+02  0.18681308075E+03  0.19428166622E+03  0.00000000000E+00 0.  1.
         15    1    5    5    0    0  0.59808456010E+02  0.30679133783E+03  0.13479130399E+03  0.34039657715E+03  0.17770000000E+01 0. -1.
        -16    1    5    5    0    0  0.60310673126E+02  0.34600006426E+03  0.67589050957E+02  0.35766143428E+03  0.00000000000E+00 0.  1.
          2    1    6    6  502    0 -0.17175850244E+02 -0.87606067324E+02  0.27427701173E+02  0.93392246227E+02  0.00000000000E+00 0. -1.
         -1    1    6    6    0  502 -0.11743424429E+02 -0.22595630174E+02 -0.37006874629E+02  0.44921924381E+02  0.00000000000E+00 0.  1.
<mgrwt>
<rscale>  0 0.66669617E+03</rscale>
<asrwt>0</asrwt>
<pdfrwt beam="1">  1        1 0.33350387E+00 0.66669617E+03</pdfrwt>
<pdfrwt beam="2">  1       -2 0.56693837E-01 0.66669617E+03</pdfrwt>
<totfact> 0.62327067E+00</totfact>
</mgrwt>
</event>
<event>
12    3  0.1201947E-007  0.6386548E+03  0.7818608E-02  0.9828304E-01
         -2   -1    0    0    0  501 -0.00000000000E+00  0.00000000000E+00  0.35421162045E+03  0.35421162045E+03  0.00000000000E+00 0.  1.
          1   -1    0    0  501    0  0.00000000000E+00 -0.00000000000E+00 -0.16708115280E+04  0.16708115280E+04  0.00000000000E+00 0. -1.
        -24    2    1    2    0    0 -0.19273067994E+03  0.58764491340E+03 -0.29914139217E+03  0.69170201866E+03  0.80588155938E+02 0.  0.
    5000000    2    1    2    0    0  0.19273067994E+03 -0.58764491340E+03 -0.10174585154E+04  0.13333211298E+04  0.60004311965E+03 0.  0.
        -24    2    4    4    0    0  0.20506086689E+03 -0.40237570192E+03 -0.21584173044E+03  0.50669763089E+03  0.78731645008E+02 0.  0.
         24    2    4    4    0    0 -0.12330186949E+02 -0.18526921148E+03 -0.80161678499E+03  0.82662349895E+03  0.78995093629E+02 0.  0.
         11    1    3    3    0    0 -0.14511572330E+02  0.13717696992E+03 -0.85113460790E+02  0.16208765535E+03  0.00000000000E+00 0. -1.
        -12    1    3    3    0    0 -0.17821910761E+03  0.45046794347E+03 -0.21402793138E+03  0.52961436331E+03  0.00000000000E+00 0.  1.
         15    1    5    5    0    0  0.10768330789E+03 -0.16188523444E+03 -0.57587056934E+02  0.20278547971E+03  0.17770000000E+01 0. -1.
        -16    1    5    5    0    0  0.97377558998E+02 -0.24049046748E+03 -0.15825467351E+03  0.30391215117E+03  0.00000000000E+00 0.  1.
          4    1    6    6  502    0 -0.44261672209E+02 -0.12835183550E+03 -0.57374908445E+03  0.58959418349E+03  0.00000000000E+00 0. -1.
         -3    1    6    6    0  502  0.31931485260E+02 -0.56917375978E+02 -0.22786770054E+03  0.23702931546E+03  0.00000000000E+00 0.  1.
<mgrwt>
<rscale>  0 0.63865483E+03</rscale>
<asrwt>0</asrwt>
<pdfrwt beam="1">  1        1 0.25704793E+00 0.63865483E+03</pdfrwt>
<pdfrwt beam="2">  1       -2 0.54494095E-01 0.63865483E+03</pdfrwt>
<totfact> 0.14589521E+01</totfact>
</mgrwt>
</event>
<event>
12    3  0.1201947E-007  0.8651774E+03  0.7818608E-02  0.9470190E-01
         -4   -1    0    0    0  501 -0.00000000000E+00  0.00000000000E+00  0.13301933718E+04  0.13301933718E+04  0.00000000000E+00 0.  1.
          1   -1    0    0  501    0  0.00000000000E+00 -0.00000000000E+00 -0.37458392619E+04  0.37458392619E+04  0.00000000000E+00 0. -1.
        -24    2    1    2    0    0  0.41238813272E+03 -0.69581540956E+03  0.11290123579E+04  0.13910981177E+04  0.79132880058E+02 0.  0.
    5000000    2    1    2    0    0 -0.41238813272E+03  0.69581540956E+03 -0.35446582480E+04  0.36849345160E+04  0.59993102598E+03 0.  0.
        -24    2    4    4    0    0 -0.59423192776E+02 -0.45635544900E+02 -0.11927957796E+03  0.16158923229E+03  0.79181711755E+02 0.  0.
         24    2    4    4    0    0 -0.35296493994E+03  0.74145095446E+03 -0.34253786700E+04  0.35233452837E+04  0.80057406805E+02 0.  0.
         11    1    3    3    0    0  0.34031739344E+03 -0.57938280205E+03  0.98514953509E+03  0.11924847865E+04  0.00000000000E+00 0. -1.
        -12    1    3    3    0    0  0.72070739275E+02 -0.11643260752E+03  0.14386282278E+03  0.19861333120E+03  0.00000000000E+00 0.  1.
         15    1    5    5    0    0 -0.77361767223E+00 -0.38301797304E+02 -0.13950368826E+02  0.40809271991E+02  0.17770000000E+01 0. -1.
        -16    1    5    5    0    0 -0.58649575103E+02 -0.73337475951E+01 -0.10532920913E+03  0.12077996030E+03  0.00000000000E+00 0.  1.
          4    1    6    6  502    0 -0.12858771130E+03  0.34937267182E+03 -0.16361825946E+04  0.16780016526E+04  0.00000000000E+00 0. -1.
         -3    1    6    6    0  502 -0.22437722864E+03  0.39207828264E+03 -0.17891960754E+04  0.18453436311E+04  0.00000000000E+00 0.  1.
<mgrwt>
<rscale>  0 0.86517740E+03</rscale>
<asrwt>0</asrwt>
<pdfrwt beam="1">  1        1 0.57628297E+00 0.86517740E+03</pdfrwt>
<pdfrwt beam="2">  1       -4 0.20464513E+00 0.86517740E+03</pdfrwt>
<totfact> 0.98626007E-03</totfact>
</mgrwt>
</event>
<event>
12    3  0.1201947E-007  0.5080846E+03  0.7818608E-02  0.1011690E+00
          1   -1    0    0  501    0  0.00000000000E+00  0.00000000000E+00  0.30055622262E+03  0.30055622262E+03  0.00000000000E+00 0. -1.
         -2   -1    0    0    0  501 -0.00000000000E+00 -0.00000000000E+00 -0.14792631099E+04  0.14792631099E+04  0.00000000000E+00 0.  1.
        -24    2    1    2    0    0  0.26024184719E+03  0.40361910270E+03 -0.76529433685E+03  0.90696034337E+03  0.79167186008E+02 0.  0.
    5000000    2    1    2    0    0 -0.26024184719E+03 -0.40361910270E+03 -0.41341255039E+03  0.87285898912E+03  0.60028216613E+03 0.  0.
        -24    2    4    4    0    0 -0.21281686555E+03 -0.38574968417E+03  0.93287422489E+00  0.44766900939E+03  0.79453348656E+02 0.  0.
         24    2    4    4    0    0 -0.47424981640E+02 -0.17869418526E+02 -0.41434542462E+03  0.42518997973E+03  0.80845178948E+02 0.  0.
         13    1    3    3    0    0  0.30862830794E+02  0.76715099684E+02 -0.88431593188E+02  0.12106968042E+03  0.00000000000E+00 0. -1.
        -14    1    3    3    0    0  0.22937901639E+03  0.32690400301E+03 -0.67686274366E+03  0.78589066294E+03  0.00000000000E+00 0.  1.
         15    1    5    5    0    0 -0.15228529362E+03 -0.19944521595E+03  0.14074487966E+02  0.25133733061E+03  0.17770000000E+01 0. -1.
        -16    1    5    5    0    0 -0.60531571926E+02 -0.18630446822E+03 -0.13141613741E+02  0.19633167878E+03  0.00000000000E+00 0.  1.
          2    1    6    6  502    0  0.97148778081E+01 -0.27664188271E+02 -0.23213222138E+03  0.23397661073E+03  0.00000000000E+00 0. -1.
         -1    1    6    6    0  502 -0.57139859449E+02  0.97947697444E+01 -0.18221320324E+03  0.19121336900E+03  0.00000000000E+00 0.  1.
<mgrwt>
<rscale>  0 0.50808459E+03</rscale>
<asrwt>0</asrwt>
<pdfrwt beam="1">  1        1 0.46239419E-01 0.50808459E+03</pdfrwt>
<pdfrwt beam="2">  1       -2 0.22757894E+00 0.50808459E+03</pdfrwt>
<totfact> 0.71766269E+00</totfact>
</mgrwt>
</event>
<event>
12    3  0.1201947E-007  0.1385034E+04  0.7818608E-02  0.8964723E-01
         -2   -1    0    0    0  501 -0.00000000000E+00  0.00000000000E+00  0.85825939585E+03  0.85825939585E+03  0.00000000000E+00 0.  1.
          1   -1    0    0  501    0  0.00000000000E+00 -0.00000000000E+00 -0.25236102891E+04  0.25236102891E+04  0.00000000000E+00 0. -1.
        -24    2    1    2    0    0 -0.57317511510E+03  0.11989810587E+04 -0.13401860101E+04  0.18880246262E+04  0.49529342050E+02 0.  0.
    5000000    2    1    2    0    0  0.57317511510E+03 -0.11989810587E+04 -0.32516488315E+03  0.14938450588E+04  0.59979627088E+03 0.  0.
        -24    2    4    4    0    0  0.38228485945E+03 -0.11878945725E+04 -0.31503720439E+03  0.12892891611E+04  0.76045194815E+02 0.  0.
         24    2    4    4    0    0  0.19089025565E+03 -0.11086486202E+02 -0.10127678760E+02  0.20455589762E+03  0.71962111520E+02 0.  0.
         13    1    3    3    0    0 -0.19100324528E+03  0.34807234766E+03 -0.39367308370E+03  0.55911992966E+03  0.00000000000E+00 0. -1.
        -14    1    3    3    0    0 -0.38217186982E+03  0.85090871108E+03 -0.94651292643E+03  0.13289046966E+04  0.00000000000E+00 0.  1.
         15    1    5    5    0    0  0.26974550791E+03 -0.89962442774E+03 -0.26450282906E+03  0.97573134332E+03  0.17770000000E+01 0. -1.
        -16    1    5    5    0    0  0.11253935154E+03 -0.28827014480E+03 -0.50534375323E+02  0.31355781782E+03  0.00000000000E+00 0.  1.
          2    1    6    6  502    0  0.13876641955E+03 -0.13394427230E+02  0.25030693731E+02  0.14164062095E+03  0.00000000000E+00 0. -1.
         -1    1    6    6    0  502  0.52123836106E+02  0.23079410280E+01 -0.35158372490E+02  0.62915276669E+02  0.00000000000E+00 0.  1.
<mgrwt>
<rscale>  0 0.13850342E+04</rscale>
<asrwt>0</asrwt>
<pdfrwt beam="1">  1        1 0.38824773E+00 0.13850342E+04</pdfrwt>
<pdfrwt beam="2">  1       -2 0.13203991E+00 0.13850342E+04</pdfrwt>
<totfact> 0.45934374E-01</totfact>
</mgrwt>
</event>
<event>
12    3  0.1201947E-007  0.3491877E+03  0.7818608E-02  0.1062949E+00
          1   -1    0    0  501    0  0.00000000000E+00  0.00000000000E+00  0.20661629359E+04  0.20661629359E+04  0.00000000000E+00 0. -1.
         -2   -1    0    0    0  501 -0.00000000000E+00 -0.00000000000E+00 -0.10606022740E+03  0.10606022740E+03  0.00000000000E+00 0.  1.
        -24    2    1    2    0    0  0.25130998022E+03  0.90007991018E+02  0.53616975197E+03  0.60417085442E+03  0.79286025189E+02 0.  0.
    5000000    2    1    2    0    0 -0.25130998022E+03 -0.90007991018E+02  0.14239329565E+04  0.15680523089E+04  0.59995402664E+03 0.  0.
        -24    2    4    4    0    0  0.72898783901E+02  0.11118822423E+02  0.10537227455E+04  0.10594110660E+04  0.81131507046E+02 0.  0.
         24    2    4    4    0    0 -0.32420876412E+03 -0.10112681344E+03  0.37021021102E+03  0.50864124288E+03  0.79513259827E+02 0.  0.
         11    1    3    3    0    0  0.49770372019E+02  0.49765820882E+01  0.48416617154E+02  0.69613397538E+02  0.00000000000E+00 0. -1.
        -12    1    3    3    0    0  0.20153960820E+03  0.85031408929E+02  0.48775313482E+03  0.53455745688E+03  0.00000000000E+00 0.  1.
         15    1    5    5    0    0  0.59984177580E+02  0.23871904158E+02  0.10101063859E+04  0.10121689769E+04  0.17770000000E+01 0. -1.
        -16    1    5    5    0    0  0.12914606322E+02 -0.12753081735E+02  0.43616359647E+02  0.47242089063E+02  0.00000000000E+00 0.  1.
          2    1    6    6  502    0 -0.21482146849E+03 -0.31261278920E+02  0.25696785937E+03  0.33638967231E+03  0.00000000000E+00 0. -1.
         -1    1    6    6    0  502 -0.10938729563E+03 -0.69865534520E+02  0.11324235165E+03  0.17225157057E+03  0.00000000000E+00 0.  1.
<mgrwt>
<rscale>  0 0.34918769E+03</rscale>
<asrwt>0</asrwt>
<pdfrwt beam="1">  1        1 0.31787119E+00 0.34918769E+03</pdfrwt>
<pdfrwt beam="2">  1       -2 0.16316960E-01 0.34918769E+03</pdfrwt>
<totfact> 0.78668051E+01</totfact>
</mgrwt>
</event>
<event>
12    3  0.1201947E-007  0.8368989E+03  0.7818608E-02  0.9508091E-01
          1   -1    0    0  501    0  0.00000000000E+00  0.00000000000E+00  0.21905545565E+04  0.21905545565E+04  0.00000000000E+00 0. -1.
         -2   -1    0    0    0  501 -0.00000000000E+00 -0.00000000000E+00 -0.42275743509E+03  0.42275743509E+03  0.00000000000E+00 0.  1.
        -24    2    1    2    0    0  0.81830220983E+03 -0.15408662183E+03  0.11260544664E+04  0.14028486434E+04  0.81390794567E+02 0.  0.
    5000000    2    1    2    0    0 -0.81830220983E+03  0.15408662183E+03  0.64174265504E+03  0.12104633482E+04  0.60002223990E+03 0.  0.
        -24    2    4    4    0    0 -0.52926697286E+03  0.80206725472E+02  0.71344159848E+03  0.89350328883E+03  0.52844728585E+02 0.  0.
         24    2    4    4    0    0 -0.28903523697E+03  0.73879896353E+02 -0.71698943442E+02  0.31696005935E+03  0.79519390349E+02 0.  0.
         13    1    3    3    0    0  0.68872998822E+03 -0.13894770786E+03  0.99377540601E+03  0.12170640985E+04  0.00000000000E+00 0. -1.
        -14    1    3    3    0    0  0.12957222161E+03 -0.15138913963E+02  0.13227906038E+03  0.18578454495E+03  0.00000000000E+00 0.  1.
         15    1    5    5    0    0 -0.34829264430E+03  0.74278220433E+02  0.49437171955E+03  0.60928776036E+03  0.17770000000E+01 0. -1.
        -16    1    5    5    0    0 -0.18097432857E+03  0.59285050396E+01  0.21906987893E+03  0.28421552847E+03  0.00000000000E+00 0.  1.
          4    1    6    6  502    0 -0.18889071430E+03  0.20350068597E+02 -0.72655454925E+02  0.20340266068E+03  0.00000000000E+00 0. -1.
         -3    1    6    6    0  502 -0.10014452267E+03  0.53529827756E+02  0.95651148389E+00  0.11355739868E+03  0.00000000000E+00 0.  1.
<mgrwt>
<rscale>  0 0.83689889E+03</rscale>
<asrwt>0</asrwt>
<pdfrwt beam="1">  1        1 0.33700839E+00 0.83689889E+03</pdfrwt>
<pdfrwt beam="2">  1       -2 0.65039607E-01 0.83689889E+03</pdfrwt>
<totfact> 0.43750063E+00</totfact>
</mgrwt>
</event>
<event>
12    3  0.1201947E-007  0.9469098E+03  0.7818608E-02  0.9368770E-01
         -2   -1    0    0    0  501 -0.00000000000E+00  0.00000000000E+00  0.91560314531E+03  0.91560314531E+03  0.00000000000E+00 0.  1.
          1   -1    0    0  501    0  0.00000000000E+00 -0.00000000000E+00 -0.10055937849E+04  0.10055937849E+04  0.00000000000E+00 0. -1.
        -24    2    1    2    0    0 -0.80492077689E+03 -0.29372685220E+03  0.68639646995E+02  0.86316537147E+03  0.78550217075E+02 0.  0.
    5000000    2    1    2    0    0  0.80492077689E+03  0.29372685220E+03 -0.15863028656E+03  0.10580315587E+04  0.60007857041E+03 0.  0.
        -24    2    4    4    0    0  0.74509908333E+03  0.43520852085E+03 -0.86046224145E+02  0.87066587609E+03  0.77948794043E+02 0.  0.
         24    2    4    4    0    0  0.59821693555E+02 -0.14148166865E+03 -0.72584062416E+02  0.18736568263E+03  0.79004780411E+02 0.  0.
         13    1    3    3    0    0 -0.29417586208E+03 -0.71137887916E+02  0.83304329267E+01  0.30276960389E+03  0.00000000000E+00 0. -1.
        -14    1    3    3    0    0 -0.51074491481E+03 -0.22258896428E+03  0.60309214068E+02  0.56039576758E+03  0.00000000000E+00 0.  1.
         15    1    5    5    0    0  0.15559397012E+03  0.64817539998E+02  0.43059840939E+01  0.16861938281E+03  0.17770000000E+01 0. -1.
        -16    1    5    5    0    0  0.58950511321E+03  0.37039098085E+03 -0.90352208239E+02  0.70204649328E+03  0.00000000000E+00 0.  1.
          4    1    6    6  502    0  0.47164383167E+02 -0.27555934247E+02 -0.41495305919E+02  0.68597878721E+02  0.00000000000E+00 0. -1.
         -3    1    6    6    0  502  0.12657310388E+02 -0.11392573440E+03 -0.31088756497E+02  0.11876780391E+03  0.00000000000E+00 0.  1.
<mgrwt>
<rscale>  0 0.94690978E+03</rscale>
<asrwt>0</asrwt>
<pdfrwt beam="1">  1        1 0.15470674E+00 0.94690978E+03</pdfrwt>
<pdfrwt beam="2">  1       -2 0.14086202E+00 0.94690978E+03</pdfrwt>
<totfact> 0.46496472E+00</totfact>
</mgrwt>
</event>
<event>
12    3  0.1201947E-007  0.8008497E+03  0.7818608E-02  0.9558788E-01
          1   -1    0    0  501    0  0.00000000000E+00  0.00000000000E+00  0.54220875452E+03  0.54220875452E+03  0.00000000000E+00 0. -1.
         -2   -1    0    0    0  501 -0.00000000000E+00 -0.00000000000E+00 -0.14634857429E+04  0.14634857429E+04  0.00000000000E+00 0.  1.
        -24    2    1    2    0    0  0.49303044549E+03 -0.52759394318E+03 -0.76345305341E+03  0.10536224617E+04  0.76323902032E+02 0.  0.
    5000000    2    1    2    0    0 -0.49303044549E+03  0.52759394318E+03 -0.15782393494E+03  0.95207203566E+03  0.60008197571E+03 0.  0.
        -24    2    4    4    0    0 -0.45975589441E+02  0.40006239593E+03  0.85918584113E+02  0.42203025964E+03  0.92541134049E+02 0.  0.
         24    2    4    4    0    0 -0.44705485605E+03  0.12753154725E+03 -0.24374251905E+03  0.53004177602E+03  0.73563094451E+02 0.  0.
         11    1    3    3    0    0  0.19481957141E+03 -0.16073304411E+03 -0.24275576178E+03  0.35031433992E+03  0.00000000000E+00 0. -1.
        -12    1    3    3    0    0  0.29821087408E+03 -0.36686089907E+03 -0.52069729163E+03  0.70330812180E+03  0.00000000000E+00 0.  1.
         15    1    5    5    0    0  0.16182841684E+02  0.22696854994E+03  0.66625875080E+02  0.23710498094E+03  0.17770000000E+01 0. -1.
        -16    1    5    5    0    0 -0.62158431125E+02  0.17309384599E+03  0.19292709033E+02  0.18492527870E+03  0.00000000000E+00 0.  1.
          2    1    6    6  502    0 -0.80414561224E+02  0.22850484668E+02 -0.77820412245E+02  0.11421323421E+03  0.00000000000E+00 0. -1.
         -1    1    6    6    0  502 -0.36664029483E+03  0.10468106258E+03 -0.16592210681E+03  0.41582854181E+03  0.00000000000E+00 0.  1.
<mgrwt>
<rscale>  0 0.80084966E+03</rscale>
<asrwt>0</asrwt>
<pdfrwt beam="1">  1        1 0.83416732E-01 0.80084966E+03</pdfrwt>
<pdfrwt beam="2">  1       -2 0.22515165E+00 0.80084966E+03</pdfrwt>
<totfact> 0.32509978E+00</totfact>
</mgrwt>
</event>
<event>
12    3  0.1201947E-007  0.1186830E+04  0.7818608E-02  0.9124463E-01
          1   -1    0    0  501    0  0.00000000000E+00  0.00000000000E+00  0.21047135810E+04  0.21047135810E+04  0.00000000000E+00 0. -1.
         -2   -1    0    0    0  501 -0.00000000000E+00 -0.00000000000E+00 -0.73212948258E+03  0.73212948258E+03  0.00000000000E+00 0.  1.
        -24    2    1    2    0    0 -0.34860999537E+03 -0.11030702323E+04  0.46860380624E+03  0.12507739916E+04  0.80951741908E+02 0.  0.
    5000000    2    1    2    0    0  0.34860999537E+03  0.11030702323E+04  0.90398029221E+03  0.15860690720E+04  0.60011821007E+03 0.  0.
        -24    2    4    4    0    0  0.30982030315E+03  0.10771645905E+04  0.61238212260E+03  0.12797269668E+04  0.80106617984E+02 0.  0.
         24    2    4    4    0    0  0.38789692223E+02  0.25905641833E+02  0.29159816961E+03  0.30634210517E+03  0.81487731432E+02 0.  0.
         11    1    3    3    0    0 -0.30089777165E+03 -0.86205905014E+03  0.34863253401E+03  0.97735864384E+03  0.00000000000E+00 0. -1.
        -12    1    3    3    0    0 -0.47712223724E+02 -0.24101118220E+03  0.11997127222E+03  0.27341534777E+03  0.00000000000E+00 0.  1.
         15    1    5    5    0    0  0.16394618161E+01  0.13830834473E+02 -0.98597819216E+00  0.14075144734E+02  0.17770000000E+01 0. -1.
        -16    1    5    5    0    0  0.30818084133E+03  0.10633337560E+04  0.61336810079E+03  0.12656518221E+04  0.00000000000E+00 0.  1.
          4    1    6    6  502    0 -0.20414778699E+02 -0.11802156979E+02  0.66797205264E+02  0.70837283473E+02  0.00000000000E+00 0. -1.
         -3    1    6    6    0  502  0.59204470922E+02  0.37707798812E+02  0.22480096435E+03  0.23550482169E+03  0.00000000000E+00 0.  1.
<mgrwt>
<rscale>  0 0.11868296E+04</rscale>
<asrwt>0</asrwt>
<pdfrwt beam="1">  1        1 0.32380209E+00 0.11868296E+04</pdfrwt>
<pdfrwt beam="2">  1       -2 0.11263531E+00 0.11868296E+04</pdfrwt>
<totfact> 0.13539232E+00</totfact>
</mgrwt>
</event>
<event>
12    3  0.1201947E-007  0.3156300E+03  0.7818608E-02  0.1077678E+00
         -2   -1    0    0    0  501 -0.00000000000E+00  0.00000000000E+00  0.16210162525E+03  0.16210162525E+03  0.00000000000E+00 0.  1.
          1   -1    0    0  501    0  0.00000000000E+00 -0.00000000000E+00 -0.11960516629E+04  0.11960516629E+04  0.00000000000E+00 0. -1.
        -24    2    1    2    0    0 -0.14624769092E+02 -0.19350094287E+03 -0.45789004065E+03  0.50399379946E+03  0.81792186725E+02 0.  0.
    5000000    2    1    2    0    0  0.14624769092E+02  0.19350094287E+03 -0.57605999702E+03  0.85415948871E+03  0.60007233999E+03 0.  0.
        -24    2    4    4    0    0  0.69226065033E+02  0.29727021520E+03 -0.62936752037E+02  0.32177896289E+03  0.80117646500E+02 0.  0.
         24    2    4    4    0    0 -0.54601295941E+02 -0.10376927232E+03 -0.51312324499E+03  0.53238052582E+03  0.79901165993E+02 0.  0.
         11    1    3    3    0    0 -0.27506378434E+02 -0.11604103564E+03 -0.18563505288E+03  0.22064110149E+03  0.00000000000E+00 0. -1.
        -12    1    3    3    0    0  0.12881609342E+02 -0.77459907239E+02 -0.27225498776E+03  0.28335269798E+03  0.00000000000E+00 0.  1.
         15    1    5    5    0    0  0.31874932781E+01  0.18526798991E+03 -0.43135805915E+02  0.19025836034E+03  0.17770000000E+01 0. -1.
        -16    1    5    5    0    0  0.66038571754E+02  0.11200222529E+03 -0.19800946122E+02  0.13152060256E+03  0.00000000000E+00 0.  1.
          2    1    6    6  502    0 -0.10408778561E+02 -0.34079973997E+02 -0.32508456675E+03  0.32703174591E+03  0.00000000000E+00 0. -1.
         -1    1    6    6    0  502 -0.44192517380E+02 -0.69689298325E+02 -0.18803867824E+03  0.20534877990E+03  0.00000000000E+00 0.  1.
<mgrwt>
<rscale>  0 0.31562996E+03</rscale>
<asrwt>0</asrwt>
<pdfrwt beam="1">  1        1 0.18400796E+00 0.31562996E+03</pdfrwt>
<pdfrwt beam="2">  1       -2 0.24938710E-01 0.31562996E+03</pdfrwt>
<totfact> 0.14477315E+02</totfact>
</mgrwt>
</event>
<event>
12    3  0.1201947E-007  0.7569393E+03  0.7818608E-02  0.9624526E-01
          1   -1    0    0  501    0  0.00000000000E+00  0.00000000000E+00  0.10409003001E+04  0.10409003001E+04  0.00000000000E+00 0. -1.
         -2   -1    0    0    0  501 -0.00000000000E+00 -0.00000000000E+00 -0.10665261483E+04  0.10665261483E+04  0.00000000000E+00 0.  1.
        -24    2    1    2    0    0  0.72383347913E+03  0.74070749100E+02  0.62420111016E+03  0.96216080549E+03  0.81884115222E+02 0.  0.
    5000000    2    1    2    0    0 -0.72383347913E+03 -0.74070749100E+02 -0.64982695840E+03  0.11452656429E+04  0.59994744407E+03 0.  0.
        -24    2    4    4    0    0 -0.69218874892E+03 -0.12666985387E+03 -0.27912518442E+03  0.76118826928E+03  0.79537391862E+02 0.  0.
         24    2    4    4    0    0 -0.31644730204E+02  0.52599104774E+02 -0.37070177399E+03  0.38407737365E+03  0.79546017778E+02 0.  0.
         13    1    3    3    0    0  0.38807058937E+03  0.98260710152E-01  0.34517540445E+03  0.51936966780E+03  0.00000000000E+00 0. -1.
        -14    1    3    3    0    0  0.33576288976E+03  0.73972488390E+02  0.27902570571E+03  0.44279113770E+03  0.00000000000E+00 0.  1.
         15    1    5    5    0    0 -0.27976894286E+03 -0.24001771531E+02 -0.14160237026E+03  0.31448550907E+03  0.17770000000E+01 0. -1.
        -16    1    5    5    0    0 -0.41241980607E+03 -0.10266808234E+03 -0.13752281415E+03  0.44670276021E+03  0.00000000000E+00 0.  1.
          2    1    6    6  502    0 -0.39921059046E+02  0.24381127163E+02 -0.86324867666E+02  0.98184077603E+02  0.00000000000E+00 0. -1.
         -1    1    6    6    0  502  0.82763288421E+01  0.28217977612E+02 -0.28437690632E+03  0.28589329605E+03  0.00000000000E+00 0.  1.
<mgrwt>
<rscale>  0 0.75693934E+03</rscale>
<asrwt>0</asrwt>
<pdfrwt beam="1">  1        1 0.16013851E+00 0.75693934E+03</pdfrwt>
<pdfrwt beam="2">  1       -2 0.16408095E+00 0.75693934E+03</pdfrwt>
<totfact> 0.29768117E+00</totfact>
</mgrwt>
</event>
<event>
12    3  0.1201947E-007  0.1185533E+04  0.7818608E-02  0.9125614E-01
          3   -1    0    0  501    0  0.00000000000E+00  0.00000000000E+00  0.37940927602E+04  0.37940927602E+04  0.00000000000E+00 0. -1.
         -4   -1    0    0    0  501 -0.00000000000E+00 -0.00000000000E+00 -0.53362776503E+03  0.53362776503E+03  0.00000000000E+00 0.  1.
        -24    2    1    2    0    0  0.11340097665E+04  0.14845494921E+03  0.26737497997E+04  0.29091618084E+04  0.79166999985E+02 0.  0.
    5000000    2    1    2    0    0 -0.11340097665E+04 -0.14845494921E+03  0.58671519550E+03  0.14185587168E+04  0.60004757304E+03 0.  0.
        -24    2    4    4    0    0 -0.32487612137E+03  0.15699014118E+03  0.37112807226E+03  0.52328064027E+03  0.76786612112E+02 0.  0.
         24    2    4    4    0    0 -0.80913364514E+03 -0.30544509038E+03  0.21558712324E+03  0.89527807654E+03  0.83970635825E+02 0.  0.
         11    1    3    3    0    0  0.19687762617E+03  0.18314189570E+02  0.53983467866E+03  0.57490667895E+03  0.00000000000E+00 0. -1.
        -12    1    3    3    0    0  0.93713214034E+03  0.13014075964E+03  0.21339151210E+04  0.23342551295E+04  0.00000000000E+00 0.  1.
         15    1    5    5    0    0 -0.54288655530E+02  0.13466935898E+02  0.98212877025E+02  0.11303779644E+03  0.17770000000E+01 0. -1.
        -16    1    5    5    0    0 -0.27058746584E+03  0.14352320528E+03  0.27291519523E+03  0.41024284383E+03  0.00000000000E+00 0.  1.
          4    1    6    6  502    0 -0.53611717988E+03 -0.20866729287E+03  0.10266276440E+03  0.58438284786E+03  0.00000000000E+00 0. -1.
         -3    1    6    6    0  502 -0.27301646526E+03 -0.96777797516E+02  0.11292435884E+03  0.31089522868E+03  0.00000000000E+00 0.  1.
<mgrwt>
<rscale>  0 0.11855331E+04</rscale>
<asrwt>0</asrwt>
<pdfrwt beam="1">  1        3 0.58370656E+00 0.11855331E+04</pdfrwt>
<pdfrwt beam="2">  1       -4 0.82096582E-01 0.11855331E+04</pdfrwt>
<totfact> 0.39519930E-03</totfact>
</mgrwt>
</event>
<event>
12    3  0.1201947E-007  0.3281666E+03  0.7818608E-02  0.1071951E+00
         -2   -1    0    0    0  501 -0.00000000000E+00  0.00000000000E+00  0.26503769709E+03  0.26503769709E+03  0.00000000000E+00 0.  1.
          1   -1    0    0  501    0  0.00000000000E+00 -0.00000000000E+00 -0.86493072068E+03  0.86493072068E+03  0.00000000000E+00 0. -1.
        -24    2    1    2    0    0  0.22481227857E+03  0.93461517942E+02 -0.35486681346E+03  0.43761907900E+03  0.79400170463E+02 0.  0.
    5000000    2    1    2    0    0 -0.22481227857E+03 -0.93461517942E+02 -0.24502621013E+03  0.69234933877E+03  0.60002845542E+03 0.  0.
        -24    2    4    4    0    0 -0.22080594336E+03 -0.19494645035E+03  0.10245936538E+03  0.32197834989E+03  0.80079667321E+02 0.  0.
         24    2    4    4    0    0 -0.40063352178E+01  0.10148493241E+03 -0.34748557551E+03  0.37037098889E+03  0.78186968192E+02 0.  0.
         13    1    3    3    0    0  0.40027563328E+02 -0.82489046131E+01 -0.91397818593E+02  0.10011898670E+03  0.00000000000E+00 0. -1.
        -14    1    3    3    0    0  0.18478471524E+03  0.10171042255E+03 -0.26346899487E+03  0.33750009230E+03  0.00000000000E+00 0.  1.
         15    1    5    5    0    0 -0.98184230473E+01 -0.38915726618E+01  0.24684546512E+02  0.26907811773E+02  0.17770000000E+01 0. -1.
        -16    1    5    5    0    0 -0.21098752031E+03 -0.19105487769E+03  0.77774818866E+02  0.29507053811E+03  0.00000000000E+00 0.  1.
          2    1    6    6  502    0  0.17605207947E+02  0.58301420693E+02 -0.28481862056E+03  0.29125700956E+03  0.00000000000E+00 0. -1.
         -1    1    6    6    0  502 -0.21611543165E+02  0.43183511714E+02 -0.62666954946E+02  0.79113979322E+02  0.00000000000E+00 0.  1.
<mgrwt>
<rscale>  0 0.32816663E+03</rscale>
<asrwt>0</asrwt>
<pdfrwt beam="1">  1        1 0.13306626E+00 0.32816663E+03</pdfrwt>
<pdfrwt beam="2">  1       -2 0.40775031E-01 0.32816663E+03</pdfrwt>
<totfact> 0.10305435E+02</totfact>
</mgrwt>
</event>
<event>
12    3  0.1201947E-007  0.3109926E+03  0.7818608E-02  0.1079871E+00
          1   -1    0    0  501    0  0.00000000000E+00  0.00000000000E+00  0.15462961887E+04  0.15462961887E+04  0.00000000000E+00 0. -1.
         -2   -1    0    0    0  501 -0.00000000000E+00 -0.00000000000E+00 -0.21890766074E+03  0.21890766074E+03  0.00000000000E+00 0.  1.
        -24    2    1    2    0    0 -0.18572929719E+03  0.12497010643E+03 -0.52690625594E+02  0.24377587457E+03  0.80854657612E+02 0.  0.
    5000000    2    1    2    0    0  0.18572929719E+03 -0.12497010643E+03  0.13800791536E+04  0.15214279749E+04  0.60000976102E+03 0.  0.
        -24    2    4    4    0    0 -0.72386562773E+02 -0.77482288838E+02  0.20144391863E+02  0.13408412699E+03  0.79557759105E+02 0.  0.
         24    2    4    4    0    0  0.25811585997E+03 -0.47487817592E+02  0.13599347617E+04  0.13873438479E+04  0.80134301107E+02 0.  0.
         13    1    3    3    0    0 -0.97510744798E+02  0.18322730107E+02 -0.28896740379E+02  0.10333967967E+03  0.00000000000E+00 0. -1.
        -14    1    3    3    0    0 -0.88218552396E+02  0.10664737632E+03 -0.23793885215E+02  0.14043619490E+03  0.00000000000E+00 0.  1.
         15    1    5    5    0    0 -0.20288801336E+02 -0.48254571121E+02  0.45317665794E+02  0.69260289168E+02  0.17770000000E+01 0. -1.
        -16    1    5    5    0    0 -0.52097761437E+02 -0.29227717717E+02 -0.25173273931E+02  0.64823837823E+02  0.00000000000E+00 0.  1.
          2    1    6    6  502    0  0.15275529254E+03 -0.63966901739E+02  0.90976430443E+03  0.92471456868E+03  0.00000000000E+00 0. -1.
         -1    1    6    6    0  502  0.10536056743E+03  0.16479084146E+02  0.45017045728E+03  0.46262927922E+03  0.00000000000E+00 0.  1.
<mgrwt>
<rscale>  0 0.31099265E+03</rscale>
<asrwt>0</asrwt>
<pdfrwt beam="1">  1        1 0.23789171E+00 0.31099265E+03</pdfrwt>
<pdfrwt beam="2">  1       -2 0.33678103E-01 0.31099265E+03</pdfrwt>
<totfact> 0.48447681E+01</totfact>
</mgrwt>
</event>
<event>
12    3  0.1201947E-007  0.1095746E+04  0.7818608E-02  0.9209348E-01
         -2   -1    0    0    0  501 -0.00000000000E+00  0.00000000000E+00  0.15838358773E+04  0.15838358773E+04  0.00000000000E+00 0.  1.
          1   -1    0    0  501    0  0.00000000000E+00 -0.00000000000E+00 -0.77452966303E+03  0.77452966303E+03  0.00000000000E+00 0. -1.
        -24    2    1    2    0    0 -0.47696299322E+03  0.90612455386E+03  0.33712483539E+03  0.10810062050E+04  0.79786318543E+02 0.  0.
    5000000    2    1    2    0    0  0.47696299322E+03 -0.90612455386E+03  0.47218137885E+03  0.12773593353E+04  0.60011350001E+03 0.  0.
        -24    2    4    4    0    0  0.27887388534E+03 -0.91715896360E+03  0.31668376854E+03  0.10127679745E+04  0.80368852083E+02 0.  0.
         24    2    4    4    0    0  0.19808910788E+03  0.11034409738E+02  0.15549761030E+03  0.26459136083E+03  0.80424054597E+02 0.  0.
         13    1    3    3    0    0 -0.25428440979E+03  0.44507787240E+03  0.20628571804E+03  0.55254743781E+03  0.00000000000E+00 0. -1.
        -14    1    3    3    0    0 -0.22267858343E+03  0.46104668146E+03  0.13083911735E+03  0.52845876720E+03  0.00000000000E+00 0.  1.
         15    1    5    5    0    0  0.31931126536E+01 -0.89885614572E+02  0.31718956705E+02  0.95387995151E+02  0.17770000000E+01 0. -1.
        -16    1    5    5    0    0  0.27568077269E+03 -0.82727334903E+03  0.28496481184E+03  0.91737997930E+03  0.00000000000E+00 0.  1.
          4    1    6    6  502    0  0.16816960231E+02 -0.14074503439E+02 -0.34489058801E+01  0.22199025885E+02  0.00000000000E+00 0. -1.
         -3    1    6    6    0  502  0.18127214764E+03  0.25108913177E+02  0.15894651618E+03  0.24239233494E+03  0.00000000000E+00 0.  1.
<mgrwt>
<rscale>  0 0.10957462E+04</rscale>
<asrwt>0</asrwt>
<pdfrwt beam="1">  1        1 0.11915841E+00 0.10957462E+04</pdfrwt>
<pdfrwt beam="2">  1       -2 0.24366706E+00 0.10957462E+04</pdfrwt>
<totfact> 0.14198997E+00</totfact>
</mgrwt>
</event>
<event>
12    3  0.1201947E-007  0.1306471E+04  0.7818608E-02  0.9024450E-01
         -2   -1    0    0    0  501 -0.00000000000E+00  0.00000000000E+00  0.18417543483E+04  0.18417543483E+04  0.00000000000E+00 0.  1.
          1   -1    0    0  501    0  0.00000000000E+00 -0.00000000000E+00 -0.10389951943E+04  0.10389951943E+04  0.00000000000E+00 0. -1.
        -24    2    1    2    0    0  0.12052331577E+04  0.39369339898E+03  0.11408871599E+02  0.12703158611E+04  0.77400050093E+02 0.  0.
    5000000    2    1    2    0    0 -0.12052331577E+04 -0.39369339898E+03  0.79135028247E+03  0.16104336815E+04  0.59973320412E+03 0.  0.
        -24    2    4    4    0    0 -0.94485296354E+03 -0.97792219260E+02  0.35568412654E+03  0.10175162961E+04  0.80732733180E+02 0.  0.
         24    2    4    4    0    0 -0.26038019419E+03 -0.29590117972E+03  0.43566615593E+03  0.59291738537E+03  0.79941683525E+02 0.  0.
         13    1    3    3    0    0  0.38953682429E+03  0.14281459884E+03  0.36906030709E+02  0.41652971350E+03  0.00000000000E+00 0. -1.
        -14    1    3    3    0    0  0.81569633343E+03  0.25087880014E+03 -0.25497159110E+02  0.85378614761E+03  0.00000000000E+00 0.  1.
         15    1    5    5    0    0 -0.50704912360E+03 -0.57160468989E+02  0.14830355654E+03  0.53137861791E+03  0.17770000000E+01 0. -1.
        -16    1    5    5    0    0 -0.43780383994E+03 -0.40631750271E+02  0.20738057000E+03  0.48613767824E+03  0.00000000000E+00 0.  1.
          4    1    6    6  502    0 -0.14981849175E+03 -0.15464825455E+03  0.18024872032E+03  0.28080467283E+03  0.00000000000E+00 0. -1.
         -3    1    6    6    0  502 -0.11056170244E+03 -0.14125292516E+03  0.25541743561E+03  0.31211271254E+03  0.00000000000E+00 0.  1.
<mgrwt>
<rscale>  0 0.13064706E+04</rscale>
<asrwt>0</asrwt>
<pdfrwt beam="1">  1        1 0.15984541E+00 0.13064706E+04</pdfrwt>
<pdfrwt beam="2">  1       -2 0.28334682E+00 0.13064706E+04</pdfrwt>
<totfact> 0.48077865E-01</totfact>
</mgrwt>
</event>
<event>
12    3  0.1201947E-007  0.6188548E+03  0.7818608E-02  0.9867042E-01
         -2   -1    0    0    0  501 -0.00000000000E+00  0.00000000000E+00  0.27044288534E+03  0.27044288534E+03  0.00000000000E+00 0.  1.
          1   -1    0    0  501    0  0.00000000000E+00 -0.00000000000E+00 -0.15824438435E+04  0.15824438435E+04  0.00000000000E+00 0. -1.
        -24    2    1    2    0    0  0.49058273440E+03 -0.14806536920E+03 -0.54950188158E+03  0.75561090391E+03  0.80004671146E+02 0.  0.
    5000000    2    1    2    0    0 -0.49058273440E+03  0.14806536920E+03 -0.76249907660E+03  0.10972758250E+04  0.60001218434E+03 0.  0.
        -24    2    4    4    0    0 -0.55612525296E+03  0.18743744305E+02 -0.73976920779E+03  0.92906997907E+03  0.79283795840E+02 0.  0.
         24    2    4    4    0    0  0.65542518566E+02  0.12932162489E+03 -0.22729868817E+02  0.16820584588E+03  0.82198876198E+02 0.  0.
         11    1    3    3    0    0  0.34616457587E+03 -0.79168784835E+02 -0.33659377295E+03  0.48927801715E+03  0.00000000000E+00 0. -1.
        -12    1    3    3    0    0  0.14441815853E+03 -0.68896584362E+02 -0.21290810863E+03  0.26633288676E+03  0.00000000000E+00 0.  1.
         15    1    5    5    0    0 -0.21950873373E+02 -0.11699335694E+02 -0.52212296899E+02  0.57861878418E+02  0.17770000000E+01 0. -1.
        -16    1    5    5    0    0 -0.53417437959E+03  0.30443080000E+02 -0.68755691089E+03  0.87120810065E+03  0.00000000000E+00 0.  1.
          4    1    6    6  502    0  0.28782160473E+02  0.12172476751E+03 -0.32860440322E+02  0.12932571409E+03  0.00000000000E+00 0. -1.
         -3    1    6    6    0  502  0.36760358093E+02  0.75968573823E+01  0.10130571505E+02  0.38880131793E+02  0.00000000000E+00 0.  1.
<mgrwt>
<rscale>  0 0.61885484E+03</rscale>
<asrwt>0</asrwt>
<pdfrwt beam="1">  1        1 0.24345290E+00 0.61885484E+03</pdfrwt>
<pdfrwt beam="2">  1       -2 0.41606597E-01 0.61885484E+03</pdfrwt>
<totfact> 0.28872797E+01</totfact>
</mgrwt>
</event>
<event>
12    3  0.1201947E-007  0.4827351E+03  0.7818608E-02  0.1018386E+00
         -2   -1    0    0    0  501 -0.00000000000E+00  0.00000000000E+00  0.25359814369E+03  0.25359814369E+03  0.00000000000E+00 0.  1.
          1   -1    0    0  501    0  0.00000000000E+00 -0.00000000000E+00 -0.15031768476E+04  0.15031768476E+04  0.00000000000E+00 0. -1.
        -24    2    1    2    0    0  0.29633397281E+03 -0.65641673579E+02 -0.98588713724E+03  0.10346793925E+04  0.80407369760E+02 0.  0.
    5000000    2    1    2    0    0 -0.29633397281E+03  0.65641673579E+02 -0.26369156671E+03  0.72209559884E+03  0.59980510065E+03 0.  0.
        -24    2    4    4    0    0 -0.41435254523E+03 -0.11855790609E+03 -0.19560727625E+03  0.48003315231E+03  0.80159914944E+02 0.  0.
         24    2    4    4    0    0  0.11801857242E+03  0.18419957967E+03 -0.68084290466E+02  0.24206244653E+03  0.78108186685E+02 0.  0.
         11    1    3    3    0    0  0.17730463075E+03 -0.20062858765E+02 -0.45575769276E+03  0.48944307626E+03  0.00000000000E+00 0. -1.
        -12    1    3    3    0    0  0.11902934206E+03 -0.45578814814E+02 -0.53012944448E+03  0.54523631623E+03  0.00000000000E+00 0.  1.
         15    1    5    5    0    0 -0.22365125830E+03 -0.72576532462E+02 -0.63607925452E+02  0.24359056696E+03  0.17770000000E+01 0. -1.
        -16    1    5    5    0    0 -0.19070128693E+03 -0.45981373630E+02 -0.13199935080E+03  0.23644258535E+03  0.00000000000E+00 0.  1.
          2    1    6    6  502    0  0.10017885350E+03  0.97634039452E+02 -0.63318268772E+02  0.15354937808E+03  0.00000000000E+00 0. -1.
         -1    1    6    6    0  502  0.17839718917E+02  0.86565540219E+02 -0.47660216941E+01  0.88513068455E+02  0.00000000000E+00 0.  1.
<mgrwt>
<rscale>  0 0.48273511E+03</rscale>
<asrwt>0</asrwt>
<pdfrwt beam="1">  1        1 0.23125797E+00 0.48273511E+03</pdfrwt>
<pdfrwt beam="2">  1       -2 0.39015099E-01 0.48273511E+03</pdfrwt>
<totfact> 0.37799707E+01</totfact>
</mgrwt>
</event>
<event>
12    3  0.1201947E-007  0.8577277E+03  0.7818608E-02  0.9480023E-01
         -2   -1    0    0    0  501 -0.00000000000E+00  0.00000000000E+00  0.12288149430E+04  0.12288149430E+04  0.00000000000E+00 0.  1.
          1   -1    0    0  501    0  0.00000000000E+00 -0.00000000000E+00 -0.11501006124E+04  0.11501006124E+04  0.00000000000E+00 0. -1.
        -24    2    1    2    0    0  0.76627329487E+03 -0.27718139394E+03 -0.72009628799E+03  0.10896918451E+04  0.69895391728E+02 0.  0.
    5000000    2    1    2    0    0 -0.76627329487E+03  0.27718139394E+03  0.79881061867E+03  0.12892237103E+04  0.59999590249E+03 0.  0.
        -24    2    4    4    0    0 -0.37422202986E+03 -0.56261461693E+02  0.63483221414E+03  0.74350116203E+03  0.81083648968E+02 0.  0.
         24    2    4    4    0    0 -0.39205126501E+03  0.33344285563E+03  0.16397840453E+03  0.54572254822E+03  0.77690733779E+02 0.  0.
         13    1    3    3    0    0  0.55230876159E+03 -0.17913154471E+03 -0.54503405348E+03  0.79636373466E+03  0.00000000000E+00 0. -1.
        -14    1    3    3    0    0  0.21396453328E+03 -0.98049849229E+02 -0.17506223452E+03  0.29332811047E+03  0.00000000000E+00 0.  1.
         15    1    5    5    0    0 -0.23334265579E+03 -0.20585416935E+02  0.31837481417E+03  0.39526982484E+03  0.17770000000E+01 0. -1.
        -16    1    5    5    0    0 -0.14087937407E+03 -0.35676044759E+02  0.31645739997E+03  0.34823133719E+03  0.00000000000E+00 0.  1.
          4    1    6    6  502    0 -0.11595872119E+03  0.57117787659E+02  0.29330788117E+02  0.13254871489E+03  0.00000000000E+00 0. -1.
         -3    1    6    6    0  502 -0.27609254382E+03  0.27632506798E+03  0.13464761641E+03  0.41317383333E+03  0.00000000000E+00 0.  1.
<mgrwt>
<rscale>  0 0.85772767E+03</rscale>
<asrwt>0</asrwt>
<pdfrwt beam="1">  1        1 0.17693855E+00 0.85772767E+03</pdfrwt>
<pdfrwt beam="2">  1       -2 0.18904845E+00 0.85772767E+03</pdfrwt>
<totfact> 0.16293011E+00</totfact>
</mgrwt>
</event>
<event>
12    3  0.1201947E-007  0.5761216E+03  0.7818608E-02  0.9956223E-01
         -2   -1    0    0    0  501 -0.00000000000E+00  0.00000000000E+00  0.32423641580E+03  0.32423641580E+03  0.00000000000E+00 0.  1.
          3   -1    0    0  501    0  0.00000000000E+00 -0.00000000000E+00 -0.18696510688E+04  0.18696510688E+04  0.00000000000E+00 0. -1.
        -24    2    1    2    0    0  0.34731312983E+03 -0.25106777239E+03  0.44233099222E+02  0.44158156338E+03  0.96831160075E+02 0.  0.
    5000000    2    1    2    0    0 -0.34731312983E+03  0.25106777239E+03 -0.15896477523E+04  0.17523059213E+04  0.59994552162E+03 0.  0.
        -24    2    4    4    0    0 -0.44785311660E+03 -0.56908207730E+00 -0.97530181643E+03  0.10760889410E+04  0.78619576883E+02 0.  0.
         24    2    4    4    0    0  0.10053998676E+03  0.25163685447E+03 -0.61434593584E+03  0.67621698029E+03  0.80119161729E+02 0.  0.
         13    1    3    3    0    0  0.15925818685E+03 -0.93332801590E+02 -0.25681425489E+02  0.18636984077E+03  0.00000000000E+00 0. -1.
        -14    1    3    3    0    0  0.18805494298E+03 -0.15773497080E+03  0.69914524712E+02  0.25521172261E+03  0.00000000000E+00 0.  1.
         15    1    5    5    0    0 -0.84114266175E+02 -0.21209130082E+02 -0.13872899397E+03  0.16362740745E+03  0.17770000000E+01 0. -1.
        -16    1    5    5    0    0 -0.36373885042E+03  0.20640048004E+02 -0.83657282247E+03  0.91246153353E+03  0.00000000000E+00 0.  1.
          4    1    6    6  502    0  0.51974217920E+02  0.14153490966E+03 -0.24415687409E+03  0.28695997830E+03  0.00000000000E+00 0. -1.
         -3    1    6    6    0  502  0.48565768845E+02  0.11010194481E+03 -0.37018906175E+03  0.38925700198E+03  0.00000000000E+00 0.  1.
<mgrwt>
<rscale>  0 0.57612155E+03</rscale>
<asrwt>0</asrwt>
<pdfrwt beam="1">  1        3 0.28763863E+00 0.57612155E+03</pdfrwt>
<pdfrwt beam="2">  1       -2 0.49882525E-01 0.57612155E+03</pdfrwt>
<totfact> 0.74070686E-01</totfact>
</mgrwt>
</event>
<event>
12    3  0.1201947E-007  0.5950440E+03  0.7818608E-02  0.9915742E-01
         -2   -1    0    0    0  501 -0.00000000000E+00  0.00000000000E+00  0.13519288863E+03  0.13519288863E+03  0.00000000000E+00 0.  1.
          1   -1    0    0  501    0  0.00000000000E+00 -0.00000000000E+00 -0.28282692716E+04  0.28282692716E+04  0.00000000000E+00 0. -1.
        -24    2    1    2    0    0 -0.46377249717E+03  0.12110891372E+02 -0.11920070552E+04  0.12816812512E+04  0.81205955196E+02 0.  0.
    5000000    2    1    2    0    0  0.46377249717E+03 -0.12110891372E+02 -0.15010693278E+04  0.16817809091E+04  0.59995524536E+03 0.  0.
        -24    2    4    4    0    0 -0.11532817374E+03  0.20883431863E+02 -0.53937194787E+03  0.55583537207E+03  0.65529820011E+02 0.  0.
         24    2    4    4    0    0  0.57910067091E+03 -0.32994323235E+02 -0.96169737997E+03  0.11259455370E+04  0.80282559304E+02 0.  0.
         13    1    3    3    0    0 -0.43978631276E+03  0.30154691287E+02 -0.11077786666E+04  0.11922646017E+04  0.00000000000E+00 0. -1.
        -14    1    3    3    0    0 -0.23986184412E+02 -0.18043799915E+02 -0.84228388545E+02  0.89416649428E+02  0.00000000000E+00 0.  1.
         15    1    5    5    0    0 -0.32877830753E+02 -0.23609890577E+02 -0.17140540001E+03  0.17612878120E+03  0.17770000000E+01 0. -1.
        -16    1    5    5    0    0 -0.82450342983E+02  0.44493322440E+02 -0.36796654786E+03  0.37970659086E+03  0.00000000000E+00 0.  1.
          2    1    6    6  502    0  0.12152477094E+03  0.24203166482E+02 -0.18476800093E+03  0.22247084615E+03  0.00000000000E+00 0. -1.
         -1    1    6    6    0  502  0.45757589997E+03 -0.57197489717E+02 -0.77692937904E+03  0.90347469089E+03  0.00000000000E+00 0.  1.
<mgrwt>
<rscale>  0 0.59504397E+03</rscale>
<asrwt>0</asrwt>
<pdfrwt beam="1">  1        1 0.43511832E+00 0.59504397E+03</pdfrwt>
<pdfrwt beam="2">  1       -2 0.20798907E-01 0.59504397E+03</pdfrwt>
<totfact> 0.15087072E+01</totfact>
</mgrwt>
</event>
<event>
12    3  0.1201947E-007  0.9578637E+03  0.7818608E-02  0.9356006E-01
         -2   -1    0    0    0  501 -0.00000000000E+00  0.00000000000E+00  0.16382182531E+04  0.16382182531E+04  0.00000000000E+00 0.  1.
          1   -1    0    0  501    0  0.00000000000E+00 -0.00000000000E+00 -0.97643803302E+03  0.97643803302E+03  0.00000000000E+00 0. -1.
        -24    2    1    2    0    0 -0.86407486854E+03 -0.42514266718E+02  0.11605230443E+04  0.14497184188E+04  0.80230393089E+02 0.  0.
    5000000    2    1    2    0    0  0.86407486854E+03  0.42514266718E+02 -0.49874282427E+03  0.11649378673E+04  0.59991915179E+03 0.  0.
        -24    2    4    4    0    0  0.10237716535E+03  0.23089952763E+03 -0.13084019441E+03  0.29507134112E+03  0.78436369336E+02 0.  0.
         24    2    4    4    0    0  0.76169770319E+03 -0.18838526091E+03 -0.36790262986E+03  0.86986652621E+03  0.75120109155E+02 0.  0.
         13    1    3    3    0    0 -0.51811202098E+03 -0.15814106546E+02  0.63064149332E+03  0.81633255806E+03  0.00000000000E+00 0. -1.
        -14    1    3    3    0    0 -0.34596284756E+03 -0.26700160171E+02  0.52988155100E+03  0.63338586070E+03  0.00000000000E+00 0.  1.
         15    1    5    5    0    0 -0.68589337514E+01  0.67369493256E+02 -0.36650824085E+02  0.77020349446E+02  0.17770000000E+01 0. -1.
        -16    1    5    5    0    0  0.10923609910E+03  0.16353003437E+03 -0.94189370324E+02  0.21805099168E+03  0.00000000000E+00 0.  1.
          2    1    6    6  502    0  0.72628497321E+03 -0.16930683144E+03 -0.33347896716E+03  0.81692281583E+03  0.00000000000E+00 0. -1.
         -3    1    6    6    0  502  0.35412729974E+02 -0.19078429474E+02 -0.34423662699E+02  0.52943710382E+02  0.00000000000E+00 0.  1.
<mgrwt>
<rscale>  0 0.95786366E+03</rscale>
<asrwt>0</asrwt>
<pdfrwt beam="1">  1        1 0.15022124E+00 0.95786366E+03</pdfrwt>
<pdfrwt beam="2">  1       -2 0.25203358E+00 0.95786366E+03</pdfrwt>
<totfact> 0.87090228E-01</totfact>
</mgrwt>
</event>
<event>
12    3  0.1201947E-007  0.1192454E+04  0.7818608E-02  0.9119487E-01
         -2   -1    0    0    0  501 -0.00000000000E+00  0.00000000000E+00  0.77859370715E+03  0.77859370715E+03  0.00000000000E+00 0.  1.
          1   -1    0    0  501    0  0.00000000000E+00 -0.00000000000E+00 -0.19677237178E+04  0.19677237178E+04  0.00000000000E+00 0. -1.
        -24    2    1    2    0    0  0.45845562509E+03  0.10307752232E+04 -0.24494231617E+03  0.11575397330E+04  0.84984553379E+02 0.  0.
    5000000    2    1    2    0    0 -0.45845562509E+03 -0.10307752232E+04 -0.94418769447E+03  0.15887776919E+04  0.60003752475E+03 0.  0.
        -24    2    4    4    0    0  0.53228165085E+02 -0.52774940145E+03 -0.54034213011E+03  0.76141756339E+03  0.80214836402E+02 0.  0.
         24    2    4    4    0    0 -0.51168379018E+03 -0.50302582173E+03 -0.40384556436E+03  0.82736012855E+03  0.81106497892E+02 0.  0.
         11    1    3    3    0    0  0.16433762785E+03  0.47279638869E+03 -0.10390834418E+03  0.51121446094E+03  0.00000000000E+00 0. -1.
        -12    1    3    3    0    0  0.29411799724E+03  0.55797883449E+03 -0.14103397199E+03  0.64632527206E+03  0.00000000000E+00 0.  1.
         15    1    5    5    0    0  0.64889922346E+02 -0.40917268596E+03 -0.45165484240E+03  0.61288517958E+03  0.17770000000E+01 0. -1.
        -16    1    5    5    0    0 -0.11661757261E+02 -0.11857671549E+03 -0.88687287711E+02  0.14853238381E+03  0.00000000000E+00 0.  1.
          2    1    6    6  502    0 -0.24381109793E+03 -0.19684048776E+03 -0.20580533572E+03  0.37489447222E+03  0.00000000000E+00 0. -1.
         -1    1    6    6    0  502 -0.26787269225E+03 -0.30618533398E+03 -0.19804022864E+03  0.45246565633E+03  0.00000000000E+00 0.  1.
<mgrwt>
<rscale>  0 0.11924541E+04</rscale>
<asrwt>0</asrwt>
<pdfrwt beam="1">  1        1 0.30272672E+00 0.11924541E+04</pdfrwt>
<pdfrwt beam="2">  1       -2 0.11978365E+00 0.11924541E+04</pdfrwt>
<totfact> 0.14388632E+00</totfact>
</mgrwt>
</event>
<event>
12    3  0.1201947E-007  0.1024220E+04  0.7818608E-02  0.9282373E-01
         -2   -1    0    0    0  501 -0.00000000000E+00  0.00000000000E+00  0.95466346632E+03  0.95466346632E+03  0.00000000000E+00 0.  1.
          1   -1    0    0  501    0  0.00000000000E+00 -0.00000000000E+00 -0.12556895271E+04  0.12556895271E+04  0.00000000000E+00 0. -1.
        -24    2    1    2    0    0  0.95478756123E+03  0.32698128642E+03 -0.80502880720E+02  0.10156588863E+04  0.80908657283E+02 0.  0.
    5000000    2    1    2    0    0 -0.95478756123E+03 -0.32698128642E+03 -0.22052318005E+03  0.11946941071E+04  0.60010623043E+03 0.  0.
        -24    2    4    4    0    0 -0.63802628939E+03 -0.31696297753E+03  0.11527603972E+03  0.72627571775E+03  0.81515506388E+02 0.  0.
         24    2    4    4    0    0 -0.31676127184E+03 -0.10018308892E+02 -0.33579921977E+03  0.46841838933E+03  0.78845428618E+02 0.  0.
         11    1    3    3    0    0  0.73465392219E+03  0.26530801479E+03 -0.30745358237E+02  0.78169687549E+03  0.00000000000E+00 0. -1.
        -12    1    3    3    0    0  0.22013363903E+03  0.61673271632E+02 -0.49757522483E+02  0.23396201083E+03  0.00000000000E+00 0.  1.
         15    1    5    5    0    0 -0.44881584850E+03 -0.21771845462E+03  0.11797668104E+03  0.51259988914E+03  0.17770000000E+01 0. -1.
        -16    1    5    5    0    0 -0.18921044089E+03 -0.99244522906E+02 -0.27006413160E+01  0.21367582861E+03  0.00000000000E+00 0.  1.
          4    1    6    6  502    0 -0.22132942005E+03  0.28839355147E+02 -0.23955059394E+03  0.32741855116E+03  0.00000000000E+00 0. -1.
         -3    1    6    6    0  502 -0.95431851784E+02 -0.38857664039E+02 -0.96248625832E+02  0.14099983817E+03  0.00000000000E+00 0.  1.
<mgrwt>
<rscale>  0 0.10242196E+04</rscale>
<asrwt>0</asrwt>
<pdfrwt beam="1">  1        1 0.19318300E+00 0.10242196E+04</pdfrwt>
<pdfrwt beam="2">  1       -2 0.14687130E+00 0.10242196E+04</pdfrwt>
<totfact> 0.26883785E+00</totfact>
</mgrwt>
</event>
<event>
12    3  0.1201947E-007  0.6651757E+03  0.7818608E-02  0.9778712E-01
         -2   -1    0    0    0  501 -0.00000000000E+00  0.00000000000E+00  0.63123884697E+03  0.63123884697E+03  0.00000000000E+00 0.  1.
          1   -1    0    0  501    0  0.00000000000E+00 -0.00000000000E+00 -0.13507615963E+04  0.13507615963E+04  0.00000000000E+00 0. -1.
        -24    2    1    2    0    0 -0.40362854934E+03  0.40130333675E+03  0.31672690095E+03  0.65622703878E+03  0.79734702003E+02 0.  0.
    5000000    2    1    2    0    0  0.40362854934E+03 -0.40130333675E+03 -0.10362496502E+04  0.13257734045E+04  0.59991783471E+03 0.  0.
        -24    2    4    4    0    0  0.31191164421E+03 -0.50970935034E+03 -0.98404803511E+03  0.11540383080E+04  0.79758293020E+02 0.  0.
         24    2    4    4    0    0  0.91716905137E+02  0.10840601358E+03 -0.52201615130E+02  0.17173509646E+03  0.81265492459E+02 0.  0.
         11    1    3    3    0    0 -0.11543291536E+03  0.13810036904E+03  0.62959756248E+02  0.19068403390E+03  0.00000000000E+00 0. -1.
        -12    1    3    3    0    0 -0.28819563398E+03  0.26320296771E+03  0.25376714470E+03  0.46554300487E+03  0.00000000000E+00 0.  1.
         15    1    5    5    0    0  0.19123626846E+03 -0.28557516401E+03 -0.49371452844E+03  0.60156602131E+03  0.17770000000E+01 0. -1.
        -16    1    5    5    0    0  0.12067537575E+03 -0.22413418633E+03 -0.49033350668E+03  0.55247228669E+03  0.00000000000E+00 0.  1.
          4    1    6    6  502    0 -0.14068012512E+02  0.93803167683E+01  0.20028938308E+01  0.17026770169E+02  0.00000000000E+00 0. -1.
         -3    1    6    6    0  502  0.10578491765E+03  0.99025696817E+02 -0.54204508960E+02  0.15470832629E+03  0.00000000000E+00 0.  1.
<mgrwt>
<rscale>  0 0.66517572E+03</rscale>
<asrwt>0</asrwt>
<pdfrwt beam="1">  1        1 0.20780947E+00 0.66517572E+03</pdfrwt>
<pdfrwt beam="2">  1       -2 0.97113670E-01 0.66517572E+03</pdfrwt>
<totfact> 0.67405504E+00</totfact>
</mgrwt>
</event>
<event>
12    3  0.1201947E-007  0.5171574E+03  0.7818608E-02  0.1009395E+00
         -2   -1    0    0    0  501 -0.00000000000E+00  0.00000000000E+00  0.24287329007E+03  0.24287329007E+03  0.00000000000E+00 0.  1.
          1   -1    0    0  501    0  0.00000000000E+00 -0.00000000000E+00 -0.14696233391E+04  0.14696233391E+04  0.00000000000E+00 0. -1.
        -24    2    1    2    0    0 -0.42473754539E+03  0.89179001647E+02 -0.34149867906E+03  0.55840393086E+03  0.82696586337E+02 0.  0.
    5000000    2    1    2    0    0  0.42473754539E+03 -0.89179001647E+02 -0.88525136992E+03  0.11540926983E+04  0.59992090435E+03 0.  0.
        -24    2    4    4    0    0  0.12719192090E+03 -0.22060396647E+03 -0.74308232283E+03  0.78950275736E+03  0.79368574413E+02 0.  0.
         24    2    4    4    0    0  0.29754562450E+03  0.13142496482E+03 -0.14216904709E+03  0.36458994092E+03  0.83113579124E+02 0.  0.
         13    1    3    3    0    0 -0.17456604111E+03  0.77775907872E+02 -0.13820769112E+03  0.23584690042E+03  0.00000000000E+00 0. -1.
        -14    1    3    3    0    0 -0.25017150428E+03  0.11403093775E+02 -0.20329098795E+03  0.32255703044E+03  0.00000000000E+00 0.  1.
         15    1    5    5    0    0  0.24704180224E+02 -0.75082868583E+02 -0.14089640056E+03  0.16156326035E+03  0.17770000000E+01 0. -1.
        -16    1    5    5    0    0  0.10248774067E+03 -0.14552109789E+03 -0.60218592227E+03  0.62793949700E+03  0.00000000000E+00 0.  1.
          4    1    6    6  502    0  0.14035225836E+01  0.18856025093E+02 -0.75371821737E+01  0.20355065047E+02  0.00000000000E+00 0. -1.
         -3    1    6    6    0  502  0.29614210191E+03  0.11256893973E+03 -0.13463186492E+03  0.34423487588E+03  0.00000000000E+00 0.  1.
<mgrwt>
<rscale>  0 0.51715737E+03</rscale>
<asrwt>0</asrwt>
<pdfrwt beam="1">  1        1 0.22609591E+00 0.51715737E+03</pdfrwt>
<pdfrwt beam="2">  1       -2 0.37365120E-01 0.51715737E+03</pdfrwt>
<totfact> 0.43039623E+01</totfact>
</mgrwt>
</event>
<event>
12    3  0.1201947E-007  0.3721984E+03  0.7818608E-02  0.1053856E+00
         -2   -1    0    0    0  501 -0.00000000000E+00  0.00000000000E+00  0.56967105259E+03  0.56967105259E+03  0.00000000000E+00 0.  1.
          1   -1    0    0  501    0  0.00000000000E+00 -0.00000000000E+00 -0.48116781371E+03  0.48116781371E+03  0.00000000000E+00 0. -1.
        -24    2    1    2    0    0  0.20033338868E+03  0.26982475327E+03 -0.52046432724E+02  0.34905632774E+03  0.78693231482E+02 0.  0.
    5000000    2    1    2    0    0 -0.20033338868E+03 -0.26982475327E+03  0.14054967160E+03  0.70178253855E+03  0.59983802575E+03 0.  0.
        -24    2    4    4    0    0  0.97221261829E+00 -0.13055828211E+03  0.34192548268E+03  0.37450154503E+03  0.79321884125E+02 0.  0.
         24    2    4    4    0    0 -0.20130560130E+03 -0.13926647116E+03 -0.20137581108E+03  0.32728099352E+03  0.81495621523E+02 0.  0.
         13    1    3    3    0    0  0.15742510602E+03  0.16160513764E+03 -0.11931811543E+02  0.22592311225E+03  0.00000000000E+00 0. -1.
        -14    1    3    3    0    0  0.42908282659E+02  0.10821961562E+03 -0.40114621181E+02  0.12313321550E+03  0.00000000000E+00 0.  1.
         15    1    5    5    0    0 -0.88742359306E+01  0.43691724638E+01  0.45884533709E+01  0.11047776460E+02  0.17770000000E+01 0. -1.
        -16    1    5    5    0    0  0.98464485488E+01 -0.13492745457E+03  0.33733702931E+03  0.36345376857E+03  0.00000000000E+00 0.  1.
          4    1    6    6  502    0 -0.11169738437E+03 -0.29863546085E+02 -0.10466371071E+03  0.15595713962E+03  0.00000000000E+00 0. -1.
         -3    1    6    6    0  502 -0.89608216933E+02 -0.10940292507E+03 -0.96712100368E+02  0.17132385390E+03  0.00000000000E+00 0.  1.
<mgrwt>
<rscale>  0 0.37219838E+03</rscale>
<asrwt>0</asrwt>
<pdfrwt beam="1">  1        1 0.74025817E-01 0.37219838E+03</pdfrwt>
<pdfrwt beam="2">  1       -2 0.87641701E-01 0.37219838E+03</pdfrwt>
<totfact> 0.48383849E+01</totfact>
</mgrwt>
</event>
<event>
12    3  0.1201947E-007  0.7120133E+03  0.7818608E-02  0.9696906E-01
         -2   -1    0    0    0  501 -0.00000000000E+00  0.00000000000E+00  0.45576403719E+03  0.45576403719E+03  0.00000000000E+00 0.  1.
          1   -1    0    0  501    0  0.00000000000E+00 -0.00000000000E+00 -0.12550541535E+04  0.12550541535E+04  0.00000000000E+00 0. -1.
        -24    2    1    2    0    0  0.61207006654E+03  0.82635187563E+02 -0.17387123405E+03  0.64649135798E+03  0.79129825794E+02 0.  0.
    5000000    2    1    2    0    0 -0.61207006654E+03 -0.82635187563E+02 -0.62541888227E+03  0.10643268327E+04  0.60015372027E+03 0.  0.
        -24    2    4    4    0    0 -0.11991746068E+03 -0.24421933851E+03 -0.40908443153E+03  0.49741296475E+03  0.77757975206E+02 0.  0.
         24    2    4    4    0    0 -0.49215260587E+03  0.16158415095E+03 -0.21633445074E+03  0.56691386796E+03  0.79165104720E+02 0.  0.
         13    1    3    3    0    0  0.45111610523E+03  0.85527065922E+02 -0.10279254650E+03  0.47051772233E+03  0.00000000000E+00 0. -1.
        -14    1    3    3    0    0  0.16095396131E+03 -0.28918783585E+01 -0.71078687547E+02  0.17597363565E+03  0.00000000000E+00 0.  1.
         15    1    5    5    0    0  0.71649237997E+01 -0.49870906829E+02 -0.82656415055E+02  0.96817788447E+02  0.17770000000E+01 0. -1.
        -16    1    5    5    0    0 -0.12708238448E+03 -0.19434843168E+03 -0.32642801647E+03  0.40059517631E+03  0.00000000000E+00 0.  1.
          2    1    6    6  502    0 -0.26341357070E+02  0.23820820663E+02 -0.89497364892E+00  0.35526040691E+02  0.00000000000E+00 0. -1.
         -1    1    6    6    0  502 -0.46581124880E+03  0.13776333029E+03 -0.21543947709E+03  0.53138782727E+03  0.00000000000E+00 0.  1.
<mgrwt>
<rscale>  0 0.71201326E+03</rscale>
<asrwt>0</asrwt>
<pdfrwt beam="1">  1        1 0.19308525E+00 0.71201326E+03</pdfrwt>
<pdfrwt beam="2">  1       -2 0.70117544E-01 0.71201326E+03</pdfrwt>
<totfact> 0.16339067E+01</totfact>
</mgrwt>
</event>
<event>
12    3  0.1201947E-007  0.5434601E+03  0.7818608E-02  0.1003019E+00
         -2   -1    0    0    0  501 -0.00000000000E+00  0.00000000000E+00  0.10427751631E+04  0.10427751631E+04  0.00000000000E+00 0.  1.
          1   -1    0    0  501    0  0.00000000000E+00 -0.00000000000E+00 -0.40553877468E+03  0.40553877468E+03  0.00000000000E+00 0. -1.
        -24    2    1    2    0    0  0.31629448365E+03 -0.36980372867E+03  0.89273646383E+02  0.50121574522E+03  0.80314638768E+02 0.  0.
    5000000    2    1    2    0    0 -0.31629448365E+03  0.36980372867E+03  0.54796274203E+03  0.94709819254E+03  0.59994568216E+03 0.  0.
        -24    2    4    4    0    0 -0.74586275515E+02 -0.49543447721E+02  0.42543679621E+03  0.44200253839E+03  0.79700129657E+02 0.  0.
         24    2    4    4    0    0 -0.24170820813E+03  0.41934717639E+03  0.12252594582E+03  0.50509565415E+03  0.76381281880E+02 0.  0.
         11    1    3    3    0    0  0.82003288105E+02 -0.87243016312E+02  0.57383238648E+02  0.13277318718E+03  0.00000000000E+00 0. -1.
        -12    1    3    3    0    0  0.23429119554E+03 -0.28256071235E+03  0.31890407734E+02  0.36844255805E+03  0.00000000000E+00 0.  1.
         15    1    5    5    0    0  0.11890849339E+02  0.39075113512E+01  0.10667885255E+03  0.10742530546E+03  0.17770000000E+01 0. -1.
        -16    1    5    5    0    0 -0.86477124854E+02 -0.53450959072E+02  0.31875794366E+03  0.33457723293E+03  0.00000000000E+00 0.  1.
          2    1    6    6  502    0 -0.19416006172E+03  0.36636249087E+03  0.12732989025E+03  0.43374244113E+03  0.00000000000E+00 0. -1.
         -1    1    6    6    0  502 -0.47548146418E+02  0.52984685514E+02 -0.48039444317E+01  0.71353213024E+02  0.00000000000E+00 0.  1.
<mgrwt>
<rscale>  0 0.54346010E+03</rscale>
<asrwt>0</asrwt>
<pdfrwt beam="1">  1        1 0.62390581E-01 0.54346010E+03</pdfrwt>
<pdfrwt beam="2">  1       -2 0.16042695E+00 0.54346010E+03</pdfrwt>
<totfact> 0.13423881E+01</totfact>
</mgrwt>
</event>
<event>
12    3  0.1201947E-007  0.8264176E+03  0.7818608E-02  0.9522547E-01
          1   -1    0    0  501    0  0.00000000000E+00  0.00000000000E+00  0.41294968756E+03  0.41294968756E+03  0.00000000000E+00 0. -1.
         -2   -1    0    0    0  501 -0.00000000000E+00 -0.00000000000E+00 -0.23346817416E+04  0.23346817416E+04  0.00000000000E+00 0.  1.
        -24    2    1    2    0    0  0.76248663714E+03 -0.44563153615E+02 -0.23835295735E+03  0.80420187451E+03  0.80973923021E+02 0.  0.
    5000000    2    1    2    0    0 -0.76248663714E+03  0.44563153615E+02 -0.16833790967E+04  0.19434295546E+04  0.59981789259E+03 0.  0.
        -24    2    4    4    0    0 -0.55361715783E+03 -0.16699999577E+03 -0.69231429134E+03  0.90571722052E+03  0.81508585560E+02 0.  0.
         24    2    4    4    0    0 -0.20886947930E+03  0.21156314939E+03 -0.99106480534E+03  0.10377123341E+04  0.79069680997E+02 0.  0.
         13    1    3    3    0    0  0.25868348470E+03  0.11639087485E+02 -0.52060405463E+02  0.26412667307E+03  0.00000000000E+00 0. -1.
        -14    1    3    3    0    0  0.50380315244E+03 -0.56202241100E+02 -0.18629255188E+03  0.54007520143E+03  0.00000000000E+00 0.  1.
         15    1    5    5    0    0 -0.39845634405E+03 -0.96496342326E+02 -0.44170741874E+03  0.60265048220E+03  0.17770000000E+01 0. -1.
        -16    1    5    5    0    0 -0.15516081378E+03 -0.70503653449E+02 -0.25060687259E+03  0.30306673832E+03  0.00000000000E+00 0.  1.
          4    1    6    6  502    0 -0.10720391386E+03  0.56622970076E+02 -0.43509064108E+03  0.45166658704E+03  0.00000000000E+00 0. -1.
         -3    1    6    6    0  502 -0.10166556545E+03  0.15494017931E+03 -0.55597416425E+03  0.58604574709E+03  0.00000000000E+00 0.  1.
<mgrwt>
<rscale>  0 0.82641761E+03</rscale>
<asrwt>0</asrwt>
<pdfrwt beam="1">  1        1 0.63530720E-01 0.82641761E+03</pdfrwt>
<pdfrwt beam="2">  1       -2 0.35918181E+00 0.82641761E+03</pdfrwt>
<totfact> 0.71645924E-01</totfact>
</mgrwt>
</event>
<event>
12    3  0.1201947E-007  0.1400777E+04  0.7818608E-02  0.8953256E-01
         -2   -1    0    0    0  501 -0.00000000000E+00  0.00000000000E+00  0.12636707146E+04  0.12636707146E+04  0.00000000000E+00 0.  1.
          1   -1    0    0  501    0  0.00000000000E+00 -0.00000000000E+00 -0.15729923212E+04  0.15729923212E+04  0.00000000000E+00 0. -1.
        -24    2    1    2    0    0  0.12707012607E+04 -0.41995372670E+03 -0.28054637639E+03  0.13697148184E+04  0.79809698866E+02 0.  0.
    5000000    2    1    2    0    0 -0.12707012607E+04  0.41995372670E+03 -0.28775230219E+02  0.14669482173E+04  0.60005519086E+03 0.  0.
        -24    2    4    4    0    0 -0.48426867425E+02 -0.97950057405E+02  0.18376344704E+02  0.13616568399E+03  0.79145614006E+02 0.  0.
         24    2    4    4    0    0 -0.12222743932E+04  0.51790378410E+03 -0.47151574923E+02  0.13307825333E+04  0.81116324643E+02 0.  0.
         13    1    3    3    0    0  0.36262303210E+03 -0.10365322550E+03 -0.46055078221E+02  0.37994805539E+03  0.00000000000E+00 0. -1.
        -14    1    3    3    0    0  0.90807822855E+03 -0.31630050120E+03 -0.23449129816E+03  0.98976676300E+03  0.00000000000E+00 0.  1.
         15    1    5    5    0    0  0.22082721793E+02 -0.20811572926E+02  0.32733473520E+01  0.30571893977E+02  0.17770000000E+01 0. -1.
        -16    1    5    5    0    0 -0.70509589218E+02 -0.77138484479E+02  0.15102997352E+02  0.10559379001E+03  0.00000000000E+00 0.  1.
          2    1    6    6  502    0 -0.11227742404E+04  0.46535704023E+03 -0.63641113137E+02  0.12170576654E+04  0.00000000000E+00 0. -1.
         -1    1    6    6    0  502 -0.99500152871E+02  0.52546743871E+02  0.16489538214E+02  0.11372486792E+03  0.00000000000E+00 0.  1.
<mgrwt>
<rscale>  0 0.14007774E+04</rscale>
<asrwt>0</asrwt>
<pdfrwt beam="1">  1        1 0.24199882E+00 0.14007774E+04</pdfrwt>
<pdfrwt beam="2">  1       -2 0.19441088E+00 0.14007774E+04</pdfrwt>
<totfact> 0.70499928E-01</totfact>
</mgrwt>
</event>
<event>
12    3  0.1201947E-007  0.5142901E+03  0.7818608E-02  0.1010115E+00
         -2   -1    0    0    0  501 -0.00000000000E+00  0.00000000000E+00  0.21937941399E+03  0.21937941399E+03  0.00000000000E+00 0.  1.
          1   -1    0    0  501    0  0.00000000000E+00 -0.00000000000E+00 -0.15922207353E+04  0.15922207353E+04  0.00000000000E+00 0. -1.
        -24    2    1    2    0    0 -0.87817923892E+02  0.38861810225E+03 -0.77777821662E+03  0.87728055451E+03  0.77111606910E+02 0.  0.
    5000000    2    1    2    0    0  0.87817923892E+02 -0.38861810225E+03 -0.59506310469E+03  0.93431959478E+03  0.60009748331E+03 0.  0.
        -24    2    4    4    0    0 -0.16812129354E+03 -0.30961398979E+03 -0.11439253926E+03  0.37883525812E+03  0.79403449195E+02 0.  0.
         24    2    4    4    0    0  0.25593921744E+03 -0.79004112460E+02 -0.48067056543E+03  0.55548433666E+03  0.75974489094E+02 0.  0.
         13    1    3    3    0    0 -0.50778464670E+02  0.79531131037E+02 -0.19125345777E+03  0.21326401100E+03  0.00000000000E+00 0. -1.
        -14    1    3    3    0    0 -0.37039459221E+02  0.30908697121E+03 -0.58652475886E+03  0.66401654352E+03  0.00000000000E+00 0.  1.
         15    1    5    5    0    0 -0.13943066894E+03 -0.22017614501E+03 -0.11510676867E+03  0.28490554961E+03  0.17770000000E+01 0. -1.
        -16    1    5    5    0    0 -0.28690624600E+02 -0.89437844775E+02  0.71422941360E+00  0.93929708514E+02  0.00000000000E+00 0.  1.
          2    1    6    6  502    0  0.15984443182E+02 -0.81344146116E+00 -0.82728945510E+02  0.84262936906E+02  0.00000000000E+00 0. -1.
         -1    1    6    6    0  502  0.23995477425E+03 -0.78190670999E+02 -0.39794161992E+03  0.47122139975E+03  0.00000000000E+00 0.  1.
<mgrwt>
<rscale>  0 0.51429014E+03</rscale>
<asrwt>0</asrwt>
<pdfrwt beam="1">  1        1 0.24495703E+00 0.51429014E+03</pdfrwt>
<pdfrwt beam="2">  1       -2 0.33750679E-01 0.51429014E+03</pdfrwt>
<totfact> 0.43164301E+01</totfact>
</mgrwt>
</event>
<event>
12    3  0.1201947E-007  0.4689789E+03  0.7818608E-02  0.1022209E+00
          1   -1    0    0  501    0  0.00000000000E+00  0.00000000000E+00  0.13964793934E+03  0.13964793934E+03  0.00000000000E+00 0. -1.
         -2   -1    0    0    0  501 -0.00000000000E+00 -0.00000000000E+00 -0.20305158996E+04  0.20305158996E+04  0.00000000000E+00 0.  1.
        -24    2    1    2    0    0 -0.24282034496E+03 -0.18552300783E+03 -0.10293294079E+04  0.10766808230E+04  0.79637041129E+02 0.  0.
    5000000    2    1    2    0    0  0.24282034496E+03  0.18552300783E+03 -0.86153855230E+03  0.10934830159E+04  0.60006326542E+03 0.  0.
        -24    2    4    4    0    0 -0.63706458814E+02 -0.15288803060E+03 -0.39807768342E+03  0.43837331379E+03  0.79196321929E+02 0.  0.
         24    2    4    4    0    0  0.30652680377E+03  0.33841103844E+03 -0.46346086888E+03  0.65510970207E+03  0.76759575284E+02 0.  0.
         13    1    3    3    0    0 -0.12122393178E+03 -0.61113455935E+02 -0.34934274261E+03  0.37479387394E+03  0.00000000000E+00 0. -1.
        -14    1    3    3    0    0 -0.12159641318E+03 -0.12440955190E+03 -0.67998666531E+03  0.70188694909E+03  0.00000000000E+00 0.  1.
         15    1    5    5    0    0  0.53361237049E+01 -0.21672128223E+02 -0.13361902380E+02  0.26074000885E+02  0.17770000000E+01 0. -1.
        -16    1    5    5    0    0 -0.69042582519E+02 -0.13121590238E+03 -0.38471578104E+03  0.41229931291E+03  0.00000000000E+00 0.  1.
          2    1    6    6  502    0  0.21182067324E+03  0.25378659210E+03 -0.28749551989E+03  0.43809737034E+03  0.00000000000E+00 0. -1.
         -1    1    6    6    0  502  0.94706130536E+02  0.84624446336E+02 -0.17596534899E+03  0.21701233173E+03  0.00000000000E+00 0.  1.
<mgrwt>
<rscale>  0 0.46897890E+03</rscale>
<asrwt>0</asrwt>
<pdfrwt beam="1">  1        1 0.21484300E-01 0.46897890E+03</pdfrwt>
<pdfrwt beam="2">  1       -2 0.31238703E+00 0.46897890E+03</pdfrwt>
<totfact> 0.60420135E+00</totfact>
</mgrwt>
</event>
<event>
12    3  0.1201947E-007  0.6113709E+03  0.7818608E-02  0.9882092E-01
         -2   -1    0    0    0  501 -0.00000000000E+00  0.00000000000E+00  0.33079874775E+03  0.33079874775E+03  0.00000000000E+00 0.  1.
          1   -1    0    0  501    0  0.00000000000E+00 -0.00000000000E+00 -0.13235581471E+04  0.13235581471E+04  0.00000000000E+00 0. -1.
        -24    2    1    2    0    0  0.42705586285E+03 -0.27135245009E+03 -0.55574107127E+03  0.75604152737E+03  0.82108407892E+02 0.  0.
    5000000    2    1    2    0    0 -0.42705586285E+03  0.27135245009E+03 -0.43701832805E+03  0.89831536746E+03  0.59998051486E+03 0.  0.
        -24    2    4    4    0    0 -0.25760159558E+03  0.40931228519E+03 -0.44959914677E+03  0.66484997234E+03  0.77401318365E+02 0.  0.
         24    2    4    4    0    0 -0.16945426726E+03 -0.13795983511E+03  0.12580818722E+02  0.23346539512E+03  0.81241300603E+02 0.  0.
         11    1    3    3    0    0  0.12884021759E+03 -0.99345139330E+02 -0.23278483486E+03  0.28400358751E+03  0.00000000000E+00 0. -1.
        -12    1    3    3    0    0  0.29821564525E+03 -0.17200731076E+03 -0.32295623641E+03  0.47203793986E+03  0.00000000000E+00 0.  1.
         15    1    5    5    0    0 -0.25032968371E+03  0.35242765541E+03 -0.39162347733E+03  0.58330293036E+03  0.17770000000E+01 0. -1.
        -16    1    5    5    0    0 -0.72719118698E+01  0.56884629781E+02 -0.57975669443E+02  0.81547041975E+02  0.00000000000E+00 0.  1.
          2    1    6    6  502    0 -0.28176738294E+02 -0.56322147863E+02  0.29267363172E+02  0.69445600781E+02  0.00000000000E+00 0. -1.
         -1    1    6    6    0  502 -0.14127752897E+03 -0.81637687243E+02 -0.16686544449E+02  0.16401979434E+03  0.00000000000E+00 0.  1.
<mgrwt>
<rscale>  0 0.61137085E+03</rscale>
<asrwt>0</asrwt>
<pdfrwt beam="1">  1        1 0.20362433E+00 0.61137085E+03</pdfrwt>
<pdfrwt beam="2">  1       -2 0.50892114E-01 0.61137085E+03</pdfrwt>
<totfact> 0.29092783E+01</totfact>
</mgrwt>
</event>
<event>
12    3  0.1201947E-007  0.7164863E+03  0.7818608E-02  0.9689446E-01
         -2   -1    0    0    0  501 -0.00000000000E+00  0.00000000000E+00  0.13361525697E+04  0.13361525697E+04  0.00000000000E+00 0.  1.
          1   -1    0    0  501    0  0.00000000000E+00 -0.00000000000E+00 -0.60033613968E+03  0.60033613968E+03  0.00000000000E+00 0. -1.
        -24    2    1    2    0    0  0.61568390216E+03 -0.34489667313E+03 -0.63278004125E+02  0.71311702033E+03  0.80693223764E+02 0.  0.
    5000000    2    1    2    0    0 -0.61568390216E+03  0.34489667313E+03  0.79909443415E+03  0.12233716891E+04  0.60005499114E+03 0.  0.
        -24    2    4    4    0    0 -0.40157954417E+03  0.24582723275E+03  0.84464441870E+03  0.97017337434E+03  0.78198616261E+02 0.  0.
         24    2    4    4    0    0 -0.21410435799E+03  0.99069440387E+02 -0.45549984556E+02  0.25319831472E+03  0.79869614709E+02 0.  0.
         13    1    3    3    0    0  0.52544103132E+03 -0.31448713948E+03 -0.75919574176E+02  0.61705285028E+03  0.00000000000E+00 0. -1.
        -14    1    3    3    0    0  0.90242870840E+02 -0.30409533651E+02  0.12641570051E+02  0.96064170052E+02  0.00000000000E+00 0.  1.
         15    1    5    5    0    0 -0.29499924309E+03  0.21616844676E+03  0.62188398076E+03  0.72145422173E+03  0.17770000000E+01 0. -1.
        -16    1    5    5    0    0 -0.10658030108E+03  0.29658785988E+02  0.22276043794E+03  0.24871915261E+03  0.00000000000E+00 0.  1.
          2    1    6    6  502    0 -0.36052689401E+01  0.25928339277E+02 -0.33092450100E+01  0.26386129771E+02  0.00000000000E+00 0. -1.
         -1    1    6    6    0  502 -0.21049908905E+03  0.73141101110E+02 -0.42240739546E+02  0.22681218495E+03  0.00000000000E+00 0.  1.
<mgrwt>
<rscale>  0 0.71648633E+03</rscale>
<asrwt>0</asrwt>
<pdfrwt beam="1">  1        1 0.92359407E-01 0.71648633E+03</pdfrwt>
<pdfrwt beam="2">  1       -2 0.20556193E+00 0.71648633E+03</pdfrwt>
<totfact> 0.37820906E+00</totfact>
</mgrwt>
</event>
<event>
12    3  0.1201947E-007  0.4450606E+03  0.7818608E-02  0.1029205E+00
          3   -1    0    0  501    0  0.00000000000E+00  0.00000000000E+00  0.26415956068E+03  0.26415956068E+03  0.00000000000E+00 0. -1.
         -4   -1    0    0    0  501 -0.00000000000E+00 -0.00000000000E+00 -0.13923195993E+04  0.13923195993E+04  0.00000000000E+00 0.  1.
        -24    2    1    2    0    0  0.16022966014E+03  0.31747066938E+03 -0.81203773268E+03  0.89051340149E+03  0.84543888190E+02 0.  0.
    5000000    2    1    2    0    0 -0.16022966014E+03 -0.31747066938E+03 -0.31612230596E+03  0.76596575851E+03  0.60025749557E+03 0.  0.
        -24    2    4    4    0    0 -0.28097769949E+03 -0.27346152977E+03  0.16288765206E+02  0.40070193948E+03  0.81037303487E+02 0.  0.
         24    2    4    4    0    0  0.12074803934E+03 -0.44009139613E+02 -0.33241107116E+03  0.36526381903E+03  0.80022771068E+02 0.  0.
         13    1    3    3    0    0  0.68470347182E+02  0.18703462150E+03 -0.53471587275E+03  0.57060599598E+03  0.00000000000E+00 0. -1.
        -14    1    3    3    0    0  0.91759312961E+02  0.13043604789E+03 -0.27732185993E+03  0.31990740551E+03  0.00000000000E+00 0.  1.
         15    1    5    5    0    0 -0.19165261388E+03 -0.23380060242E+03  0.19164205158E+02  0.30292551987E+03  0.17770000000E+01 0. -1.
        -16    1    5    5    0    0 -0.89325085606E+02 -0.39660927351E+02 -0.28754399517E+01  0.97776419610E+02  0.00000000000E+00 0.  1.
          2    1    6    6  502    0  0.65116512377E+02 -0.91259101487E+01 -0.25696779953E+03  0.26524685185E+03  0.00000000000E+00 0. -1.
         -1    1    6    6    0  502  0.55631526967E+02 -0.34883229465E+02 -0.75443271633E+02  0.10001696719E+03  0.00000000000E+00 0.  1.
<mgrwt>
<rscale>  0 0.44506064E+03</rscale>
<asrwt>0</asrwt>
<pdfrwt beam="1">  1        3 0.40639933E-01 0.44506064E+03</pdfrwt>
<pdfrwt beam="2">  1       -4 0.21420301E+00 0.44506064E+03</pdfrwt>
<totfact> 0.14784421E+00</totfact>
</mgrwt>
</event>
<event>
12    3  0.1201947E-007  0.6597514E+03  0.7818608E-02  0.9788651E-01
         -4   -1    0    0    0  501 -0.00000000000E+00  0.00000000000E+00  0.42691617726E+03  0.42691617726E+03  0.00000000000E+00 0.  1.
          3   -1    0    0  501    0  0.00000000000E+00 -0.00000000000E+00 -0.11174084439E+04  0.11174084439E+04  0.00000000000E+00 0. -1.
        -24    2    1    2    0    0  0.41977362779E+03 -0.36269723848E+03 -0.33921438445E+03  0.65497229028E+03  0.78505522197E+02 0.  0.
    5000000    2    1    2    0    0 -0.41977362779E+03  0.36269723848E+03 -0.35127788214E+03  0.88935233084E+03  0.59982683542E+03 0.  0.
        -24    2    4    4    0    0 -0.32384717351E+02  0.35957830016E+03 -0.32496908103E+03  0.49263052938E+03  0.82064675637E+02 0.  0.
         24    2    4    4    0    0 -0.38738891044E+03  0.31189383201E+01 -0.26308801113E+02  0.39672180146E+03  0.81339652233E+02 0.  0.
         11    1    3    3    0    0  0.21827692961E+03 -0.19247136467E+03 -0.22347579589E+03  0.36692162047E+03  0.00000000000E+00 0. -1.
        -12    1    3    3    0    0  0.20149669818E+03 -0.17022587381E+03 -0.11573858856E+03  0.28805066981E+03  0.00000000000E+00 0.  1.
         15    1    5    5    0    0 -0.43788663791E+02  0.93961345492E+02 -0.77811353370E+02  0.12963003497E+03  0.17770000000E+01 0. -1.
        -16    1    5    5    0    0  0.11403946441E+02  0.26561695467E+03 -0.24715772766E+03  0.36300049442E+03  0.00000000000E+00 0.  1.
          4    1    6    6  502    0 -0.37886658953E+03  0.16590543004E+02 -0.29814730261E+02  0.38039986451E+03  0.00000000000E+00 0. -1.
         -3    1    6    6    0  502 -0.85223209133E+01 -0.13471604684E+02  0.35059291480E+01  0.16321936947E+02  0.00000000000E+00 0.  1.
<mgrwt>
<rscale>  0 0.65975141E+03</rscale>
<asrwt>0</asrwt>
<pdfrwt beam="1">  1        3 0.17190899E+00 0.65975141E+03</pdfrwt>
<pdfrwt beam="2">  1       -4 0.65679412E-01 0.65975141E+03</pdfrwt>
<totfact> 0.11013739E+00</totfact>
</mgrwt>
</event>
<event>
12    3  0.1201947E-007  0.3468589E+03  0.7818608E-02  0.1063912E+00
          1   -1    0    0  501    0  0.00000000000E+00  0.00000000000E+00  0.21157262580E+04  0.21157262580E+04  0.00000000000E+00 0. -1.
         -2   -1    0    0    0  501 -0.00000000000E+00 -0.00000000000E+00 -0.15512667612E+03  0.15512667612E+03  0.00000000000E+00 0.  1.
        -24    2    1    2    0    0 -0.14682724605E+03 -0.15108676761E+03  0.14161045537E+04  0.14336739454E+04  0.75388481953E+02 0.  0.
    5000000    2    1    2    0    0  0.14682724605E+03  0.15108676761E+03  0.54449502820E+03  0.83717898873E+03  0.60000697655E+03 0.  0.
        -24    2    4    4    0    0 -0.14656978818E+03  0.10219455155E+03 -0.23998615069E+02  0.19024706231E+03  0.60758390530E+02 0.  0.
         24    2    4    4    0    0  0.29339703423E+03  0.48892216060E+02  0.56849364327E+03  0.64693192641E+03  0.82847006539E+02 0.  0.
         11    1    3    3    0    0 -0.80447778861E+02 -0.11036130098E+03  0.68855259197E+03  0.70196590643E+03  0.00000000000E+00 0. -1.
        -12    1    3    3    0    0 -0.66379467191E+02 -0.40725466632E+02  0.72755196174E+03  0.73170803899E+03  0.00000000000E+00 0.  1.
         15    1    5    5    0    0 -0.69675561112E+02  0.28847486055E+02 -0.35484907579E+02  0.83361847766E+02  0.17770000000E+01 0. -1.
        -16    1    5    5    0    0 -0.76894227069E+02  0.73347065497E+02  0.11486292510E+02  0.10688521455E+03  0.00000000000E+00 0.  1.
          2    1    6    6  502    0  0.93547966521E+02  0.19739783339E+02  0.10886306301E+03  0.14488632639E+03  0.00000000000E+00 0. -1.
         -1    1    6    6    0  502  0.19984906771E+03  0.29152432720E+02  0.45963058025E+03  0.50204560002E+03  0.00000000000E+00 0.  1.
<mgrwt>
<rscale>  0 0.34685886E+03</rscale>
<asrwt>0</asrwt>
<pdfrwt beam="1">  1        1 0.32549633E+00 0.34685886E+03</pdfrwt>
<pdfrwt beam="2">  1       -2 0.23865644E-01 0.34685886E+03</pdfrwt>
<totfact> 0.37922602E+01</totfact>
</mgrwt>
</event>
<event>
12    3  0.1201947E-007  0.4902298E+03  0.7818608E-02  0.1016361E+00
          1   -1    0    0  501    0  0.00000000000E+00  0.00000000000E+00  0.62123603572E+03  0.62123603572E+03  0.00000000000E+00 0. -1.
         -2   -1    0    0    0  501 -0.00000000000E+00 -0.00000000000E+00 -0.48033806026E+03  0.48033806026E+03  0.00000000000E+00 0.  1.
        -24    2    1    2    0    0  0.17767001648E+03  0.33035328358E+03  0.77593461517E+02  0.39123909643E+03  0.79670311756E+02 0.  0.
    5000000    2    1    2    0    0 -0.17767001648E+03 -0.33035328358E+03  0.63304513936E+02  0.71033499955E+03  0.59989034279E+03 0.  0.
        -24    2    4    4    0    0 -0.21714524231E+03  0.43085663996E+02  0.19360829728E+03  0.30517731937E+03  0.81489832406E+02 0.  0.
         24    2    4    4    0    0  0.39475225832E+02 -0.37343894758E+03 -0.13030378334E+03  0.40515768018E+03  0.78477568955E+02 0.  0.
         13    1    3    3    0    0  0.12909960615E+03  0.24531567128E+03  0.92376946558E+02  0.29219854062E+03  0.00000000000E+00 0. -1.
        -14    1    3    3    0    0  0.48570410326E+02  0.85037612299E+02 -0.14783485041E+02  0.99040555808E+02  0.00000000000E+00 0.  1.
         15    1    5    5    0    0 -0.14275509936E+03  0.21593349633E+02  0.17242901768E+03  0.22490045578E+03  0.17770000000E+01 0. -1.
        -16    1    5    5    0    0 -0.74390142950E+02  0.21492314363E+02  0.21179279599E+02  0.80276863598E+02  0.00000000000E+00 0.  1.
          2    1    6    6  502    0 -0.22043284098E+02 -0.56658069274E+02 -0.16717502126E+02  0.63051709454E+02  0.00000000000E+00 0. -1.
         -1    1    6    6    0  502  0.61518509930E+02 -0.31678087830E+03 -0.11358628122E+03  0.34210597072E+03  0.00000000000E+00 0.  1.
<mgrwt>
<rscale>  0 0.49022982E+03</rscale>
<asrwt>0</asrwt>
<pdfrwt beam="1">  1        1 0.95574775E-01 0.49022982E+03</pdfrwt>
<pdfrwt beam="2">  1       -2 0.73898163E-01 0.49022982E+03</pdfrwt>
<totfact> 0.49026626E+01</totfact>
</mgrwt>
</event>
<event>
12    3  0.1201947E-007  0.5243791E+03  0.7818608E-02  0.1007604E+00
          3   -1    0    0  501    0  0.00000000000E+00  0.00000000000E+00  0.44158378963E+03  0.44158378963E+03  0.00000000000E+00 0. -1.
         -4   -1    0    0    0  501 -0.00000000000E+00 -0.00000000000E+00 -0.64742158204E+03  0.64742158204E+03  0.00000000000E+00 0.  1.
        -24    2    1    2    0    0 -0.13672889396E+02 -0.35444203116E+03 -0.14039317429E+03  0.38888133736E+03  0.75513904707E+02 0.  0.
    5000000    2    1    2    0    0  0.13672889396E+02  0.35444203116E+03 -0.65444618124E+02  0.70012403430E+03  0.60006213346E+03 0.  0.
        -24    2    4    4    0    0 -0.29416524780E+02  0.50904540206E+03 -0.34727727365E+02  0.51749769573E+03  0.81272976707E+02 0.  0.
         24    2    4    4    0    0  0.43089414176E+02 -0.15460337090E+03 -0.30716890760E+02  0.18262633858E+03  0.81547239414E+02 0.  0.
         13    1    3    3    0    0  0.24417826041E+02 -0.25099688851E+03 -0.10413153584E+03  0.27283519756E+03  0.00000000000E+00 0. -1.
        -14    1    3    3    0    0 -0.38090715437E+02 -0.10344514265E+03 -0.36261638453E+02  0.11604613981E+03  0.00000000000E+00 0.  1.
         15    1    5    5    0    0 -0.51394710173E+01  0.28890564163E+03 -0.58276847933E+02  0.29477488472E+03  0.17770000000E+01 0. -1.
        -16    1    5    5    0    0 -0.24277053763E+02  0.22013976043E+03  0.23549120569E+02  0.22272281101E+03  0.00000000000E+00 0.  1.
          2    1    6    6  502    0 -0.14702551198E+02 -0.81029178532E+02  0.49488867114E+01  0.82500813723E+02  0.00000000000E+00 0. -1.
         -1    1    6    6    0  502  0.57791965374E+02 -0.73574192368E+02 -0.35665777471E+02  0.10012552485E+03  0.00000000000E+00 0.  1.
<mgrwt>
<rscale>  0 0.52437915E+03</rscale>
<asrwt>0</asrwt>
<pdfrwt beam="1">  1        3 0.67935968E-01 0.52437915E+03</pdfrwt>
<pdfrwt beam="2">  1       -4 0.99603320E-01 0.52437915E+03</pdfrwt>
<totfact> 0.39206359E+00</totfact>
</mgrwt>
</event>
<event>
12    3  0.1201947E-007  0.4560595E+03  0.7818608E-02  0.1025930E+00
          3   -1    0    0  501    0  0.00000000000E+00  0.00000000000E+00  0.28329933795E+03  0.28329933795E+03  0.00000000000E+00 0. -1.
         -4   -1    0    0    0  501 -0.00000000000E+00 -0.00000000000E+00 -0.11363744527E+04  0.11363744527E+04  0.00000000000E+00 0.  1.
        -24    2    1    2    0    0 -0.89082219164E+02 -0.35329230000E+03 -0.10686990928E+03  0.39518546351E+03  0.10954123448E+03 0.  0.
    5000000    2    1    2    0    0  0.89082219164E+02  0.35329230000E+03 -0.74620520544E+03  0.10244883271E+04  0.60000252729E+03 0.  0.
        -24    2    4    4    0    0  0.11169052777E+03  0.42044901733E+03 -0.78934171742E+03  0.90485148211E+03  0.80272708092E+02 0.  0.
         24    2    4    4    0    0 -0.22608308602E+02 -0.67156717330E+02  0.43136511975E+02  0.11963684500E+03  0.86203571360E+02 0.  0.
         11    1    3    3    0    0 -0.28523871022E+02 -0.17882876254E+03  0.14347111109E+01  0.18109499144E+03  0.00000000000E+00 0. -1.
        -12    1    3    3    0    0 -0.60558348142E+02 -0.17446353746E+03 -0.10830462039E+03  0.21409047207E+03  0.00000000000E+00 0.  1.
         15    1    5    5    0    0  0.52395685086E+02  0.18190843128E+03 -0.26412321703E+03  0.32496186959E+03  0.17770000000E+01 0. -1.
        -16    1    5    5    0    0  0.59294842680E+02  0.23854058605E+03 -0.52521850039E+03  0.57988961252E+03  0.00000000000E+00 0.  1.
          4    1    6    6  502    0 -0.13937853886E+02 -0.87775448529E+02  0.38166765725E+02  0.96723808555E+02  0.00000000000E+00 0. -1.
         -3    1    6    6    0  502 -0.86704547158E+01  0.20618731199E+02  0.49697462502E+01  0.22913036443E+02  0.00000000000E+00 0.  1.
<mgrwt>
<rscale>  0 0.45605949E+03</rscale>
<asrwt>0</asrwt>
<pdfrwt beam="1">  1        3 0.43584514E-01 0.45605949E+03</pdfrwt>
<pdfrwt beam="2">  1       -4 0.17482684E+00 0.45605949E+03</pdfrwt>
<totfact> 0.23350433E+00</totfact>
</mgrwt>
</event>
<event>
12    3  0.1201947E-007  0.6816060E+03  0.7818608E-02  0.9749216E-01
         -2   -1    0    0    0  501 -0.00000000000E+00  0.00000000000E+00  0.42987654371E+03  0.42987654371E+03  0.00000000000E+00 0.  1.
          1   -1    0    0  501    0  0.00000000000E+00 -0.00000000000E+00 -0.13468221333E+04  0.13468221333E+04  0.00000000000E+00 0. -1.
        -24    2    1    2    0    0 -0.53795764216E+03 -0.13994450380E+03 -0.75841067078E+03  0.94368787604E+03  0.79857203279E+02 0.  0.
    5000000    2    1    2    0    0  0.53795764216E+03  0.13994450380E+03 -0.15853491881E+03  0.83301080098E+03  0.59982562896E+03 0.  0.
        -24    2    4    4    0    0  0.47706531863E+03 -0.15060877823E+03 -0.93283091715E+02  0.51503980944E+03  0.79309191089E+02 0.  0.
         24    2    4    4    0    0  0.60892323533E+02  0.29055328203E+03 -0.65251827097E+02  0.31797099154E+03  0.93373795856E+02 0.  0.
         11    1    3    3    0    0 -0.16608521563E+03 -0.75376910612E+02 -0.28274610240E+03  0.33646892268E+03  0.00000000000E+00 0. -1.
        -12    1    3    3    0    0 -0.37187242653E+03 -0.64567593189E+02 -0.47566456838E+03  0.60721895336E+03  0.00000000000E+00 0.  1.
         15    1    5    5    0    0  0.11653811886E+03 -0.20730038194E+01 -0.23627979076E+02  0.11894061383E+03  0.17770000000E+01 0. -1.
        -16    1    5    5    0    0  0.36052719977E+03 -0.14853577441E+03 -0.69655112640E+02  0.39609919562E+03  0.00000000000E+00 0.  1.
          2    1    6    6  502    0  0.47491633032E+02  0.21866928334E+03 -0.59862373771E+01  0.22384714812E+03  0.00000000000E+00 0. -1.
         -1    1    6    6    0  502  0.13400690501E+02  0.71883998697E+02 -0.59265589720E+02  0.94123843416E+02  0.00000000000E+00 0.  1.
<mgrwt>
<rscale>  0 0.68160600E+03</rscale>
<asrwt>0</asrwt>
<pdfrwt beam="1">  1        1 0.20720341E+00 0.68160600E+03</pdfrwt>
<pdfrwt beam="2">  1       -2 0.66134852E-01 0.68160600E+03</pdfrwt>
<totfact> 0.16041003E+01</totfact>
</mgrwt>
</event>
<event>
12    3  0.1201947E-007  0.1033701E+04  0.7818608E-02  0.9272335E-01
          1   -1    0    0  501    0  0.00000000000E+00  0.00000000000E+00  0.16084129187E+04  0.16084129187E+04  0.00000000000E+00 0. -1.
         -2   -1    0    0    0  501 -0.00000000000E+00 -0.00000000000E+00 -0.79480425319E+03  0.79480425319E+03  0.00000000000E+00 0.  1.
        -24    2    1    2    0    0  0.96437337700E+03 -0.91490789843E+02  0.80758841699E+03  0.12635942663E+04  0.78005408396E+02 0.  0.
    5000000    2    1    2    0    0 -0.96437337700E+03  0.91490789843E+02  0.60202485337E+01  0.11396229056E+04  0.60026456554E+03 0.  0.
        -24    2    4    4    0    0 -0.99819774357E+03  0.52740509693E+02  0.96477781153E+02  0.10069717020E+04  0.74187261557E+02 0.  0.
         24    2    4    4    0    0  0.33824366573E+02  0.38750280150E+02 -0.90457532620E+02  0.13265120356E+03  0.82268491007E+02 0.  0.
         13    1    3    3    0    0  0.76272534887E+03 -0.10204183342E+03  0.65414079512E+03  0.10099815213E+04  0.00000000000E+00 0. -1.
        -14    1    3    3    0    0  0.20164802812E+03  0.10551043573E+02  0.15344762187E+03  0.25361274500E+03  0.00000000000E+00 0.  1.
         15    1    5    5    0    0 -0.92619863537E+02  0.26110524334E+02  0.13935175113E+02  0.97249912272E+02  0.17770000000E+01 0. -1.
        -16    1    5    5    0    0 -0.90557788003E+03  0.26629985359E+02  0.82542606040E+02  0.90972178974E+03  0.00000000000E+00 0.  1.
          4    1    6    6  502    0  0.23434388389E+02 -0.21979584166E+02 -0.15650622741E+02  0.35738140291E+02  0.00000000000E+00 0. -1.
         -3    1    6    6    0  502  0.10389978184E+02  0.60729864316E+02 -0.74806909879E+02  0.96913063269E+02  0.00000000000E+00 0.  1.
<mgrwt>
<rscale>  0 0.10337009E+04</rscale>
<asrwt>0</asrwt>
<pdfrwt beam="1">  1        1 0.24744814E+00 0.10337009E+04</pdfrwt>
<pdfrwt beam="2">  1       -2 0.12227758E+00 0.10337009E+04</pdfrwt>
<totfact> 0.24385044E+00</totfact>
</mgrwt>
</event>
<event>
12    3  0.1201947E-007  0.1199657E+04  0.7818608E-02  0.9113157E-01
          1   -1    0    0  501    0  0.00000000000E+00  0.00000000000E+00  0.27850071341E+04  0.27850071341E+04  0.00000000000E+00 0. -1.
         -2   -1    0    0    0  501 -0.00000000000E+00 -0.00000000000E+00 -0.70005724883E+03  0.70005724883E+03  0.00000000000E+00 0.  1.
        -24    2    1    2    0    0 -0.55823468906E+03 -0.10067256008E+04  0.18280265750E+04  0.21617651728E+04  0.80156721268E+02 0.  0.
    5000000    2    1    2    0    0  0.55823468906E+03  0.10067256008E+04  0.25692331023E+03  0.13232992101E+04  0.59999067391E+03 0.  0.
        -24    2    4    4    0    0  0.57755556064E+03  0.10466788817E+04  0.27100623181E+03  0.12285136834E+04  0.81819225770E+02 0.  0.
         24    2    4    4    0    0 -0.19320871573E+02 -0.39953280896E+02 -0.14082921580E+02  0.94785526678E+02  0.82561532536E+02 0.  0.
         13    1    3    3    0    0 -0.18977813019E+03 -0.27084939598E+03  0.50420039830E+03  0.60298687850E+03  0.00000000000E+00 0. -1.
        -14    1    3    3    0    0 -0.36845655888E+03 -0.73587620483E+03  0.13238261767E+04  0.15587782943E+04  0.00000000000E+00 0.  1.
         15    1    5    5    0    0  0.23411728112E+03  0.36548578632E+03  0.12621852293E+03  0.45202326774E+03  0.17770000000E+01 0. -1.
        -16    1    5    5    0    0  0.34343827952E+03  0.68119309538E+03  0.14478770889E+03  0.77649041570E+03  0.00000000000E+00 0.  1.
          2    1    6    6  502    0 -0.76072466566E+01 -0.57433218227E+00  0.32087810948E+02  0.32982232650E+02  0.00000000000E+00 0. -1.
         -1    1    6    6    0  502 -0.11713624916E+02 -0.39378948713E+02 -0.46170732528E+02  0.61803294027E+02  0.00000000000E+00 0.  1.
<mgrwt>
<rscale>  0 0.11996573E+04</rscale>
<asrwt>0</asrwt>
<pdfrwt beam="1">  1        1 0.42846263E+00 0.11996573E+04</pdfrwt>
<pdfrwt beam="2">  1       -2 0.10770112E+00 0.11996573E+04</pdfrwt>
<totfact> 0.51252835E-01</totfact>
</mgrwt>
</event>
<event>
12    3  0.1201947E-007  0.4648827E+03  0.7818608E-02  0.1023375E+00
          1   -1    0    0  501    0  0.00000000000E+00  0.00000000000E+00  0.19297277618E+03  0.19297277618E+03  0.00000000000E+00 0. -1.
         -2   -1    0    0    0  501 -0.00000000000E+00 -0.00000000000E+00 -0.12831777257E+04  0.12831777257E+04  0.00000000000E+00 0.  1.
        -24    2    1    2    0    0  0.16787077573E+03 -0.24951642992E+03 -0.46144631940E+03  0.55653679708E+03  0.79758727839E+02 0.  0.
    5000000    2    1    2    0    0 -0.16787077573E+03  0.24951642992E+03 -0.62875863012E+03  0.91961370481E+03  0.59992741643E+03 0.  0.
        -24    2    4    4    0    0 -0.32106426903E+03  0.45722595507E+01 -0.48582808404E+03  0.58762895806E+03  0.78585588380E+02 0.  0.
         24    2    4    4    0    0  0.15319349330E+03  0.24494417037E+03 -0.14293054607E+03  0.33198474675E+03  0.79491119546E+02 0.  0.
         13    1    3    3    0    0  0.11835834743E+03 -0.10581128750E+03 -0.24933863494E+03  0.29559174860E+03  0.00000000000E+00 0. -1.
        -14    1    3    3    0    0  0.49512428293E+02 -0.14370514242E+03 -0.21210768447E+03  0.26094504847E+03  0.00000000000E+00 0.  1.
         15    1    5    5    0    0 -0.19984893886E+03 -0.34046137527E+02 -0.28080487718E+03  0.34634271267E+03  0.17770000000E+01 0. -1.
        -16    1    5    5    0    0 -0.12121533017E+03  0.38618397078E+02 -0.20502320687E+03  0.24128624539E+03  0.00000000000E+00 0.  1.
          2    1    6    6  502    0  0.99084689756E+02  0.16669948698E+03 -0.13548105528E+03  0.23656206594E+03  0.00000000000E+00 0. -1.
         -1    1    6    6    0  502  0.54108803546E+02  0.78244683388E+02 -0.74494907957E+01  0.95422680809E+02  0.00000000000E+00 0.  1.
<mgrwt>
<rscale>  0 0.46488270E+03</rscale>
<asrwt>0</asrwt>
<pdfrwt beam="1">  1        1 0.29688119E-01 0.46488270E+03</pdfrwt>
<pdfrwt beam="2">  1       -2 0.19741196E+00 0.46488270E+03</pdfrwt>
<totfact> 0.19721435E+01</totfact>
</mgrwt>
</event>
<event>
12    3  0.1201947E-007  0.8054454E+03  0.7818608E-02  0.9552168E-01
          1   -1    0    0  501    0  0.00000000000E+00  0.00000000000E+00  0.19478799308E+04  0.19478799308E+04  0.00000000000E+00 0. -1.
         -2   -1    0    0    0  501 -0.00000000000E+00 -0.00000000000E+00 -0.53784176183E+03  0.53784176183E+03  0.00000000000E+00 0.  1.
        -24    2    1    2    0    0  0.82747451676E+02  0.78897077173E+03  0.47902054570E+02  0.79907415932E+03  0.83083607562E+02 0.  0.
    5000000    2    1    2    0    0 -0.82747451676E+02 -0.78897077173E+03  0.13621361144E+04  0.16866475333E+04  0.60003590565E+03 0.  0.
        -24    2    4    4    0    0  0.19767341329E+02 -0.42996995684E+03  0.11894734528E+04  0.12674893991E+04  0.80108491712E+02 0.  0.
         24    2    4    4    0    0 -0.10251479301E+03 -0.35900081489E+03  0.17266266166E+03  0.41915813423E+03  0.80562267104E+02 0.  0.
         13    1    3    3    0    0  0.35832155155E+02  0.86880371757E+02  0.51528325986E+01  0.94120635482E+02  0.00000000000E+00 0. -1.
        -14    1    3    3    0    0  0.46915296521E+02  0.70209039998E+03  0.42749221972E+02  0.70495352383E+03  0.00000000000E+00 0.  1.
         15    1    5    5    0    0  0.25086818670E+02 -0.39642123381E+02  0.10990504175E+03  0.11951201759E+03  0.17770000000E+01 0. -1.
        -16    1    5    5    0    0 -0.53194773410E+01 -0.39032783346E+03  0.10795684110E+04  0.11479773815E+04  0.00000000000E+00 0.  1.
          4    1    6    6  502    0 -0.41809932532E+02 -0.78395265169E+02  0.10598506822E+02  0.89477463118E+02  0.00000000000E+00 0. -1.
         -3    1    6    6    0  502 -0.60704860473E+02 -0.28060554972E+03  0.16206415484E+03  0.32968067111E+03  0.00000000000E+00 0.  1.
<mgrwt>
<rscale>  0 0.80544543E+03</rscale>
<asrwt>0</asrwt>
<pdfrwt beam="1">  1        1 0.29967383E+00 0.80544543E+03</pdfrwt>
<pdfrwt beam="2">  1       -2 0.82744887E-01 0.80544543E+03</pdfrwt>
<totfact> 0.37569983E+00</totfact>
</mgrwt>
</event>
<event>
12    3  0.1201947E-007  0.1119827E+04  0.7818608E-02  0.9186080E-01
         -2   -1    0    0    0  501 -0.00000000000E+00  0.00000000000E+00  0.11427995421E+04  0.11427995421E+04  0.00000000000E+00 0.  1.
          1   -1    0    0  501    0  0.00000000000E+00 -0.00000000000E+00 -0.14919788340E+04  0.14919788340E+04  0.00000000000E+00 0. -1.
        -24    2    1    2    0    0  0.17584108322E+03  0.10361088863E+04  0.48990769496E+03  0.11621504189E+04  0.78373055671E+02 0.  0.
    5000000    2    1    2    0    0 -0.17584108322E+03 -0.10361088863E+04 -0.83908698683E+03  0.14726279571E+04  0.60010367257E+03 0.  0.
        -24    2    4    4    0    0 -0.16339140062E+03 -0.10828369130E+04 -0.83379441448E+03  0.13787529156E+04  0.80709024537E+02 0.  0.
         24    2    4    4    0    0 -0.12449682592E+02  0.46728026707E+02 -0.52925723511E+01  0.93875041548E+02  0.80287041464E+02 0.  0.
         13    1    3    3    0    0  0.53770281707E+02  0.35744516409E+03  0.20927397009E+03  0.41767676866E+03  0.00000000000E+00 0. -1.
        -14    1    3    3    0    0  0.12207080151E+03  0.67866372219E+03  0.28063372487E+03  0.74447365027E+03  0.00000000000E+00 0.  1.
         15    1    5    5    0    0 -0.47757268100E+02 -0.35221800055E+03 -0.31834609694E+03  0.47716419788E+03  0.17770000000E+01 0. -1.
        -16    1    5    5    0    0 -0.11563413252E+03 -0.73061891243E+03 -0.51544831754E+03  0.90158871769E+03  0.00000000000E+00 0.  1.
          2    1    6    6  502    0  0.32919532226E+02  0.31644142881E+02 -0.60274918501E+01  0.46058419845E+02  0.00000000000E+00 0. -1.
         -1    1    6    6    0  502 -0.45369214818E+02  0.15083883826E+02  0.73491949899E+00  0.47816621703E+02  0.00000000000E+00 0.  1.
<mgrwt>
<rscale>  0 0.11198266E+04</rscale>
<asrwt>0</asrwt>
<pdfrwt beam="1">  1        1 0.22953521E+00 0.11198266E+04</pdfrwt>
<pdfrwt beam="2">  1       -2 0.17581531E+00 0.11198266E+04</pdfrwt>
<totfact> 0.11081440E+00</totfact>
</mgrwt>
</event>
<event>
12    3  0.1201947E-007  0.7042746E+03  0.7818608E-02  0.9709950E-01
          1   -1    0    0  501    0  0.00000000000E+00  0.00000000000E+00  0.19317498286E+04  0.19317498286E+04  0.00000000000E+00 0. -1.
         -2   -1    0    0    0  501 -0.00000000000E+00 -0.00000000000E+00 -0.28124054400E+03  0.28124054400E+03  0.00000000000E+00 0.  1.
        -24    2    1    2    0    0  0.19249800651E+03 -0.55609357320E+03  0.94097530147E+03  0.11129890630E+04  0.83753159903E+02 0.  0.
    5000000    2    1    2    0    0 -0.19249800651E+03  0.55609357320E+03  0.70953398313E+03  0.11000013096E+04  0.60022401083E+03 0.  0.
        -24    2    4    4    0    0  0.20151347200E+03  0.22920673491E+03  0.20687197192E+03  0.37757090846E+03  0.81365664865E+02 0.  0.
         24    2    4    4    0    0 -0.39401147851E+03  0.32688683829E+03  0.50266201121E+03  0.72243040111E+03  0.84478024931E+02 0.  0.
         11    1    3    3    0    0  0.41550365582E+02 -0.17317115079E+03  0.22280510801E+03  0.28523112822E+03  0.00000000000E+00 0. -1.
        -12    1    3    3    0    0  0.15094764093E+03 -0.38292242241E+03  0.71817019346E+03  0.82775793482E+03  0.00000000000E+00 0.  1.
         15    1    5    5    0    0  0.74594990696E+02  0.10900777247E+03  0.45631154498E+02  0.13975860290E+03  0.17770000000E+01 0. -1.
        -16    1    5    5    0    0  0.12691848130E+03  0.12019896244E+03  0.16124081742E+03  0.23781230555E+03  0.00000000000E+00 0.  1.
          2    1    6    6  502    0 -0.79487354667E+02  0.64996479327E+02  0.15223388349E+03  0.18362444598E+03  0.00000000000E+00 0. -1.
         -1    1    6    6    0  502 -0.31452412385E+03  0.26189035896E+03  0.35042812771E+03  0.53880595514E+03  0.00000000000E+00 0.  1.
<mgrwt>
<rscale>  0 0.70427460E+03</rscale>
<asrwt>0</asrwt>
<pdfrwt beam="1">  1        1 0.29719227E+00 0.70427460E+03</pdfrwt>
<pdfrwt beam="2">  1       -2 0.43267777E-01 0.70427460E+03</pdfrwt>
<totfact> 0.15408013E+01</totfact>
</mgrwt>
</event>
<event>
12    3  0.1201947E-007  0.1087064E+04  0.7818608E-02  0.9217892E-01
         -2   -1    0    0    0  501 -0.00000000000E+00  0.00000000000E+00  0.17928971336E+04  0.17928971336E+04  0.00000000000E+00 0.  1.
          1   -1    0    0  501    0  0.00000000000E+00 -0.00000000000E+00 -0.70131199204E+03  0.70131199204E+03  0.00000000000E+00 0. -1.
        -24    2    1    2    0    0  0.43427876977E+03  0.91570495580E+03  0.25041455109E+03  0.10469123699E+04  0.78768312132E+02 0.  0.
    5000000    2    1    2    0    0 -0.43427876977E+03 -0.91570495580E+03  0.84117059043E+03  0.14472967556E+04  0.59998860052E+03 0.  0.
        -24    2    4    4    0    0  0.13069640514E+03 -0.18838621886E+03  0.26072159595E+03  0.35578835131E+03  0.77708960617E+02 0.  0.
         24    2    4    4    0    0 -0.56497517491E+03 -0.72731873694E+03  0.58044899448E+03  0.10915084043E+04  0.79246881172E+02 0.  0.
         11    1    3    3    0    0  0.17722886369E+03  0.46045226820E+03  0.13492677943E+03  0.51149936190E+03  0.00000000000E+00 0. -1.
        -12    1    3    3    0    0  0.25704990608E+03  0.45525268760E+03  0.11548777166E+03  0.53541300805E+03  0.00000000000E+00 0.  1.
         15    1    5    5    0    0  0.49878699792E+02 -0.29646221977E+02  0.33347230038E+02  0.66947581365E+02  0.17770000000E+01 0. -1.
        -16    1    5    5    0    0  0.80817705348E+02 -0.15873999688E+03  0.22737436591E+03  0.28884076994E+03  0.00000000000E+00 0.  1.
          4    1    6    6  502    0 -0.24705732335E+03 -0.28755449333E+03  0.27942973784E+03  0.47096272256E+03  0.00000000000E+00 0. -1.
         -3    1    6    6    0  502 -0.31791785156E+03 -0.43976424361E+03  0.30101925664E+03  0.62054568177E+03  0.00000000000E+00 0.  1.
<mgrwt>
<rscale>  0 0.10870642E+04</rscale>
<asrwt>0</asrwt>
<pdfrwt beam="1">  1        1 0.10789415E+00 0.10870642E+04</pdfrwt>
<pdfrwt beam="2">  1       -2 0.27583033E+00 0.10870642E+04</pdfrwt>
<totfact> 0.10572112E+00</totfact>
</mgrwt>
</event>
<event>
12    3  0.1201947E-007  0.2395757E+03  0.7818608E-02  0.1120076E+00
          1   -1    0    0  501    0  0.00000000000E+00  0.00000000000E+00  0.10077463505E+03  0.10077463505E+03  0.00000000000E+00 0. -1.
         -2   -1    0    0    0  501 -0.00000000000E+00 -0.00000000000E+00 -0.11772209290E+04  0.11772209290E+04  0.00000000000E+00 0.  1.
        -24    2    1    2    0    0  0.33647598374E+02 -0.26782323191E+02 -0.95114073192E+02  0.12703249176E+03  0.72395533914E+02 0.  0.
    5000000    2    1    2    0    0 -0.33647598374E+02  0.26782323191E+02 -0.98133222075E+03  0.11509630723E+04  0.59987799806E+03 0.  0.
        -24    2    4    4    0    0 -0.15149342680E+03 -0.11855632305E+03 -0.91392458569E+03  0.93719285016E+03  0.77887290132E+02 0.  0.
         24    2    4    4    0    0  0.11784582843E+03  0.14533864624E+03 -0.67407635055E+02  0.21377022212E+03  0.78377019784E+02 0.  0.
         13    1    3    3    0    0  0.43263437822E+02  0.11103066555E+02 -0.57258668628E+02  0.72619269290E+02  0.00000000000E+00 0. -1.
        -14    1    3    3    0    0 -0.96158394484E+01 -0.37885389745E+02 -0.37855404564E+02  0.54413222466E+02  0.00000000000E+00 0.  1.
         15    1    5    5    0    0 -0.86453306578E+02 -0.55286365275E+02 -0.65124760181E+03  0.65928548672E+03  0.17770000000E+01 0. -1.
        -16    1    5    5    0    0 -0.65040120223E+02 -0.63269957778E+02 -0.26267698388E+03  0.27790736344E+03  0.00000000000E+00 0.  1.
          2    1    6    6  502    0  0.69556658443E+02  0.13612524796E+03 -0.59200536727E+02  0.16392960506E+03  0.00000000000E+00 0. -1.
         -1    1    6    6    0  502  0.48289169984E+02  0.92133982836E+01 -0.82070983285E+01  0.49840617057E+02  0.00000000000E+00 0.  1.
<mgrwt>
<rscale>  0 0.23957572E+03</rscale>
<asrwt>0</asrwt>
<pdfrwt beam="1">  1        1 0.15503791E-01 0.23957572E+03</pdfrwt>
<pdfrwt beam="2">  1       -2 0.18111091E+00 0.23957572E+03</pdfrwt>
<totfact> 0.60302680E+01</totfact>
</mgrwt>
</event>
<event>
12    3  0.1201947E-007  0.8287607E+03  0.7818608E-02  0.9519296E-01
          1   -1    0    0  501    0  0.00000000000E+00  0.00000000000E+00  0.17124323685E+04  0.17124323685E+04  0.00000000000E+00 0. -1.
         -2   -1    0    0    0  501 -0.00000000000E+00 -0.00000000000E+00 -0.46182485472E+03  0.46182485472E+03  0.00000000000E+00 0.  1.
        -24    2    1    2    0    0  0.16251411068E+03 -0.74603304641E+03  0.78155972412E+03  0.10958327386E+04  0.83890679342E+02 0.  0.
    5000000    2    1    2    0    0 -0.16251411068E+03  0.74603304641E+03  0.46904778971E+03  0.10784244847E+04  0.60001449787E+03 0.  0.
        -24    2    4    4    0    0 -0.29275832134E+03  0.27507056947E+03  0.20247255005E+02  0.41021044146E+03  0.80569237569E+02 0.  0.
         24    2    4    4    0    0  0.13024421066E+03  0.47096247693E+03  0.44880053470E+03  0.66821404323E+03  0.79491373939E+02 0.  0.
         13    1    3    3    0    0  0.55404129931E+02 -0.17273979193E+03  0.23184081044E+03  0.29437869270E+03  0.00000000000E+00 0. -1.
        -14    1    3    3    0    0  0.10710998075E+03 -0.57329325448E+03  0.54971891368E+03  0.80145404588E+03  0.00000000000E+00 0.  1.
         15    1    5    5    0    0 -0.41824694309E+02  0.39222145808E+02 -0.25564844889E+02  0.62804464802E+02  0.17770000000E+01 0. -1.
        -16    1    5    5    0    0 -0.25093362703E+03  0.23584842366E+03  0.45812099894E+02  0.34740597666E+03  0.00000000000E+00 0.  1.
          4    1    6    6  502    0  0.96714521391E+02  0.41325710255E+03  0.35631117514E+03  0.55415953027E+03  0.00000000000E+00 0. -1.
         -3    1    6    6    0  502  0.33529689271E+02  0.57705374385E+02  0.92489359558E+02  0.11405451296E+03  0.00000000000E+00 0.  1.
<mgrwt>
<rscale>  0 0.82876068E+03</rscale>
<asrwt>0</asrwt>
<pdfrwt beam="1">  1        1 0.26345113E+00 0.82876068E+03</pdfrwt>
<pdfrwt beam="2">  1       -2 0.71049979E-01 0.82876068E+03</pdfrwt>
<totfact> 0.75692893E+00</totfact>
</mgrwt>
</event>
<event>
12    3  0.1201947E-007  0.6677709E+03  0.7818608E-02  0.9773993E-01
         -2   -1    0    0    0  501 -0.00000000000E+00  0.00000000000E+00  0.52328384746E+03  0.52328384746E+03  0.00000000000E+00 0.  1.
          1   -1    0    0  501    0  0.00000000000E+00 -0.00000000000E+00 -0.10211075626E+04  0.10211075626E+04  0.00000000000E+00 0. -1.
        -24    2    1    2    0    0 -0.57397443020E+03 -0.43029538040E+02 -0.10986678299E+02  0.58093533663E+03  0.77890760532E+02 0.  0.
    5000000    2    1    2    0    0  0.57397443020E+03  0.43029538040E+02 -0.48683703686E+03  0.96345607345E+03  0.59994926231E+03 0.  0.
        -24    2    4    4    0    0 -0.47123583741E+02 -0.96602637979E+02 -0.24262158754E+03  0.27703026072E+03  0.79547651163E+02 0.  0.
         24    2    4    4    0    0  0.62109801394E+03  0.13963217602E+03 -0.24421544932E+03  0.68642581273E+03  0.79242180684E+02 0.  0.
         13    1    3    3    0    0 -0.10348965930E+03 -0.14852126407E+02  0.27298762436E+02  0.10805516032E+03  0.00000000000E+00 0. -1.
        -14    1    3    3    0    0 -0.47048477090E+03 -0.28177411633E+02 -0.38285440735E+02  0.47288017631E+03  0.00000000000E+00 0.  1.
         15    1    5    5    0    0 -0.16338749275E+02 -0.86545354890E+02 -0.22147573237E+03  0.23835207349E+03  0.17770000000E+01 0. -1.
        -16    1    5    5    0    0 -0.30784834466E+02 -0.10057283089E+02 -0.21145855167E+02  0.38678187224E+02  0.00000000000E+00 0.  1.
          4    1    6    6  502    0  0.52729936363E+03  0.96972338956E+02 -0.22579322349E+03  0.58174808395E+03  0.00000000000E+00 0. -1.
         -3    1    6    6    0  502  0.93798650308E+02  0.42659837063E+02 -0.18422225828E+02  0.10467772878E+03  0.00000000000E+00 0.  1.
<mgrwt>
<rscale>  0 0.66777088E+03</rscale>
<asrwt>0</asrwt>
<pdfrwt beam="1">  1        1 0.15709347E+00 0.66777088E+03</pdfrwt>
<pdfrwt beam="2">  1       -2 0.80505209E-01 0.66777088E+03</pdfrwt>
<totfact> 0.17991381E+01</totfact>
</mgrwt>
</event>
<event>
12    3  0.1201947E-007  0.1851062E+04  0.7818608E-02  0.8679607E-01
         -2   -1    0    0    0  501 -0.00000000000E+00  0.00000000000E+00  0.19644945357E+04  0.19644945357E+04  0.00000000000E+00 0.  1.
          1   -1    0    0  501    0  0.00000000000E+00 -0.00000000000E+00 -0.18067651881E+04  0.18067651881E+04  0.00000000000E+00 0. -1.
        -24    2    1    2    0    0  0.14278774473E+04  0.11401313942E+04 -0.96398446247E+02  0.18313989692E+04  0.77433347480E+02 0.  0.
    5000000    2    1    2    0    0 -0.14278774473E+04 -0.11401313942E+04  0.25412779393E+03  0.19398607546E+04  0.59978763839E+03 0.  0.
        -24    2    4    4    0    0 -0.85480409353E+03 -0.42542553150E+03 -0.80600649878E+02  0.96109997008E+03  0.74429608039E+02 0.  0.
         24    2    4    4    0    0 -0.57307335372E+03 -0.71470586274E+03  0.33472844381E+03  0.97876078454E+03  0.81926816625E+02 0.  0.
         13    1    3    3    0    0  0.55066429475E+03  0.41790815231E+03 -0.29618460847E+01  0.69129383175E+03  0.00000000000E+00 0. -1.
        -14    1    3    3    0    0  0.87721315251E+03  0.72222324194E+03 -0.93436600163E+02  0.11401051374E+04  0.00000000000E+00 0.  1.
         15    1    5    5    0    0 -0.19902250372E+03 -0.94070065306E+02  0.12427306545E+02  0.22049201766E+03  0.17770000000E+01 0. -1.
        -16    1    5    5    0    0 -0.65578158981E+03 -0.33135546620E+03 -0.93027956423E+02  0.74060795242E+03  0.00000000000E+00 0.  1.
          2    1    6    6  502    0 -0.34113446454E+03 -0.36072468627E+03  0.18634123699E+03  0.53029998943E+03  0.00000000000E+00 0. -1.
         -3    1    6    6    0  502 -0.23193888918E+03 -0.35398117647E+03  0.14838720682E+03  0.44846079512E+03  0.00000000000E+00 0.  1.
<mgrwt>
<rscale>  0 0.18510619E+04</rscale>
<asrwt>0</asrwt>
<pdfrwt beam="1">  1        1 0.27796388E+00 0.18510619E+04</pdfrwt>
<pdfrwt beam="2">  1       -2 0.30222993E+00 0.18510619E+04</pdfrwt>
<totfact> 0.98609737E-02</totfact>
</mgrwt>
</event>
<event>
12    3  0.1201947E-007  0.3769838E+03  0.7818608E-02  0.1052054E+00
          1   -1    0    0  501    0  0.00000000000E+00  0.00000000000E+00  0.14910485170E+04  0.14910485170E+04  0.00000000000E+00 0. -1.
         -2   -1    0    0    0  501 -0.00000000000E+00 -0.00000000000E+00 -0.16732138106E+03  0.16732138106E+03  0.00000000000E+00 0.  1.
        -24    2    1    2    0    0 -0.14824325665E+03  0.43565939251E+02  0.87821018672E+03  0.89535333271E+03  0.80810915972E+02 0.  0.
    5000000    2    1    2    0    0  0.14824325665E+03 -0.43565939251E+02  0.44551694919E+03  0.76301656531E+03  0.59986237814E+03 0.  0.
        -24    2    4    4    0    0  0.23172840343E+03 -0.25340164183E+03  0.15088107080E+03  0.38345289292E+03  0.79753235186E+02 0.  0.
         24    2    4    4    0    0 -0.83485146776E+02  0.20983570258E+03  0.29463587839E+03  0.37956367239E+03  0.79104290373E+02 0.  0.
         13    1    3    3    0    0 -0.93000134684E+02 -0.14489910797E+02  0.45863529007E+03  0.46819366919E+03  0.00000000000E+00 0. -1.
        -14    1    3    3    0    0 -0.55243121968E+02  0.58055850048E+02  0.41957489664E+03  0.42715966353E+03  0.00000000000E+00 0.  1.
         15    1    5    5    0    0  0.62483155303E+02 -0.12560208573E+03  0.65508116678E+02  0.15483701016E+03  0.17770000000E+01 0. -1.
        -16    1    5    5    0    0  0.16924524813E+03 -0.12779955610E+03  0.85372954127E+02  0.22861588276E+03  0.00000000000E+00 0.  1.
          2    1    6    6  502    0 -0.22654447024E+02  0.91675751966E+02  0.18328503840E+03  0.20618213494E+03  0.00000000000E+00 0. -1.
         -1    1    6    6    0  502 -0.60830699752E+02  0.11815995061E+03  0.11135083999E+03  0.17338153745E+03  0.00000000000E+00 0.  1.
<mgrwt>
<rscale>  0 0.37698379E+03</rscale>
<asrwt>0</asrwt>
<pdfrwt beam="1">  1        1 0.22939207E+00 0.37698379E+03</pdfrwt>
<pdfrwt beam="2">  1       -2 0.25741752E-01 0.37698379E+03</pdfrwt>
<totfact> 0.84931743E+01</totfact>
</mgrwt>
</event>
<event>
12    3  0.1201947E-007  0.5221720E+03  0.7818608E-02  0.1008148E+00
         -2   -1    0    0    0  501 -0.00000000000E+00  0.00000000000E+00  0.12853497268E+04  0.12853497268E+04  0.00000000000E+00 0.  1.
          1   -1    0    0  501    0  0.00000000000E+00 -0.00000000000E+00 -0.24972771929E+03  0.24972771929E+03  0.00000000000E+00 0. -1.
        -24    2    1    2    0    0 -0.35520028623E+01 -0.38226065813E+03  0.20456478036E+03  0.44101399202E+03  0.80689307311E+02 0.  0.
    5000000    2    1    2    0    0  0.35520028623E+01  0.38226065813E+03  0.83105722710E+03  0.10940634540E+04  0.60015239669E+03 0.  0.
        -24    2    4    4    0    0 -0.17571539160E+03 -0.41505201703E+02  0.45118013941E+03  0.49241500084E+03  0.79438241677E+02 0.  0.
         24    2    4    4    0    0  0.17926739446E+03  0.42376585983E+03  0.37987708769E+03  0.60164845319E+03  0.77200756459E+02 0.  0.
         11    1    3    3    0    0 -0.60412956209E+01 -0.10132233754E+03  0.96332231219E+02  0.13993788661E+03  0.00000000000E+00 0. -1.
        -12    1    3    3    0    0  0.24892927586E+01 -0.28093832059E+03  0.10823254914E+03  0.30107610541E+03  0.00000000000E+00 0.  1.
         15    1    5    5    0    0 -0.11577699461E+03  0.10300659102E+02  0.23512000235E+03  0.26228798923E+03  0.17770000000E+01 0. -1.
        -16    1    5    5    0    0 -0.59938396993E+02 -0.51805860806E+02  0.21606013706E+03  0.23012701162E+03  0.00000000000E+00 0.  1.
          4    1    6    6  502    0  0.13872051684E+03  0.38905206748E+03  0.33170385338E+03  0.52974742977E+03  0.00000000000E+00 0. -1.
         -3    1    6    6    0  502  0.40546877626E+02  0.34713792347E+02  0.48173234311E+02  0.71901023416E+02  0.00000000000E+00 0.  1.
<mgrwt>
<rscale>  0 0.52217201E+03</rscale>
<asrwt>0</asrwt>
<pdfrwt beam="1">  1        1 0.38419650E-01 0.52217201E+03</pdfrwt>
<pdfrwt beam="2">  1       -2 0.19774611E+00 0.52217201E+03</pdfrwt>
<totfact> 0.13992123E+01</totfact>
</mgrwt>
</event>
<event>
12    3  0.1201947E-007  0.4484544E+03  0.7818608E-02  0.1028184E+00
          1   -1    0    0  501    0  0.00000000000E+00  0.00000000000E+00  0.83937793472E+03  0.83937793472E+03  0.00000000000E+00 0. -1.
         -2   -1    0    0    0  501 -0.00000000000E+00 -0.00000000000E+00 -0.24957689663E+03  0.24957689663E+03  0.00000000000E+00 0.  1.
        -24    2    1    2    0    0 -0.57943430821E+02  0.24536154786E+03  0.16303204120E+03  0.31074798422E+03  0.80156926650E+02 0.  0.
    5000000    2    1    2    0    0  0.57943430821E+02 -0.24536154786E+03  0.42676899688E+03  0.77820684713E+03  0.59992865399E+03 0.  0.
        -24    2    4    4    0    0 -0.17781016207E+01 -0.43088654497E+03  0.25332155330E+03  0.50673682522E+03  0.83330812957E+02 0.  0.
         24    2    4    4    0    0  0.59721532441E+02  0.18552499710E+03  0.17344744359E+03  0.27147002191E+03  0.75005140647E+02 0.  0.
         11    1    3    3    0    0 -0.10595573939E+02  0.18881991511E+03  0.10109967559E+03  0.21444433062E+03  0.00000000000E+00 0. -1.
        -12    1    3    3    0    0 -0.47347856881E+02  0.56541632749E+02  0.61932365616E+02  0.96303653596E+02  0.00000000000E+00 0.  1.
         15    1    5    5    0    0 -0.42462741405E+02 -0.23272008803E+03  0.13530988369E+03  0.27253191764E+03  0.17770000000E+01 0. -1.
        -16    1    5    5    0    0  0.40684639784E+02 -0.19816645694E+03  0.11801166961E+03  0.23420490758E+03  0.00000000000E+00 0.  1.
          2    1    6    6  502    0  0.20432782119E+02  0.80167330237E+02  0.27398273320E+02  0.87149095252E+02  0.00000000000E+00 0. -1.
         -1    1    6    6    0  502  0.39288750323E+02  0.10535766687E+03  0.14604917027E+03  0.18432092666E+03  0.00000000000E+00 0.  1.
<mgrwt>
<rscale>  0 0.44845443E+03</rscale>
<asrwt>0</asrwt>
<pdfrwt beam="1">  1        1 0.12913507E+00 0.44845443E+03</pdfrwt>
<pdfrwt beam="2">  1       -2 0.38396446E-01 0.44845443E+03</pdfrwt>
<totfact> 0.11958548E+02</totfact>
</mgrwt>
</event>
<event>
12    3  0.1201947E-007  0.8810190E+03  0.7818608E-02  0.9449625E-01
          1   -1    0    0  501    0  0.00000000000E+00  0.00000000000E+00  0.33184686399E+04  0.33184686399E+04  0.00000000000E+00 0. -1.
         -2   -1    0    0    0  501 -0.00000000000E+00 -0.00000000000E+00 -0.30058020120E+03  0.30058020120E+03  0.00000000000E+00 0.  1.
        -24    2    1    2    0    0 -0.70504062561E+03 -0.50915953119E+03  0.91146452601E+03  0.12625005517E+04  0.82549069023E+02 0.  0.
    5000000    2    1    2    0    0  0.70504062561E+03  0.50915953119E+03  0.21064239127E+04  0.23565482895E+04  0.59997702334E+03 0.  0.
        -24    2    4    4    0    0  0.43551864808E+03  0.22108132699E+03  0.17495702679E+04  0.18181696117E+04  0.78683977789E+02 0.  0.
         24    2    4    4    0    0  0.26952197753E+03  0.28807820420E+03  0.35685364482E+03  0.53837867784E+03  0.82921220551E+02 0.  0.
         11    1    3    3    0    0 -0.35040530093E+03 -0.26899453438E+03  0.51936010549E+03  0.68181878357E+03  0.00000000000E+00 0. -1.
        -12    1    3    3    0    0 -0.35463532468E+03 -0.24016499681E+03  0.39210442051E+03  0.58068176809E+03  0.00000000000E+00 0.  1.
         15    1    5    5    0    0  0.13377025433E+03  0.10958962739E+03  0.59510307502E+03  0.61972186907E+03  0.17770000000E+01 0. -1.
        -16    1    5    5    0    0  0.30174839374E+03  0.11149169960E+03  0.11544671929E+04  0.11984477426E+04  0.00000000000E+00 0.  1.
          2    1    6    6  502    0  0.10758743755E+03  0.14971848965E+03  0.12069837568E+03  0.22036056987E+03  0.00000000000E+00 0. -1.
         -1    1    6    6    0  502  0.16193453998E+03  0.13835971455E+03  0.23615526914E+03  0.31801810796E+03  0.00000000000E+00 0.  1.
<mgrwt>
<rscale>  0 0.88101898E+03</rscale>
<asrwt>0</asrwt>
<pdfrwt beam="1">  1        1 0.51053361E+00 0.88101898E+03</pdfrwt>
<pdfrwt beam="2">  1       -2 0.46243110E-01 0.88101898E+03</pdfrwt>
<totfact> 0.14176554E+00</totfact>
</mgrwt>
</event>
<event>
12    3  0.1201947E-007  0.1220105E+04  0.7818608E-02  0.9095439E-01
          1   -1    0    0  501    0  0.00000000000E+00  0.00000000000E+00  0.25682585257E+04  0.25682585257E+04  0.00000000000E+00 0. -1.
         -2   -1    0    0    0  501 -0.00000000000E+00 -0.00000000000E+00 -0.95591732909E+03  0.95591732909E+03  0.00000000000E+00 0.  1.
        -24    2    1    2    0    0 -0.11499548586E+04 -0.21294269227E+03 -0.29319780758E+03  0.12092454496E+04  0.92568006654E+02 0.  0.
    5000000    2    1    2    0    0  0.11499548586E+04  0.21294269227E+03  0.19055390042E+04  0.23149304053E+04  0.60006926055E+03 0.  0.
        -24    2    4    4    0    0 -0.30970759676E+01  0.96792085199E+02  0.34563022026E+03  0.37001150511E+03  0.89832984603E+02 0.  0.
         24    2    4    4    0    0  0.11530519346E+04  0.11615060707E+03  0.15599087840E+04  0.19449189001E+04  0.79839754603E+02 0.  0.
         11    1    3    3    0    0 -0.54571220418E+03 -0.13456002489E+03 -0.17415452706E+03  0.58841992606E+03  0.00000000000E+00 0. -1.
        -12    1    3    3    0    0 -0.60424265446E+03 -0.78382667380E+02 -0.11904328052E+03  0.62082552351E+03  0.00000000000E+00 0.  1.
         15    1    5    5    0    0  0.17239806232E+02  0.88448797597E+01  0.89081512736E+01  0.21399899649E+02  0.17770000000E+01 0. -1.
        -16    1    5    5    0    0 -0.20336882199E+02  0.87947205439E+02  0.33672206899E+03  0.34861160546E+03  0.00000000000E+00 0.  1.
          2    1    6    6  502    0  0.52465323209E+02  0.10188152951E+02  0.47899443142E+02  0.71768832047E+02  0.00000000000E+00 0. -1.
         -1    1    6    6    0  502  0.11005866114E+04  0.10596245412E+03  0.15120093408E+04  0.18731500681E+04  0.00000000000E+00 0.  1.
<mgrwt>
<rscale>  0 0.12201046E+04</rscale>
<asrwt>0</asrwt>
<pdfrwt beam="1">  1        1 0.39511669E+00 0.12201046E+04</pdfrwt>
<pdfrwt beam="2">  1       -2 0.14706421E+00 0.12201046E+04</pdfrwt>
<totfact> 0.32947984E-01</totfact>
</mgrwt>
</event>
<event>
12    3  0.1201947E-007  0.3246595E+04  0.7818608E-02  0.8176619E-01
         -2   -1    0    0    0  501 -0.00000000000E+00  0.00000000000E+00  0.38317593468E+04  0.38317593468E+04  0.00000000000E+00 0.  1.
          1   -1    0    0  501    0  0.00000000000E+00 -0.00000000000E+00 -0.28390443060E+04  0.28390443060E+04  0.00000000000E+00 0. -1.
        -24    2    1    2    0    0  0.28391712927E+04 -0.15707887055E+04  0.77957141577E+02  0.32466245583E+04  0.78885487922E+02 0.  0.
    5000000    2    1    2    0    0 -0.28391712927E+04  0.15707887055E+04  0.91475789927E+03  0.34241790945E+04  0.59995805697E+03 0.  0.
        -24    2    4    4    0    0 -0.22599817240E+04  0.12723461903E+04  0.48627718079E+03  0.26400153079E+04  0.82662620228E+02 0.  0.
         24    2    4    4    0    0 -0.57918956872E+03  0.29844251512E+03  0.42848071848E+03  0.78416378652E+03  0.82393122467E+02 0.  0.
         11    1    3    3    0    0  0.49393904911E+03 -0.24441379923E+03 -0.22331264448E+01  0.55110695545E+03  0.00000000000E+00 0. -1.
        -12    1    3    3    0    0  0.23452322436E+04 -0.13263749062E+04  0.80190268021E+02  0.26955176029E+04  0.00000000000E+00 0.  1.
         15    1    5    5    0    0 -0.69506099731E+03  0.35072453698E+03  0.15963886885E+03  0.79473594168E+03  0.17770000000E+01 0. -1.
        -16    1    5    5    0    0 -0.15649207267E+04  0.92162165336E+03  0.32663831194E+03  0.18452793663E+04  0.00000000000E+00 0.  1.
          4    1    6    6  502    0 -0.16114296988E+03  0.10593605172E+03  0.89740472907E+02  0.21270368185E+03  0.00000000000E+00 0. -1.
         -3    1    6    6    0  502 -0.41804659884E+03  0.19250646340E+03  0.33874024558E+03  0.57146010467E+03  0.00000000000E+00 0.  1.
<mgrwt>
<rscale>  0 0.32465954E+04</rscale>
<asrwt>0</asrwt>
<pdfrwt beam="1">  1        1 0.43677605E+00 0.32465954E+04</pdfrwt>
<pdfrwt beam="2">  1       -2 0.58950144E+00 0.32465954E+04</pdfrwt>
<totfact> 0.29304175E-04</totfact>
</mgrwt>
</event>
<event>
12    3  0.1201947E-007  0.8030267E+03  0.7818608E-02  0.9555646E-01
          1   -1    0    0  501    0  0.00000000000E+00  0.00000000000E+00  0.98370891701E+03  0.98370891701E+03  0.00000000000E+00 0. -1.
         -2   -1    0    0    0  501 -0.00000000000E+00 -0.00000000000E+00 -0.20157079150E+04  0.20157079150E+04  0.00000000000E+00 0.  1.
        -24    2    1    2    0    0 -0.69956481636E+03  0.61831698874E+02  0.72623335829E+03  0.10133094185E+04  0.78530221605E+02 0.  0.
    5000000    2    1    2    0    0  0.69956481636E+03 -0.61831698874E+02 -0.17582323563E+04  0.19861074135E+04  0.60002295620E+03 0.  0.
        -24    2    4    4    0    0 -0.40148142456E+02  0.12132621236E+03 -0.38802122580E+03  0.41620802061E+03  0.79603527577E+02 0.  0.
         24    2    4    4    0    0  0.73971295881E+03 -0.18315791124E+03 -0.13702111305E+04  0.15698993929E+04  0.79896681832E+02 0.  0.
         11    1    3    3    0    0 -0.23448113410E+03 -0.41307247946E+01  0.28211463023E+03  0.36686118591E+03  0.00000000000E+00 0. -1.
        -12    1    3    3    0    0 -0.46508368225E+03  0.65962423668E+02  0.44411872805E+03  0.64644823261E+03  0.00000000000E+00 0.  1.
         15    1    5    5    0    0 -0.34612058786E+02  0.32792757209E+02 -0.23087559115E+03  0.23575422766E+03  0.17770000000E+01 0. -1.
        -16    1    5    5    0    0 -0.55360836694E+01  0.88533455153E+02 -0.15714563464E+03  0.18045379295E+03  0.00000000000E+00 0.  1.
          4    1    6    6  502    0  0.47060268753E+03 -0.15163075945E+03 -0.84935162425E+03  0.98278021874E+03  0.00000000000E+00 0. -1.
         -3    1    6    6    0  502  0.26911027129E+03 -0.31527151783E+02 -0.52085950621E+03  0.58711917412E+03  0.00000000000E+00 0.  1.
<mgrwt>
<rscale>  0 0.80302665E+03</rscale>
<asrwt>0</asrwt>
<pdfrwt beam="1">  1        1 0.15133983E+00 0.80302665E+03</pdfrwt>
<pdfrwt beam="2">  1       -2 0.31010891E+00 0.80302665E+03</pdfrwt>
<totfact> 0.39346126E-01</totfact>
</mgrwt>
</event>
<event>
12    3  0.1201947E-007  0.3000676E+03  0.7818608E-02  0.1085207E+00
          1   -1    0    0  501    0  0.00000000000E+00  0.00000000000E+00  0.10045711210E+03  0.10045711210E+03  0.00000000000E+00 0. -1.
         -2   -1    0    0    0  501 -0.00000000000E+00 -0.00000000000E+00 -0.13787763192E+04  0.13787763192E+04  0.00000000000E+00 0.  1.
        -24    2    1    2    0    0 -0.91876634024E+02 -0.50549179888E+02 -0.28795045549E+03  0.31664620667E+03  0.79704579000E+02 0.  0.
    5000000    2    1    2    0    0  0.91876634024E+02  0.50549179888E+02 -0.99036875164E+03  0.11625872247E+04  0.59981851860E+03 0.  0.
        -24    2    4    4    0    0  0.27162917836E+03  0.83490705775E+01 -0.89713902289E+03  0.94130996340E+03  0.85754902379E+02 0.  0.
         24    2    4    4    0    0 -0.17975254434E+03  0.42200109310E+02 -0.93229728749E+02  0.22127726126E+03  0.78613088010E+02 0.  0.
         11    1    3    3    0    0 -0.21894818079E+02 -0.56037400625E+02 -0.11051575776E+03  0.12583046547E+03  0.00000000000E+00 0. -1.
        -12    1    3    3    0    0 -0.69981815946E+02  0.54882207376E+01 -0.17743469773E+03  0.19081574120E+03  0.00000000000E+00 0.  1.
         15    1    5    5    0    0  0.26608978655E+03  0.25122054026E+02 -0.83853044860E+03  0.88009735999E+03  0.17770000000E+01 0. -1.
        -16    1    5    5    0    0  0.55393918089E+01 -0.16772983448E+02 -0.58608574296E+02  0.61212603411E+02  0.00000000000E+00 0.  1.
          2    1    6    6  502    0 -0.15325042856E+03  0.39022660344E+02 -0.42177886401E+02  0.16366867744E+03  0.00000000000E+00 0. -1.
         -3    1    6    6    0  502 -0.26502115780E+02  0.31774489664E+01 -0.51051842347E+02  0.57608583821E+02  0.00000000000E+00 0.  1.
<mgrwt>
<rscale>  0 0.30006757E+03</rscale>
<asrwt>0</asrwt>
<pdfrwt beam="1">  1        1 0.15454940E-01 0.30006757E+03</pdfrwt>
<pdfrwt beam="2">  1       -2 0.21211944E+00 0.30006757E+03</pdfrwt>
<totfact> 0.38038469E+01</totfact>
</mgrwt>
</event>
<event>
12    3  0.1201947E-007  0.8155664E+03  0.7818608E-02  0.9537755E-01
          1   -1    0    0  501    0  0.00000000000E+00  0.00000000000E+00  0.10573971246E+04  0.10573971246E+04  0.00000000000E+00 0. -1.
         -2   -1    0    0    0  501 -0.00000000000E+00 -0.00000000000E+00 -0.92294768529E+03  0.92294768529E+03  0.00000000000E+00 0.  1.
        -24    2    1    2    0    0  0.62173560890E+03  0.41943472033E+03  0.54983620761E+03  0.93395941632E+03  0.86485167137E+02 0.  0.
    5000000    2    1    2    0    0 -0.62173560890E+03 -0.41943472033E+03 -0.41538676830E+03  0.10463853936E+04  0.59991297088E+03 0.  0.
        -24    2    4    4    0    0 -0.89651644913E+02 -0.31042929787E+03 -0.36238410538E+03  0.49474292009E+03  0.95102842931E+02 0.  0.
         24    2    4    4    0    0 -0.53208396398E+03 -0.10900542247E+03 -0.53002662921E+02  0.55164247349E+03  0.80651158888E+02 0.  0.
         13    1    3    3    0    0  0.34311140751E+03  0.27452299120E+03  0.29162470424E+03  0.52738342672E+03  0.00000000000E+00 0. -1.
        -14    1    3    3    0    0  0.27862420139E+03  0.14491172913E+03  0.25821150337E+03  0.40657598959E+03  0.00000000000E+00 0.  1.
         15    1    5    5    0    0 -0.10682031030E+02 -0.14345202276E+03 -0.21377248503E+03  0.25767115032E+03  0.17770000000E+01 0. -1.
        -16    1    5    5    0    0 -0.78969613883E+02 -0.16697727510E+03 -0.14861162035E+03  0.23707176977E+03  0.00000000000E+00 0.  1.
          4    1    6    6  502    0 -0.19544572840E+03 -0.66447789817E+00 -0.19333728196E+02  0.19640078240E+03  0.00000000000E+00 0. -1.
         -3    1    6    6    0  502 -0.33663823558E+03 -0.10834094457E+03 -0.33668934725E+02  0.35524169109E+03  0.00000000000E+00 0.  1.
<mgrwt>
<rscale>  0 0.81556638E+03</rscale>
<asrwt>0</asrwt>
<pdfrwt beam="1">  1        1 0.16267648E+00 0.81556638E+03</pdfrwt>
<pdfrwt beam="2">  1       -2 0.14199195E+00 0.81556638E+03</pdfrwt>
<totfact> 0.42185766E+00</totfact>
</mgrwt>
</event>
<event>
12    3  0.1201947E-007  0.5111768E+03  0.7818608E-02  0.1010902E+00
         -2   -1    0    0    0  501 -0.00000000000E+00  0.00000000000E+00  0.37555208194E+03  0.37555208194E+03  0.00000000000E+00 0.  1.
          1   -1    0    0  501    0  0.00000000000E+00 -0.00000000000E+00 -0.97511312119E+03  0.97511312119E+03  0.00000000000E+00 0. -1.
        -24    2    1    2    0    0 -0.20570893592E+03 -0.37630172407E+03 -0.38678749809E+03  0.58294224084E+03  0.79359521292E+02 0.  0.
    5000000    2    1    2    0    0  0.20570893592E+03  0.37630172407E+03 -0.21277354116E+03  0.76772296230E+03  0.60017231956E+03 0.  0.
        -24    2    4    4    0    0  0.13139282167E+03  0.44231227063E+03 -0.34719777844E+03  0.58283993862E+03  0.79068820369E+02 0.  0.
         24    2    4    4    0    0  0.74316114248E+02 -0.66010546561E+02  0.13442423728E+03  0.18488302368E+03  0.78940355850E+02 0.  0.
         13    1    3    3    0    0 -0.43752922637E+02 -0.15928943627E+03 -0.15437894507E+03  0.22609799076E+03  0.00000000000E+00 0. -1.
        -14    1    3    3    0    0 -0.16195601328E+03 -0.21701228780E+03 -0.23240855302E+03  0.35684425008E+03  0.00000000000E+00 0.  1.
         15    1    5    5    0    0  0.15533971746E+02  0.16886701590E+03 -0.14949800993E+03  0.22607562018E+03  0.17770000000E+01 0. -1.
        -16    1    5    5    0    0  0.11585884993E+03  0.27344525473E+03 -0.19769976851E+03  0.35676431844E+03  0.00000000000E+00 0.  1.
          2    1    6    6  502    0  0.39304616076E+02 -0.74100680667E+02  0.11943775958E+03  0.14594910803E+03  0.00000000000E+00 0. -1.
         -1    1    6    6    0  502  0.35011498172E+02  0.80901341067E+01  0.14986477702E+02  0.38933915653E+02  0.00000000000E+00 0.  1.
<mgrwt>
<rscale>  0 0.51117676E+03</rscale>
<asrwt>0</asrwt>
<pdfrwt beam="1">  1        1 0.15001740E+00 0.51117676E+03</pdfrwt>
<pdfrwt beam="2">  1       -2 0.57777244E-01 0.51117676E+03</pdfrwt>
<totfact> 0.40823008E+01</totfact>
</mgrwt>
</event>
<event>
12    3  0.1201947E-007  0.4082995E+03  0.7818608E-02  0.1040943E+00
          1   -1    0    0  501    0  0.00000000000E+00  0.00000000000E+00  0.12049999571E+04  0.12049999571E+04  0.00000000000E+00 0. -1.
         -2   -1    0    0    0  501 -0.00000000000E+00 -0.00000000000E+00 -0.27676041351E+03  0.27676041351E+03  0.00000000000E+00 0.  1.
        -24    2    1    2    0    0  0.24922540107E+03 -0.26681884603E+03  0.84582326581E+02  0.38402107276E+03  0.83740176834E+02 0.  0.
    5000000    2    1    2    0    0 -0.24922540107E+03  0.26681884603E+03  0.84365721703E+03  0.10977392979E+04  0.59997372370E+03 0.  0.
        -24    2    4    4    0    0 -0.23540686512E+03  0.26827780097E+03  0.14396655350E+03  0.39322252185E+03  0.80673493314E+02 0.  0.
         24    2    4    4    0    0 -0.13818535950E+02 -0.14589549435E+01  0.69969066353E+03  0.70451677603E+03  0.81140511385E+02 0.  0.
         11    1    3    3    0    0  0.12735181635E+03 -0.18962249649E+03  0.32891180595E+02  0.23077479513E+03  0.00000000000E+00 0. -1.
        -12    1    3    3    0    0  0.12187358472E+03 -0.77196349532E+02  0.51691145985E+02  0.15324627763E+03  0.00000000000E+00 0.  1.
         15    1    5    5    0    0 -0.48104184973E+02  0.11227718396E+03  0.48035681945E+02  0.13126600138E+03  0.17770000000E+01 0. -1.
        -16    1    5    5    0    0 -0.18730268015E+03  0.15600061701E+03  0.95930871553E+02  0.26195652047E+03  0.00000000000E+00 0.  1.
          2    1    6    6  502    0 -0.35711406729E+00  0.37126711806E+02  0.22221138000E+03  0.22529184996E+03  0.00000000000E+00 0. -1.
         -1    1    6    6    0  502 -0.13461421882E+02 -0.38585666749E+02  0.47747928354E+03  0.47922492607E+03  0.00000000000E+00 0.  1.
<mgrwt>
<rscale>  0 0.40829954E+03</rscale>
<asrwt>0</asrwt>
<pdfrwt beam="1">  1        1 0.18538461E+00 0.40829954E+03</pdfrwt>
<pdfrwt beam="2">  1       -2 0.42578526E-01 0.40829954E+03</pdfrwt>
<totfact> 0.51907953E+01</totfact>
</mgrwt>
</event>
<event>
12    3  0.1201947E-007  0.5555291E+03  0.7818608E-02  0.1000222E+00
          1   -1    0    0  501    0  0.00000000000E+00  0.00000000000E+00  0.39536899562E+04  0.39536899562E+04  0.00000000000E+00 0. -1.
         -2   -1    0    0    0  501 -0.00000000000E+00 -0.00000000000E+00 -0.10203353071E+03  0.10203353071E+03  0.00000000000E+00 0.  1.
        -24    2    1    2    0    0  0.33023178133E+03 -0.27478006547E+03  0.75089878074E+03  0.86835789354E+03  0.75095529685E+02 0.  0.
    5000000    2    1    2    0    0 -0.33023178133E+03  0.27478006547E+03  0.31007576447E+04  0.31873655933E+04  0.60003694926E+03 0.  0.
        -24    2    4    4    0    0  0.13757573751E+03  0.41078545328E+02  0.13048001194E+04  0.13151399860E+04  0.80469254326E+02 0.  0.
         24    2    4    4    0    0 -0.46780751884E+03  0.23370152014E+03  0.17959575254E+04  0.18722256073E+04  0.79404134630E+02 0.  0.
         13    1    3    3    0    0  0.28336922344E+03 -0.22530440105E+03  0.57220140189E+03  0.67710754999E+03  0.00000000000E+00 0. -1.
        -14    1    3    3    0    0  0.46862557892E+02 -0.49475664419E+02  0.17869737884E+03  0.19125034355E+03  0.00000000000E+00 0.  1.
         15    1    5    5    0    0  0.39743378095E+02 -0.11949170388E+02  0.61693863389E+03  0.61833547083E+03  0.17770000000E+01 0. -1.
        -16    1    5    5    0    0  0.97832359414E+02  0.53027715716E+02  0.68786148548E+03  0.69680451519E+03  0.00000000000E+00 0.  1.
          4    1    6    6  502    0 -0.34567837478E+03  0.13522913349E+03  0.12125123984E+04  0.12680562975E+04  0.00000000000E+00 0. -1.
         -3    1    6    6    0  502 -0.12212914406E+03  0.98472386651E+02  0.58344512692E+03  0.60416930978E+03  0.00000000000E+00 0.  1.
<mgrwt>
<rscale>  0 0.55552910E+03</rscale>
<asrwt>0</asrwt>
<pdfrwt beam="1">  1        1 0.60825988E+00 0.55552910E+03</pdfrwt>
<pdfrwt beam="2">  1       -2 0.15697469E-01 0.55552910E+03</pdfrwt>
<totfact> 0.34415316E+00</totfact>
</mgrwt>
</event>
<event>
12    3  0.1201947E-007  0.1361086E+04  0.7818608E-02  0.8982478E-01
         -2   -1    0    0    0  501 -0.00000000000E+00  0.00000000000E+00  0.16759383307E+04  0.16759383307E+04  0.00000000000E+00 0.  1.
          1   -1    0    0  501    0  0.00000000000E+00 -0.00000000000E+00 -0.13220934127E+04  0.13220934127E+04  0.00000000000E+00 0. -1.
        -24    2    1    2    0    0  0.77421185969E+03  0.10611989241E+04  0.73094895386E+03  0.15053610061E+04  0.79235252974E+02 0.  0.
    5000000    2    1    2    0    0 -0.77421185969E+03 -0.10611989241E+04 -0.37710403585E+03  0.14926707373E+04  0.60025937403E+03 0.  0.
        -24    2    4    4    0    0 -0.73812923177E+03 -0.10924383552E+04 -0.26545220005E+03  0.13472436927E+04  0.79651581693E+02 0.  0.
         24    2    4    4    0    0 -0.36082627917E+02  0.31239431123E+02 -0.11165183580E+03  0.14542704458E+03  0.80031461090E+02 0.  0.
         11    1    3    3    0    0  0.69528030294E+03  0.92568336733E+03  0.62022860101E+03  0.13133879525E+04  0.00000000000E+00 0. -1.
        -12    1    3    3    0    0  0.78931556751E+02  0.13551555673E+03  0.11072035285E+03  0.19197305358E+03  0.00000000000E+00 0.  1.
         15    1    5    5    0    0 -0.17018334438E+03 -0.27238356482E+03 -0.32045080405E+02  0.32277735670E+03  0.17770000000E+01 0. -1.
        -16    1    5    5    0    0 -0.56794588739E+03 -0.82005479036E+03 -0.23340711964E+03  0.10244663360E+04  0.00000000000E+00 0.  1.
          4    1    6    6  502    0  0.22645384652E+02  0.17477907295E+02 -0.58125506827E+02  0.64783217220E+02  0.00000000000E+00 0. -1.
         -3    1    6    6    0  502 -0.58728012568E+02  0.13761523828E+02 -0.53526328971E+02  0.80643827361E+02  0.00000000000E+00 0.  1.
<mgrwt>
<rscale>  0 0.13610862E+04</rscale>
<asrwt>0</asrwt>
<pdfrwt beam="1">  1        1 0.20339899E+00 0.13610862E+04</pdfrwt>
<pdfrwt beam="2">  1       -2 0.25783667E+00 0.13610862E+04</pdfrwt>
<totfact> 0.42142347E-01</totfact>
</mgrwt>
</event>
<event>
12    3  0.1201947E-007  0.5684030E+03  0.7818608E-02  0.9973219E-01
          1   -1    0    0  501    0  0.00000000000E+00  0.00000000000E+00  0.28469482778E+03  0.28469482778E+03  0.00000000000E+00 0. -1.
         -2   -1    0    0    0  501 -0.00000000000E+00 -0.00000000000E+00 -0.16301626470E+04  0.16301626470E+04  0.00000000000E+00 0.  1.
        -24    2    1    2    0    0  0.14722523620E+03  0.52160890420E+03 -0.63175892981E+03  0.83638117150E+03  0.81627198426E+02 0.  0.
    5000000    2    1    2    0    0 -0.14722523620E+03 -0.52160890420E+03 -0.71370888941E+03  0.10784763033E+04  0.59998303210E+03 0.  0.
        -24    2    4    4    0    0 -0.10090141703E+03 -0.94981849841E+02  0.75308071784E+02  0.17691596377E+03  0.80157998993E+02 0.  0.
         24    2    4    4    0    0 -0.46323819173E+02 -0.42662705436E+03 -0.78901696119E+03  0.90156033952E+03  0.78145639697E+02 0.  0.
         11    1    3    3    0    0  0.11241322457E+03  0.25963931915E+03 -0.30269789537E+03  0.41433721166E+03  0.00000000000E+00 0. -1.
        -12    1    3    3    0    0  0.34812011634E+02  0.26196958505E+03 -0.32906103444E+03  0.42204395984E+03  0.00000000000E+00 0.  1.
         15    1    5    5    0    0 -0.75733929325E+02 -0.10786885507E+03  0.62043287423E+02  0.14568405948E+03  0.17770000000E+01 0. -1.
        -16    1    5    5    0    0 -0.25167487707E+02  0.12887005226E+02  0.13264784361E+02  0.31231904286E+02  0.00000000000E+00 0.  1.
          2    1    6    6  502    0 -0.20102365589E+02 -0.26645797469E+03 -0.41168925088E+03  0.49080749451E+03  0.00000000000E+00 0. -1.
         -1    1    6    6    0  502 -0.26221453584E+02 -0.16016907968E+03 -0.37732771031E+03  0.41075284500E+03  0.00000000000E+00 0.  1.
<mgrwt>
<rscale>  0 0.56840305E+03</rscale>
<asrwt>0</asrwt>
<pdfrwt beam="1">  1        1 0.43799204E-01 0.56840305E+03</pdfrwt>
<pdfrwt beam="2">  1       -2 0.25079425E+00 0.56840305E+03</pdfrwt>
<totfact> 0.55112331E+00</totfact>
</mgrwt>
</event>
<event>
12    3  0.1201947E-007  0.9769943E+03  0.7818608E-02  0.9334143E-01
          1   -1    0    0  501    0  0.00000000000E+00  0.00000000000E+00  0.10867428460E+04  0.10867428460E+04  0.00000000000E+00 0. -1.
         -2   -1    0    0    0  501 -0.00000000000E+00 -0.00000000000E+00 -0.10917698946E+04  0.10917698946E+04  0.00000000000E+00 0.  1.
        -24    2    1    2    0    0  0.42673782142E+03  0.79121619167E+03 -0.45176025810E+03  0.10090544058E+04  0.77299630029E+02 0.  0.
    5000000    2    1    2    0    0 -0.42673782142E+03 -0.79121619167E+03  0.44673320952E+03  0.11694583349E+04  0.59994500279E+03 0.  0.
        -24    2    4    4    0    0 -0.48159671228E+03 -0.82942502080E+03  0.33891037346E+03  0.10204697021E+04  0.81344411797E+02 0.  0.
         24    2    4    4    0    0  0.54858890861E+02  0.38208829133E+02  0.10782283606E+03  0.14898863275E+03  0.78118091273E+02 0.  0.
         13    1    3    3    0    0  0.21181755058E+03  0.31761171334E+03 -0.17598008140E+03  0.42037229242E+03  0.00000000000E+00 0. -1.
        -14    1    3    3    0    0  0.21492027085E+03  0.47360447834E+03 -0.27578017670E+03  0.58868211335E+03  0.00000000000E+00 0.  1.
         15    1    5    5    0    0 -0.33066872230E+03 -0.60944646235E+03  0.21212320497E+03  0.72509737705E+03  0.17770000000E+01 0. -1.
        -16    1    5    5    0    0 -0.15092798999E+03 -0.21997855845E+03  0.12678716849E+03  0.29537232510E+03  0.00000000000E+00 0.  1.
          4    1    6    6  502    0  0.52095478765E+02 -0.15599283565E+01  0.92709683765E+02  0.10635533719E+03  0.00000000000E+00 0. -1.
         -3    1    6    6    0  502  0.27634120959E+01  0.39768757490E+02  0.15113152291E+02  0.42633295567E+02  0.00000000000E+00 0.  1.
<mgrwt>
<rscale>  0 0.97699426E+03</rscale>
<asrwt>0</asrwt>
<pdfrwt beam="1">  1        1 0.16719121E+00 0.97699426E+03</pdfrwt>
<pdfrwt beam="2">  1       -2 0.16796460E+00 0.97699426E+03</pdfrwt>
<totfact> 0.25036933E+00</totfact>
</mgrwt>
</event>
<event>
12    3  0.1201947E-007  0.7792751E+03  0.7818608E-02  0.9590510E-01
          1   -1    0    0  501    0  0.00000000000E+00  0.00000000000E+00  0.25856690715E+04  0.25856690715E+04  0.00000000000E+00 0. -1.
         -2   -1    0    0    0  501 -0.00000000000E+00 -0.00000000000E+00 -0.28651232913E+03  0.28651232913E+03  0.00000000000E+00 0.  1.
        -24    2    1    2    0    0 -0.44038221494E+03 -0.55404974194E+03  0.14461731402E+04  0.16118477652E+04  0.75689199123E+02 0.  0.
    5000000    2    1    2    0    0  0.44038221494E+03  0.55404974194E+03  0.85298360212E+03  0.12603336354E+04  0.59996019476E+03 0.  0.
        -24    2    4    4    0    0  0.48727660836E+02  0.41799382738E+03  0.18093521158E+03  0.46667808243E+03  0.89205701426E+02 0.  0.
         24    2    4    4    0    0  0.39165455410E+03  0.13605591456E+03  0.67204839054E+03  0.79365555299E+03  0.79596456768E+02 0.  0.
         11    1    3    3    0    0 -0.16501883702E+03 -0.26306496730E+03  0.59818135060E+03  0.67398465991E+03  0.00000000000E+00 0. -1.
        -12    1    3    3    0    0 -0.27536337792E+03 -0.29098477465E+03  0.84799178962E+03  0.93786310528E+03  0.00000000000E+00 0.  1.
         15    1    5    5    0    0  0.37667173020E+02  0.55132090351E+02  0.35047716072E+02  0.75431183476E+02  0.17770000000E+01 0. -1.
        -16    1    5    5    0    0  0.11060487816E+02  0.36286173703E+03  0.14588749551E+03  0.39124689895E+03  0.00000000000E+00 0.  1.
          2    1    6    6  502    0  0.30047788935E+03  0.12603402775E+03  0.47160434733E+03  0.57322089857E+03  0.00000000000E+00 0. -1.
         -1    1    6    6    0  502  0.91176664752E+02  0.10021886812E+02  0.20044404321E+03  0.22043465442E+03  0.00000000000E+00 0.  1.
<mgrwt>
<rscale>  0 0.77927512E+03</rscale>
<asrwt>0</asrwt>
<pdfrwt beam="1">  1        1 0.39779523E+00 0.77927512E+03</pdfrwt>
<pdfrwt beam="2">  1       -2 0.44078822E-01 0.77927512E+03</pdfrwt>
<totfact> 0.53175494E+00</totfact>
</mgrwt>
</event>
<event>
12    3  0.1201947E-007  0.1338611E+04  0.7818608E-02  0.8999495E-01
         -2   -1    0    0    0  501 -0.00000000000E+00  0.00000000000E+00  0.12327012142E+04  0.12327012142E+04  0.00000000000E+00 0.  1.
          1   -1    0    0  501    0  0.00000000000E+00 -0.00000000000E+00 -0.19032486969E+04  0.19032486969E+04  0.00000000000E+00 0. -1.
        -24    2    1    2    0    0 -0.73618948232E+03 -0.11083916434E+04 -0.96641730921E+03  0.16466578765E+04  0.83742209751E+02 0.  0.
    5000000    2    1    2    0    0  0.73618948232E+03  0.11083916434E+04  0.29586982644E+03  0.14892920346E+04  0.59995401571E+03 0.  0.
        -24    2    4    4    0    0  0.35213037970E+03  0.40336117670E+03 -0.15764750268E+03  0.56378441303E+03  0.79398275173E+02 0.  0.
         24    2    4    4    0    0  0.38405910261E+03  0.70503046672E+03  0.45351732913E+03  0.92550762154E+03  0.79479786157E+02 0.  0.
         13    1    3    3    0    0 -0.31363135840E+03 -0.45935776524E+03 -0.35400144163E+03  0.65931116033E+03  0.00000000000E+00 0. -1.
        -14    1    3    3    0    0 -0.42255812392E+03 -0.64903387817E+03 -0.61241586758E+03  0.98734671619E+03  0.00000000000E+00 0.  1.
         15    1    5    5    0    0  0.27938469247E+03  0.26601691581E+03 -0.11721033374E+03  0.40319006182E+03  0.17770000000E+01 0. -1.
        -16    1    5    5    0    0  0.72745687227E+02  0.13734426089E+03 -0.40437168943E+02  0.16059435121E+03  0.00000000000E+00 0.  1.
          4    1    6    6  502    0  0.22940508935E+03  0.48357913855E+03  0.32718098014E+03  0.62731401390E+03  0.00000000000E+00 0. -1.
         -3    1    6    6    0  502  0.15465401326E+03  0.22145132817E+03  0.12633634898E+03  0.29819360764E+03  0.00000000000E+00 0.  1.
<mgrwt>
<rscale>  0 0.13386107E+04</rscale>
<asrwt>0</asrwt>
<pdfrwt beam="1">  1        1 0.29280749E+00 0.13386107E+04</pdfrwt>
<pdfrwt beam="2">  1       -2 0.18964634E+00 0.13386107E+04</pdfrwt>
<totfact> 0.45447038E-01</totfact>
</mgrwt>
</event>
<event>
12    3  0.1201947E-007  0.1312592E+04  0.7818608E-02  0.9019639E-01
          1   -1    0    0  501    0  0.00000000000E+00  0.00000000000E+00  0.27243207517E+04  0.27243207517E+04  0.00000000000E+00 0. -1.
         -2   -1    0    0    0  501 -0.00000000000E+00 -0.00000000000E+00 -0.69126605203E+03  0.69126605203E+03  0.00000000000E+00 0.  1.
        -24    2    1    2    0    0  0.25733492207E+03 -0.12745709736E+04  0.11136410685E+04  0.17137772266E+04  0.77996949131E+02 0.  0.
    5000000    2    1    2    0    0 -0.25733492207E+03  0.12745709736E+04  0.91941363116E+03  0.17018095771E+04  0.60006831512E+03 0.  0.
        -24    2    4    4    0    0  0.31666915761E+02  0.40416427190E+03  0.59798258671E+03  0.72676960043E+03  0.79115901435E+02 0.  0.
         24    2    4    4    0    0 -0.28900183783E+03  0.87040670170E+03  0.32143104445E+03  0.97503997671E+03  0.79089513947E+02 0.  0.
         11    1    3    3    0    0  0.68349269532E+02 -0.45055979331E+03  0.42975215936E+03  0.62638859222E+03  0.00000000000E+00 0. -1.
        -12    1    3    3    0    0  0.18898565254E+03 -0.82401118029E+03  0.68388890914E+03  0.10873886344E+04  0.00000000000E+00 0.  1.
         15    1    5    5    0    0  0.30864311080E+02  0.17824579231E+03  0.20442895349E+03  0.27298081055E+03  0.17770000000E+01 0. -1.
        -16    1    5    5    0    0  0.80260468131E+00  0.22591847958E+03  0.39355363323E+03  0.45378878988E+03  0.00000000000E+00 0.  1.
          4    1    6    6  502    0 -0.20740499425E+03  0.60431025159E+03  0.26137943974E+03  0.69030929542E+03  0.00000000000E+00 0. -1.
         -3    1    6    6    0  502 -0.81596843579E+02  0.26609645011E+03  0.60051604704E+02  0.28473068129E+03  0.00000000000E+00 0.  1.
<mgrwt>
<rscale>  0 0.13125920E+04</rscale>
<asrwt>0</asrwt>
<pdfrwt beam="1">  1        1 0.41912627E+00 0.13125920E+04</pdfrwt>
<pdfrwt beam="2">  1       -2 0.10634862E+00 0.13125920E+04</pdfrwt>
<totfact> 0.57506919E-01</totfact>
</mgrwt>
</event>
<event>
12    3  0.1201947E-007  0.4937198E+03  0.7818608E-02  0.1015431E+00
         -4   -1    0    0    0  501 -0.00000000000E+00  0.00000000000E+00  0.20378645818E+04  0.20378645818E+04  0.00000000000E+00 0.  1.
          3   -1    0    0  501    0  0.00000000000E+00 -0.00000000000E+00 -0.14087392531E+03  0.14087392531E+03  0.00000000000E+00 0. -1.
        -24    2    1    2    0    0 -0.11960176133E+03 -0.29713969128E+03  0.99990757386E+03  0.10530179799E+04  0.80219275893E+02 0.  0.
    5000000    2    1    2    0    0  0.11960176133E+03  0.29713969128E+03  0.89708308266E+03  0.11257205273E+04  0.59991005232E+03 0.  0.
        -24    2    4    4    0    0  0.30759422868E+03  0.10299133455E+01  0.47046905627E+03  0.56765515278E+03  0.79221015757E+02 0.  0.
         24    2    4    4    0    0 -0.18799246735E+03  0.29610977794E+03  0.42661402640E+03  0.55806537449E+03  0.80095357644E+02 0.  0.
         11    1    3    3    0    0 -0.10967400671E+03 -0.17937303131E+03  0.69087717188E+03  0.72215949674E+03  0.00000000000E+00 0. -1.
        -12    1    3    3    0    0 -0.99277546284E+01 -0.11776665997E+03  0.30903040198E+03  0.33085848313E+03  0.00000000000E+00 0.  1.
         15    1    5    5    0    0  0.16311913515E+03 -0.73443332474E+01  0.17936271917E+03  0.24256119690E+03  0.17770000000E+01 0. -1.
        -16    1    5    5    0    0  0.14447509354E+03  0.83742465929E+01  0.29110633709E+03  0.32509395589E+03  0.00000000000E+00 0.  1.
          4    1    6    6  502    0 -0.33760412654E+02  0.63197359223E+02  0.43152273549E+02  0.83640841625E+02  0.00000000000E+00 0. -1.
         -3    1    6    6    0  502 -0.15423205470E+03  0.23291241871E+03  0.38346175285E+03  0.47442453286E+03  0.00000000000E+00 0.  1.
<mgrwt>
<rscale>  0 0.49371984E+03</rscale>
<asrwt>0</asrwt>
<pdfrwt beam="1">  1        3 0.21672913E-01 0.49371984E+03</pdfrwt>
<pdfrwt beam="2">  1       -4 0.31351761E+00 0.49371984E+03</pdfrwt>
<totfact> 0.12086498E+00</totfact>
</mgrwt>
</event>
<event>
12    3  0.1201947E-007  0.7393377E+03  0.7818608E-02  0.9652228E-01
          1   -1    0    0  501    0  0.00000000000E+00  0.00000000000E+00  0.52508156057E+03  0.52508156057E+03  0.00000000000E+00 0. -1.
         -2   -1    0    0    0  501 -0.00000000000E+00 -0.00000000000E+00 -0.13549712437E+04  0.13549712437E+04  0.00000000000E+00 0.  1.
        -24    2    1    2    0    0  0.34450598226E+03  0.62653425405E+03 -0.17650123729E+03  0.74076791043E+03  0.79717419936E+02 0.  0.
    5000000    2    1    2    0    0 -0.34450598226E+03 -0.62653425405E+03 -0.65338844580E+03  0.11392848938E+04  0.59985336946E+03 0.  0.
        -24    2    4    4    0    0 -0.14861538950E+03 -0.50897643649E+03 -0.71167273442E+03  0.89095921467E+03  0.78655542696E+02 0.  0.
         24    2    4    4    0    0 -0.19589059276E+03 -0.11755781756E+03  0.58284288622E+02  0.24832567914E+03  0.77946262369E+02 0.  0.
         13    1    3    3    0    0  0.10838586769E+03  0.15029767754E+03 -0.18493748079E+02  0.18622273467E+03  0.00000000000E+00 0. -1.
        -14    1    3    3    0    0  0.23612011456E+03  0.47623657651E+03 -0.15800748921E+03  0.55454517576E+03  0.00000000000E+00 0.  1.
         15    1    5    5    0    0 -0.56485999228E+02 -0.25043540583E+03 -0.40382892206E+03  0.47852849092E+03  0.17770000000E+01 0. -1.
        -16    1    5    5    0    0 -0.92129390269E+02 -0.25854103066E+03 -0.30784381236E+03  0.41243072375E+03  0.00000000000E+00 0.  1.
          4    1    6    6  502    0 -0.11113752689E+02 -0.16830029211E+02  0.29763751462E+02  0.35953390426E+02  0.00000000000E+00 0. -1.
         -3    1    6    6    0  502 -0.18477684007E+03 -0.10072778835E+03  0.28520537161E+02  0.21237228871E+03  0.00000000000E+00 0.  1.
<mgrwt>
<rscale>  0 0.73933769E+03</rscale>
<asrwt>0</asrwt>
<pdfrwt beam="1">  1        1 0.80781777E-01 0.73933769E+03</pdfrwt>
<pdfrwt beam="2">  1       -2 0.20845712E+00 0.73933769E+03</pdfrwt>
<totfact> 0.43655013E+00</totfact>
</mgrwt>
</event>
<event>
12    3  0.1201947E-007  0.6577823E+03  0.7818608E-02  0.9792285E-01
          1   -1    0    0  501    0  0.00000000000E+00  0.00000000000E+00  0.59982143236E+03  0.59982143236E+03  0.00000000000E+00 0. -1.
         -4   -1    0    0    0  501 -0.00000000000E+00 -0.00000000000E+00 -0.86547286042E+03  0.86547286042E+03  0.00000000000E+00 0.  1.
        -24    2    1    2    0    0 -0.30062546514E+03 -0.46707284183E+03  0.99280624538E+02  0.56985006157E+03  0.79622486740E+02 0.  0.
    5000000    2    1    2    0    0  0.30062546514E+03  0.46707284183E+03 -0.36493205260E+03  0.89544423121E+03  0.60009354132E+03 0.  0.
        -24    2    4    4    0    0  0.20433388446E+03 -0.62906309856E+02  0.18418270340E+02  0.22946300492E+03  0.81268061282E+02 0.  0.
         24    2    4    4    0    0  0.96291580679E+02  0.52997915169E+03 -0.38335032294E+03  0.66598122630E+03  0.80147077003E+02 0.  0.
         11    1    3    3    0    0 -0.22194770542E+03 -0.32693041136E+03  0.34801018216E+02  0.39668046168E+03  0.00000000000E+00 0. -1.
        -12    1    3    3    0    0 -0.78677759722E+02 -0.14014243047E+03  0.64479606321E+02  0.17316959988E+03  0.00000000000E+00 0.  1.
         15    1    5    5    0    0  0.58740583232E+02 -0.44283275712E+02 -0.22747736232E+02  0.77020009471E+02  0.17770000000E+01 0. -1.
        -16    1    5    5    0    0  0.14559330123E+03 -0.18623034144E+02  0.41166006572E+02  0.15244299544E+03  0.00000000000E+00 0.  1.
          4    1    6    6  502    0  0.35134275756E+02  0.26892826828E+03 -0.23889231015E+03  0.36142269804E+03  0.00000000000E+00 0. -1.
         -3    1    6    6    0  502  0.61157304923E+02  0.26105088341E+03 -0.14445801279E+03  0.30455852826E+03  0.00000000000E+00 0.  1.
<mgrwt>
<rscale>  0 0.65778230E+03</rscale>
<asrwt>0</asrwt>
<pdfrwt beam="1">  1        1 0.92280221E-01 0.65778230E+03</pdfrwt>
<pdfrwt beam="2">  1       -4 0.13314967E+00 0.65778230E+03</pdfrwt>
<totfact> 0.67538467E+00</totfact>
</mgrwt>
</event>
<event>
12    3  0.1201947E-007  0.7722953E+03  0.7818608E-02  0.9601008E-01
         -2   -1    0    0    0  501 -0.00000000000E+00  0.00000000000E+00  0.16424346138E+04  0.16424346138E+04  0.00000000000E+00 0.  1.
          1   -1    0    0  501    0  0.00000000000E+00 -0.00000000000E+00 -0.59356833740E+03  0.59356833740E+03  0.00000000000E+00 0. -1.
        -24    2    1    2    0    0 -0.61240860410E+03  0.34198897464E+03  0.11048939029E+04  0.13112505182E+04  0.81158042309E+02 0.  0.
    5000000    2    1    2    0    0  0.61240860410E+03 -0.34198897464E+03 -0.56027626474E+02  0.92475243296E+03  0.60002267472E+03 0.  0.
        -24    2    4    4    0    0  0.71055110744E+02  0.97550883869E+02  0.13680933914E+03  0.19684546573E+03  0.73934690076E+02 0.  0.
         24    2    4    4    0    0  0.54135349336E+03 -0.43953985851E+03 -0.19283696562E+03  0.72790696722E+03  0.80022282104E+02 0.  0.
         13    1    3    3    0    0 -0.45185422329E+03  0.27377586873E+03  0.88312269995E+03  0.10290924004E+04  0.00000000000E+00 0. -1.
        -14    1    3    3    0    0 -0.16055438081E+03  0.68213105916E+02  0.22177120292E+03  0.28215811783E+03  0.00000000000E+00 0.  1.
         15    1    5    5    0    0  0.45389111995E+02  0.65841600195E+01  0.33509803895E+02  0.56829458355E+02  0.17770000000E+01 0. -1.
        -16    1    5    5    0    0  0.25665998749E+02  0.90966723849E+02  0.10329953525E+03  0.14001600738E+03  0.00000000000E+00 0.  1.
          2    1    6    6  502    0  0.31396532980E+03 -0.20636602133E+03 -0.89684362201E+02  0.38626991586E+03  0.00000000000E+00 0. -1.
         -1    1    6    6    0  502  0.22738816355E+03 -0.23317383718E+03 -0.10315260342E+03  0.34163705136E+03  0.00000000000E+00 0.  1.
<mgrwt>
<rscale>  0 0.77229527E+03</rscale>
<asrwt>0</asrwt>
<pdfrwt beam="1">  1        1 0.91318206E-01 0.77229527E+03</pdfrwt>
<pdfrwt beam="2">  1       -2 0.25268225E+00 0.77229527E+03</pdfrwt>
<totfact> 0.19469153E+00</totfact>
</mgrwt>
</event>
<event>
12    3  0.1201947E-007  0.9467502E+03  0.7818608E-02  0.9368957E-01
         -2   -1    0    0    0  501 -0.00000000000E+00  0.00000000000E+00  0.12918572612E+04  0.12918572612E+04  0.00000000000E+00 0.  1.
          1   -1    0    0  501    0  0.00000000000E+00 -0.00000000000E+00 -0.73344203110E+03  0.73344203110E+03  0.00000000000E+00 0. -1.
        -24    2    1    2    0    0  0.77406405783E+03  0.41619638999E+03  0.23992186709E+03  0.91455373568E+03  0.80320809716E+02 0.  0.
    5000000    2    1    2    0    0 -0.77406405783E+03 -0.41619638999E+03  0.31849336302E+03  0.11107455566E+04  0.59993588708E+03 0.  0.
        -24    2    4    4    0    0 -0.38151516879E+03  0.60999768603E+02  0.28646126746E+03  0.48747286875E+03  0.79340684593E+02 0.  0.
         24    2    4    4    0    0 -0.39254888904E+03 -0.47719615859E+03  0.32032095553E+02  0.62327268787E+03  0.75046547118E+02 0.  0.
         11    1    3    3    0    0  0.54445820963E+03  0.25446829360E+03  0.18024286923E+03  0.62743632856E+03  0.00000000000E+00 0. -1.
        -12    1    3    3    0    0  0.22960584820E+03  0.16172809638E+03  0.59678997862E+02  0.28711740712E+03  0.00000000000E+00 0.  1.
         15    1    5    5    0    0 -0.21927383908E+03  0.59824792966E+02  0.12885243875E+03  0.26127788092E+03  0.17770000000E+01 0. -1.
        -16    1    5    5    0    0 -0.16224132971E+03  0.11749756366E+01  0.15760882871E+03  0.22619498784E+03  0.00000000000E+00 0.  1.
          4    1    6    6  502    0 -0.27853718302E+03 -0.28398988007E+03  0.10790042525E+02  0.39793170183E+03  0.00000000000E+00 0. -1.
         -3    1    6    6    0  502 -0.11401170603E+03 -0.19320627852E+03  0.21242053029E+02  0.22534098604E+03  0.00000000000E+00 0.  1.
<mgrwt>
<rscale>  0 0.94675020E+03</rscale>
<asrwt>0</asrwt>
<pdfrwt beam="1">  1        1 0.11283724E+00 0.94675020E+03</pdfrwt>
<pdfrwt beam="2">  1       -2 0.19874727E+00 0.94675020E+03</pdfrwt>
<totfact> 0.30202902E+00</totfact>
</mgrwt>
</event>
<event>
12    3  0.1201947E-007  0.3672484E+03  0.7818608E-02  0.1055750E+00
         -2   -1    0    0    0  501 -0.00000000000E+00  0.00000000000E+00  0.49132916642E+03  0.49132916642E+03  0.00000000000E+00 0.  1.
          1   -1    0    0  501    0  0.00000000000E+00 -0.00000000000E+00 -0.38147843009E+03  0.38147843009E+03  0.00000000000E+00 0. -1.
        -24    2    1    2    0    0  0.13581102209E+03  0.14591458676E+03  0.11121547385E+03  0.24056541382E+03  0.75941664136E+02 0.  0.
    5000000    2    1    2    0    0 -0.13581102209E+03 -0.14591458676E+03 -0.13647375164E+01  0.63224218269E+03  0.59999384557E+03 0.  0.
        -24    2    4    4    0    0 -0.74418639787E+02 -0.31602349348E+03 -0.16806564557E+03  0.37376918906E+03  0.77771222784E+02 0.  0.
         24    2    4    4    0    0 -0.61392382299E+02  0.17010890673E+03  0.16670090805E+03  0.25847299363E+03  0.79454584120E+02 0.  0.
         11    1    3    3    0    0 -0.68787768971E+01  0.25811975775E+02  0.11608669656E+02  0.29126223171E+02  0.00000000000E+00 0. -1.
        -12    1    3    3    0    0  0.14268979898E+03  0.12010261098E+03  0.99606804195E+02  0.21143919064E+03  0.00000000000E+00 0.  1.
         15    1    5    5    0    0 -0.79347575871E+02 -0.28361846923E+03 -0.12573337249E+03  0.32023040545E+03  0.17770000000E+01 0. -1.
        -16    1    5    5    0    0  0.49289360836E+01 -0.32405024252E+02 -0.42332273073E+02  0.53538783617E+02  0.00000000000E+00 0.  1.
          2    1    6    6  502    0 -0.74868127448E+02  0.16145615743E+03  0.16442187843E+03  0.24229709323E+03  0.00000000000E+00 0. -1.
         -1    1    6    6    0  502  0.13475745149E+02  0.86527493010E+01  0.22790296165E+01  0.16175900401E+02  0.00000000000E+00 0.  1.
<mgrwt>
<rscale>  0 0.36724839E+03</rscale>
<asrwt>0</asrwt>
<pdfrwt beam="1">  1        1 0.58688989E-01 0.36724839E+03</pdfrwt>
<pdfrwt beam="2">  1       -2 0.75589103E-01 0.36724839E+03</pdfrwt>
<totfact> 0.91380546E+01</totfact>
</mgrwt>
</event>
<event>
12    3  0.1201947E-007  0.5502519E+03  0.7818608E-02  0.1001436E+00
         -2   -1    0    0    0  501 -0.00000000000E+00  0.00000000000E+00  0.30731399592E+03  0.30731399592E+03  0.00000000000E+00 0.  1.
          1   -1    0    0  501    0  0.00000000000E+00 -0.00000000000E+00 -0.11309346356E+04  0.11309346356E+04  0.00000000000E+00 0. -1.
        -24    2    1    2    0    0  0.42506046055E+03  0.70974160824E+02 -0.35035930315E+03  0.56086968596E+03  0.78162885642E+02 0.  0.
    5000000    2    1    2    0    0 -0.42506046055E+03 -0.70974160824E+02 -0.47326133653E+03  0.87737894556E+03  0.60008648946E+03 0.  0.
        -24    2    4    4    0    0  0.10828103898E+03 -0.64232243648E+02  0.15308591000E+02  0.14965122542E+03  0.79439107403E+02 0.  0.
         24    2    4    4    0    0 -0.53334149954E+03 -0.67419171762E+01 -0.48856992753E+03  0.72772772014E+03  0.79927792400E+02 0.  0.
         11    1    3    3    0    0  0.21815654853E+03 -0.31533756114E+01 -0.17222614539E+03  0.27796414985E+03  0.00000000000E+00 0. -1.
        -12    1    3    3    0    0  0.20690391203E+03  0.74127536435E+02 -0.17813315776E+03  0.28290553611E+03  0.00000000000E+00 0.  1.
         15    1    5    5    0    0  0.68585299911E+02 -0.36376783880E+02 -0.30034132454E+02  0.83261159076E+02  0.17770000000E+01 0. -1.
        -16    1    5    5    0    0  0.39695739072E+02 -0.27855459768E+02  0.45342723454E+02  0.66390066347E+02  0.00000000000E+00 0.  1.
          2    1    6    6  502    0 -0.43465978022E+03  0.16642984735E+02 -0.36469475749E+03  0.56763401908E+03  0.00000000000E+00 0. -1.
         -1    1    6    6    0  502 -0.98681719314E+02 -0.23384901911E+02 -0.12387517005E+03  0.16009370106E+03  0.00000000000E+00 0.  1.
<mgrwt>
<rscale>  0 0.55025193E+03</rscale>
<asrwt>0</asrwt>
<pdfrwt beam="1">  1        1 0.17398995E+00 0.55025193E+03</pdfrwt>
<pdfrwt beam="2">  1       -2 0.47279076E-01 0.55025193E+03</pdfrwt>
<totfact> 0.46716989E+01</totfact>
</mgrwt>
</event>
<event>
12    3  0.1201947E-007  0.5825721E+03  0.7818608E-02  0.9942238E-01
         -2   -1    0    0    0  501 -0.00000000000E+00  0.00000000000E+00  0.15332185882E+04  0.15332185882E+04  0.00000000000E+00 0.  1.
          1   -1    0    0  501    0  0.00000000000E+00 -0.00000000000E+00 -0.42470328470E+03  0.42470328470E+03  0.00000000000E+00 0. -1.
        -24    2    1    2    0    0  0.44892789885E+03  0.12664187179E+03 -0.14263380129E+03  0.49415760255E+03  0.79201722403E+02 0.  0.
    5000000    2    1    2    0    0 -0.44892789885E+03 -0.12664187179E+03  0.12511491048E+04  0.14637642703E+04  0.59971437759E+03 0.  0.
        -24    2    4    4    0    0  0.74053256814E+02  0.96006563588E+02  0.91810059087E+02  0.17016259489E+03  0.76322189781E+02 0.  0.
         24    2    4    4    0    0 -0.52298115566E+03 -0.22264843538E+03  0.11593390457E+04  0.12936016754E+04  0.79099032388E+02 0.  0.
         11    1    3    3    0    0  0.12028319283E+03 -0.69824453934E+00 -0.45058036762E+02  0.12844750172E+03  0.00000000000E+00 0. -1.
        -12    1    3    3    0    0  0.32864470602E+03  0.12734011633E+03 -0.97575764529E+02  0.36571010082E+03  0.00000000000E+00 0.  1.
         15    1    5    5    0    0  0.38406339537E+02  0.66668887133E+02  0.96868439689E+02  0.12371919724E+03  0.17770000000E+01 0. -1.
        -16    1    5    5    0    0  0.35646917277E+02  0.29337676455E+02 -0.50583806016E+01  0.46443397652E+02  0.00000000000E+00 0.  1.
          2    1    6    6  502    0 -0.25523182481E+03 -0.12581444040E+03  0.49776166965E+03  0.57335786171E+03  0.00000000000E+00 0. -1.
         -1    1    6    6    0  502 -0.26774933085E+03 -0.96833994984E+02  0.66157737603E+03  0.72024381374E+03  0.00000000000E+00 0.  1.
<mgrwt>
<rscale>  0 0.58257212E+03</rscale>
<asrwt>0</asrwt>
<pdfrwt beam="1">  1        1 0.65338968E-01 0.58257212E+03</pdfrwt>
<pdfrwt beam="2">  1       -2 0.23587978E+00 0.58257212E+03</pdfrwt>
<totfact> 0.40197840E+00</totfact>
</mgrwt>
</event>
<event>
12    3  0.1201947E-007  0.3364224E+03  0.7818608E-02  0.1068330E+00
          1   -1    0    0  501    0  0.00000000000E+00  0.00000000000E+00  0.79278929577E+03  0.79278929577E+03  0.00000000000E+00 0. -1.
         -2   -1    0    0    0  501 -0.00000000000E+00 -0.00000000000E+00 -0.17793053942E+03  0.17793053942E+03  0.00000000000E+00 0.  1.
        -24    2    1    2    0    0 -0.11070106722E+03  0.11562958208E+01  0.74692887931E+02  0.15593467262E+03  0.80501747280E+02 0.  0.
    5000000    2    1    2    0    0  0.11070106722E+03 -0.11562958208E+01  0.54016586842E+03  0.81478516257E+03  0.59986634548E+03 0.  0.
        -24    2    4    4    0    0 -0.19966726561E+03 -0.10068373858E+03  0.36971183074E+03  0.43938862411E+03  0.79820379864E+02 0.  0.
         24    2    4    4    0    0  0.31036833283E+03  0.99527442761E+02  0.17045403768E+03  0.37539653845E+03  0.75058432147E+02 0.  0.
         13    1    3    3    0    0 -0.98553420085E+02  0.11599454100E+02  0.89860405245E+02  0.13387388235E+03  0.00000000000E+00 0. -1.
        -14    1    3    3    0    0 -0.12147647131E+02 -0.10443158280E+02 -0.15167517315E+02  0.22060790266E+02  0.00000000000E+00 0.  1.
         15    1    5    5    0    0 -0.11964026457E+03 -0.47440123794E+02  0.13893833469E+03  0.18939740449E+03  0.17770000000E+01 0. -1.
        -16    1    5    5    0    0 -0.80027001044E+02 -0.53243614788E+02  0.23077349605E+03  0.24999121962E+03  0.00000000000E+00 0.  1.
          4    1    6    6  502    0  0.26390189346E+03  0.57480037949E+02  0.12293695440E+03  0.29675184733E+03  0.00000000000E+00 0. -1.
         -3    1    6    6    0  502  0.46466439365E+02  0.42047404812E+02  0.47517083277E+02  0.78644691123E+02  0.00000000000E+00 0.  1.
<mgrwt>
<rscale>  0 0.33642235E+03</rscale>
<asrwt>0</asrwt>
<pdfrwt beam="1">  1        1 0.12196758E+00 0.33642235E+03</pdfrwt>
<pdfrwt beam="2">  1       -2 0.27373930E-01 0.33642235E+03</pdfrwt>
<totfact> 0.24838500E+02</totfact>
</mgrwt>
</event>
<event>
12    3  0.1201947E-007  0.1749792E+04  0.7818608E-02  0.8733465E-01
          1   -1    0    0  501    0  0.00000000000E+00  0.00000000000E+00  0.10767721971E+04  0.10767721971E+04  0.00000000000E+00 0. -1.
         -2   -1    0    0    0  501 -0.00000000000E+00 -0.00000000000E+00 -0.29229625649E+04  0.29229625649E+04  0.00000000000E+00 0.  1.
        -24    2    1    2    0    0 -0.13195138825E+04 -0.11070257793E+04 -0.88166900370E+03  0.19366112966E+04  0.80623320257E+02 0.  0.
    5000000    2    1    2    0    0  0.13195138825E+04  0.11070257793E+04 -0.96452136413E+03  0.20631234655E+04  0.59962822630E+03 0.  0.
        -24    2    4    4    0    0  0.65391595176E+03  0.81976119129E+03 -0.78403159410E+03  0.13117447386E+04  0.79713462067E+02 0.  0.
         24    2    4    4    0    0  0.66559793072E+03  0.28726458803E+03 -0.18048977003E+03  0.75137872685E+03  0.80323627698E+02 0.  0.
         11    1    3    3    0    0 -0.70527686043E+03 -0.62704195510E+03 -0.51605175706E+03  0.10755958717E+04  0.00000000000E+00 0. -1.
        -12    1    3    3    0    0 -0.61423702205E+03 -0.47998382422E+03 -0.36561724664E+03  0.86101542484E+03  0.00000000000E+00 0.  1.
         15    1    5    5    0    0  0.24545585282E+03  0.30534801030E+03 -0.34152934599E+03  0.51974170025E+03  0.17770000000E+01 0. -1.
        -16    1    5    5    0    0  0.40846009894E+03  0.51441318099E+03 -0.44250224811E+03  0.79200303837E+03  0.00000000000E+00 0.  1.
          2    1    6    6  502    0  0.20923786583E+03  0.58760559592E+02 -0.30764806377E+02  0.21949888650E+03  0.00000000000E+00 0. -1.
         -1    1    6    6    0  502  0.45636006488E+03  0.22850402844E+03 -0.14972496365E+03  0.53187984035E+03  0.00000000000E+00 0.  1.
<mgrwt>
<rscale>  0 0.17497921E+04</rscale>
<asrwt>0</asrwt>
<pdfrwt beam="1">  1        1 0.16565726E+00 0.17497921E+04</pdfrwt>
<pdfrwt beam="2">  1       -2 0.44968654E+00 0.17497921E+04</pdfrwt>
<totfact> 0.37179374E-02</totfact>
</mgrwt>
</event>
<event>
12    3  0.1201947E-007  0.1525223E+04  0.7818608E-02  0.8867851E-01
          1   -1    0    0  501    0  0.00000000000E+00  0.00000000000E+00  0.16616193559E+04  0.16616193559E+04  0.00000000000E+00 0. -1.
         -2   -1    0    0    0  501 -0.00000000000E+00 -0.00000000000E+00 -0.18255587989E+04  0.18255587989E+04  0.00000000000E+00 0.  1.
        -24    2    1    2    0    0 -0.10002194627E+04 -0.11019646467E+04 -0.87937633280E+03  0.17303053549E+04  0.76738714963E+02 0.  0.
    5000000    2    1    2    0    0  0.10002194627E+04  0.11019646467E+04  0.71543688987E+03  0.17568727999E+04  0.59998919625E+03 0.  0.
        -24    2    4    4    0    0  0.17764170216E+03  0.52398024149E+03  0.44037737135E+03  0.71157004907E+03  0.79295887097E+02 0.  0.
         24    2    4    4    0    0  0.82257776055E+03  0.57798440518E+03  0.27505951853E+03  0.10453027509E+04  0.79372271228E+02 0.  0.
         13    1    3    3    0    0 -0.16312926665E+03 -0.18534712781E+03 -0.11377125724E+03  0.27186138821E+03  0.00000000000E+00 0. -1.
        -14    1    3    3    0    0 -0.83709019606E+03 -0.91661751887E+03 -0.76560507556E+03  0.14584439667E+04  0.00000000000E+00 0.  1.
         15    1    5    5    0    0  0.10969316871E+03  0.24059585251E+03  0.24688689577E+03  0.36176684831E+03  0.17770000000E+01 0. -1.
        -16    1    5    5    0    0  0.67948533455E+02  0.28338438898E+03  0.19349047558E+03  0.34980320075E+03  0.00000000000E+00 0.  1.
          4    1    6    6  502    0  0.49573316956E+03  0.32103616171E+03  0.19457443803E+03  0.62183181365E+03  0.00000000000E+00 0. -1.
         -3    1    6    6    0  502  0.32684459099E+03  0.25694824348E+03  0.80485080498E+02  0.42347093722E+03  0.00000000000E+00 0.  1.
<mgrwt>
<rscale>  0 0.15252231E+04</rscale>
<asrwt>0</asrwt>
<pdfrwt beam="1">  1        1 0.25563375E+00 0.15252231E+04</pdfrwt>
<pdfrwt beam="2">  1       -2 0.28085520E+00 0.15252231E+04</pdfrwt>
<totfact> 0.17338883E-01</totfact>
</mgrwt>
</event>
<event>
12    3  0.1201947E-007  0.6727496E+03  0.7818608E-02  0.9765003E-01
          1   -1    0    0  501    0  0.00000000000E+00  0.00000000000E+00  0.18266771246E+04  0.18266771246E+04  0.00000000000E+00 0. -1.
         -2   -1    0    0    0  501 -0.00000000000E+00 -0.00000000000E+00 -0.46046613315E+03  0.46046613315E+03  0.00000000000E+00 0.  1.
        -24    2    1    2    0    0 -0.47305520201E+03  0.37465786090E+03  0.12977291946E+04  0.14334079419E+04  0.80047039345E+02 0.  0.
    5000000    2    1    2    0    0  0.47305520201E+03 -0.37465786090E+03  0.68481796808E+02  0.85373531581E+03  0.60002041306E+03 0.  0.
        -24    2    4    4    0    0  0.52356255906E+03 -0.25352081855E+03 -0.13175155911E+03  0.60154376820E+03  0.78140085995E+02 0.  0.
         24    2    4    4    0    0 -0.50507357054E+02 -0.12113704235E+03  0.20023335592E+03  0.25219154762E+03  0.79259092349E+02 0.  0.
         13    1    3    3    0    0 -0.38457519976E+03  0.26337652210E+03  0.10171674148E+04  0.11188810600E+04  0.00000000000E+00 0. -1.
        -14    1    3    3    0    0 -0.88480002249E+02  0.11128133880E+03  0.28056177977E+03  0.31452688188E+03  0.00000000000E+00 0.  1.
         15    1    5    5    0    0  0.47124940846E+03 -0.25174189698E+03 -0.12557555972E+03  0.54883728608E+03  0.17770000000E+01 0. -1.
        -16    1    5    5    0    0  0.52313150606E+02 -0.17789215628E+01 -0.61759993920E+01  0.52706482114E+02  0.00000000000E+00 0.  1.
          2    1    6    6  502    0 -0.18754982688E+02 -0.11708859071E+03  0.17519204781E+03  0.21155080020E+03  0.00000000000E+00 0. -1.
         -3    1    6    6    0  502 -0.31752374366E+02 -0.40484516411E+01  0.25041308111E+02  0.40640747415E+02  0.00000000000E+00 0.  1.
<mgrwt>
<rscale>  0 0.67274956E+03</rscale>
<asrwt>0</asrwt>
<pdfrwt beam="1">  1        1 0.28102725E+00 0.67274956E+03</pdfrwt>
<pdfrwt beam="2">  1       -2 0.70840945E-01 0.67274956E+03</pdfrwt>
<totfact> 0.65360153E+00</totfact>
</mgrwt>
</event>
<event>
12    3  0.1201947E-007  0.1158841E+04  0.7818608E-02  0.9149666E-01
         -2   -1    0    0    0  501 -0.00000000000E+00  0.00000000000E+00  0.13395090318E+04  0.13395090318E+04  0.00000000000E+00 0.  1.
          1   -1    0    0  501    0  0.00000000000E+00 -0.00000000000E+00 -0.14478731675E+04  0.14478731675E+04  0.00000000000E+00 0. -1.
        -24    2    1    2    0    0 -0.10070370885E+04  0.42439217562E+03 -0.80450452030E+03  0.13594321866E+04  0.81215333734E+02 0.  0.
    5000000    2    1    2    0    0  0.10070370885E+04 -0.42439217562E+03  0.69614038459E+03  0.14279500127E+04  0.60016446691E+03 0.  0.
        -24    2    4    4    0    0  0.20768514024E+03 -0.35261848248E+03  0.11394858789E+03  0.43310867967E+03  0.84415259638E+02 0.  0.
         24    2    4    4    0    0  0.79935194821E+03 -0.71773693135E+02  0.58219179670E+03  0.99484133298E+03  0.81529071698E+02 0.  0.
         11    1    3    3    0    0 -0.77720375747E+03  0.35910316078E+03 -0.60800893019E+03  0.10500836252E+04  0.00000000000E+00 0. -1.
        -12    1    3    3    0    0 -0.22983333099E+03  0.65289014844E+02 -0.19649559011E+03  0.30934856137E+03  0.00000000000E+00 0.  1.
         15    1    5    5    0    0  0.15523567775E+03 -0.18518942906E+03  0.78744917161E+02  0.25415971355E+03  0.17770000000E+01 0. -1.
        -16    1    5    5    0    0  0.52449462495E+02 -0.16742905342E+03  0.35203670733E+02  0.17894896613E+03  0.00000000000E+00 0.  1.
          4    1    6    6  502    0  0.69996471877E+03 -0.39813686584E+02  0.48782085251E+03  0.85411060250E+03  0.00000000000E+00 0. -1.
         -3    1    6    6    0  502  0.99387229446E+02 -0.31960006551E+02  0.94370944188E+02  0.14073073048E+03  0.00000000000E+00 0.  1.
<mgrwt>
<rscale>  0 0.11588413E+04</rscale>
<asrwt>0</asrwt>
<pdfrwt beam="1">  1        1 0.22274972E+00 0.11588413E+04</pdfrwt>
<pdfrwt beam="2">  1       -2 0.20607831E+00 0.11588413E+04</pdfrwt>
<totfact> 0.74101420E-01</totfact>
</mgrwt>
</event>
<event>
12    3  0.1201947E-007  0.8295276E+03  0.7818608E-02  0.9518234E-01
          1   -1    0    0  501    0  0.00000000000E+00  0.00000000000E+00  0.18687537426E+04  0.18687537426E+04  0.00000000000E+00 0. -1.
         -2   -1    0    0    0  501 -0.00000000000E+00 -0.00000000000E+00 -0.51127162087E+03  0.51127162087E+03  0.00000000000E+00 0.  1.
        -24    2    1    2    0    0 -0.48390566890E+03  0.56627559521E+03  0.37616923348E+02  0.75003159424E+03  0.79370103430E+02 0.  0.
    5000000    2    1    2    0    0  0.48390566890E+03 -0.56627559521E+03  0.13198651984E+04  0.16299937692E+04  0.60000233308E+03 0.  0.
        -24    2    4    4    0    0  0.56520057033E+03 -0.57047997429E+03  0.96527955203E+03  0.12581012031E+04  0.78453412441E+02 0.  0.
         24    2    4    4    0    0 -0.81294901433E+02  0.42043790772E+01  0.35458564635E+03  0.37189256612E+03  0.77113956821E+02 0.  0.
         13    1    3    3    0    0 -0.30395523547E+03  0.41098417243E+03  0.34201308198E+02  0.51231484914E+03  0.00000000000E+00 0. -1.
        -14    1    3    3    0    0 -0.17995043342E+03  0.15529142278E+03  0.34156151504E+01  0.23771674511E+03  0.00000000000E+00 0.  1.
         15    1    5    5    0    0  0.26453000382E+03 -0.24275383610E+03  0.48621139747E+03  0.60440899118E+03  0.17770000000E+01 0. -1.
        -16    1    5    5    0    0  0.30067056651E+03 -0.32772613819E+03  0.47906815456E+03  0.65369221192E+03  0.00000000000E+00 0.  1.
          2    1    6    6  502    0 -0.40183676454E+02 -0.32193035521E+02  0.23083028392E+03  0.23650314874E+03  0.00000000000E+00 0. -1.
         -1    1    6    6    0  502 -0.41111224979E+02  0.36397414599E+02  0.12375536243E+03  0.13538941738E+03  0.00000000000E+00 0.  1.
<mgrwt>
<rscale>  0 0.82952757E+03</rscale>
<asrwt>0</asrwt>
<pdfrwt beam="1">  1        1 0.28750057E+00 0.82952757E+03</pdfrwt>
<pdfrwt beam="2">  1       -2 0.78657173E-01 0.82952757E+03</pdfrwt>
<totfact> 0.47417748E+00</totfact>
</mgrwt>
</event>
<event>
12    3  0.1201947E-007  0.1565953E+04  0.7818608E-02  0.8841742E-01
          1   -1    0    0  501    0  0.00000000000E+00  0.00000000000E+00  0.11566166017E+04  0.11566166017E+04  0.00000000000E+00 0. -1.
         -2   -1    0    0    0  501 -0.00000000000E+00 -0.00000000000E+00 -0.24717233771E+04  0.24717233771E+04  0.00000000000E+00 0.  1.
        -24    2    1    2    0    0 -0.11043743020E+04  0.10486419899E+04 -0.12799904780E+04  0.19911045107E+04  0.82637321291E+02 0.  0.
    5000000    2    1    2    0    0  0.11043743020E+04 -0.10486419899E+04 -0.35116297345E+02  0.16372354681E+04  0.60001183481E+03 0.  0.
        -24    2    4    4    0    0  0.44714088960E+03 -0.76961286605E+03  0.11623346584E+03  0.90292765378E+03  0.97617573396E+02 0.  0.
         24    2    4    4    0    0  0.65723341238E+03 -0.27902912385E+03 -0.15134976318E+03  0.73430781435E+03  0.80549395401E+02 0.  0.
         13    1    3    3    0    0 -0.46429958452E+03  0.42170678867E+03 -0.57727624933E+03  0.85244271822E+03  0.00000000000E+00 0. -1.
        -14    1    3    3    0    0 -0.64007471746E+03  0.62693520122E+03 -0.70271422867E+03  0.11386617925E+04  0.00000000000E+00 0.  1.
         15    1    5    5    0    0  0.18393852446E+03 -0.30284134463E+03  0.94072475341E+02  0.36660475876E+03  0.17770000000E+01 0. -1.
        -16    1    5    5    0    0  0.26320236514E+03 -0.46677152142E+03  0.22160990494E+02  0.53632289502E+03  0.00000000000E+00 0.  1.
          4    1    6    6  502    0  0.42143898940E+03 -0.13645494922E+03 -0.91068205981E+02  0.45224351084E+03  0.00000000000E+00 0. -1.
         -3    1    6    6    0  502  0.23579442298E+03 -0.14257417462E+03 -0.60281557199E+02  0.28206430351E+03  0.00000000000E+00 0.  1.
<mgrwt>
<rscale>  0 0.15659527E+04</rscale>
<asrwt>0</asrwt>
<pdfrwt beam="1">  1        1 0.17794102E+00 0.15659527E+04</pdfrwt>
<pdfrwt beam="2">  1       -2 0.38026513E+00 0.15659527E+04</pdfrwt>
<totfact> 0.94643748E-02</totfact>
</mgrwt>
</event>
<event>
12    3  0.1201947E-007  0.6190589E+03  0.7818608E-02  0.9866635E-01
          1   -1    0    0  501    0  0.00000000000E+00  0.00000000000E+00  0.18186980278E+04  0.18186980278E+04  0.00000000000E+00 0. -1.
         -2   -1    0    0    0  501 -0.00000000000E+00 -0.00000000000E+00 -0.23382155913E+03  0.23382155913E+03  0.00000000000E+00 0.  1.
        -24    2    1    2    0    0 -0.15451494510E+03 -0.47959103504E+03  0.75598232380E+03  0.91195470045E+03  0.79181264472E+02 0.  0.
    5000000    2    1    2    0    0  0.15451494510E+03  0.47959103504E+03  0.82889414490E+03  0.11405648865E+04  0.59995027104E+03 0.  0.
        -24    2    4    4    0    0  0.33263878362E+03  0.16984836075E+03  0.59322701762E+03  0.70557943999E+03  0.80168732548E+02 0.  0.
         24    2    4    4    0    0 -0.17812383853E+03  0.30974267428E+03  0.23566712727E+03  0.43498544651E+03  0.77490113383E+02 0.  0.
         13    1    3    3    0    0 -0.27959243671E+02 -0.15706727112E+03  0.18720481727E+03  0.24596237634E+03  0.00000000000E+00 0. -1.
        -14    1    3    3    0    0 -0.12655570143E+03 -0.32252376391E+03  0.56877750652E+03  0.66599232411E+03  0.00000000000E+00 0.  1.
         15    1    5    5    0    0  0.61571713927E+02  0.18326467752E+02  0.56900568650E+02  0.85835702467E+02  0.17770000000E+01 0. -1.
        -16    1    5    5    0    0  0.27106706970E+03  0.15152189300E+03  0.53632644897E+03  0.61974373752E+03  0.00000000000E+00 0.  1.
          2    1    6    6  502    0 -0.41560654786E+02  0.71416412509E+02  0.18122078204E+02  0.84593154099E+02  0.00000000000E+00 0. -1.
         -1    1    6    6    0  502 -0.13656318374E+03  0.23832626177E+03  0.21754504907E+03  0.35039229241E+03  0.00000000000E+00 0.  1.
<mgrwt>
<rscale>  0 0.61905889E+03</rscale>
<asrwt>0</asrwt>
<pdfrwt beam="1">  1        1 0.27979969E+00 0.61905889E+03</pdfrwt>
<pdfrwt beam="2">  1       -2 0.35972549E-01 0.61905889E+03</pdfrwt>
<totfact> 0.26566591E+01</totfact>
</mgrwt>
</event>
<event>
12    3  0.1201947E-007  0.1081866E+04  0.7818608E-02  0.9223049E-01
          1   -1    0    0  501    0  0.00000000000E+00  0.00000000000E+00  0.89253714323E+03  0.89253714323E+03  0.00000000000E+00 0. -1.
         -2   -1    0    0    0  501 -0.00000000000E+00 -0.00000000000E+00 -0.14519611274E+04  0.14519611274E+04  0.00000000000E+00 0.  1.
        -24    2    1    2    0    0 -0.89394382833E+02 -0.10108467308E+04 -0.56843948711E+03  0.11655975080E+04  0.75442900692E+02 0.  0.
    5000000    2    1    2    0    0  0.89394382833E+02  0.10108467308E+04  0.90155029571E+01  0.11789007626E+04  0.59993604650E+03 0.  0.
        -24    2    4    4    0    0  0.28445862265E+03  0.84311866883E+03  0.94171272025E+02  0.89868974092E+03  0.83721109750E+02 0.  0.
         24    2    4    4    0    0 -0.19506423982E+03  0.16772806199E+03 -0.85155769068E+02  0.28021102169E+03  0.71301831930E+02 0.  0.
         13    1    3    3    0    0 -0.93230728115E+02 -0.89833265737E+03 -0.48248267684E+03  0.10239546208E+04  0.00000000000E+00 0. -1.
        -14    1    3    3    0    0  0.38363452821E+01 -0.11251407345E+03 -0.85956810271E+02  0.14164288722E+03  0.00000000000E+00 0.  1.
         15    1    5    5    0    0  0.14894421111E+03  0.50373174821E+03  0.91713957633E+02  0.53323977715E+03  0.17770000000E+01 0. -1.
        -16    1    5    5    0    0  0.13551441154E+03  0.33938692062E+03  0.24573143925E+01  0.36544996377E+03  0.00000000000E+00 0.  1.
          2    1    6    6  502    0 -0.80129969065E+02  0.69041407829E+02  0.13166612642E+01  0.10577930579E+03  0.00000000000E+00 0. -1.
         -1    1    6    6    0  502 -0.11493427075E+03  0.98686654157E+02 -0.86472430332E+02  0.17443171589E+03  0.00000000000E+00 0.  1.
<mgrwt>
<rscale>  0 0.10818662E+04</rscale>
<asrwt>0</asrwt>
<pdfrwt beam="1">  1        1 0.13731341E+00 0.10818662E+04</pdfrwt>
<pdfrwt beam="2">  1       -2 0.22337863E+00 0.10818662E+04</pdfrwt>
<totfact> 0.15055259E+00</totfact>
</mgrwt>
</event>
<event>
12    3  0.1201947E-007  0.3603885E+03  0.7818608E-02  0.1058430E+00
          1   -1    0    0  501    0  0.00000000000E+00  0.00000000000E+00  0.59881206478E+03  0.59881206478E+03  0.00000000000E+00 0. -1.
         -2   -1    0    0    0  501 -0.00000000000E+00 -0.00000000000E+00 -0.48297496759E+03  0.48297496759E+03  0.00000000000E+00 0.  1.
        -24    2    1    2    0    0  0.24968715859E+03 -0.19538029548E+03  0.22148642539E+03  0.39505839097E+03  0.80608675863E+02 0.  0.
    5000000    2    1    2    0    0 -0.24968715859E+03  0.19538029548E+03 -0.10564932819E+03  0.68672864139E+03  0.59993108716E+03 0.  0.
        -24    2    4    4    0    0 -0.17054506586E+03  0.22050010575E+01 -0.32368990724E+03  0.37429171380E+03  0.78921793266E+02 0.  0.
         24    2    4    4    0    0 -0.79142092731E+02  0.19317529442E+03  0.21804057906E+03  0.31243692759E+03  0.80591403962E+02 0.  0.
         11    1    3    3    0    0  0.10058400656E+03 -0.12439096144E+03  0.13092767418E+03  0.20671794680E+03  0.00000000000E+00 0. -1.
        -12    1    3    3    0    0  0.14910315203E+03 -0.70989334041E+02  0.90558751200E+02  0.18834044417E+03  0.00000000000E+00 0.  1.
         15    1    5    5    0    0 -0.16689312507E+03  0.17232850347E+02 -0.31406443838E+03  0.35607571598E+03  0.17770000000E+01 0. -1.
        -16    1    5    5    0    0 -0.36519407855E+01 -0.15027849290E+02 -0.96254688612E+01  0.18215997820E+02  0.00000000000E+00 0.  1.
          4    1    6    6  502    0 -0.65088123116E+02  0.10809011800E+03  0.79131117628E+02  0.14893512398E+03  0.00000000000E+00 0. -1.
         -3    1    6    6    0  502 -0.14053969615E+02  0.85085176422E+02  0.13890946143E+03  0.16350180361E+03  0.00000000000E+00 0.  1.
<mgrwt>
<rscale>  0 0.36038848E+03</rscale>
<asrwt>0</asrwt>
<pdfrwt beam="1">  1        1 0.92124933E-01 0.36038848E+03</pdfrwt>
<pdfrwt beam="2">  1       -2 0.74303841E-01 0.36038848E+03</pdfrwt>
<totfact> 0.51888482E+01</totfact>
</mgrwt>
</event>
<event>
12    3  0.1201947E-007  0.1342126E+04  0.7818608E-02  0.8996810E-01
         -2   -1    0    0    0  501 -0.00000000000E+00  0.00000000000E+00  0.15852083255E+04  0.15852083255E+04  0.00000000000E+00 0.  1.
          1   -1    0    0  501    0  0.00000000000E+00 -0.00000000000E+00 -0.12496116885E+04  0.12496116885E+04  0.00000000000E+00 0. -1.
        -24    2    1    2    0    0 -0.53660201182E+03  0.12241105892E+04  0.28483677079E+03  0.13688771455E+04  0.79398992098E+02 0.  0.
    5000000    2    1    2    0    0  0.53660201182E+03 -0.12241105892E+04  0.50759866200E+02  0.14659428685E+04  0.60001956309E+03 0.  0.
        -24    2    4    4    0    0  0.30689760668E+03 -0.82357614623E+03 -0.23965064732E+03  0.91482542893E+03  0.83721699908E+02 0.  0.
         24    2    4    4    0    0  0.22970440514E+03 -0.40053444294E+03  0.29041051352E+03  0.55111743957E+03  0.78741425652E+02 0.  0.
         11    1    3    3    0    0 -0.34022203452E+02  0.88545871776E+02  0.17414147837E+00  0.94857324765E+02  0.00000000000E+00 0. -1.
        -12    1    3    3    0    0 -0.50257980837E+03  0.11355647174E+04  0.28466262932E+03  0.12740198208E+04  0.00000000000E+00 0.  1.
         15    1    5    5    0    0  0.24146692847E+03 -0.67320500745E+03 -0.22693882760E+03  0.75034368712E+03  0.17770000000E+01 0. -1.
        -16    1    5    5    0    0  0.65430678211E+02 -0.15037113878E+03 -0.12711819724E+02  0.16448174182E+03  0.00000000000E+00 0.  1.
          2    1    6    6  502    0  0.12460709418E+03 -0.13979754808E+03  0.11674295011E+03  0.22067894954E+03  0.00000000000E+00 0. -1.
         -1    1    6    6    0  502  0.10509731095E+03 -0.26073689487E+03  0.17366756341E+03  0.33043849003E+03  0.00000000000E+00 0.  1.
<mgrwt>
<rscale>  0 0.13421259E+04</rscale>
<asrwt>0</asrwt>
<pdfrwt beam="1">  1        1 0.19224795E+00 0.13421259E+04</pdfrwt>
<pdfrwt beam="2">  1       -2 0.24387821E+00 0.13421259E+04</pdfrwt>
<totfact> 0.58020406E-01</totfact>
</mgrwt>
</event>
<event>
12    3  0.1201947E-007  0.1408569E+04  0.7818608E-02  0.8947639E-01
         -2   -1    0    0    0  501 -0.00000000000E+00  0.00000000000E+00  0.12978666967E+04  0.12978666967E+04  0.00000000000E+00 0.  1.
          3   -1    0    0  501    0  0.00000000000E+00 -0.00000000000E+00 -0.15613755818E+04  0.15613755818E+04  0.00000000000E+00 0. -1.
        -24    2    1    2    0    0 -0.11765478742E+04  0.66824533867E+03 -0.25340756080E+03  0.13791201468E+04  0.83308188733E+02 0.  0.
    5000000    2    1    2    0    0  0.11765478742E+04 -0.66824533867E+03 -0.10101324286E+02  0.14801221317E+04  0.59986894816E+03 0.  0.
        -24    2    4    4    0    0  0.30728503014E+03 -0.47652677194E+03  0.94195444176E+02  0.58031229967E+03  0.79923271449E+02 0.  0.
         24    2    4    4    0    0  0.86926284409E+03 -0.19171856673E+03 -0.10429676846E+03  0.89980983203E+03  0.80037597110E+02 0.  0.
         13    1    3    3    0    0 -0.24212813404E+03  0.17129327288E+03 -0.37249376973E+02  0.29892295782E+03  0.00000000000E+00 0. -1.
        -14    1    3    3    0    0 -0.93441974019E+03  0.49695206579E+03 -0.21615818382E+03  0.10801971889E+04  0.00000000000E+00 0.  1.
         15    1    5    5    0    0  0.11412713560E+03 -0.13155301316E+03  0.12825418013E+01  0.17417233131E+03  0.17770000000E+01 0. -1.
        -16    1    5    5    0    0  0.19315789454E+03 -0.34497375878E+03  0.92912902374E+02  0.40613996836E+03  0.00000000000E+00 0.  1.
          4    1    6    6  502    0  0.57693783271E+03 -0.15940616056E+03 -0.90726339869E+02  0.60539148951E+03  0.00000000000E+00 0. -1.
         -3    1    6    6    0  502  0.29232501139E+03 -0.32312406170E+02 -0.13570428592E+02  0.29441834251E+03  0.00000000000E+00 0.  1.
<mgrwt>
<rscale>  0 0.14085692E+04</rscale>
<asrwt>0</asrwt>
<pdfrwt beam="1">  1        3 0.24021163E+00 0.14085692E+04</pdfrwt>
<pdfrwt beam="2">  1       -2 0.19967180E+00 0.14085692E+04</pdfrwt>
<totfact> 0.43789034E-02</totfact>
</mgrwt>
</event>
<event>
12    3  0.1201947E-007  0.9004068E+03  0.7818608E-02  0.9425073E-01
         -2   -1    0    0    0  501 -0.00000000000E+00  0.00000000000E+00  0.30071582666E+03  0.30071582666E+03  0.00000000000E+00 0.  1.
          1   -1    0    0  501    0  0.00000000000E+00 -0.00000000000E+00 -0.36723417773E+04  0.36723417773E+04  0.00000000000E+00 0. -1.
        -24    2    1    2    0    0 -0.77269714297E+03  0.26666626003E+03 -0.25149644240E+04  0.26456097546E+04  0.77673358344E+02 0.  0.
    5000000    2    1    2    0    0  0.77269714297E+03 -0.26666626003E+03 -0.85666152658E+03  0.13274478493E+04  0.60006420701E+03 0.  0.
        -24    2    4    4    0    0 -0.25668071002E+02  0.95508298393E+02 -0.16325023638E+03  0.20715465051E+03  0.80509158600E+02 0.  0.
         24    2    4    4    0    0  0.79836521397E+03 -0.36217455842E+03 -0.69341129020E+03  0.11202931988E+04  0.75367156416E+02 0.  0.
         13    1    3    3    0    0 -0.64029554003E+03  0.19170841381E+03 -0.20090847755E+04  0.21173455385E+04  0.00000000000E+00 0. -1.
        -14    1    3    3    0    0 -0.13240160293E+03  0.74957846217E+02 -0.50587964853E+03  0.52826421606E+03  0.00000000000E+00 0.  1.
         15    1    5    5    0    0 -0.23663313526E+02  0.53531516666E+02 -0.26832398147E+02  0.64410488299E+02  0.17770000000E+01 0. -1.
        -16    1    5    5    0    0 -0.20047574755E+01  0.41976781726E+02 -0.13641783824E+03  0.14274416221E+03  0.00000000000E+00 0.  1.
          2    1    6    6  502    0  0.54503152028E+03 -0.28400272601E+03 -0.47339567650E+03  0.77577082506E+03  0.00000000000E+00 0. -1.
         -1    1    6    6    0  502  0.25333369368E+03 -0.78171832408E+02 -0.22001561370E+03  0.34452237374E+03  0.00000000000E+00 0.  1.
<mgrwt>
<rscale>  0 0.90040682E+03</rscale>
<asrwt>0</asrwt>
<pdfrwt beam="1">  1        1 0.56497568E+00 0.90040682E+03</pdfrwt>
<pdfrwt beam="2">  1       -2 0.46263972E-01 0.90040682E+03</pdfrwt>
<totfact> 0.74982801E-01</totfact>
</mgrwt>
</event>
<event>
12    3  0.1201947E-007  0.7804105E+03  0.7818608E-02  0.9588813E-01
          1   -1    0    0  501    0  0.00000000000E+00  0.00000000000E+00  0.11057958477E+04  0.11057958477E+04  0.00000000000E+00 0. -1.
         -2   -1    0    0    0  501 -0.00000000000E+00 -0.00000000000E+00 -0.69579893583E+03  0.69579893583E+03  0.00000000000E+00 0.  1.
        -24    2    1    2    0    0 -0.60877801676E+03  0.47547952420E+03  0.18925405274E+03  0.79904435011E+03  0.77222570086E+02 0.  0.
    5000000    2    1    2    0    0  0.60877801676E+03 -0.47547952420E+03  0.22074285916E+03  0.10025504335E+04  0.59974036893E+03 0.  0.
        -24    2    4    4    0    0  0.29149597654E+03 -0.16369946064E+03  0.38610074590E+03  0.51679681426E+03  0.78979386481E+02 0.  0.
         24    2    4    4    0    0  0.31728204023E+03 -0.31178006356E+03 -0.16535788674E+03  0.48575361920E+03  0.10362744216E+03 0.  0.
         13    1    3    3    0    0 -0.12178553458E+02  0.12120335281E+02  0.17167261319E+02  0.24288568357E+02  0.00000000000E+00 0. -1.
        -14    1    3    3    0    0 -0.59659946331E+03  0.46335918892E+03  0.17208679142E+03  0.77475578175E+03  0.00000000000E+00 0.  1.
         15    1    5    5    0    0  0.40307668730E+01  0.70581340175E+01  0.45788036194E+01  0.94967104293E+01  0.17770000000E+01 0. -1.
        -16    1    5    5    0    0  0.28746520966E+03 -0.17075759465E+03  0.38152194228E+03  0.50730010383E+03  0.00000000000E+00 0.  1.
          2    1    6    6  502    0  0.11115912603E+03 -0.92510417485E+02 -0.10526185817E+03  0.17887030897E+03  0.00000000000E+00 0. -1.
         -1    1    6    6    0  502  0.20612291420E+03 -0.21926964608E+03 -0.60096028569E+02  0.30688331023E+03  0.00000000000E+00 0.  1.
<mgrwt>
<rscale>  0 0.78041055E+03</rscale>
<asrwt>0</asrwt>
<pdfrwt beam="1">  1        1 0.17012244E+00 0.78041055E+03</pdfrwt>
<pdfrwt beam="2">  1       -2 0.10704599E+00 0.78041055E+03</pdfrwt>
<totfact> 0.78937393E+00</totfact>
</mgrwt>
</event>
<event>
12    3  0.1201947E-007  0.7804207E+03  0.7818608E-02  0.9588798E-01
          1   -1    0    0  501    0  0.00000000000E+00  0.00000000000E+00  0.37010073523E+03  0.37010073523E+03  0.00000000000E+00 0. -1.
         -2   -1    0    0    0  501 -0.00000000000E+00 -0.00000000000E+00 -0.22977108266E+04  0.22977108266E+04  0.00000000000E+00 0.  1.
        -24    2    1    2    0    0  0.26051347103E+03  0.62032728466E+03 -0.18010565229E+03  0.70145162700E+03  0.83205350491E+02 0.  0.
    5000000    2    1    2    0    0 -0.26051347103E+03 -0.62032728466E+03 -0.17475044391E+04  0.19663599348E+04  0.60010534075E+03 0.  0.
        -24    2    4    4    0    0  0.27176675368E+02 -0.58291821455E+03 -0.12953940409E+04  0.14231968727E+04  0.83134836200E+02 0.  0.
         24    2    4    4    0    0 -0.28769014640E+03 -0.37409070112E+02 -0.45211039824E+03  0.54316306208E+03  0.80356959592E+02 0.  0.
         13    1    3    3    0    0  0.13093052792E+03  0.20967198171E+03 -0.72190116078E+02  0.25752001071E+03  0.00000000000E+00 0. -1.
        -14    1    3    3    0    0  0.12958294311E+03  0.41065530296E+03 -0.10791553621E+03  0.44393161629E+03  0.00000000000E+00 0.  1.
         15    1    5    5    0    0 -0.21906085593E+02 -0.16512916905E+03 -0.31417869813E+03  0.35561064544E+03  0.17770000000E+01 0. -1.
        -16    1    5    5    0    0  0.49082760962E+02 -0.41778904550E+03 -0.98121534272E+03  0.10675862273E+04  0.00000000000E+00 0.  1.
          2    1    6    6  502    0 -0.24959710091E+03 -0.52063409807E+02 -0.41955977768E+03  0.49095795998E+03  0.00000000000E+00 0. -1.
         -1    1    6    6    0  502 -0.38093045494E+02  0.14654339695E+02 -0.32550620559E+02  0.52205102104E+02  0.00000000000E+00 0.  1.
<mgrwt>
<rscale>  0 0.78042066E+03</rscale>
<asrwt>0</asrwt>
<pdfrwt beam="1">  1        1 0.56938577E-01 0.78042066E+03</pdfrwt>
<pdfrwt beam="2">  1       -2 0.35349396E+00 0.78042066E+03</pdfrwt>
<totfact> 0.90601218E-01</totfact>
</mgrwt>
</event>
<event>
12    3  0.1201947E-007  0.1230116E+04  0.7818608E-02  0.9086897E-01
          1   -1    0    0  501    0  0.00000000000E+00  0.00000000000E+00  0.13512893147E+04  0.13512893147E+04  0.00000000000E+00 0. -1.
         -2   -1    0    0    0  501 -0.00000000000E+00 -0.00000000000E+00 -0.13590184252E+04  0.13590184252E+04  0.00000000000E+00 0.  1.
        -24    2    1    2    0    0  0.66595531501E+03  0.96575723386E+03  0.52685887267E+03  0.12883336242E+04  0.77715759340E+02 0.  0.
    5000000    2    1    2    0    0 -0.66595531501E+03 -0.96575723386E+03 -0.53458798320E+03  0.14219741157E+04  0.60003546355E+03 0.  0.
        -24    2    4    4    0    0 -0.49889455320E+02 -0.51787187111E+03 -0.35619039380E+03  0.63575731398E+03  0.81458781050E+02 0.  0.
         24    2    4    4    0    0 -0.61606585969E+03 -0.44788536275E+03 -0.17839758940E+03  0.78621680169E+03  0.78566645054E+02 0.  0.
         13    1    3    3    0    0  0.37691081404E+03  0.47819982320E+03  0.27377422683E+03  0.66759955058E+03  0.00000000000E+00 0. -1.
        -14    1    3    3    0    0  0.28904450097E+03  0.48755741066E+03  0.25308464584E+03  0.62073407365E+03  0.00000000000E+00 0.  1.
         15    1    5    5    0    0 -0.44727240339E+02 -0.34307564661E+03 -0.27964342382E+03  0.44486517906E+03  0.17770000000E+01 0. -1.
        -16    1    5    5    0    0 -0.51622149810E+01 -0.17479622450E+03 -0.76546969978E+02  0.19089213492E+03  0.00000000000E+00 0.  1.
          2    1    6    6  502    0 -0.41084041743E+03 -0.33047436286E+03 -0.14933142998E+03  0.54799911412E+03  0.00000000000E+00 0. -1.
         -1    1    6    6    0  502 -0.20522544226E+03 -0.11741099989E+03 -0.29066159426E+02  0.23821768757E+03  0.00000000000E+00 0.  1.
<mgrwt>
<rscale>  0 0.12301162E+04</rscale>
<asrwt>0</asrwt>
<pdfrwt beam="1">  1        1 0.20789066E+00 0.12301162E+04</pdfrwt>
<pdfrwt beam="2">  1       -2 0.20907976E+00 0.12301162E+04</pdfrwt>
<totfact> 0.82178732E-01</totfact>
</mgrwt>
</event>
<event>
12    3  0.1201947E-007  0.3944532E+03  0.7818608E-02  0.1045717E+00
         -2   -1    0    0    0  501 -0.00000000000E+00  0.00000000000E+00  0.32812636770E+03  0.32812636770E+03  0.00000000000E+00 0.  1.
          1   -1    0    0  501    0  0.00000000000E+00 -0.00000000000E+00 -0.67712690745E+03  0.67712690745E+03  0.00000000000E+00 0. -1.
        -24    2    1    2    0    0 -0.19398430456E+03  0.17408166733E+03 -0.20649973171E+02  0.27322327231E+03  0.79310767391E+02 0.  0.
    5000000    2    1    2    0    0  0.19398430456E+03 -0.17408166733E+03 -0.32835056657E+03  0.73203000284E+03  0.60009956939E+03 0.  0.
        -24    2    4    4    0    0  0.33504918478E+03 -0.16201848499E+03 -0.40242187513E+03  0.55390768141E+03  0.79764705503E+02 0.  0.
         24    2    4    4    0    0 -0.14106488022E+03 -0.12063182345E+02  0.74071308556E+02  0.17812232143E+03  0.78715829682E+02 0.  0.
         13    1    3    3    0    0 -0.48585597994E+02  0.24136002223E+02 -0.33845072177E+02  0.63942128886E+02  0.00000000000E+00 0. -1.
        -14    1    3    3    0    0 -0.14539870656E+03  0.14994566511E+03  0.13195099006E+02  0.20928114342E+03  0.00000000000E+00 0.  1.
         15    1    5    5    0    0  0.16018118948E+03 -0.92334552001E+02 -0.25411441450E+03  0.31426259138E+03  0.17770000000E+01 0. -1.
        -16    1    5    5    0    0  0.17486799530E+03 -0.69683932984E+02 -0.14830746063E+03  0.23964509002E+03  0.00000000000E+00 0.  1.
          2    1    6    6  502    0 -0.13869246369E+03  0.16842628573E+01  0.82923110058E+02  0.16160036636E+03  0.00000000000E+00 0. -1.
         -1    1    6    6    0  502 -0.23724165331E+01 -0.13747445203E+02 -0.88518015019E+01  0.16521955079E+02  0.00000000000E+00 0.  1.
<mgrwt>
<rscale>  0 0.39445316E+03</rscale>
<asrwt>0</asrwt>
<pdfrwt beam="1">  1        1 0.10417337E+00 0.39445316E+03</pdfrwt>
<pdfrwt beam="2">  1       -2 0.50480980E-01 0.39445316E+03</pdfrwt>
<totfact> 0.97545012E+01</totfact>
</mgrwt>
</event>
<event>
12    3  0.1201947E-007  0.6098155E+03  0.7818608E-02  0.9885249E-01
          1   -1    0    0  501    0  0.00000000000E+00  0.00000000000E+00  0.44852736541E+03  0.44852736541E+03  0.00000000000E+00 0. -1.
         -2   -1    0    0    0  501 -0.00000000000E+00 -0.00000000000E+00 -0.16412937512E+04  0.16412937512E+04  0.00000000000E+00 0.  1.
        -24    2    1    2    0    0 -0.17126071205E+03  0.52673569736E+03 -0.11420250831E+04  0.12717342759E+04  0.79410651536E+02 0.  0.
    5000000    2    1    2    0    0  0.17126071205E+03 -0.52673569736E+03 -0.50741302602E+02  0.81808684068E+03  0.59992555600E+03 0.  0.
        -24    2    4    4    0    0  0.21439090031E+03 -0.12026439910E+03  0.20430339315E+03  0.32959393204E+03  0.80407087736E+02 0.  0.
         24    2    4    4    0    0 -0.43130188267E+02 -0.40647129826E+03 -0.25504469575E+03  0.48849290864E+03  0.80612626299E+02 0.  0.
         13    1    3    3    0    0 -0.83981595894E+02  0.28161495084E+03 -0.69361747436E+03  0.75330278754E+03  0.00000000000E+00 0. -1.
        -14    1    3    3    0    0 -0.87279116152E+02  0.24512074652E+03 -0.44840760878E+03  0.51843148834E+03  0.00000000000E+00 0.  1.
         15    1    5    5    0    0  0.55855242912E+02 -0.71266543377E+02  0.92849446611E+02  0.12970314503E+03  0.17770000000E+01 0. -1.
        -16    1    5    5    0    0  0.15853565740E+03 -0.48997855725E+02  0.11145394654E+03  0.19989078701E+03  0.00000000000E+00 0.  1.
          2    1    6    6  502    0 -0.14720871310E+02 -0.78650801613E+02 -0.15546478069E+02  0.81512855593E+02  0.00000000000E+00 0. -1.
         -1    1    6    6    0  502 -0.28409316957E+02 -0.32782049665E+03 -0.23949821768E+03  0.40698005305E+03  0.00000000000E+00 0.  1.
<mgrwt>
<rscale>  0 0.60981553E+03</rscale>
<asrwt>0</asrwt>
<pdfrwt beam="1">  1        1 0.69004209E-01 0.60981553E+03</pdfrwt>
<pdfrwt beam="2">  1       -2 0.25250673E+00 0.60981553E+03</pdfrwt>
<totfact> 0.29511916E+00</totfact>
</mgrwt>
</event>
<event>
12    3  0.1201947E-007  0.2191075E+04  0.7818608E-02  0.8522152E-01
         -2   -1    0    0    0  501 -0.00000000000E+00  0.00000000000E+00  0.35078980398E+04  0.35078980398E+04  0.00000000000E+00 0.  1.
          1   -1    0    0  501    0  0.00000000000E+00 -0.00000000000E+00 -0.14170472054E+04  0.14170472054E+04  0.00000000000E+00 0. -1.
        -24    2    1    2    0    0  0.66466612641E+03  0.20767982326E+04  0.12317676288E+04  0.25056665111E+04  0.79001358388E+02 0.  0.
    5000000    2    1    2    0    0 -0.66466612641E+03 -0.20767982326E+04  0.85908320553E+03  0.24192787341E+04  0.60001140060E+03 0.  0.
        -24    2    4    4    0    0 -0.65681448917E+03 -0.19546626288E+04  0.64825347921E+03  0.21630134352E+04  0.79267153856E+02 0.  0.
         24    2    4    4    0    0 -0.78516372430E+01 -0.12213560378E+03  0.21082972632E+03  0.25626529897E+03  0.79018833433E+02 0.  0.
         11    1    3    3    0    0  0.32301826381E+03  0.11119937713E+04  0.62630192978E+03  0.13164820748E+04  0.00000000000E+00 0. -1.
        -12    1    3    3    0    0  0.34164786261E+03  0.96480446135E+03  0.60546569905E+03  0.11891844362E+04  0.00000000000E+00 0.  1.
         15    1    5    5    0    0 -0.13323964562E+03 -0.48245446706E+03  0.13632417844E+03  0.51875095692E+03  0.17770000000E+01 0. -1.
        -16    1    5    5    0    0 -0.52357484355E+03 -0.14722081618E+04  0.51192930076E+03  0.16442624783E+04  0.00000000000E+00 0.  1.
          4    1    6    6  502    0  0.22773985212E+02 -0.17852165272E+02  0.15735311201E+02  0.32938643353E+02  0.00000000000E+00 0. -1.
         -3    1    6    6    0  502 -0.30625622455E+02 -0.10428343851E+03  0.19509441512E+03  0.22332665561E+03  0.00000000000E+00 0.  1.
<mgrwt>
<rscale>  0 0.21910751E+04</rscale>
<asrwt>0</asrwt>
<pdfrwt beam="1">  1        1 0.21800726E+00 0.21910751E+04</pdfrwt>
<pdfrwt beam="2">  1       -2 0.53967662E+00 0.21910751E+04</pdfrwt>
<totfact> 0.54677459E-03</totfact>
</mgrwt>
</event>
<event>
12    3  0.1201947E-007  0.5288330E+03  0.7818608E-02  0.1006516E+00
         -4   -1    0    0    0  501 -0.00000000000E+00  0.00000000000E+00  0.14016922387E+03  0.14016922387E+03  0.00000000000E+00 0.  1.
          1   -1    0    0  501    0  0.00000000000E+00 -0.00000000000E+00 -0.21812417489E+04  0.21812417489E+04  0.00000000000E+00 0. -1.
        -24    2    1    2    0    0 -0.80450621308E+02 -0.37635081087E+03 -0.70716900778E+03  0.80900347473E+03  0.79286702857E+02 0.  0.
    5000000    2    1    2    0    0  0.80450621308E+02  0.37635081087E+03 -0.13339035172E+04  0.15124074980E+04  0.59997134221E+03 0.  0.
        -24    2    4    4    0    0 -0.60842748047E+02 -0.11598037481E+03 -0.14475938204E+03  0.21534276182E+03  0.90906210168E+02 0.  0.
         24    2    4    4    0    0  0.14129336935E+03  0.49233118568E+03 -0.11891441352E+04  0.12970647362E+04  0.77196781248E+02 0.  0.
         11    1    3    3    0    0 -0.17764180525E+02 -0.14195076379E+03 -0.34039937123E+03  0.36923883515E+03  0.00000000000E+00 0. -1.
        -12    1    3    3    0    0 -0.62686440783E+02 -0.23440004708E+03 -0.36676963656E+03  0.43976463959E+03  0.00000000000E+00 0.  1.
         15    1    5    5    0    0  0.88038187521E+01 -0.80602345886E+02 -0.79252763164E+02  0.11339490105E+03  0.17770000000E+01 0. -1.
        -16    1    5    5    0    0 -0.69646566799E+02 -0.35378028924E+02 -0.65506618879E+02  0.10194786076E+03  0.00000000000E+00 0.  1.
          2    1    6    6  502    0  0.84525493719E+02  0.25161317364E+03 -0.70708148816E+03  0.75526020625E+03  0.00000000000E+00 0. -1.
         -1    1    6    6    0  502  0.56767875636E+02  0.24071801204E+03 -0.48206264702E+03  0.54180452996E+03  0.00000000000E+00 0.  1.
<mgrwt>
<rscale>  0 0.52883300E+03</rscale>
<asrwt>0</asrwt>
<pdfrwt beam="1">  1        1 0.33557561E+00 0.52883300E+03</pdfrwt>
<pdfrwt beam="2">  1       -4 0.21564499E-01 0.52883300E+03</pdfrwt>
<totfact> 0.23391386E+01</totfact>
</mgrwt>
</event>
<event>
12    3  0.1201947E-007  0.8276162E+03  0.7818608E-02  0.9520882E-01
         -2   -1    0    0    0  501 -0.00000000000E+00  0.00000000000E+00  0.27773845553E+04  0.27773845553E+04  0.00000000000E+00 0.  1.
          1   -1    0    0  501    0  0.00000000000E+00 -0.00000000000E+00 -0.37149573059E+03  0.37149573059E+03  0.00000000000E+00 0. -1.
        -24    2    1    2    0    0  0.33777649285E+03 -0.68367182522E+03  0.19122587260E+04  0.20602324650E+04  0.79525157137E+02 0.  0.
    5000000    2    1    2    0    0 -0.33777649285E+03  0.68367182522E+03  0.49363009867E+03  0.10886478209E+04  0.59998606649E+03 0.  0.
        -24    2    4    4    0    0  0.56937415343E+02 -0.10629462197E+02  0.21971373292E+03  0.24090751445E+03  0.80046557399E+02 0.  0.
         24    2    4    4    0    0 -0.39471390819E+03  0.69430128742E+03  0.27391636575E+03  0.84774030649E+03  0.76027000359E+02 0.  0.
         13    1    3    3    0    0  0.41663662972E+02 -0.15331117441E+03  0.42403735342E+03  0.45282209984E+03  0.00000000000E+00 0. -1.
        -14    1    3    3    0    0  0.29611282988E+03 -0.53036065082E+03  0.14882213726E+04  0.16074103651E+04  0.00000000000E+00 0.  1.
         15    1    5    5    0    0 -0.11530956607E+02  0.11925095950E+02  0.10719669630E+02  0.19830277852E+02  0.17770000000E+01 0. -1.
        -16    1    5    5    0    0  0.68468371950E+02 -0.22554558147E+02  0.20899406329E+03  0.22107723660E+03  0.00000000000E+00 0.  1.
          4    1    6    6  502    0 -0.84601738856E+02  0.11115676163E+03  0.71615377929E+02  0.15697783993E+03  0.00000000000E+00 0. -1.
         -3    1    6    6    0  502 -0.31011216934E+03  0.58314452579E+03  0.20230098782E+03  0.69076246656E+03  0.00000000000E+00 0.  1.
<mgrwt>
<rscale>  0 0.82761615E+03</rscale>
<asrwt>0</asrwt>
<pdfrwt beam="1">  1        1 0.57153191E-01 0.82761615E+03</pdfrwt>
<pdfrwt beam="2">  1       -2 0.42728992E+00 0.82761615E+03</pdfrwt>
<totfact> 0.29964166E-01</totfact>
</mgrwt>
</event>
<event>
12    3  0.1201947E-007  0.9876459E+03  0.7818608E-02  0.9322199E-01
          1   -1    0    0  501    0  0.00000000000E+00  0.00000000000E+00  0.17898086137E+04  0.17898086137E+04  0.00000000000E+00 0. -1.
         -2   -1    0    0    0  501 -0.00000000000E+00 -0.00000000000E+00 -0.71129334223E+03  0.71129334223E+03  0.00000000000E+00 0.  1.
        -24    2    1    2    0    0 -0.90914168889E+03  0.93662944460E+02 -0.64026578964E+02  0.91969686229E+03  0.80196995298E+02 0.  0.
    5000000    2    1    2    0    0  0.90914168889E+03 -0.93662944460E+02  0.11425418505E+04  0.15814050937E+04  0.60010735088E+03 0.  0.
        -24    2    4    4    0    0 -0.53704415965E+02 -0.23082873105E+02  0.23324422877E+03  0.25276818213E+03  0.77922399319E+02 0.  0.
         24    2    4    4    0    0  0.96284610486E+03 -0.70580071354E+02  0.90929762170E+03  0.13286369115E+04  0.79998186160E+02 0.  0.
         13    1    3    3    0    0 -0.54622859490E+03  0.94814452642E+02 -0.46935382030E+02  0.55637971602E+03  0.00000000000E+00 0. -1.
        -14    1    3    3    0    0 -0.36291309400E+03 -0.11515081822E+01 -0.17091196934E+02  0.36331714627E+03  0.00000000000E+00 0.  1.
         15    1    5    5    0    0 -0.80837193440E+00 -0.36681632835E+02  0.53405207669E+02  0.64818744109E+02  0.17770000000E+01 0. -1.
        -16    1    5    5    0    0 -0.52896044030E+02  0.13598759730E+02  0.17983902110E+03  0.18794943802E+03  0.00000000000E+00 0.  1.
          2    1    6    6  502    0  0.59072195544E+03 -0.66804977550E+02  0.51614514373E+03  0.78728720494E+03  0.00000000000E+00 0. -1.
         -1    1    6    6    0  502  0.37212414942E+03 -0.37750938041E+01  0.39315247797E+03  0.54134970661E+03  0.00000000000E+00 0.  1.
<mgrwt>
<rscale>  0 0.98764590E+03</rscale>
<asrwt>0</asrwt>
<pdfrwt beam="1">  1        1 0.27535517E+00 0.98764590E+03</pdfrwt>
<pdfrwt beam="2">  1       -2 0.10942975E+00 0.98764590E+03</pdfrwt>
<totfact> 0.24276726E+00</totfact>
</mgrwt>
</event>
<event>
12    3  0.1201947E-007  0.5651031E+03  0.7818608E-02  0.9980574E-01
         -2   -1    0    0    0  501 -0.00000000000E+00  0.00000000000E+00  0.13940141742E+04  0.13940141742E+04  0.00000000000E+00 0.  1.
          1   -1    0    0  501    0  0.00000000000E+00 -0.00000000000E+00 -0.41904258931E+03  0.41904258931E+03  0.00000000000E+00 0. -1.
        -24    2    1    2    0    0  0.44717593678E+03 -0.67479448650E+01 -0.13515213251E+03  0.47430253944E+03  0.81761523944E+02 0.  0.
    5000000    2    1    2    0    0 -0.44717593678E+03  0.67479448650E+01  0.11101237174E+04  0.13387542241E+04  0.59989695062E+03 0.  0.
        -24    2    4    4    0    0  0.86309864225E+02 -0.95149520638E+02  0.48024698825E+03  0.50330142611E+03  0.78564189461E+02 0.  0.
         24    2    4    4    0    0 -0.53348580101E+03  0.10189746550E+03  0.62987672918E+03  0.83545279800E+03  0.79034741479E+02 0.  0.
         11    1    3    3    0    0  0.38438993386E+03  0.67639193282E+01 -0.14173175704E+03  0.40974292284E+03  0.00000000000E+00 0. -1.
        -12    1    3    3    0    0  0.62786002920E+02 -0.13511864193E+02  0.65796245355E+01  0.64559616601E+02  0.00000000000E+00 0.  1.
         15    1    5    5    0    0  0.27760995976E+01 -0.33408535202E+02  0.46886463680E+02  0.57665719095E+02  0.17770000000E+01 0. -1.
        -16    1    5    5    0    0  0.83533764627E+02 -0.61740985436E+02  0.43336052457E+03  0.44563570702E+03  0.00000000000E+00 0.  1.
          2    1    6    6  502    0 -0.32079896301E+03  0.45145251662E+02  0.42791720464E+03  0.53671519677E+03  0.00000000000E+00 0. -1.
         -1    1    6    6    0  502 -0.21268683800E+03  0.56752213841E+02  0.20195952454E+03  0.29873760123E+03  0.00000000000E+00 0.  1.
<mgrwt>
<rscale>  0 0.56510308E+03</rscale>
<asrwt>0</asrwt>
<pdfrwt beam="1">  1        1 0.64468091E-01 0.56510308E+03</pdfrwt>
<pdfrwt beam="2">  1       -2 0.21446372E+00 0.56510308E+03</pdfrwt>
<totfact> 0.55643123E+00</totfact>
</mgrwt>
</event>
<event>
12    3  0.1201947E-007  0.7726404E+03  0.7818608E-02  0.9600486E-01
         -4   -1    0    0    0  501 -0.00000000000E+00  0.00000000000E+00  0.25341355328E+04  0.25341355328E+04  0.00000000000E+00 0.  1.
          3   -1    0    0  501    0  0.00000000000E+00 -0.00000000000E+00 -0.30135581429E+03  0.30135581429E+03  0.00000000000E+00 0. -1.
        -24    2    1    2    0    0  0.71395944243E+03 -0.25440400646E+03  0.78007422020E+03  0.10905166483E+04  0.79065082732E+02 0.  0.
    5000000    2    1    2    0    0 -0.71395944243E+03  0.25440400646E+03  0.14527054983E+04  0.17449746988E+04  0.60010328330E+03 0.  0.
        -24    2    4    4    0    0 -0.27875990726E+03  0.19495497569E+03  0.11591433537E+04  0.12106872407E+04  0.80223136997E+02 0.  0.
         24    2    4    4    0    0 -0.43519953517E+03  0.59449030772E+02  0.29356214460E+03  0.53428745816E+03  0.79696502599E+02 0.  0.
         13    1    3    3    0    0  0.13546754920E+03 -0.16965478168E+02  0.13047613852E+03  0.18884731150E+03  0.00000000000E+00 0. -1.
        -14    1    3    3    0    0  0.57849189323E+03 -0.23743852829E+03  0.64959808167E+03  0.90166933682E+03  0.00000000000E+00 0.  1.
         15    1    5    5    0    0 -0.11938356268E+03  0.81223827837E+02  0.63382850742E+03  0.65007036527E+03  0.17770000000E+01 0. -1.
        -16    1    5    5    0    0 -0.15937634458E+03  0.11373114785E+03  0.52531484633E+03  0.56061687539E+03  0.00000000000E+00 0.  1.
          2    1    6    6  502    0 -0.27182659511E+03  0.79845089380E+01  0.14862308169E+03  0.30990687408E+03  0.00000000000E+00 0. -1.
         -1    1    6    6    0  502 -0.16337294007E+03  0.51464521834E+02  0.14493906291E+03  0.22438058408E+03  0.00000000000E+00 0.  1.
<mgrwt>
<rscale>  0 0.77264040E+03</rscale>
<asrwt>0</asrwt>
<pdfrwt beam="1">  1        3 0.46362435E-01 0.77264040E+03</pdfrwt>
<pdfrwt beam="2">  1       -4 0.38986699E+00 0.77264040E+03</pdfrwt>
<totfact> 0.87925730E-02</totfact>
</mgrwt>
</event>
<event>
12    3  0.1201947E-007  0.9258594E+03  0.7818608E-02  0.9393821E-01
          1   -1    0    0  501    0  0.00000000000E+00  0.00000000000E+00  0.12148626456E+04  0.12148626456E+04  0.00000000000E+00 0. -1.
         -2   -1    0    0    0  501 -0.00000000000E+00 -0.00000000000E+00 -0.85762049745E+03  0.85762049745E+03  0.00000000000E+00 0.  1.
        -24    2    1    2    0    0 -0.90969161447E+03 -0.13155312648E+02  0.36392340388E+03  0.98282955354E+03  0.76169493409E+02 0.  0.
    5000000    2    1    2    0    0  0.90969161447E+03  0.13155312648E+02 -0.66812556920E+01  0.10896535895E+04  0.59965691053E+03 0.  0.
        -24    2    4    4    0    0  0.24239912173E+03  0.81150663998E+02  0.25174492725E+03  0.36663842864E+03  0.75534525052E+02 0.  0.
         24    2    4    4    0    0  0.66729249274E+03 -0.67995351349E+02 -0.25842618294E+03  0.72301516091E+03  0.77872923445E+02 0.  0.
         13    1    3    3    0    0 -0.48153584685E+03 -0.18264402893E+02  0.15355118410E+03  0.50575520398E+03  0.00000000000E+00 0. -1.
        -14    1    3    3    0    0 -0.42815576762E+03  0.51090902448E+01  0.21037221978E+03  0.47707434955E+03  0.00000000000E+00 0.  1.
         15    1    5    5    0    0  0.83647106924E+02 -0.84725303541E+01  0.73776395999E+02  0.11186928355E+03  0.17770000000E+01 0. -1.
        -16    1    5    5    0    0  0.15875201481E+03  0.89623194352E+02  0.17796853125E+03  0.25476914508E+03  0.00000000000E+00 0.  1.
          4    1    6    6  502    0  0.54598198535E+03 -0.85668166931E+02 -0.21159587152E+03  0.59178389298E+03  0.00000000000E+00 0. -1.
         -3    1    6    6    0  502  0.12131050739E+03  0.17672815581E+02 -0.46830311419E+02  0.13123126793E+03  0.00000000000E+00 0.  1.
<mgrwt>
<rscale>  0 0.92585936E+03</rscale>
<asrwt>0</asrwt>
<pdfrwt beam="1">  1        1 0.18690195E+00 0.92585936E+03</pdfrwt>
<pdfrwt beam="2">  1       -2 0.13194161E+00 0.92585936E+03</pdfrwt>
<totfact> 0.38435410E+00</totfact>
</mgrwt>
</event>
<event>
12    3  0.1201947E-007  0.5642398E+03  0.7818608E-02  0.9982507E-01
         -2   -1    0    0    0  501 -0.00000000000E+00  0.00000000000E+00  0.83800712330E+03  0.83800712330E+03  0.00000000000E+00 0.  1.
          1   -1    0    0  501    0  0.00000000000E+00 -0.00000000000E+00 -0.11736909565E+04  0.11736909565E+04  0.00000000000E+00 0. -1.
        -24    2    1    2    0    0  0.12775006811E+03  0.47702055189E+03 -0.91488522390E+03  0.10426619972E+04  0.79122567297E+02 0.  0.
    5000000    2    1    2    0    0 -0.12775006811E+03 -0.47702055189E+03  0.57920139066E+03  0.96903608265E+03  0.59973993672E+03 0.  0.
        -24    2    4    4    0    0 -0.19658379564E+03 -0.49008466120E+03  0.64905123389E+03  0.84129259948E+03  0.87621743171E+02 0.  0.
         24    2    4    4    0    0  0.68833727529E+02  0.13064109306E+02 -0.69849843227E+02  0.12774348317E+03  0.80812399393E+02 0.  0.
         11    1    3    3    0    0  0.12971440560E+03  0.47919615451E+03 -0.90350463199E+03  0.10309099871E+04  0.00000000000E+00 0. -1.
        -12    1    3    3    0    0 -0.19643374944E+01 -0.21756026192E+01 -0.11380591914E+02  0.11752010077E+02  0.00000000000E+00 0.  1.
         15    1    5    5    0    0 -0.12938438389E+03 -0.29963338449E+03  0.33339381277E+03  0.46655661609E+03  0.17770000000E+01 0. -1.
        -16    1    5    5    0    0 -0.67199411749E+02 -0.19045127671E+03  0.31565742112E+03  0.37473598339E+03  0.00000000000E+00 0.  1.
          4    1    6    6  502    0  0.80512414747E+02 -0.33975250703E+01 -0.35838244303E+02  0.88193944576E+02  0.00000000000E+00 0. -1.
         -3    1    6    6    0  502 -0.11678687219E+02  0.16461634377E+02 -0.34011598924E+02  0.39549538592E+02  0.00000000000E+00 0.  1.
<mgrwt>
<rscale>  0 0.56423980E+03</rscale>
<asrwt>0</asrwt>
<pdfrwt beam="1">  1        1 0.18056784E+00 0.56423980E+03</pdfrwt>
<pdfrwt beam="2">  1       -2 0.12892417E+00 0.56423980E+03</pdfrwt>
<totfact> 0.46037152E+00</totfact>
</mgrwt>
</event>
<event>
12    3  0.1201947E-007  0.9532103E+03  0.7818608E-02  0.9361406E-01
         -2   -1    0    0    0  501 -0.00000000000E+00  0.00000000000E+00  0.69701342199E+03  0.69701342199E+03  0.00000000000E+00 0.  1.
          1   -1    0    0  501    0  0.00000000000E+00 -0.00000000000E+00 -0.14058314053E+04  0.14058314053E+04  0.00000000000E+00 0. -1.
        -24    2    1    2    0    0 -0.86202883490E+03 -0.77356665029E+02 -0.57546773333E+03  0.10412620547E+04  0.63133103338E+02 0.  0.
    5000000    2    1    2    0    0  0.86202883490E+03  0.77356665029E+02 -0.13335024994E+03  0.10615827725E+04  0.60008160103E+03 0.  0.
        -24    2    4    4    0    0  0.66174629282E+02  0.21717020419E+03 -0.46078762452E+02  0.24483054898E+03  0.79226045073E+02 0.  0.
         24    2    4    4    0    0  0.79585420562E+03 -0.13981353916E+03 -0.87271487487E+02  0.81675222352E+03  0.80846396109E+02 0.  0.
         13    1    3    3    0    0 -0.31637450209E+03 -0.45586919092E+02 -0.24285760236E+03  0.40143593236E+03  0.00000000000E+00 0. -1.
        -14    1    3    3    0    0 -0.54565433281E+03 -0.31769745937E+02 -0.33261013097E+03  0.63982612239E+03  0.00000000000E+00 0.  1.
         15    1    5    5    0    0  0.31050764129E+02  0.58054313784E+02  0.20247107897E+02  0.68902513808E+02  0.17770000000E+01 0. -1.
        -16    1    5    5    0    0  0.35123865153E+02  0.15911589041E+03 -0.66325870349E+02  0.17592803518E+03  0.00000000000E+00 0.  1.
          2    1    6    6  502    0  0.37280491880E+03 -0.10285089453E+03 -0.24871204017E+02  0.38753114814E+03  0.00000000000E+00 0. -1.
         -1    1    6    6    0  502  0.42304928681E+03 -0.36962644628E+02 -0.62400283470E+02  0.42922107538E+03  0.00000000000E+00 0.  1.
<mgrwt>
<rscale>  0 0.95321030E+03</rscale>
<asrwt>0</asrwt>
<pdfrwt beam="1">  1        1 0.21628175E+00 0.95321030E+03</pdfrwt>
<pdfrwt beam="2">  1       -2 0.10723283E+00 0.95321030E+03</pdfrwt>
<totfact> 0.46881043E+00</totfact>
</mgrwt>
</event>
<event>
12    3  0.1201947E-007  0.6058259E+03  0.7818608E-02  0.9893392E-01
         -2   -1    0    0    0  501 -0.00000000000E+00  0.00000000000E+00  0.37376457998E+03  0.37376457998E+03  0.00000000000E+00 0.  1.
          1   -1    0    0  501    0  0.00000000000E+00 -0.00000000000E+00 -0.12515497106E+04  0.12515497106E+04  0.00000000000E+00 0. -1.
        -24    2    1    2    0    0  0.18972506409E+02  0.54788999334E+03 -0.38961771857E+03  0.67728804288E+03  0.79835616069E+02 0.  0.
    5000000    2    1    2    0    0 -0.18972506409E+02 -0.54788999334E+03 -0.48816741202E+03  0.94802624768E+03  0.59991911399E+03 0.  0.
        -24    2    4    4    0    0 -0.17769461568E+03 -0.40335915465E+03 -0.55081172294E+03  0.70992645807E+03  0.79548963896E+02 0.  0.
         24    2    4    4    0    0  0.15872210927E+03 -0.14453083869E+03  0.62644310927E+02  0.23809978961E+03  0.81763860082E+02 0.  0.
         11    1    3    3    0    0  0.24188286598E+01  0.33484041739E+03 -0.19071304111E+03  0.38535103464E+03  0.00000000000E+00 0. -1.
        -12    1    3    3    0    0  0.16553677749E+02  0.21304957595E+03 -0.19890467746E+03  0.29193700823E+03  0.00000000000E+00 0.  1.
         15    1    5    5    0    0 -0.30726753202E+02 -0.16384737902E+03 -0.21447187145E+03  0.27164579574E+03  0.17770000000E+01 0. -1.
        -16    1    5    5    0    0 -0.14696786248E+03 -0.23951177563E+03 -0.33633985150E+03  0.43828066233E+03  0.00000000000E+00 0.  1.
          4    1    6    6  502    0  0.11935906007E+03 -0.97950613846E+02  0.54649944991E+01  0.15450169623E+03  0.00000000000E+00 0. -1.
         -3    1    6    6    0  502  0.39363049202E+02 -0.46580224846E+02  0.57179316428E+02  0.83598093378E+02  0.00000000000E+00 0.  1.
<mgrwt>
<rscale>  0 0.60582592E+03</rscale>
<asrwt>0</asrwt>
<pdfrwt beam="1">  1        1 0.19254611E+00 0.60582592E+03</pdfrwt>
<pdfrwt beam="2">  1       -2 0.57502244E-01 0.60582592E+03</pdfrwt>
<totfact> 0.25439743E+01</totfact>
</mgrwt>
</event>
<event>
12    3  0.1201947E-007  0.1688770E+04  0.7818608E-02  0.8767795E-01
         -2   -1    0    0    0  501 -0.00000000000E+00  0.00000000000E+00  0.97033355319E+03  0.97033355319E+03  0.00000000000E+00 0.  1.
          1   -1    0    0  501    0  0.00000000000E+00 -0.00000000000E+00 -0.30972418977E+04  0.30972418977E+04  0.00000000000E+00 0. -1.
        -24    2    1    2    0    0  0.84381098649E+03 -0.14527444464E+04 -0.97505952911E+03  0.19441076746E+04  0.79562286461E+02 0.  0.
    5000000    2    1    2    0    0 -0.84381098649E+03  0.14527444464E+04 -0.11518488154E+04  0.21234677763E+04  0.59989690452E+03 0.  0.
        -24    2    4    4    0    0 -0.64921429005E+03  0.12256797849E+04 -0.65045136781E+03  0.15340874705E+04  0.81038607070E+02 0.  0.
         24    2    4    4    0    0 -0.19459669644E+03  0.22706466155E+03 -0.50139744759E+03  0.58938030582E+03  0.80891962849E+02 0.  0.
         13    1    3    3    0    0  0.47045109089E+03 -0.73933684908E+03 -0.52887760097E+03  0.10235500584E+04  0.00000000000E+00 0. -1.
        -14    1    3    3    0    0  0.37335989560E+03 -0.71340759735E+03 -0.44618192815E+03  0.92055761612E+03  0.00000000000E+00 0.  1.
         15    1    5    5    0    0 -0.49972525888E+03  0.92073109279E+03 -0.52734218972E+03  0.11728444152E+04  0.17770000000E+01 0. -1.
        -16    1    5    5    0    0 -0.14948903116E+03  0.30494869210E+03 -0.12310917809E+03  0.36124305527E+03  0.00000000000E+00 0.  1.
          2    1    6    6  502    0 -0.44532244216E+02  0.10934125948E+03 -0.21504873613E+03  0.24532547913E+03  0.00000000000E+00 0. -1.
         -3    1    6    6    0  502 -0.15006445223E+03  0.11772340207E+03 -0.28634871146E+03  0.34405482669E+03  0.00000000000E+00 0.  1.
<mgrwt>
<rscale>  0 0.16887696E+04</rscale>
<asrwt>0</asrwt>
<pdfrwt beam="1">  1        1 0.47649875E+00 0.16887696E+04</pdfrwt>
<pdfrwt beam="2">  1       -2 0.14928209E+00 0.16887696E+04</pdfrwt>
<totfact> 0.12548967E-01</totfact>
</mgrwt>
</event>
<event>
12    3  0.1201947E-007  0.1613686E+04  0.7818608E-02  0.8812184E-01
          1   -1    0    0  501    0  0.00000000000E+00  0.00000000000E+00  0.38813799582E+04  0.38813799582E+04  0.00000000000E+00 0. -1.
         -2   -1    0    0    0  501 -0.00000000000E+00 -0.00000000000E+00 -0.73773221135E+03  0.73773221135E+03  0.00000000000E+00 0.  1.
        -24    2    1    2    0    0 -0.16072147977E+04 -0.21208280459E+02  0.10945556998E+04  0.19465893883E+04  0.86999250100E+02 0.  0.
    5000000    2    1    2    0    0  0.16072147977E+04  0.21208280459E+02  0.20490920471E+04  0.26725227812E+04  0.60000883462E+03 0.  0.
        -24    2    4    4    0    0  0.54806526523E+03  0.84665190905E+02  0.11533467505E+04  0.12816211504E+04  0.69284317970E+02 0.  0.
         24    2    4    4    0    0  0.10591495325E+04 -0.63456910446E+02  0.89574529653E+03  0.13909016308E+04  0.80144860418E+02 0.  0.
         11    1    3    3    0    0 -0.94597072137E+03 -0.53091532312E+02  0.62791837625E+03  0.11366445371E+04  0.00000000000E+00 0. -1.
        -12    1    3    3    0    0 -0.66124407637E+03  0.31883251853E+02  0.46663732353E+03  0.80994485121E+03  0.00000000000E+00 0.  1.
         15    1    5    5    0    0  0.18430727020E+03  0.63857580088E+01  0.43933723299E+03  0.47647697717E+03  0.17770000000E+01 0. -1.
        -16    1    5    5    0    0  0.36375799502E+03  0.78279432896E+02  0.71400951755E+03  0.80514417324E+03  0.00000000000E+00 0.  1.
          2    1    6    6  502    0  0.59124729966E+03 -0.48787404285E+02  0.54941268610E+03  0.80858387309E+03  0.00000000000E+00 0. -1.
         -1    1    6    6    0  502  0.46790223286E+03 -0.14669506161E+02  0.34633261044E+03  0.58231775774E+03  0.00000000000E+00 0.  1.
<mgrwt>
<rscale>  0 0.16136862E+04</rscale>
<asrwt>0</asrwt>
<pdfrwt beam="1">  1        1 0.59713537E+00 0.16136862E+04</pdfrwt>
<pdfrwt beam="2">  1       -2 0.11349727E+00 0.16136862E+04</pdfrwt>
<totfact> 0.61713319E-02</totfact>
</mgrwt>
</event>
<event>
12    3  0.1414028E-007  0.1308272E+04  0.7818608E-02  0.9023031E-01
          1   -1    0    0  501    0  0.00000000000E+00  0.00000000000E+00  0.10137354861E+04  0.10137354861E+04  0.00000000000E+00 0. -1.
         -2   -1    0    0    0  501 -0.00000000000E+00 -0.00000000000E+00 -0.20228101139E+04  0.20228101139E+04  0.00000000000E+00 0.  1.
        -24    2    1    2    0    0 -0.49032787504E+03  0.11437882092E+04  0.11975284340E+03  0.12525642409E+04  0.76834507605E+02 0.  0.
    5000000    2    1    2    0    0  0.49032787504E+03 -0.11437882092E+04 -0.11288274712E+04  0.17839813591E+04  0.59972088279E+03 0.  0.
        -24    2    4    4    0    0  0.28431345108E+03 -0.97743743539E+02 -0.22978633290E+03  0.38755183519E+03  0.83705963349E+02 0.  0.
         24    2    4    4    0    0  0.20601442396E+03 -0.10460444657E+04 -0.89904113835E+03  0.13964295239E+04  0.71340590252E+02 0.  0.
         13    1    3    3    0    0 -0.33916157149E+03  0.86926109804E+03  0.76792457316E+02  0.93623848973E+03  0.00000000000E+00 0. -1.
        -14    1    3    3    0    0 -0.15116630355E+03  0.27452711117E+03  0.42960386086E+02  0.31632575119E+03  0.00000000000E+00 0.  1.
         15    1    5    5    0    0  0.10462451552E+03 -0.58221311280E+02 -0.13545007030E+03  0.18079239367E+03  0.17770000000E+01 0. -1.
        -16    1    5    5    0    0  0.17968893557E+03 -0.39522432259E+02 -0.94336262605E+02  0.20675944152E+03  0.00000000000E+00 0.  1.
          2    1    6    6  502    0  0.16000920902E+03 -0.76569308643E+03 -0.69816482995E+03  0.10484860416E+04  0.00000000000E+00 0. -1.
         -3    1    6    6    0  502  0.46005214943E+02 -0.28035137924E+03 -0.20087630840E+03  0.34794348236E+03  0.00000000000E+00 0.  1.
<mgrwt>
<rscale>  0 0.13082717E+04</rscale>
<asrwt>0</asrwt>
<pdfrwt beam="1">  1        1 0.15595931E+00 0.13082717E+04</pdfrwt>
<pdfrwt beam="2">  1       -2 0.31120156E+00 0.13082717E+04</pdfrwt>
<totfact> 0.34022934E-01</totfact>
</mgrwt>
</event>
<event>
12    3  0.1201947E-007  0.1201436E+04  0.7818608E-02  0.9111601E-01
         -2   -1    0    0    0  501 -0.00000000000E+00  0.00000000000E+00  0.19966163113E+04  0.19966163113E+04  0.00000000000E+00 0.  1.
          1   -1    0    0  501    0  0.00000000000E+00 -0.00000000000E+00 -0.75703280230E+03  0.75703280230E+03  0.00000000000E+00 0. -1.
        -24    2    1    2    0    0 -0.11388433950E+04 -0.79569197848E+02  0.38889039896E+03  0.12087174260E+04  0.80414786222E+02 0.  0.
    5000000    2    1    2    0    0  0.11388433950E+04  0.79569197848E+02  0.85069311007E+03  0.15449316877E+04  0.59986633211E+03 0.  0.
        -24    2    4    4    0    0  0.22356334988E+03  0.24217800301E+03  0.33955900894E+03  0.48114124074E+03  0.86981701748E+02 0.  0.
         24    2    4    4    0    0  0.91528004512E+03 -0.16260880516E+03  0.51113410113E+03  0.10637904469E+04  0.78821704435E+02 0.  0.
         13    1    3    3    0    0 -0.93316226201E+03 -0.53216048868E+02  0.34800842022E+03  0.99736333181E+03  0.00000000000E+00 0. -1.
        -14    1    3    3    0    0 -0.20568113300E+03 -0.26353148980E+02  0.40881978741E+02  0.21135409416E+03  0.00000000000E+00 0.  1.
         15    1    5    5    0    0  0.13962479594E+03  0.16548128550E+03  0.16250258117E+03  0.27072012505E+03  0.17770000000E+01 0. -1.
        -16    1    5    5    0    0  0.83938553943E+02  0.76696717509E+02  0.17705642776E+03  0.21042111569E+03  0.00000000000E+00 0.  1.
          4    1    6    6  502    0  0.18715824875E+03 -0.15737748932E+02  0.13420172272E+03  0.23083758186E+03  0.00000000000E+00 0. -1.
         -3    1    6    6    0  502  0.72812179638E+03 -0.14687105623E+03  0.37693237841E+03  0.83295286506E+03  0.00000000000E+00 0.  1.
<mgrwt>
<rscale>  0 0.12014358E+04</rscale>
<asrwt>0</asrwt>
<pdfrwt beam="1">  1        1 0.11646659E+00 0.12014358E+04</pdfrwt>
<pdfrwt beam="2">  1       -2 0.30717174E+00 0.12014358E+04</pdfrwt>
<totfact> 0.59785879E-01</totfact>
</mgrwt>
</event>
<event>
12    3  0.1201947E-007  0.1040342E+04  0.7818608E-02  0.9265372E-01
         -2   -1    0    0    0  501 -0.00000000000E+00  0.00000000000E+00  0.16479907172E+04  0.16479907172E+04  0.00000000000E+00 0.  1.
          1   -1    0    0  501    0  0.00000000000E+00 -0.00000000000E+00 -0.68324152779E+03  0.68324152779E+03  0.00000000000E+00 0. -1.
        -24    2    1    2    0    0  0.57513354634E+03 -0.77768282239E+03  0.57531619203E+03  0.11282091698E+04  0.79360201879E+02 0.  0.
    5000000    2    1    2    0    0 -0.57513354634E+03  0.77768282239E+03  0.38943299736E+03  0.12030230752E+04  0.60003107553E+03 0.  0.
        -24    2    4    4    0    0 -0.27186003692E+03  0.92307599306E+00  0.10417315608E+02  0.28361110404E+03  0.80112459249E+02 0.  0.
         24    2    4    4    0    0 -0.30327350941E+03  0.77675974640E+03  0.37901568175E+03  0.91941197113E+03  0.79592465127E+02 0.  0.
         13    1    3    3    0    0  0.41328974534E+03 -0.61443799038E+03  0.44660963340E+03  0.86475581656E+03  0.00000000000E+00 0. -1.
        -14    1    3    3    0    0  0.16184380100E+03 -0.16324483201E+03  0.12870655864E+03  0.26345335324E+03  0.00000000000E+00 0.  1.
         15    1    5    5    0    0 -0.21454274944E+03  0.91841413511E+01  0.40223276278E+02  0.21848114215E+03  0.17770000000E+01 0. -1.
        -16    1    5    5    0    0 -0.57317287483E+02 -0.82610653581E+01 -0.29805960671E+02  0.65129961897E+02  0.00000000000E+00 0.  1.
          2    1    6    6  502    0 -0.97944154728E+02  0.35956914077E+03  0.16745313879E+03  0.40856282030E+03  0.00000000000E+00 0. -1.
         -1    1    6    6    0  502 -0.20532935469E+03  0.41719060563E+03  0.21156254297E+03  0.51084915083E+03  0.00000000000E+00 0.  1.
<mgrwt>
<rscale>  0 0.10403421E+04</rscale>
<asrwt>0</asrwt>
<pdfrwt beam="1">  1        1 0.10511408E+00 0.10403421E+04</pdfrwt>
<pdfrwt beam="2">  1       -2 0.25353703E+00 0.10403421E+04</pdfrwt>
<totfact> 0.15100505E+00</totfact>
</mgrwt>
</event>
<event>
12    3  0.1201947E-007  0.7261685E+03  0.7818608E-02  0.9673498E-01
          1   -1    0    0  501    0  0.00000000000E+00  0.00000000000E+00  0.12623792814E+04  0.12623792814E+04  0.00000000000E+00 0. -1.
         -2   -1    0    0    0  501 -0.00000000000E+00 -0.00000000000E+00 -0.65529589504E+03  0.65529589504E+03  0.00000000000E+00 0.  1.
        -24    2    1    2    0    0 -0.43061927655E+03  0.51332245799E+03  0.74794735266E+03  0.10073061805E+04  0.79420348693E+02 0.  0.
    5000000    2    1    2    0    0  0.43061927655E+03 -0.51332245799E+03 -0.14086396634E+03  0.91036899587E+03  0.59999678700E+03 0.  0.
        -24    2    4    4    0    0  0.12835226397E+03  0.43551402035E+02  0.14381633366E+03  0.21250168298E+03  0.78120414448E+02 0.  0.
         24    2    4    4    0    0  0.30226701258E+03 -0.55687386002E+03 -0.28468030000E+03  0.69786731289E+03  0.67097468829E+02 0.  0.
         11    1    3    3    0    0 -0.36403143608E+03  0.44537318906E+03  0.59818257751E+03  0.82987864175E+03  0.00000000000E+00 0. -1.
        -12    1    3    3    0    0 -0.66587840471E+02  0.67949268930E+02  0.14976477515E+03  0.17742753880E+03  0.00000000000E+00 0.  1.
         15    1    5    5    0    0  0.58530718874E+02  0.50002279456E+02  0.11097508522E+03  0.13507294426E+03  0.17770000000E+01 0. -1.
        -16    1    5    5    0    0  0.69821545100E+02 -0.64508774212E+01  0.32841248438E+02  0.77428738712E+02  0.00000000000E+00 0.  1.
          2    1    6    6  502    0  0.16740927830E+03 -0.34899871649E+03 -0.14443133116E+03  0.41314208209E+03  0.00000000000E+00 0. -1.
         -1    1    6    6    0  502  0.13485773428E+03 -0.20787514353E+03 -0.14024896884E+03  0.28472523080E+03  0.00000000000E+00 0.  1.
<mgrwt>
<rscale>  0 0.72616846E+03</rscale>
<asrwt>0</asrwt>
<pdfrwt beam="1">  1        1 0.19421220E+00 0.72616846E+03</pdfrwt>
<pdfrwt beam="2">  1       -2 0.10081475E+00 0.72616846E+03</pdfrwt>
<totfact> 0.70589955E+00</totfact>
</mgrwt>
</event>
<event>
12    3  0.1201947E-007  0.8610727E+03  0.7818608E-02  0.9475595E-01
         -2   -1    0    0    0  501 -0.00000000000E+00  0.00000000000E+00  0.34012085549E+03  0.34012085549E+03  0.00000000000E+00 0.  1.
          1   -1    0    0  501    0  0.00000000000E+00 -0.00000000000E+00 -0.28643333471E+04  0.28643333471E+04  0.00000000000E+00 0. -1.
        -24    2    1    2    0    0 -0.28123742742E+03  0.70876850040E+03 -0.19050164240E+04  0.20535333794E+04  0.80402031328E+02 0.  0.
    5000000    2    1    2    0    0  0.28123742742E+03 -0.70876850040E+03 -0.61919606758E+03  0.11509208232E+04  0.59980637999E+03 0.  0.
        -24    2    4    4    0    0 -0.17519785123E+03 -0.21645502469E+03 -0.14590614261E+03  0.32446736525E+03  0.80270815824E+02 0.  0.
         24    2    4    4    0    0  0.45643527865E+03 -0.49231347571E+03 -0.47328992498E+03  0.82645345797E+03  0.91193438095E+02 0.  0.
         13    1    3    3    0    0 -0.88450520367E+02  0.27255299885E+03 -0.62499154963E+03  0.68754859380E+03  0.00000000000E+00 0. -1.
        -14    1    3    3    0    0 -0.19278690705E+03  0.43621550155E+03 -0.12800248744E+04  0.13659847856E+04  0.00000000000E+00 0.  1.
         15    1    5    5    0    0 -0.99964346472E+02 -0.83155023619E+02 -0.10187552917E+03  0.16519506557E+03  0.17770000000E+01 0. -1.
        -16    1    5    5    0    0 -0.75233504756E+02 -0.13330000108E+03 -0.44030613444E+02  0.15927229968E+03  0.00000000000E+00 0.  1.
          4    1    6    6  502    0  0.19383011142E+03 -0.15556293088E+03 -0.20459526502E+03  0.32191483350E+03  0.00000000000E+00 0. -1.
         -3    1    6    6    0  502  0.26260516723E+03 -0.33675054483E+03 -0.26869465995E+03  0.50453862447E+03  0.00000000000E+00 0.  1.
<mgrwt>
<rscale>  0 0.86107272E+03</rscale>
<asrwt>0</asrwt>
<pdfrwt beam="1">  1        1 0.44066664E+00 0.86107272E+03</pdfrwt>
<pdfrwt beam="2">  1       -2 0.52326288E-01 0.86107272E+03</pdfrwt>
<totfact> 0.23704822E+00</totfact>
</mgrwt>
</event>
<event>
12    3  0.1201947E-007  0.5474829E+03  0.7818608E-02  0.1002078E+00
          1   -1    0    0  501    0  0.00000000000E+00  0.00000000000E+00  0.21697774466E+04  0.21697774466E+04  0.00000000000E+00 0. -1.
         -2   -1    0    0    0  501 -0.00000000000E+00 -0.00000000000E+00 -0.15728283697E+03  0.15728283697E+03  0.00000000000E+00 0.  1.
        -24    2    1    2    0    0 -0.41037380121E+03  0.75502590773E+02  0.90687247766E+03  0.10015224337E+04  0.80760117103E+02 0.  0.
    5000000    2    1    2    0    0  0.41037380121E+03 -0.75502590773E+02  0.11056221320E+04  0.13255378499E+04  0.60045232519E+03 0.  0.
        -24    2    4    4    0    0  0.52401425304E+03 -0.66401981955E+01  0.10167897769E+04  0.11466488342E+04  0.79417056699E+02 0.  0.
         24    2    4    4    0    0 -0.11364045184E+03 -0.68862392578E+02  0.88832355089E+02  0.17888901571E+03  0.80336238567E+02 0.  0.
         13    1    3    3    0    0 -0.93785189091E+02  0.37199518498E+02  0.15657105688E+03  0.18626315181E+03  0.00000000000E+00 0. -1.
        -14    1    3    3    0    0 -0.31658861212E+03  0.38303072275E+02  0.75030142078E+03  0.81525928188E+03  0.00000000000E+00 0.  1.
         15    1    5    5    0    0  0.85972211446E+02 -0.27248250599E+02  0.20547071159E+03  0.22439933010E+03  0.17770000000E+01 0. -1.
        -16    1    5    5    0    0  0.43804204160E+03  0.20608052404E+02  0.81131906529E+03  0.92224950406E+03  0.00000000000E+00 0.  1.
          2    1    6    6  502    0  0.43777326971E+01 -0.16962339589E+02  0.35071312771E+02  0.39203092829E+02  0.00000000000E+00 0. -1.
         -1    1    6    6    0  502 -0.11801818453E+03 -0.51900052989E+02  0.53761042317E+02  0.13968592288E+03  0.00000000000E+00 0.  1.
<mgrwt>
<rscale>  0 0.54748287E+03</rscale>
<asrwt>0</asrwt>
<pdfrwt beam="1">  1        1 0.33381189E+00 0.54748287E+03</pdfrwt>
<pdfrwt beam="2">  1       -2 0.24197361E-01 0.54748287E+03</pdfrwt>
<totfact> 0.32636673E+01</totfact>
</mgrwt>
</event>
<event>
12    3  0.1201947E-007  0.5593613E+03  0.7818608E-02  0.9993501E-01
         -2   -1    0    0    0  501 -0.00000000000E+00  0.00000000000E+00  0.31724918669E+03  0.31724918669E+03  0.00000000000E+00 0.  1.
          1   -1    0    0  501    0  0.00000000000E+00 -0.00000000000E+00 -0.11075208202E+04  0.11075208202E+04  0.00000000000E+00 0. -1.
        -24    2    1    2    0    0  0.94117045919E+02 -0.42516040414E+03 -0.26426594305E+03  0.51576477621E+03  0.80977948497E+02 0.  0.
    5000000    2    1    2    0    0 -0.94117045919E+02  0.42516040414E+03 -0.52600569048E+03  0.90900523070E+03  0.59999094613E+03 0.  0.
        -24    2    4    4    0    0 -0.11497216117E+03 -0.93312773382E+02 -0.28309929735E+03  0.33019976429E+03  0.83431412895E+02 0.  0.
         24    2    4    4    0    0  0.20855115253E+02  0.51847317752E+03 -0.24290639313E+03  0.57880546641E+03  0.82236734331E+02 0.  0.
         11    1    3    3    0    0  0.41147278062E+02 -0.22043761989E+03 -0.18220248974E+03  0.28893526961E+03  0.00000000000E+00 0. -1.
        -12    1    3    3    0    0  0.52969767856E+02 -0.20472278425E+03 -0.82063453315E+02  0.22682950661E+03  0.00000000000E+00 0.  1.
         15    1    5    5    0    0  0.41925107429E+00 -0.27438930851E+02 -0.15844572170E+02  0.31737657349E+02  0.17770000000E+01 0. -1.
        -16    1    5    5    0    0 -0.11539141225E+03 -0.65873842531E+02 -0.26725472518E+03  0.29846210694E+03  0.00000000000E+00 0.  1.
          2    1    6    6  502    0 -0.84035435650E+00  0.46410832603E+03 -0.19601247831E+03  0.50380366825E+03  0.00000000000E+00 0. -1.
         -1    1    6    6    0  502  0.21695469610E+02  0.54364851491E+02 -0.46893914827E+02  0.75001798159E+02  0.00000000000E+00 0.  1.
<mgrwt>
<rscale>  0 0.55936130E+03</rscale>
<asrwt>0</asrwt>
<pdfrwt beam="1">  1        1 0.17038782E+00 0.55936130E+03</pdfrwt>
<pdfrwt beam="2">  1       -2 0.48807566E-01 0.55936130E+03</pdfrwt>
<totfact> 0.45540978E+01</totfact>
</mgrwt>
</event>
<event>
12    3  0.1201947E-007  0.2867441E+04  0.7818608E-02  0.8282631E-01
         -2   -1    0    0    0  501 -0.00000000000E+00  0.00000000000E+00  0.28515142645E+04  0.28515142645E+04  0.00000000000E+00 0.  1.
          1   -1    0    0  501    0  0.00000000000E+00 -0.00000000000E+00 -0.33729685367E+04  0.33729685367E+04  0.00000000000E+00 0. -1.
        -24    2    1    2    0    0 -0.24711114347E+04  0.14469681460E+04  0.85728071146E+03  0.29901134205E+04  0.75759559920E+02 0.  0.
    5000000    2    1    2    0    0  0.24711114347E+04 -0.14469681460E+04 -0.13787349836E+04  0.32343693807E+04  0.60010548886E+03 0.  0.
        -24    2    4    4    0    0  0.64048842910E+03 -0.46080885534E+03 -0.66284419731E+03  0.10336554463E+04  0.80690289589E+02 0.  0.
         24    2    4    4    0    0  0.18306230056E+04 -0.98615929061E+03 -0.71589078629E+03  0.22007139344E+04  0.83375464095E+02 0.  0.
         13    1    3    3    0    0 -0.14257434447E+04  0.82481945007E+03  0.45502616278E+03  0.17088359501E+04  0.00000000000E+00 0. -1.
        -14    1    3    3    0    0 -0.10453679900E+04  0.62214869588E+03  0.40225454868E+03  0.12812774704E+04  0.00000000000E+00 0.  1.
         15    1    5    5    0    0  0.50839865963E+03 -0.39212994970E+03 -0.56712905366E+03  0.85666423749E+03  0.17770000000E+01 0. -1.
        -16    1    5    5    0    0  0.13208976948E+03 -0.68678905643E+02 -0.95715143649E+02  0.17699120884E+03  0.00000000000E+00 0.  1.
          2    1    6    6  502    0  0.16320267501E+04 -0.90108094585E+03 -0.62381825892E+03  0.19658604742E+04  0.00000000000E+00 0. -1.
         -1    1    6    6    0  502  0.19859625553E+03 -0.85078344758E+02 -0.92072527368E+02  0.23485346017E+03  0.00000000000E+00 0.  1.
<mgrwt>
<rscale>  0 0.28674414E+04</rscale>
<asrwt>0</asrwt>
<pdfrwt beam="1">  1        1 0.51891823E+00 0.28674414E+04</pdfrwt>
<pdfrwt beam="2">  1       -2 0.43869450E+00 0.28674414E+04</pdfrwt>
<totfact> 0.90708404E-04</totfact>
</mgrwt>
</event>
<event>
12    3  0.1201947E-007  0.1406039E+04  0.7818608E-02  0.8949459E-01
          1   -1    0    0  501    0  0.00000000000E+00  0.00000000000E+00  0.96618222309E+03  0.96618222309E+03  0.00000000000E+00 0. -1.
         -2   -1    0    0    0  501 -0.00000000000E+00 -0.00000000000E+00 -0.21562692314E+04  0.21562692314E+04  0.00000000000E+00 0.  1.
        -24    2    1    2    0    0 -0.12462449068E+04 -0.51777665585E+03 -0.25889520778E+03  0.13764329467E+04  0.79510345250E+02 0.  0.
    5000000    2    1    2    0    0  0.12462449068E+04  0.51777665585E+03 -0.93119180053E+03  0.17460185078E+04  0.60020282153E+03 0.  0.
        -24    2    4    4    0    0  0.17110528217E+03  0.31530847431E+03 -0.33698845324E+03  0.49873766734E+03  0.80508332781E+02 0.  0.
         24    2    4    4    0    0  0.10751396247E+04  0.20246818154E+03 -0.59420334730E+03  0.12472808405E+04  0.75586373949E+02 0.  0.
         11    1    3    3    0    0 -0.52133143644E+03 -0.22583436320E+03 -0.70036918699E+02  0.57244457915E+03  0.00000000000E+00 0. -1.
        -12    1    3    3    0    0 -0.72491347041E+03 -0.29194229264E+03 -0.18885828908E+03  0.80398836756E+03  0.00000000000E+00 0.  1.
         15    1    5    5    0    0  0.10874769638E+03  0.11745217246E+03 -0.15360952227E+03  0.22185607349E+03  0.17770000000E+01 0. -1.
        -16    1    5    5    0    0  0.62357585782E+02  0.19785630185E+03 -0.18337893097E+03  0.27688159385E+03  0.00000000000E+00 0.  1.
          2    1    6    6  502    0  0.65331759954E+03  0.10121350389E+03 -0.32433025122E+03  0.73638181068E+03  0.00000000000E+00 0. -1.
         -1    1    6    6    0  502  0.42182202514E+03  0.10125467765E+03 -0.26987309608E+03  0.51089902977E+03  0.00000000000E+00 0.  1.
<mgrwt>
<rscale>  0 0.14060389E+04</rscale>
<asrwt>0</asrwt>
<pdfrwt beam="1">  1        1 0.14864342E+00 0.14060389E+04</pdfrwt>
<pdfrwt beam="2">  1       -2 0.33173373E+00 0.14060389E+04</pdfrwt>
<totfact> 0.27420333E-01</totfact>
</mgrwt>
</event>
<event>
12    3  0.1201947E-007  0.1044398E+04  0.7818608E-02  0.9261146E-01
         -2   -1    0    0    0  501 -0.00000000000E+00  0.00000000000E+00  0.77356878960E+03  0.77356878960E+03  0.00000000000E+00 0.  1.
          1   -1    0    0  501    0  0.00000000000E+00 -0.00000000000E+00 -0.14868378428E+04  0.14868378428E+04  0.00000000000E+00 0. -1.
        -24    2    1    2    0    0  0.96122302150E+03 -0.68128269831E+02 -0.10554331814E+03  0.97283248466E+03  0.81685329145E+02 0.  0.
    5000000    2    1    2    0    0 -0.96122302150E+03  0.68128269831E+02 -0.60772573503E+03  0.12875741477E+04  0.59993787896E+03 0.  0.
        -24    2    4    4    0    0 -0.10073013034E+04 -0.10750190702E+02 -0.57052845088E+03  0.11605015372E+04  0.80558191423E+02 0.  0.
         24    2    4    4    0    0  0.46078281880E+02  0.78878460533E+02 -0.37197284150E+02  0.12707261050E+03  0.80117356384E+02 0.  0.
         13    1    3    3    0    0  0.76245714969E+02  0.16593665991E+02 -0.10817996672E+02  0.78776823077E+02  0.00000000000E+00 0. -1.
        -14    1    3    3    0    0  0.88497730653E+03 -0.84721935822E+02 -0.94725321467E+02  0.89405566159E+03  0.00000000000E+00 0.  1.
         15    1    5    5    0    0 -0.49887348097E+03 -0.22443376127E+02 -0.24083683185E+03  0.55442221497E+03  0.17770000000E+01 0. -1.
        -16    1    5    5    0    0 -0.50842782242E+03  0.11693185425E+02 -0.32969161903E+03  0.60607932224E+03  0.00000000000E+00 0.  1.
          2    1    6    6  502    0  0.16560548231E+02  0.82422533082E+02 -0.64717763177E+01  0.84318500971E+02  0.00000000000E+00 0. -1.
         -3    1    6    6    0  502  0.29517733650E+02 -0.35440725486E+01 -0.30725507832E+02  0.42754109529E+02  0.00000000000E+00 0.  1.
<mgrwt>
<rscale>  0 0.10443985E+04</rscale>
<asrwt>0</asrwt>
<pdfrwt beam="1">  1        1 0.22874428E+00 0.10443985E+04</pdfrwt>
<pdfrwt beam="2">  1       -2 0.11901058E+00 0.10443985E+04</pdfrwt>
<totfact> 0.31590820E+00</totfact>
</mgrwt>
</event>
<event>
12    3  0.1201947E-007  0.5529874E+03  0.7818608E-02  0.1000805E+00
         -2   -1    0    0    0  501 -0.00000000000E+00  0.00000000000E+00  0.16495240294E+03  0.16495240294E+03  0.00000000000E+00 0.  1.
          1   -1    0    0  501    0  0.00000000000E+00 -0.00000000000E+00 -0.25674395678E+04  0.25674395678E+04  0.00000000000E+00 0. -1.
        -24    2    1    2    0    0  0.96124409485E+02 -0.49332530749E+03 -0.11124272479E+04  0.12234283938E+04  0.81687770775E+02 0.  0.
    5000000    2    1    2    0    0 -0.96124409485E+02  0.49332530749E+03 -0.12900599170E+04  0.15089635770E+04  0.60008893171E+03 0.  0.
        -24    2    4    4    0    0 -0.66503801890E+02  0.50935558890E+03 -0.13205522142E+04  0.14192381161E+04  0.80701970378E+02 0.  0.
         24    2    4    4    0    0 -0.29620607594E+02 -0.16030281408E+02  0.30492297166E+02  0.89725460912E+02  0.77372655591E+02 0.  0.
         11    1    3    3    0    0  0.69848097026E+02 -0.46616928964E+03 -0.10259055632E+04  0.11290149636E+04  0.00000000000E+00 0. -1.
        -12    1    3    3    0    0  0.26276312459E+02 -0.27156017851E+02 -0.86521684629E+02  0.94413430258E+02  0.00000000000E+00 0.  1.
         15    1    5    5    0    0 -0.31458197328E+01  0.20237212508E+03 -0.60749546293E+03  0.64032668881E+03  0.17770000000E+01 0. -1.
        -16    1    5    5    0    0 -0.63357982157E+02  0.30698346382E+03 -0.71305675126E+03  0.77891142724E+03  0.00000000000E+00 0.  1.
          4    1    6    6  502    0 -0.32728279117E+02 -0.42871380514E+02  0.31908876239E+02  0.62667949575E+02  0.00000000000E+00 0. -1.
         -3    1    6    6    0  502  0.31076715224E+01  0.26841099106E+02 -0.14165790739E+01  0.27057511337E+02  0.00000000000E+00 0.  1.
<mgrwt>
<rscale>  0 0.55298742E+03</rscale>
<asrwt>0</asrwt>
<pdfrwt beam="1">  1        1 0.39499067E+00 0.55298742E+03</pdfrwt>
<pdfrwt beam="2">  1       -2 0.25377295E-01 0.55298742E+03</pdfrwt>
<totfact> 0.16175805E+01</totfact>
</mgrwt>
</event>
<event>
12    3  0.1201947E-007  0.1215411E+04  0.7818608E-02  0.9099473E-01
         -2   -1    0    0    0  501 -0.00000000000E+00  0.00000000000E+00  0.47269973284E+03  0.47269973284E+03  0.00000000000E+00 0.  1.
          1   -1    0    0  501    0  0.00000000000E+00 -0.00000000000E+00 -0.34346542949E+04  0.34346542949E+04  0.00000000000E+00 0. -1.
        -24    2    1    2    0    0 -0.11999224393E+04  0.73927156363E+02 -0.13900540655E+04  0.18394550614E+04  0.77881533131E+02 0.  0.
    5000000    2    1    2    0    0  0.11999224393E+04 -0.73927156363E+02 -0.15719004965E+04  0.20678989663E+04  0.60004656414E+03 0.  0.
        -24    2    4    4    0    0  0.34864158016E+02 -0.35804487018E+02  0.15967792242E+02  0.96445173831E+02  0.80927315298E+02 0.  0.
         24    2    4    4    0    0  0.11650582813E+04 -0.38122669344E+02 -0.15878682888E+04  0.19714537925E+04  0.80561881345E+02 0.  0.
         13    1    3    3    0    0 -0.10017419310E+04  0.56289660912E+02 -0.12016228542E+04  0.15654241936E+04  0.00000000000E+00 0. -1.
        -14    1    3    3    0    0 -0.19818050825E+03  0.17637495450E+02 -0.18843121127E+03  0.27403086774E+03  0.00000000000E+00 0.  1.
         15    1    5    5    0    0  0.31590892549E+02 -0.53704040707E+01  0.44321766640E+02  0.54721133568E+02  0.17770000000E+01 0. -1.
        -16    1    5    5    0    0  0.32732654666E+01 -0.30434082947E+02 -0.28353974398E+02  0.41724040262E+02  0.00000000000E+00 0.  1.
          2    1    6    6  502    0  0.10313898050E+04 -0.27757192892E+02 -0.13602096353E+04  0.17072509023E+04  0.00000000000E+00 0. -1.
         -1    1    6    6    0  502  0.13366847625E+03 -0.10365476453E+02 -0.22765865350E+03  0.26420289013E+03  0.00000000000E+00 0.  1.
<mgrwt>
<rscale>  0 0.12154110E+04</rscale>
<asrwt>0</asrwt>
<pdfrwt beam="1">  1        1 0.52840834E+00 0.12154110E+04</pdfrwt>
<pdfrwt beam="2">  1       -2 0.72723038E-01 0.12154110E+04</pdfrwt>
<totfact> 0.42247643E-01</totfact>
</mgrwt>
</event>
<event>
12    3  0.1201947E-007  0.9392438E+03  0.7818608E-02  0.9377812E-01
         -2   -1    0    0    0  501 -0.00000000000E+00  0.00000000000E+00  0.11439022650E+04  0.11439022650E+04  0.00000000000E+00 0.  1.
          1   -1    0    0  501    0  0.00000000000E+00 -0.00000000000E+00 -0.83448824520E+03  0.83448824520E+03  0.00000000000E+00 0. -1.
        -24    2    1    2    0    0 -0.77559048264E+03  0.38706599296E+03  0.31007043175E+03  0.92418843987E+03  0.81362891277E+02 0.  0.
    5000000    2    1    2    0    0  0.77559048264E+03 -0.38706599296E+03 -0.65641195247E+00  0.10542020703E+04  0.59998407857E+03 0.  0.
        -24    2    4    4    0    0  0.51797357622E+03 -0.49952915430E+03  0.12816632366E+03  0.73513684314E+03  0.78572068578E+02 0.  0.
         24    2    4    4    0    0  0.25761690642E+03  0.11246316134E+03 -0.12882273561E+03  0.31906522719E+03  0.78694910008E+02 0.  0.
         13    1    3    3    0    0 -0.31931323138E+03  0.18293751985E+03  0.16796677612E+03  0.40452430555E+03  0.00000000000E+00 0. -1.
        -14    1    3    3    0    0 -0.45627725126E+03  0.20412847311E+03  0.14210365563E+03  0.51966413432E+03  0.00000000000E+00 0.  1.
         15    1    5    5    0    0  0.10200696652E+02  0.12955486675E+01 -0.37941259895E+00  0.10441951037E+02  0.17770000000E+01 0.  1.
        -16    1    5    5    0    0  0.50777287957E+03 -0.50082470297E+03  0.12854573626E+03  0.72469489210E+03  0.00000000000E+00 0.  1.
          4    1    6    6  502    0  0.43944764573E+02  0.45049765789E+02 -0.51477924621E+01  0.63143673462E+02  0.00000000000E+00 0. -1.
         -3    1    6    6    0  502  0.21367214184E+03  0.67413395551E+02 -0.12367494315E+03  0.25592155373E+03  0.00000000000E+00 0.  1.
<mgrwt>
<rscale>  0 0.93924376E+03</rscale>
<asrwt>0</asrwt>
<pdfrwt beam="1">  1        1 0.12838281E+00 0.93924376E+03</pdfrwt>
<pdfrwt beam="2">  1       -2 0.17598496E+00 0.93924376E+03</pdfrwt>
<totfact> 0.35071868E+00</totfact>
</mgrwt>
</event>
<event>
12    3  0.1201947E-007  0.4287959E+03  0.7818608E-02  0.1034241E+00
          1   -1    0    0  501    0  0.00000000000E+00  0.00000000000E+00  0.11198833372E+04  0.11198833372E+04  0.00000000000E+00 0. -1.
         -2   -1    0    0    0  501 -0.00000000000E+00 -0.00000000000E+00 -0.32630681658E+03  0.32630681658E+03  0.00000000000E+00 0.  1.
        -24    2    1    2    0    0  0.28807474676E+03 -0.27576325728E+03  0.48603240374E+02  0.40980084815E+03  0.80882794138E+02 0.  0.
    5000000    2    1    2    0    0 -0.28807474676E+03  0.27576325728E+03  0.74497328024E+03  0.10363893056E+04  0.60007097144E+03 0.  0.
        -24    2    4    4    0    0 -0.56286959293E+02  0.16801753059E+03  0.74340569676E+03  0.76832603950E+03  0.79213386632E+02 0.  0.
         24    2    4    4    0    0 -0.23178778747E+03  0.10774572669E+03  0.15675834758E+01  0.26806326613E+03  0.80751082286E+02 0.  0.
         11    1    3    3    0    0  0.23268494890E+02 -0.32546400583E+02  0.29563488940E+02  0.49746265425E+02  0.00000000000E+00 0. -1.
        -12    1    3    3    0    0  0.26480625187E+03 -0.24321685670E+03  0.19039751434E+02  0.36005458273E+03  0.00000000000E+00 0.  1.
         15    1    5    5    0    0 -0.26779749218E+02  0.15889807255E+03  0.57711412435E+03  0.59919080658E+03  0.17770000000E+01 0. -1.
        -16    1    5    5    0    0 -0.29507210075E+02  0.91194580356E+01  0.16629157241E+03  0.16913523292E+03  0.00000000000E+00 0.  1.
          4    1    6    6  502    0 -0.58829341186E+02  0.65333376239E+02 -0.15093624147E+02  0.89202908726E+02  0.00000000000E+00 0. -1.
         -3    1    6    6    0  502 -0.17295844628E+03  0.42412350451E+02  0.16661207622E+02  0.17886035740E+03  0.00000000000E+00 0.  1.
<mgrwt>
<rscale>  0 0.42879590E+03</rscale>
<asrwt>0</asrwt>
<pdfrwt beam="1">  1        1 0.17228974E+00 0.42879590E+03</pdfrwt>
<pdfrwt beam="2">  1       -2 0.50201049E-01 0.42879590E+03</pdfrwt>
<totfact> 0.42939482E+01</totfact>
</mgrwt>
</event>
<event>
12    3  0.1201947E-007  0.5435097E+03  0.7818608E-02  0.1003007E+00
         -2   -1    0    0    0  501 -0.00000000000E+00  0.00000000000E+00  0.48356686977E+03  0.48356686977E+03  0.00000000000E+00 0.  1.
          1   -1    0    0  501    0  0.00000000000E+00 -0.00000000000E+00 -0.76853646945E+03  0.76853646945E+03  0.00000000000E+00 0. -1.
        -24    2    1    2    0    0 -0.19734461240E+03 -0.39388746873E+03  0.18351705725E+02  0.44818470328E+03  0.80252782415E+02 0.  0.
    5000000    2    1    2    0    0  0.19734461240E+03  0.39388746873E+03 -0.30332130540E+03  0.80391863594E+03  0.60015758334E+03 0.  0.
        -24    2    4    4    0    0  0.22898117669E+03  0.48453880396E+03 -0.37557135197E+03  0.65935302084E+03  0.80512942148E+02 0.  0.
         24    2    4    4    0    0 -0.31636564284E+02 -0.90651335224E+02  0.72250046571E+02  0.14456561510E+03  0.80377926466E+02 0.  0.
         11    1    3    3    0    0 -0.62919176217E+02 -0.12902697464E+03 -0.31614237237E+02  0.14699062186E+03  0.00000000000E+00 0. -1.
        -12    1    3    3    0    0 -0.13442543619E+03 -0.26486049410E+03  0.49965942962E+02  0.30119408142E+03  0.00000000000E+00 0.  1.
         15    1    5    5    0    0  0.98131461426E+02  0.12619953201E+03 -0.97171663331E+02  0.18708713340E+03  0.17770000000E+01 0. -1.
        -16    1    5    5    0    0  0.13084971526E+03  0.35833927194E+03 -0.27839968864E+03  0.47226588744E+03  0.00000000000E+00 0.  1.
          4    1    6    6  502    0  0.10702179046E+02 -0.21347097584E+02  0.57179511826E+02  0.61965569345E+02  0.00000000000E+00 0. -1.
         -3    1    6    6    0  502 -0.42338743331E+02 -0.69304237640E+02  0.15070534745E+02  0.82600045758E+02  0.00000000000E+00 0.  1.
<mgrwt>
<rscale>  0 0.54350967E+03</rscale>
<asrwt>0</asrwt>
<pdfrwt beam="1">  1        1 0.11823638E+00 0.54350967E+03</pdfrwt>
<pdfrwt beam="2">  1       -2 0.74394903E-01 0.54350967E+03</pdfrwt>
<totfact> 0.34965172E+01</totfact>
</mgrwt>
</event>
<event>
12    3  0.1201947E-007  0.4413945E+03  0.7818608E-02  0.1030320E+00
          1   -1    0    0  501    0  0.00000000000E+00  0.00000000000E+00  0.16088481321E+04  0.16088481321E+04  0.00000000000E+00 0. -1.
         -2   -1    0    0    0  501 -0.00000000000E+00 -0.00000000000E+00 -0.14682184646E+03  0.14682184646E+03  0.00000000000E+00 0.  1.
        -24    2    1    2    0    0  0.21093417871E+03 -0.20089745418E+03  0.44846436916E+03  0.54259120743E+03  0.91825449267E+02 0.  0.
    5000000    2    1    2    0    0 -0.21093417871E+03  0.20089745418E+03  0.10135619165E+04  0.12130787711E+04  0.59949923397E+03 0.  0.
        -24    2    4    4    0    0 -0.68418921811E+01 -0.15518857227E+03  0.60122093051E+03  0.62554749232E+03  0.75582758690E+02 0.  0.
         24    2    4    4    0    0 -0.20409228653E+03  0.35608602645E+03  0.41234098594E+03  0.58753127877E+03  0.81957276611E+02 0.  0.
         11    1    3    3    0    0  0.15206940075E+03 -0.91429787671E+02  0.30421581071E+03  0.35218144216E+03  0.00000000000E+00 0. -1.
        -12    1    3    3    0    0  0.58864777969E+02 -0.10946766651E+03  0.14424855845E+03  0.19040976527E+03  0.00000000000E+00 0.  1.
         15    1    5    5    0    0 -0.14759515929E+02 -0.31339563981E+00  0.27799922883E+02  0.31526734188E+02  0.17770000000E+01 0. -1.
        -16    1    5    5    0    0  0.79176237475E+01 -0.15487517663E+03  0.57342100762E+03  0.59402075813E+03  0.00000000000E+00 0.  1.
          4    1    6    6  502    0 -0.15151173822E+03  0.24239861777E+03  0.33472781459E+03  0.44017679014E+03  0.00000000000E+00 0. -1.
         -1    1    6    6    0  502 -0.52580548312E+02  0.11368740868E+03  0.77613171356E+02  0.14735448863E+03  0.00000000000E+00 0.  1.
<mgrwt>
<rscale>  0 0.44139454E+03</rscale>
<asrwt>0</asrwt>
<pdfrwt beam="1">  1        1 0.24751508E+00 0.44139454E+03</pdfrwt>
<pdfrwt beam="2">  1       -2 0.22587978E-01 0.44139454E+03</pdfrwt>
<totfact> 0.88368233E+01</totfact>
</mgrwt>
</event>
<event>
12    3  0.1201947E-007  0.1472360E+04  0.7818608E-02  0.8903044E-01
         -2   -1    0    0    0  501 -0.00000000000E+00  0.00000000000E+00  0.16295787656E+04  0.16295787656E+04  0.00000000000E+00 0.  1.
          1   -1    0    0  501    0  0.00000000000E+00 -0.00000000000E+00 -0.15545792785E+04  0.15545792785E+04  0.00000000000E+00 0. -1.
        -24    2    1    2    0    0 -0.80014953184E+03 -0.12059062429E+04 -0.47262543489E+03  0.15245340736E+04  0.79876153188E+02 0.  0.
    5000000    2    1    2    0    0  0.80014953184E+03  0.12059062429E+04  0.54762492190E+03  0.16596239705E+04  0.60000794038E+03 0.  0.
        -24    2    4    4    0    0  0.81516049498E+03  0.11372045080E+04  0.35784474255E+03  0.14463761186E+04  0.78932193441E+02 0.  0.
         24    2    4    4    0    0 -0.15010963137E+02  0.68701734928E+02  0.18978017935E+03  0.21324785194E+03  0.67177916657E+02 0.  0.
         13    1    3    3    0    0 -0.32691916409E+03 -0.42421527576E+03 -0.18226828813E+03  0.56573533467E+03  0.00000000000E+00 0. -1.
        -14    1    3    3    0    0 -0.47323036775E+03 -0.78169096713E+03 -0.29035714676E+03  0.95879873891E+03  0.00000000000E+00 0.  1.
         15    1    5    5    0    0  0.13366001864E+03  0.21997402630E+03  0.41762747140E+02  0.26076974059E+03  0.17770000000E+01 0. -1.
        -16    1    5    5    0    0  0.68150047634E+03  0.91723048166E+03  0.31608199541E+03  0.11856063780E+04  0.00000000000E+00 0.  1.
          4    1    6    6  502    0 -0.30227838747E+02  0.73372580353E+02  0.13930133226E+03  0.16031880411E+03  0.00000000000E+00 0. -1.
         -3    1    6    6    0  502  0.15216875610E+02 -0.46708454246E+01  0.50478847085E+02  0.52929047821E+02  0.00000000000E+00 0.  1.
<mgrwt>
<rscale>  0 0.14723596E+04</rscale>
<asrwt>0</asrwt>
<pdfrwt beam="1">  1        1 0.23916604E+00 0.14723596E+04</pdfrwt>
<pdfrwt beam="2">  1       -2 0.25070443E+00 0.14723596E+04</pdfrwt>
<totfact> 0.31606853E-01</totfact>
</mgrwt>
</event>
<event>
12    3  0.1201947E-007  0.1737113E+04  0.7818608E-02  0.8740476E-01
          1   -1    0    0  501    0  0.00000000000E+00  0.00000000000E+00  0.85504782640E+03  0.85504782640E+03  0.00000000000E+00 0. -1.
         -2   -1    0    0    0  501 -0.00000000000E+00 -0.00000000000E+00 -0.39190622695E+04  0.39190622695E+04  0.00000000000E+00 0.  1.
        -24    2    1    2    0    0 -0.84468578009E+03  0.15060517309E+04 -0.20572604032E+04  0.26870430458E+04  0.78702479692E+02 0.  0.
    5000000    2    1    2    0    0  0.84468578009E+03 -0.15060517309E+04 -0.10067540399E+04  0.20870670501E+04  0.60050752833E+03 0.  0.
        -24    2    4    4    0    0  0.13301725748E+02 -0.11119097518E+03  0.51633174291E+02  0.14718284609E+03  0.80351954713E+02 0.  0.
         24    2    4    4    0    0  0.83138405434E+03 -0.13948607557E+04 -0.10583872142E+04  0.19398842040E+04  0.78302338445E+02 0.  0.
         13    1    3    3    0    0 -0.63172448122E+03  0.10593639326E+04 -0.14465480296E+04  0.19010073551E+04  0.00000000000E+00 0. -1.
        -14    1    3    3    0    0 -0.21296129887E+03  0.44668779823E+03 -0.61071237362E+03  0.78603569078E+03  0.00000000000E+00 0.  1.
         15    1    5    5    0    0  0.13589138419E+02 -0.43419224029E+01  0.36547988570E+02  0.39273784776E+02  0.17770000000E+01 0. -1.
        -16    1    5    5    0    0 -0.28741267151E+00 -0.10684905277E+03  0.15085185721E+02  0.10790906131E+03  0.00000000000E+00 0.  1.
          4    1    6    6  502    0  0.58359653671E+03 -0.10259028536E+04 -0.73826550353E+03  0.13921557156E+04  0.00000000000E+00 0. -1.
         -3    1    6    6    0  502  0.24778751763E+03 -0.36895790207E+03 -0.32012171064E+03  0.54772848840E+03  0.00000000000E+00 0.  1.
<mgrwt>
<rscale>  0 0.17371125E+04</rscale>
<asrwt>0</asrwt>
<pdfrwt beam="1">  1        1 0.13154582E+00 0.17371125E+04</pdfrwt>
<pdfrwt beam="2">  1       -2 0.60293267E+00 0.17371125E+04</pdfrwt>
<totfact> 0.77301833E-03</totfact>
</mgrwt>
</event>
<event>
12    3  0.1201947E-007  0.1430164E+04  0.7818608E-02  0.8932269E-01
         -2   -1    0    0    0  501 -0.00000000000E+00  0.00000000000E+00  0.12645580820E+04  0.12645580820E+04  0.00000000000E+00 0.  1.
          1   -1    0    0  501    0  0.00000000000E+00 -0.00000000000E+00 -0.23244154392E+04  0.23244154392E+04  0.00000000000E+00 0. -1.
        -24    2    1    2    0    0 -0.10225739178E+03 -0.14227643593E+04  0.37706830313E+03  0.14772249766E+04  0.72788254549E+02 0.  0.
    5000000    2    1    2    0    0  0.10225739178E+03  0.14227643593E+04 -0.14369256604E+04  0.21117485446E+04  0.60000963814E+03 0.  0.
        -24    2    4    4    0    0  0.12597832568E+03  0.12184495826E+04 -0.87388170610E+03  0.15067869687E+04  0.79043083892E+02 0.  0.
         24    2    4    4    0    0 -0.23720933900E+02  0.20431477675E+03 -0.56304395431E+03  0.60496157588E+03  0.81564717287E+02 0.  0.
         13    1    3    3    0    0 -0.68304332723E+02 -0.87865009818E+03  0.26904203790E+03  0.92145270907E+03  0.00000000000E+00 0. -1.
        -14    1    3    3    0    0 -0.33953059058E+02 -0.54411426113E+03  0.10802626523E+03  0.55577226753E+03  0.00000000000E+00 0.  1.
         15    1    5    5    0    0  0.41493786837E-01  0.16017630267E+03 -0.14069228665E+03  0.21319926574E+03  0.17770000000E+01 0. -1.
        -16    1    5    5    0    0  0.12593683189E+03  0.10582732799E+04 -0.73318941945E+03  0.12935877030E+04  0.00000000000E+00 0.  1.
          2    1    6    6  502    0 -0.12508156462E+02  0.18622786363E+03 -0.41050375867E+03  0.45094412853E+03  0.00000000000E+00 0. -1.
         -1    1    6    6    0  502 -0.11212777438E+02  0.18086913117E+02 -0.15254019564E+03  0.15401744735E+03  0.00000000000E+00 0.  1.
<mgrwt>
<rscale>  0 0.14301640E+04</rscale>
<asrwt>0</asrwt>
<pdfrwt beam="1">  1        1 0.35760237E+00 0.14301640E+04</pdfrwt>
<pdfrwt beam="2">  1       -2 0.19454740E+00 0.14301640E+04</pdfrwt>
<totfact> 0.21551549E-01</totfact>
</mgrwt>
</event>
<event>
12    3  0.1201947E-007  0.8327811E+03  0.7818608E-02  0.9513743E-01
         -2   -1    0    0    0  501 -0.00000000000E+00  0.00000000000E+00  0.44068552788E+03  0.44068552788E+03  0.00000000000E+00 0.  1.
          1   -1    0    0  501    0  0.00000000000E+00 -0.00000000000E+00 -0.17695575533E+04  0.17695575533E+04  0.00000000000E+00 0. -1.
        -24    2    1    2    0    0 -0.70416138368E+03 -0.21096599230E+03 -0.26638817008E+03  0.78573470771E+03  0.77887544343E+02 0.  0.
    5000000    2    1    2    0    0  0.70416138368E+03  0.21096599230E+03 -0.10624838553E+04  0.14245083735E+04  0.60000188255E+03 0.  0.
        -24    2    4    4    0    0  0.14897150418E+03 -0.18698337483E+03 -0.37580347925E+03  0.45268726928E+03  0.80883973884E+02 0.  0.
         24    2    4    4    0    0  0.55518987950E+03  0.39794936713E+03 -0.68668037608E+03  0.97182110419E+03  0.79415480481E+02 0.  0.
         13    1    3    3    0    0 -0.20585032920E+03 -0.97378908496E+02 -0.70442298523E+02  0.23836763051E+03  0.00000000000E+00 0. -1.
        -14    1    3    3    0    0 -0.49831105448E+03 -0.11358708380E+03 -0.19594587156E+03  0.54736707720E+03  0.00000000000E+00 0.  1.
         15    1    5    5    0    0  0.11545282580E+03 -0.13262886921E+03 -0.20361664863E+03  0.26904027442E+03  0.17770000000E+01 0. -1.
        -16    1    5    5    0    0  0.33518678378E+02 -0.54354505626E+02 -0.17218683062E+03  0.18364699486E+03  0.00000000000E+00 0.  1.
          2    1    6    6  502    0  0.34303237695E+03  0.28899370009E+03 -0.42812791033E+03  0.62006618834E+03  0.00000000000E+00 0. -1.
         -1    1    6    6    0  502  0.21215750256E+03  0.10895566705E+03 -0.25855246576E+03  0.35175491585E+03  0.00000000000E+00 0.  1.
<mgrwt>
<rscale>  0 0.83278110E+03</rscale>
<asrwt>0</asrwt>
<pdfrwt beam="1">  1        1 0.27223963E+00 0.83278110E+03</pdfrwt>
<pdfrwt beam="2">  1       -2 0.67797773E-01 0.83278110E+03</pdfrwt>
<totfact> 0.76692924E+00</totfact>
</mgrwt>
</event>
<event>
12    3  0.1201947E-007  0.9304490E+03  0.7818608E-02  0.9388299E-01
         -2   -1    0    0    0  501 -0.00000000000E+00  0.00000000000E+00  0.47944154373E+03  0.47944154373E+03  0.00000000000E+00 0.  1.
          1   -1    0    0  501    0  0.00000000000E+00 -0.00000000000E+00 -0.23848364308E+04  0.23848364308E+04  0.00000000000E+00 0. -1.
        -24    2    1    2    0    0  0.30106006758E+03  0.85779366328E+03 -0.13819221759E+04  0.16557244787E+04  0.72577655451E+02 0.  0.
    5000000    2    1    2    0    0 -0.30106006758E+03 -0.85779366328E+03 -0.52347271117E+03  0.12085534958E+04  0.60010894003E+03 0.  0.
        -24    2    4    4    0    0 -0.25910417935E+03 -0.35355453900E+03 -0.53453467404E+03  0.69608292118E+03  0.81659828531E+02 0.  0.
         24    2    4    4    0    0 -0.41955888227E+02 -0.50423912428E+03  0.11061962869E+02  0.51247057466E+03  0.80537766661E+02 0.  0.
         13    1    3    3    0    0  0.28678060408E+03  0.78459917073E+03 -0.12966145084E+04  0.15424163371E+04  0.00000000000E+00 0. -1.
        -14    1    3    3    0    0  0.14279463497E+02  0.73194492553E+02 -0.85307667543E+02  0.11330814163E+03  0.00000000000E+00 0.  1.
         15    1    5    5    0    0 -0.23756742037E+03 -0.31562789305E+03 -0.43614610492E+03  0.58846055828E+03  0.17770000000E+01 0. -1.
        -16    1    5    5    0    0 -0.21536758985E+02 -0.37926645950E+02 -0.98388569122E+02  0.10762236289E+03  0.00000000000E+00 0.  1.
          4    1    6    6  502    0 -0.40756892415E+02 -0.50733729127E+03  0.10371072927E+02  0.50907741116E+03  0.00000000000E+00 0. -1.
         -3    1    6    6    0  502 -0.11989958128E+01  0.30981669916E+01  0.69088994204E+00  0.33931635060E+01  0.00000000000E+00 0.  1.
<mgrwt>
<rscale>  0 0.93044903E+03</rscale>
<asrwt>0</asrwt>
<pdfrwt beam="1">  1        1 0.36689792E+00 0.93044903E+03</pdfrwt>
<pdfrwt beam="2">  1       -2 0.73760236E-01 0.93044903E+03</pdfrwt>
<totfact> 0.24224825E+00</totfact>
</mgrwt>
</event>
<event>
12    3  0.1201947E-007  0.3069717E+03  0.7818608E-02  0.1081807E+00
          1   -1    0    0  501    0  0.00000000000E+00  0.00000000000E+00  0.44595928763E+03  0.44595928763E+03  0.00000000000E+00 0. -1.
         -2   -1    0    0    0  501 -0.00000000000E+00 -0.00000000000E+00 -0.38772991212E+03  0.38772991212E+03  0.00000000000E+00 0.  1.
        -24    2    1    2    0    0  0.18097945313E+03  0.11222297992E+02 -0.30667016602E+02  0.20055657922E+03  0.80018579942E+02 0.  0.
    5000000    2    1    2    0    0 -0.18097945313E+03 -0.11222297992E+02  0.88896392107E+02  0.63313262052E+03  0.60006236693E+03 0.  0.
        -24    2    4    4    0    0 -0.21672988231E+02  0.16941166025E+03  0.26454370584E+03  0.32535275390E+03  0.81859716147E+02 0.  0.
         24    2    4    4    0    0 -0.15930646490E+03 -0.18063395824E+03 -0.17564731373E+03  0.30777986662E+03  0.76611297127E+02 0.  0.
         13    1    3    3    0    0  0.14518148011E+03  0.18790687824E+02 -0.55254983074E+02  0.15647320944E+03  0.00000000000E+00 0. -1.
        -14    1    3    3    0    0  0.35797973014E+02 -0.75683898313E+01  0.24587966472E+02  0.44083369787E+02  0.00000000000E+00 0.  1.
         15    1    5    5    0    0  0.27561790054E+02  0.79959702630E+02  0.14744365252E+03  0.16998821933E+03  0.17770000000E+01 0. -1.
        -16    1    5    5    0    0 -0.49234778285E+02  0.89451957618E+02  0.11710005332E+03  0.15536453457E+03  0.00000000000E+00 0.  1.
          2    1    6    6  502    0 -0.55580135949E+02 -0.35792867857E+02 -0.14767673949E+02  0.67737471871E+02  0.00000000000E+00 0. -1.
         -1    1    6    6    0  502 -0.10372632895E+03 -0.14484109038E+03 -0.16087963978E+03  0.24004239475E+03  0.00000000000E+00 0.  1.
<mgrwt>
<rscale>  0 0.30697171E+03</rscale>
<asrwt>0</asrwt>
<pdfrwt beam="1">  1        1 0.68609122E-01 0.30697171E+03</pdfrwt>
<pdfrwt beam="2">  1       -2 0.59650755E-01 0.30697171E+03</pdfrwt>
<totfact> 0.12443800E+02</totfact>
</mgrwt>
</event>
<event>
12    3  0.1201947E-007  0.1874760E+04  0.7818608E-02  0.8667523E-01
          1   -1    0    0  501    0  0.00000000000E+00  0.00000000000E+00  0.23211633120E+04  0.23211633120E+04  0.00000000000E+00 0. -1.
         -2   -1    0    0    0  501 -0.00000000000E+00 -0.00000000000E+00 -0.18110193512E+04  0.18110193512E+04  0.00000000000E+00 0.  1.
        -24    2    1    2    0    0 -0.62654058157E+03  0.17617177062E+04 -0.48168720674E+03  0.19321876536E+04  0.71583425689E+02 0.  0.
    5000000    2    1    2    0    0  0.62654058157E+03 -0.17617177062E+04  0.99183116756E+03  0.21999950097E+04  0.60003883308E+03 0.  0.
        -24    2    4    4    0    0  0.29232996782E+03 -0.10082762652E+04  0.86445924116E+03  0.13622595343E+04  0.79896320477E+02 0.  0.
         24    2    4    4    0    0  0.33421061375E+03 -0.75344144098E+03  0.12737192640E+03  0.83773547545E+03  0.78780580447E+02 0.  0.
         11    1    3    3    0    0 -0.28153540827E+03  0.88736208846E+03 -0.22329457288E+03  0.95735788941E+03  0.00000000000E+00 0. -1.
        -12    1    3    3    0    0 -0.34500517330E+03  0.87435561771E+03 -0.25839263387E+03  0.97482976415E+03  0.00000000000E+00 0.  1.
         15    1    5    5    0    0  0.22548418020E+03 -0.83771530330E+03  0.74536746592E+03  0.11437595297E+04  0.17770000000E+01 0. -1.
        -16    1    5    5    0    0  0.66845787621E+02 -0.17056096188E+03  0.11909177524E+03  0.21850000451E+03  0.00000000000E+00 0.  1.
          2    1    6    6  502    0  0.15579203643E+03 -0.25913317833E+03  0.53218775216E+02  0.30700716728E+03  0.00000000000E+00 0. -1.
         -1    1    6    6    0  502  0.17841857733E+03 -0.49430826265E+03  0.74153151180E+02  0.53072830817E+03  0.00000000000E+00 0.  1.
<mgrwt>
<rscale>  0 0.18747604E+04</rscale>
<asrwt>0</asrwt>
<pdfrwt beam="1">  1        1 0.35710205E+00 0.18747604E+04</pdfrwt>
<pdfrwt beam="2">  1       -2 0.27861836E+00 0.18747604E+04</pdfrwt>
<totfact> 0.61017189E-02</totfact>
</mgrwt>
</event>
<event>
12    3  0.1201947E-007  0.7169361E+03  0.7818608E-02  0.9688700E-01
          1   -1    0    0  501    0  0.00000000000E+00  0.00000000000E+00  0.39398001394E+04  0.39398001394E+04  0.00000000000E+00 0. -1.
         -2   -1    0    0    0  501 -0.00000000000E+00 -0.00000000000E+00 -0.39707660117E+03  0.39707660117E+03  0.00000000000E+00 0.  1.
        -24    2    1    2    0    0  0.62321105967E+03 -0.25742505054E+03 -0.19735333209E+01  0.67908321735E+03  0.80563265313E+02 0.  0.
    5000000    2    1    2    0    0 -0.62321105967E+03  0.25742505054E+03  0.35446970715E+04  0.36577935232E+04  0.59993036922E+03 0.  0.
        -24    2    4    4    0    0 -0.54713702499E+03  0.10430382599E+03  0.14748255182E+04  0.15784961671E+04  0.79382795339E+02 0.  0.
         24    2    4    4    0    0 -0.76074034674E+02  0.15312122455E+03  0.20698715533E+04  0.20792973560E+04  0.99377460368E+02 0.  0.
         11    1    3    3    0    0  0.26720819731E+03 -0.11575203897E+03  0.38745841094E+02  0.29376860867E+03  0.00000000000E+00 0. -1.
        -12    1    3    3    0    0  0.35600286236E+03 -0.14167301157E+03 -0.40719374415E+02  0.38531460868E+03  0.00000000000E+00 0.  1.
         15    1    5    5    0    0 -0.92881041083E+02  0.48844560493E+02  0.28190592958E+03  0.30081022214E+03  0.17770000000E+01 0. -1.
        -16    1    5    5    0    0 -0.45425598391E+03  0.55459265496E+02  0.11929195887E+04  0.12776859450E+04  0.00000000000E+00 0.  1.
          4    1    6    6  502    0 -0.61168521505E+00  0.11002402739E+03  0.10607715239E+04  0.10664623231E+04  0.00000000000E+00 0. -1.
         -3    1    6    6    0  502 -0.75462349459E+02  0.43097197167E+02  0.10091000294E+04  0.10128350329E+04  0.00000000000E+00 0.  1.
<mgrwt>
<rscale>  0 0.71693606E+03</rscale>
<asrwt>0</asrwt>
<pdfrwt beam="1">  1        1 0.60612307E+00 0.71693606E+03</pdfrwt>
<pdfrwt beam="2">  1       -2 0.61088710E-01 0.71693606E+03</pdfrwt>
<totfact> 0.26480646E-01</totfact>
</mgrwt>
</event>
<event>
12    3  0.1201947E-007  0.7169721E+03  0.7818608E-02  0.9688640E-01
          1   -1    0    0  501    0  0.00000000000E+00  0.00000000000E+00  0.34002272834E+04  0.34002272834E+04  0.00000000000E+00 0. -1.
         -4   -1    0    0    0  501 -0.00000000000E+00 -0.00000000000E+00 -0.17913339474E+03  0.17913339474E+03  0.00000000000E+00 0.  1.
        -24    2    1    2    0    0 -0.58341896498E+03  0.31011022219E+03  0.12662487852E+04  0.14304235983E+04  0.78610724053E+02 0.  0.
    5000000    2    1    2    0    0  0.58341896498E+03 -0.31011022219E+03  0.19548451034E+04  0.21489370798E+04  0.59997096264E+03 0.  0.
        -24    2    4    4    0    0  0.12049134241E+03  0.86329130416E+02  0.10293546895E+03  0.19765632257E+03  0.80631437615E+02 0.  0.
         24    2    4    4    0    0  0.46292762257E+03 -0.39643935260E+03  0.18519096344E+04  0.19512807572E+04  0.80381311772E+02 0.  0.
         11    1    3    3    0    0 -0.40478598136E+03  0.18280895351E+03  0.89689127697E+03  0.10008420289E+04  0.00000000000E+00 0. -1.
        -12    1    3    3    0    0 -0.17863298362E+03  0.12730126868E+03  0.36935750827E+03  0.42958156939E+03  0.00000000000E+00 0.  1.
         15    1    5    5    0    0  0.32615847837E+02 -0.21904318092E+01  0.55050973220E+02  0.64049659664E+02  0.17770000000E+01 0. -1.
        -16    1    5    5    0    0  0.87875494572E+02  0.88519562225E+02  0.47884495731E+02  0.13360666291E+03  0.00000000000E+00 0.  1.
          2    1    6    6  502    0 -0.13996450228E+01  0.10466068240E+01  0.90145407587E+00  0.19664718367E+01  0.00000000000E+00 0. -1.
         -1    1    6    6    0  502  0.46432726759E+03 -0.39748595943E+03  0.18510081804E+04  0.19493142854E+04  0.00000000000E+00 0.  1.
<mgrwt>
<rscale>  0 0.71697212E+03</rscale>
<asrwt>0</asrwt>
<pdfrwt beam="1">  1        1 0.52311184E+00 0.71697212E+03</pdfrwt>
<pdfrwt beam="2">  1       -4 0.27558986E-01 0.71697212E+03</pdfrwt>
<totfact> 0.20016863E+00</totfact>
</mgrwt>
</event>
<event>
12    3  0.1201947E-007  0.8693970E+03  0.7818608E-02  0.9464666E-01
         -4   -1    0    0    0  501 -0.00000000000E+00  0.00000000000E+00  0.39910514531E+03  0.39910514531E+03  0.00000000000E+00 0.  1.
          3   -1    0    0  501    0  0.00000000000E+00 -0.00000000000E+00 -0.24133279944E+04  0.24133279944E+04  0.00000000000E+00 0. -1.
        -24    2    1    2    0    0  0.64845735698E+03 -0.48767497931E+03 -0.39859072777E+03  0.90751800038E+03  0.79940749796E+02 0.  0.
    5000000    2    1    2    0    0 -0.64845735698E+03  0.48767497931E+03 -0.16156321213E+04  0.19049151394E+04  0.60009224907E+03 0.  0.
        -24    2    4    4    0    0 -0.50983139208E+03  0.56755393326E+03 -0.98023530078E+03  0.12447927233E+04  0.81253698138E+02 0.  0.
         24    2    4    4    0    0 -0.13862596490E+03 -0.79878953947E+02 -0.63539682057E+03  0.66012241611E+03  0.80216452425E+02 0.  0.
         13    1    3    3    0    0  0.29238137154E+03 -0.22616209165E+03 -0.13777918715E+03  0.39448607394E+03  0.00000000000E+00 0. -1.
        -14    1    3    3    0    0  0.35607598544E+03 -0.26151288765E+03 -0.26081154063E+03  0.51303192644E+03  0.00000000000E+00 0.  1.
         15    1    5    5    0    0 -0.19989737600E+03  0.27943434899E+03 -0.46135996982E+03  0.57523794712E+03  0.17770000000E+01 0. -1.
        -16    1    5    5    0    0 -0.30993401608E+03  0.28811958427E+03 -0.51887533096E+03  0.66955477613E+03  0.00000000000E+00 0.  1.
          2    1    6    6  502    0 -0.74989574915E+02 -0.35077849392E+02 -0.47117768878E+03  0.47839555419E+03  0.00000000000E+00 0. -1.
         -1    1    6    6    0  502 -0.63636389986E+02 -0.44801104555E+02 -0.16421913179E+03  0.18172686193E+03  0.00000000000E+00 0.  1.
<mgrwt>
<rscale>  0 0.86939702E+03</rscale>
<asrwt>0</asrwt>
<pdfrwt beam="1">  1        3 0.37128123E+00 0.86939702E+03</pdfrwt>
<pdfrwt beam="2">  1       -4 0.61400791E-01 0.86939702E+03</pdfrwt>
<totfact> 0.90740152E-02</totfact>
</mgrwt>
</event>
<event>
12    3  0.1201947E-007  0.6432459E+03  0.7818608E-02  0.9819536E-01
          1   -1    0    0  501    0  0.00000000000E+00  0.00000000000E+00  0.29697716908E+04  0.29697716908E+04  0.00000000000E+00 0. -1.
         -2   -1    0    0    0  501 -0.00000000000E+00 -0.00000000000E+00 -0.19412075311E+03  0.19412075311E+03  0.00000000000E+00 0.  1.
        -24    2    1    2    0    0  0.54209958569E+03 -0.33169260381E+03  0.12893451447E+04  0.14396496417E+04  0.79298452243E+02 0.  0.
    5000000    2    1    2    0    0 -0.54209958569E+03  0.33169260381E+03  0.14863057930E+04  0.17242428022E+04  0.60001365516E+03 0.  0.
        -24    2    4    4    0    0 -0.31135161512E+03  0.24512280446E+03  0.28336017113E+03  0.49396478531E+03  0.81750871777E+02 0.  0.
         24    2    4    4    0    0 -0.23074797057E+03  0.86569799349E+02  0.12029456219E+04  0.12302780169E+04  0.75939933955E+02 0.  0.
         11    1    3    3    0    0  0.27607538682E+03 -0.19241057788E+03  0.60419035190E+03  0.69158183248E+03  0.00000000000E+00 0. -1.
        -12    1    3    3    0    0  0.26602419887E+03 -0.13928202593E+03  0.68515479277E+03  0.74806780922E+03  0.00000000000E+00 0.  1.
         15    1    5    5    0    0 -0.94875059160E+02  0.35870311891E+02  0.93912841914E+02  0.13824158467E+03  0.17770000000E+01 0. -1.
        -16    1    5    5    0    0 -0.21647655596E+03  0.20925249257E+03  0.18944732922E+03  0.35572320064E+03  0.00000000000E+00 0.  1.
          2    1    6    6  502    0 -0.92376261662E+02  0.24827636965E+02  0.30530990732E+03  0.31994362751E+03  0.00000000000E+00 0. -1.
         -1    1    6    6    0  502 -0.13837170891E+03  0.61742162384E+02  0.89763571456E+03  0.91033438938E+03  0.00000000000E+00 0.  1.
<mgrwt>
<rscale>  0 0.64324586E+03</rscale>
<asrwt>0</asrwt>
<pdfrwt beam="1">  1        1 0.45688792E+00 0.64324586E+03</pdfrwt>
<pdfrwt beam="2">  1       -2 0.29864733E-01 0.64324586E+03</pdfrwt>
<totfact> 0.61941012E+00</totfact>
</mgrwt>
</event>
<event>
12    3  0.1201947E-007  0.6516248E+03  0.7818608E-02  0.9803735E-01
         -4   -1    0    0    0  501 -0.00000000000E+00  0.00000000000E+00  0.70891916244E+03  0.70891916244E+03  0.00000000000E+00 0.  1.
          1   -1    0    0  501    0  0.00000000000E+00 -0.00000000000E+00 -0.14745049276E+04  0.14745049276E+04  0.00000000000E+00 0. -1.
        -24    2    1    2    0    0  0.99239271008E+02 -0.56984375337E+03 -0.11312896127E+04  0.12731254886E+04  0.80386478306E+02 0.  0.
    5000000    2    1    2    0    0 -0.99239271008E+02  0.56984375337E+03  0.36570384753E+03  0.91029860139E+03  0.60027818837E+03 0.  0.
        -24    2    4    4    0    0 -0.24431526305E+03  0.19100961579E+03  0.37893721662E+03  0.49615819913E+03  0.80030764979E+02 0.  0.
         24    2    4    4    0    0  0.14507599204E+03  0.37883413758E+03 -0.13233369091E+02  0.41414040226E+03  0.82309194268E+02 0.  0.
         13    1    3    3    0    0  0.32921334599E+02 -0.25514132575E+03 -0.42034641640E+03  0.49282047457E+03  0.00000000000E+00 0. -1.
        -14    1    3    3    0    0  0.66317936408E+02 -0.31470242763E+03 -0.71094319626E+03  0.78030501405E+03  0.00000000000E+00 0.  1.
         15    1    5    5    0    0 -0.22395887010E+03  0.14493673470E+03  0.29069063003E+03  0.39454839079E+03  0.17770000000E+01 0. -1.
        -16    1    5    5    0    0 -0.20356392950E+02  0.46072881086E+02  0.88246586589E+02  0.10160980834E+03  0.00000000000E+00 0.  1.
          2    1    6    6  502    0  0.10454464882E+03  0.22415514515E+03 -0.44238142493E+02  0.25126107129E+03  0.00000000000E+00 0. -1.
         -1    1    6    6    0  502  0.40531343219E+02  0.15467899244E+03  0.31004773402E+02  0.16287933097E+03  0.00000000000E+00 0.  1.
<mgrwt>
<rscale>  0 0.65162481E+03</rscale>
<asrwt>0</asrwt>
<pdfrwt beam="1">  1        1 0.22684691E+00 0.65162481E+03</pdfrwt>
<pdfrwt beam="2">  1       -4 0.10906449E+00 0.65162481E+03</pdfrwt>
<totfact> 0.22610281E+00</totfact>
</mgrwt>
</event>
<event>
12    3  0.1201947E-007  0.4162080E+03  0.7818608E-02  0.1038308E+00
          1   -1    0    0  501    0  0.00000000000E+00  0.00000000000E+00  0.55086932806E+03  0.55086932806E+03  0.00000000000E+00 0. -1.
         -2   -1    0    0    0  501 -0.00000000000E+00 -0.00000000000E+00 -0.42145889231E+03  0.42145889231E+03  0.00000000000E+00 0.  1.
        -24    2    1    2    0    0 -0.21561850327E+03  0.64384362634E+02  0.22035523958E+03  0.32501332088E+03  0.80252987690E+02 0.  0.
    5000000    2    1    2    0    0  0.21561850327E+03 -0.64384362634E+02 -0.90944803828E+02  0.64731489949E+03  0.60009077367E+03 0.  0.
        -24    2    4    4    0    0  0.32776155158E+03 -0.22863324717E+03 -0.13887460313E+03  0.42806302835E+03  0.65199727330E+02 0.  0.
         24    2    4    4    0    0 -0.11214304831E+03  0.16424888453E+03  0.47929799301E+02  0.21925187113E+03  0.78869246099E+02 0.  0.
         11    1    3    3    0    0 -0.16005970950E+03  0.22283331959E+02  0.11368360260E+03  0.19758446039E+03  0.00000000000E+00 0. -1.
        -12    1    3    3    0    0 -0.55558793775E+02  0.42101030675E+02  0.10667163698E+03  0.12742886049E+03  0.00000000000E+00 0.  1.
         15    1    5    5    0    0  0.16969900906E+03 -0.11426765537E+03 -0.36799677822E+02  0.20787550302E+03  0.17770000000E+01 0. -1.
        -16    1    5    5    0    0  0.15806254252E+03 -0.11436559180E+03 -0.10207492531E+03  0.22018752533E+03  0.00000000000E+00 0.  1.
          2    1    6    6  502    0 -0.72982369432E+02  0.78722620025E+02  0.62266894957E+02  0.12410013440E+03  0.00000000000E+00 0. -1.
         -1    1    6    6    0  502 -0.39160678877E+02  0.85526264508E+02 -0.14337095657E+02  0.95151736730E+02  0.00000000000E+00 0.  1.
<mgrwt>
<rscale>  0 0.41620803E+03</rscale>
<asrwt>0</asrwt>
<pdfrwt beam="1">  1        1 0.84749128E-01 0.41620803E+03</pdfrwt>
<pdfrwt beam="2">  1       -2 0.64839829E-01 0.41620803E+03</pdfrwt>
<totfact> 0.77666481E+01</totfact>
</mgrwt>
</event>
<event>
12    3  0.1201947E-007  0.6542574E+03  0.7818608E-02  0.9798823E-01
          1   -1    0    0  501    0  0.00000000000E+00  0.00000000000E+00  0.65512311856E+03  0.65512311856E+03  0.00000000000E+00 0. -1.
         -2   -1    0    0    0  501 -0.00000000000E+00 -0.00000000000E+00 -0.67517552291E+03  0.67517552291E+03  0.00000000000E+00 0.  1.
        -24    2    1    2    0    0  0.51008780513E+03 -0.92716421468E+02 -0.97204585096E+02  0.53351288757E+03  0.80008537619E+02 0.  0.
    5000000    2    1    2    0    0 -0.51008780513E+03  0.92716421468E+02  0.77152180743E+02  0.79678575390E+03  0.60010763607E+03 0.  0.
        -24    2    4    4    0    0 -0.60649891715E+03 -0.34652569000E+02  0.97246460164E+02  0.61921076362E+03  0.70166649713E+02 0.  0.
         24    2    4    4    0    0  0.96411112020E+02  0.12736899047E+03 -0.20094279421E+02  0.17757499028E+03  0.74907508650E+02 0.  0.
         13    1    3    3    0    0  0.24571220581E+03 -0.42522316860E+01 -0.41858303367E+02  0.24928836138E+03  0.00000000000E+00 0. -1.
        -14    1    3    3    0    0  0.26437559932E+03 -0.88464189782E+02 -0.55346281728E+02  0.28422452619E+03  0.00000000000E+00 0.  1.
         15    1    5    5    0    0 -0.53629948559E+03 -0.25244853775E+02  0.63129316147E+02  0.54059495851E+03  0.17770000000E+01 0. -1.
        -16    1    5    5    0    0 -0.70199431560E+02 -0.94077152247E+01  0.34117144017E+02  0.78615805109E+02  0.00000000000E+00 0.  1.
          4    1    6    6  502    0  0.82030477597E+02  0.46851498977E+02 -0.14717468113E+02  0.95606830712E+02  0.00000000000E+00 0. -1.
         -3    1    6    6    0  502  0.14380634423E+02  0.80517491490E+02 -0.53768113083E+01  0.81968159563E+02  0.00000000000E+00 0.  1.
<mgrwt>
<rscale>  0 0.65425744E+03</rscale>
<asrwt>0</asrwt>
<pdfrwt beam="1">  1        1 0.10078817E+00 0.65425744E+03</pdfrwt>
<pdfrwt beam="2">  1       -2 0.10387316E+00 0.65425744E+03</pdfrwt>
<totfact> 0.20464606E+01</totfact>
</mgrwt>
</event>
<event>
12    3  0.1201947E-007  0.1204708E+04  0.7818608E-02  0.9108746E-01
         -2   -1    0    0    0  501 -0.00000000000E+00  0.00000000000E+00  0.76996053134E+03  0.76996053134E+03  0.00000000000E+00 0.  1.
          1   -1    0    0  501    0  0.00000000000E+00 -0.00000000000E+00 -0.23887069604E+04  0.23887069604E+04  0.00000000000E+00 0. -1.
        -24    2    1    2    0    0  0.87473346981E+03  0.77990826064E+03 -0.13943110196E+04  0.18231329579E+04  0.79341191239E+02 0.  0.
    5000000    2    1    2    0    0 -0.87473346981E+03 -0.77990826064E+03 -0.22443540947E+03  0.13355345338E+04  0.59988807274E+03 0.  0.
        -24    2    4    4    0    0 -0.48888729456E+03 -0.19973273244E+03 -0.32530123004E+03  0.62660634454E+03  0.88941944936E+02 0.  0.
         24    2    4    4    0    0 -0.38584617525E+03 -0.58017552821E+03  0.10086582057E+03  0.70892818929E+03  0.83212675279E+02 0.  0.
         13    1    3    3    0    0  0.69004719342E+02  0.47135909945E+02 -0.74285246282E+02  0.11181119404E+03  0.00000000000E+00 0. -1.
        -14    1    3    3    0    0  0.80572875047E+03  0.73277235070E+03 -0.13200257733E+04  0.17113217639E+04  0.00000000000E+00 0.  1.
         15    1    5    5    0    0 -0.29668571482E+02  0.87041429683E+01 -0.14300619826E+02  0.34112339336E+02  0.17770000000E+01 0. -1.
        -16    1    5    5    0    0 -0.45921872308E+03 -0.20843687540E+03 -0.31100061021E+03  0.59249400521E+03  0.00000000000E+00 0.  1.
          2    1    6    6  502    0 -0.34365741302E+03 -0.46069522898E+03  0.75292570220E+02  0.57966324936E+03  0.00000000000E+00 0. -1.
         -1    1    6    6    0  502 -0.42188762229E+02 -0.11948029923E+03  0.25573250350E+02  0.12926493993E+03  0.00000000000E+00 0.  1.
<mgrwt>
<rscale>  0 0.12047079E+04</rscale>
<asrwt>0</asrwt>
<pdfrwt beam="1">  1        1 0.36749337E+00 0.12047079E+04</pdfrwt>
<pdfrwt beam="2">  1       -2 0.11845547E+00 0.12047079E+04</pdfrwt>
<totfact> 0.76484313E-01</totfact>
</mgrwt>
</event>
<event>
12    3  0.1201947E-007  0.5734975E+03  0.7818608E-02  0.9961969E-01
         -2   -1    0    0    0  501 -0.00000000000E+00  0.00000000000E+00  0.47656254043E+03  0.47656254043E+03  0.00000000000E+00 0.  1.
          1   -1    0    0  501    0  0.00000000000E+00 -0.00000000000E+00 -0.10632823600E+04  0.10632823600E+04  0.00000000000E+00 0. -1.
        -24    2    1    2    0    0  0.29506364824E+03  0.29004935582E+03 -0.68504176125E+03  0.80428636380E+03  0.80019716418E+02 0.  0.
    5000000    2    1    2    0    0 -0.29506364824E+03 -0.29004935582E+03  0.98321941669E+02  0.73555853664E+03  0.60015662230E+03 0.  0.
        -24    2    4    4    0    0  0.15996019061E+03 -0.18781031422E+03  0.29419054837E+02  0.25739646406E+03  0.67286567867E+02 0.  0.
         24    2    4    4    0    0 -0.45502383885E+03 -0.10223904159E+03  0.68902886832E+02  0.47816207258E+03  0.79949010539E+02 0.  0.
         13    1    3    3    0    0  0.15399296324E+03  0.10122716166E+03 -0.26796955606E+03  0.32522062351E+03  0.00000000000E+00 0. -1.
        -14    1    3    3    0    0  0.14107068501E+03  0.18882219415E+03 -0.41707220520E+03  0.47906574029E+03  0.00000000000E+00 0.  1.
         15    1    5    5    0    0  0.94766367431E+02 -0.60802792751E+02  0.19547085958E+02  0.11429300198E+03  0.17770000000E+01 0. -1.
        -16    1    5    5    0    0  0.65193823181E+02 -0.12700752147E+03  0.98719688794E+01  0.14310346209E+03  0.00000000000E+00 0.  1.
          2    1    6    6  502    0 -0.37229579569E+03 -0.54895558709E+02  0.70317919477E+02  0.38283454867E+03  0.00000000000E+00 0. -1.
         -1    1    6    6    0  502 -0.82728043163E+02 -0.47343482882E+02 -0.14150326447E+01  0.95327523907E+02  0.00000000000E+00 0.  1.
<mgrwt>
<rscale>  0 0.57349747E+03</rscale>
<asrwt>0</asrwt>
<pdfrwt beam="1">  1        1 0.16358190E+00 0.57349747E+03</pdfrwt>
<pdfrwt beam="2">  1       -2 0.73317314E-01 0.57349747E+03</pdfrwt>
<totfact> 0.20831559E+01</totfact>
</mgrwt>
</event>
<event>
12    3  0.1201947E-007  0.5238372E+03  0.7818608E-02  0.1007738E+00
          3   -1    0    0  501    0  0.00000000000E+00  0.00000000000E+00  0.25169050526E+03  0.25169050526E+03  0.00000000000E+00 0. -1.
         -4   -1    0    0    0  501 -0.00000000000E+00 -0.00000000000E+00 -0.14901714004E+04  0.14901714004E+04  0.00000000000E+00 0.  1.
        -24    2    1    2    0    0 -0.36647809296E+03  0.27595461300E+03 -0.52301162051E+03  0.70154020941E+03  0.90334761717E+02 0.  0.
    5000000    2    1    2    0    0  0.36647809296E+03 -0.27595461300E+03 -0.71546927459E+03  0.10403216962E+04  0.59992983561E+03 0.  0.
        -24    2    4    4    0    0 -0.35429126448E+02 -0.10708985973E+03 -0.55145669547E+03  0.56854429532E+03  0.80091620642E+02 0.  0.
         24    2    4    4    0    0  0.40190721941E+03 -0.16886475327E+03 -0.16401257912E+03  0.47177740089E+03  0.75027141547E+02 0.  0.
         11    1    3    3    0    0 -0.28956160640E+03  0.16867978064E+03 -0.36105409924E+03  0.49260415638E+03  0.00000000000E+00 0. -1.
        -12    1    3    3    0    0 -0.76916486561E+02  0.10727483236E+03 -0.16195752127E+03  0.20893605304E+03  0.00000000000E+00 0.  1.
         15    1    5    5    0    0  0.25974145606E+02 -0.34123102146E+02 -0.17863419829E+03  0.18371819961E+03  0.17770000000E+01 0. -1.
        -16    1    5    5    0    0 -0.61403272054E+02 -0.72966757587E+02 -0.37282249719E+03  0.38482609571E+03  0.00000000000E+00 0.  1.
          4    1    6    6  502    0  0.24740306573E+03 -0.63996684401E+02 -0.90554464298E+02  0.27111614403E+03  0.00000000000E+00 0. -1.
         -3    1    6    6    0  502  0.15450415368E+03 -0.10486806887E+03 -0.73458114818E+02  0.20066125686E+03  0.00000000000E+00 0.  1.
<mgrwt>
<rscale>  0 0.52383723E+03</rscale>
<asrwt>0</asrwt>
<pdfrwt beam="1">  1        3 0.38721616E-01 0.52383723E+03</pdfrwt>
<pdfrwt beam="2">  1       -4 0.22925714E+00 0.52383723E+03</pdfrwt>
<totfact> 0.13068096E+00</totfact>
</mgrwt>
</event>
<event>
12    3  0.1201947E-007  0.9237915E+03  0.7818608E-02  0.9396320E-01
          1   -1    0    0  501    0  0.00000000000E+00  0.00000000000E+00  0.32434024412E+04  0.32434024412E+04  0.00000000000E+00 0. -1.
         -2   -1    0    0    0  501 -0.00000000000E+00 -0.00000000000E+00 -0.34279926273E+03  0.34279926273E+03  0.00000000000E+00 0.  1.
        -24    2    1    2    0    0  0.87854259035E+03 -0.21902764735E+03  0.19132161113E+04  0.21181863499E+04  0.80668030449E+02 0.  0.
    5000000    2    1    2    0    0 -0.87854259035E+03  0.21902764735E+03  0.98738706718E+03  0.14680153540E+04  0.60027132682E+03 0.  0.
        -24    2    4    4    0    0 -0.62286861397E+03  0.38916625318E+02  0.27800042119E+03  0.68811928808E+03  0.82122508739E+02 0.  0.
         24    2    4    4    0    0 -0.25567397638E+03  0.18011102203E+03  0.70938664599E+03  0.77989606593E+03  0.84848675271E+02 0.  0.
         13    1    3    3    0    0  0.20812403682E+03 -0.82663294041E+02  0.51420684928E+03  0.56085427584E+03  0.00000000000E+00 0. -1.
        -14    1    3    3    0    0  0.67041855352E+03 -0.13636435331E+03  0.13990092620E+04  0.15573320741E+04  0.00000000000E+00 0.  1.
         15    1    5    5    0    0 -0.20299541488E+03  0.39601998691E+02  0.61879277653E+02  0.21588807168E+03  0.17770000000E+01 0. -1.
        -16    1    5    5    0    0 -0.41987319909E+03 -0.68537337344E+00  0.21612114354E+03  0.47223121640E+03  0.00000000000E+00 0.  1.
          2    1    6    6  502    0 -0.12285659905E+03  0.83164992168E+02  0.43946730528E+03  0.46383366875E+03  0.00000000000E+00 0. -1.
         -1    1    6    6    0  502 -0.13281737733E+03  0.96946029862E+02  0.26991934071E+03  0.31606239719E+03  0.00000000000E+00 0.  1.
<mgrwt>
<rscale>  0 0.92379150E+03</rscale>
<asrwt>0</asrwt>
<pdfrwt beam="1">  1        1 0.49898497E+00 0.92379150E+03</pdfrwt>
<pdfrwt beam="2">  1       -2 0.52738350E-01 0.92379150E+03</pdfrwt>
<totfact> 0.12257127E+00</totfact>
</mgrwt>
</event>
<event>
12    3  0.1201947E-007  0.4196578E+03  0.7818608E-02  0.1037178E+00
         -2   -1    0    0    0  501 -0.00000000000E+00  0.00000000000E+00  0.14794143655E+04  0.14794143655E+04  0.00000000000E+00 0.  1.
          1   -1    0    0  501    0  0.00000000000E+00 -0.00000000000E+00 -0.19169466469E+03  0.19169466469E+03  0.00000000000E+00 0. -1.
        -24    2    1    2    0    0 -0.15753960433E+03  0.12888901602E+03 -0.12508701147E+02  0.22473373851E+03  0.94433469912E+02 0.  0.
    5000000    2    1    2    0    0  0.15753960433E+03 -0.12888901602E+03  0.13002284019E+04  0.14463752916E+04  0.59998040110E+03 0.  0.
        -24    2    4    4    0    0  0.27815552117E+03 -0.29061170209E+03  0.75028003845E+03  0.85514647344E+03  0.80806556611E+02 0.  0.
         24    2    4    4    0    0 -0.12061591684E+03  0.16172268607E+03  0.54994836347E+03  0.59122881819E+03  0.80036781509E+02 0.  0.
         13    1    3    3    0    0 -0.50730859798E+02  0.98694527339E+02  0.10208837401E+02  0.11143810041E+03  0.00000000000E+00 0. -1.
        -14    1    3    3    0    0 -0.10680874453E+03  0.30194488678E+02 -0.22717538548E+02  0.11329563810E+03  0.00000000000E+00 0.  1.
         15    1    5    5    0    0  0.18850604331E+03 -0.19401607572E+03  0.57860929628E+03  0.63872422959E+03  0.17770000000E+01 0. -1.
        -16    1    5    5    0    0  0.89649477855E+02 -0.96595626362E+02  0.17167074218E+03  0.21642224385E+03  0.00000000000E+00 0.  1.
          2    1    6    6  502    0 -0.51969999056E+02  0.12884993815E+03  0.39213650309E+03  0.41602190377E+03  0.00000000000E+00 0. -1.
         -3    1    6    6    0  502 -0.68645917782E+02  0.32872747915E+02  0.15781186038E+03  0.17520691442E+03  0.00000000000E+00 0.  1.
<mgrwt>
<rscale>  0 0.41965783E+03</rscale>
<asrwt>0</asrwt>
<pdfrwt beam="1">  1        1 0.29491488E-01 0.41965783E+03</pdfrwt>
<pdfrwt beam="2">  1       -2 0.22760220E+00 0.41965783E+03</pdfrwt>
<totfact> 0.12950428E+01</totfact>
</mgrwt>
</event>
<event>
12    3  0.1201947E-007  0.8090109E+03  0.7818608E-02  0.9547065E-01
          1   -1    0    0  501    0  0.00000000000E+00  0.00000000000E+00  0.12843367833E+04  0.12843367833E+04  0.00000000000E+00 0. -1.
         -2   -1    0    0    0  501 -0.00000000000E+00 -0.00000000000E+00 -0.71148571319E+03  0.71148571319E+03  0.00000000000E+00 0.  1.
        -24    2    1    2    0    0 -0.45783463712E+03 -0.64124839278E+03 -0.10052101996E+03  0.79820852709E+03  0.78869012172E+02 0.  0.
    5000000    2    1    2    0    0  0.45783463712E+03  0.64124839278E+03  0.67337209009E+03  0.11976139694E+04  0.60003099241E+03 0.  0.
        -24    2    4    4    0    0  0.29977365822E+03  0.56555399881E+03  0.18243365840E+03  0.67042730870E+03  0.80468408753E+02 0.  0.
         24    2    4    4    0    0  0.15806097890E+03  0.75694393973E+02  0.49093843169E+03  0.52718666072E+03  0.78691277758E+02 0.  0.
         13    1    3    3    0    0 -0.13177862455E+03 -0.24560938087E+03 -0.48176538467E+02  0.28286136661E+03  0.00000000000E+00 0. -1.
        -14    1    3    3    0    0 -0.32605601257E+03 -0.39563901190E+03 -0.52344481489E+02  0.51534716048E+03  0.00000000000E+00 0.  1.
         15    1    5    5    0    0  0.25467825889E+03  0.42081819579E+03  0.15952611050E+03  0.51710802268E+03  0.17770000000E+01 0. -1.
        -16    1    5    5    0    0  0.45095399331E+02  0.14473580301E+03  0.22907547894E+02  0.15331928602E+03  0.00000000000E+00 0.  1.
          2    1    6    6  502    0  0.15715787424E+03  0.61277827589E+02  0.48082060302E+03  0.50955080402E+03  0.00000000000E+00 0. -1.
         -1    1    6    6    0  502  0.90310465826E+00  0.14416566384E+02  0.10117828671E+02  0.17635856695E+02  0.00000000000E+00 0.  1.
<mgrwt>
<rscale>  0 0.80901085E+03</rscale>
<asrwt>0</asrwt>
<pdfrwt beam="1">  1        1 0.19759027E+00 0.80901085E+03</pdfrwt>
<pdfrwt beam="2">  1       -2 0.10945934E+00 0.80901085E+03</pdfrwt>
<totfact> 0.55276157E+00</totfact>
</mgrwt>
</event>
<event>
12    3  0.1201947E-007  0.1029570E+04  0.7818608E-02  0.9276695E-01
          1   -1    0    0  501    0  0.00000000000E+00  0.00000000000E+00  0.61312210580E+03  0.61312210580E+03  0.00000000000E+00 0. -1.
         -2   -1    0    0    0  501 -0.00000000000E+00 -0.00000000000E+00 -0.18348235535E+04  0.18348235535E+04  0.00000000000E+00 0.  1.
        -24    2    1    2    0    0 -0.85137567964E+03 -0.42847779726E+03 -0.79479564106E+03  0.12433853505E+04  0.76637120279E+02 0.  0.
    5000000    2    1    2    0    0  0.85137567964E+03  0.42847779726E+03 -0.42690580666E+03  0.12045603088E+04  0.60023595290E+03 0.  0.
        -24    2    4    4    0    0  0.68857542840E+03  0.55706864080E+03 -0.41299484886E+03  0.98105834144E+03  0.86308359744E+02 0.  0.
         24    2    4    4    0    0  0.16280025124E+03 -0.12859084354E+03 -0.13910957797E+02  0.22350196736E+03  0.81976141794E+02 0.  0.
         11    1    3    3    0    0 -0.60993752686E+03 -0.33380704538E+03 -0.54678128629E+03  0.88454547947E+03  0.00000000000E+00 0. -1.
        -12    1    3    3    0    0 -0.24143815278E+03 -0.94670751881E+02 -0.24801435477E+03  0.35883987104E+03  0.00000000000E+00 0.  1.
         15    1    5    5    0    0  0.39925051032E+03  0.35031176227E+03 -0.20676951792E+03  0.56997902773E+03  0.17770000000E+01 0. -1.
        -16    1    5    5    0    0  0.28932491807E+03  0.20675687853E+03 -0.20622533095E+03  0.41107931371E+03  0.00000000000E+00 0.  1.
          4    1    6    6  502    0  0.44732608562E+02 -0.76653480389E+02  0.18156483217E+02  0.90589294110E+02  0.00000000000E+00 0. -1.
         -3    1    6    6    0  502  0.11806764268E+03 -0.51937363148E+02 -0.32067441014E+02  0.13291267325E+03  0.00000000000E+00 0.  1.
<mgrwt>
<rscale>  0 0.10295698E+04</rscale>
<asrwt>0</asrwt>
<pdfrwt beam="1">  1        1 0.94326477E-01 0.10295698E+04</pdfrwt>
<pdfrwt beam="2">  1       -2 0.28228055E+00 0.10295698E+04</pdfrwt>
<totfact> 0.11892890E+00</totfact>
</mgrwt>
</event>
<event>
12    3  0.1201947E-007  0.7778334E+03  0.7818608E-02  0.9592668E-01
          1   -1    0    0  501    0  0.00000000000E+00  0.00000000000E+00  0.29858096354E+03  0.29858096354E+03  0.00000000000E+00 0. -1.
         -2   -1    0    0    0  501 -0.00000000000E+00 -0.00000000000E+00 -0.26552370928E+04  0.26552370928E+04  0.00000000000E+00 0.  1.
        -24    2    1    2    0    0 -0.46015255895E+03 -0.50564200203E+03 -0.40339568980E+03  0.79921613137E+03  0.92758451685E+02 0.  0.
    5000000    2    1    2    0    0  0.46015255895E+03  0.50564200203E+03 -0.19532604395E+04  0.21546019250E+04  0.59972401902E+03 0.  0.
        -24    2    4    4    0    0  0.51296577587E+03  0.57908108749E+03 -0.15559337852E+04  0.17394650470E+04  0.79623568986E+02 0.  0.
         24    2    4    4    0    0 -0.52813216911E+02 -0.73439085451E+02 -0.39732665424E+03  0.41513687795E+03  0.79294527613E+02 0.  0.
         11    1    3    3    0    0 -0.26780881114E+03 -0.24660459696E+03 -0.25240052382E+03  0.44299143444E+03  0.00000000000E+00 0. -1.
        -12    1    3    3    0    0 -0.19234374781E+03 -0.25903740507E+03 -0.15099516598E+03  0.35622469693E+03  0.00000000000E+00 0.  1.
         15    1    5    5    0    0  0.27914012219E+03  0.25768811169E+03 -0.78615551316E+03  0.87313573935E+03  0.17770000000E+01 0. -1.
        -16    1    5    5    0    0  0.23382565368E+03  0.32139297579E+03 -0.76977827206E+03  0.86632930768E+03  0.00000000000E+00 0.  1.
          4    1    6    6  502    0 -0.25049239056E+02 -0.22817583873E+02 -0.36827401042E+02  0.50043620758E+02  0.00000000000E+00 0. -1.
         -3    1    6    6    0  502 -0.27763977856E+02 -0.50621501578E+02 -0.36049925320E+03  0.36509325719E+03  0.00000000000E+00 0.  1.
<mgrwt>
<rscale>  0 0.77783341E+03</rscale>
<asrwt>0</asrwt>
<pdfrwt beam="1">  1        1 0.45935533E-01 0.77783341E+03</pdfrwt>
<pdfrwt beam="2">  1       -2 0.40849801E+00 0.77783341E+03</pdfrwt>
<totfact> 0.53453782E-01</totfact>
</mgrwt>
</event>
<event>
12    3  0.1201947E-007  0.1241870E+04  0.7818608E-02  0.9076977E-01
         -4   -1    0    0    0  501 -0.00000000000E+00  0.00000000000E+00  0.66227654910E+03  0.66227654910E+03  0.00000000000E+00 0.  1.
          3   -1    0    0  501    0  0.00000000000E+00 -0.00000000000E+00 -0.29087822358E+04  0.29087822358E+04  0.00000000000E+00 0. -1.
        -24    2    1    2    0    0  0.11362845106E+04  0.30170499755E+03 -0.29474351466E+03  0.12148494676E+04  0.82565701417E+02 0.  0.
    5000000    2    1    2    0    0 -0.11362845106E+04 -0.30170499755E+03 -0.19517621720E+04  0.23562093173E+04  0.60014862830E+03 0.  0.
        -24    2    4    4    0    0 -0.34716967721E+02 -0.18976088481E+03 -0.28244682152E+03  0.35136772478E+03  0.80427667999E+02 0.  0.
         24    2    4    4    0    0 -0.11015675429E+04 -0.11194411274E+03 -0.16693153505E+04  0.20048415925E+04  0.82422907193E+02 0.  0.
         13    1    3    3    0    0  0.11038265641E+03  0.53247761791E+02 -0.20628543043E+02  0.12427868586E+03  0.00000000000E+00 0. -1.
        -14    1    3    3    0    0  0.10259018542E+04  0.24845723576E+03 -0.27411497162E+03  0.10905707818E+04  0.00000000000E+00 0.  1.
         15    1    5    5    0    0 -0.39829299094E+02 -0.13248630712E+03 -0.13586641814E+03  0.19391192833E+03  0.17770000000E+01 0. -1.
        -16    1    5    5    0    0  0.51123313732E+01 -0.57274577687E+02 -0.14658040338E+03  0.15745579645E+03  0.00000000000E+00 0.  1.
          2    1    6    6  502    0 -0.58309228439E+02  0.10841326763E+02 -0.75884401974E+02  0.96311696850E+02  0.00000000000E+00 0. -1.
         -1    1    6    6    0  502 -0.10432583144E+04 -0.12278543950E+03 -0.15934309486E+04  0.19085298956E+04  0.00000000000E+00 0.  1.
<mgrwt>
<rscale>  0 0.12418695E+04</rscale>
<asrwt>0</asrwt>
<pdfrwt beam="1">  1        3 0.44750496E+00 0.12418695E+04</pdfrwt>
<pdfrwt beam="2">  1       -4 0.10188870E+00 0.12418695E+04</pdfrwt>
<totfact> 0.10878940E-02</totfact>
</mgrwt>
</event>
<event>
12    3  0.1201947E-007  0.1551687E+04  0.7818608E-02  0.8850791E-01
          1   -1    0    0  501    0  0.00000000000E+00  0.00000000000E+00  0.70277719203E+03  0.70277719203E+03  0.00000000000E+00 0. -1.
         -2   -1    0    0    0  501 -0.00000000000E+00 -0.00000000000E+00 -0.36490993720E+04  0.36490993720E+04  0.00000000000E+00 0.  1.
        -24    2    1    2    0    0  0.14888996957E+04 -0.40233218305E+03 -0.15250366193E+04  0.21704105500E+04  0.79068173518E+02 0.  0.
    5000000    2    1    2    0    0 -0.14888996957E+04  0.40233218305E+03 -0.14212855607E+04  0.21814660140E+04  0.60003986195E+03 0.  0.
        -24    2    4    4    0    0 -0.62203318530E+03  0.28248057304E+03 -0.98268900184E+03  0.11994057529E+04  0.78587073483E+02 0.  0.
         24    2    4    4    0    0 -0.86686651041E+03  0.11985161002E+03 -0.43859655884E+03  0.98206026107E+03  0.79078819243E+02 0.  0.
         13    1    3    3    0    0  0.11984624261E+04 -0.33332940734E+03 -0.11867649641E+04  0.17192532567E+04  0.00000000000E+00 0. -1.
        -14    1    3    3    0    0  0.29043726956E+03 -0.69002775715E+02 -0.33827165516E+03  0.45115729329E+03  0.00000000000E+00 0.  1.
         15    1    5    5    0    0 -0.23002553662E+03  0.12317509503E+03 -0.43559960478E+03  0.50777359615E+03  0.17770000000E+01 0. -1.
        -16    1    5    5    0    0 -0.39200764868E+03  0.15930547801E+03 -0.54708939705E+03  0.69163215679E+03  0.00000000000E+00 0.  1.
          2    1    6    6  502    0 -0.16179957844E+03  0.95548590053E+00 -0.56747171251E+02  0.17146503429E+03  0.00000000000E+00 0. -1.
         -1    1    6    6    0  502 -0.70506693196E+03  0.11889612412E+03 -0.38184938759E+03  0.81059522678E+03  0.00000000000E+00 0.  1.
<mgrwt>
<rscale>  0 0.15516875E+04</rscale>
<asrwt>0</asrwt>
<pdfrwt beam="1">  1        1 0.10811957E+00 0.15516875E+04</pdfrwt>
<pdfrwt beam="2">  1       -2 0.56139991E+00 0.15516875E+04</pdfrwt>
<totfact> 0.16467604E-02</totfact>
</mgrwt>
</event>
<event>
12    3  0.1201947E-007  0.3985751E+03  0.7818608E-02  0.1044274E+00
         -2   -1    0    0    0  501 -0.00000000000E+00  0.00000000000E+00  0.82752093421E+02  0.82752093421E+02  0.00000000000E+00 0.  1.
          1   -1    0    0  501    0  0.00000000000E+00 -0.00000000000E+00 -0.21189870084E+04  0.21189870084E+04  0.00000000000E+00 0. -1.
        -24    2    1    2    0    0 -0.89979806881E+02  0.16374031511E+03 -0.38904206878E+03  0.43867854075E+03  0.78599455460E+02 0.  0.
    5000000    2    1    2    0    0  0.89979806881E+02 -0.16374031511E+03 -0.16471928462E+04  0.17630605611E+04  0.60019247996E+03 0.  0.
        -24    2    4    4    0    0  0.32036016391E+03 -0.16183693690E+03 -0.11833178823E+04  0.12391248605E+04  0.79795867374E+02 0.  0.
         24    2    4    4    0    0 -0.23038035703E+03 -0.19033782012E+01 -0.46387496391E+03  0.52393570063E+03  0.79056337475E+02 0.  0.
         11    1    3    3    0    0 -0.20672506024E+02  0.10350459709E+03 -0.15753397556E+03  0.18962464919E+03  0.00000000000E+00 0. -1.
        -12    1    3    3    0    0 -0.69307300857E+02  0.60235718018E+02 -0.23150809322E+03  0.24905389157E+03  0.00000000000E+00 0.  1.
         15    1    5    5    0    0  0.50878615579E+02 -0.54350819561E+02 -0.31239801798E+03  0.32115155998E+03  0.17770000000E+01 0. -1.
        -16    1    5    5    0    0  0.26948154834E+03 -0.10748611734E+03 -0.87091986435E+03  0.91797330050E+03  0.00000000000E+00 0.  1.
          4    1    6    6  502    0 -0.63431005758E+02  0.20663299536E+02 -0.20033296229E+03  0.21114866852E+03  0.00000000000E+00 0. -1.
         -3    1    6    6    0  502 -0.16694935128E+03 -0.22566677737E+02 -0.26354200162E+03  0.31278703210E+03  0.00000000000E+00 0.  1.
<mgrwt>
<rscale>  0 0.39857514E+03</rscale>
<asrwt>0</asrwt>
<pdfrwt beam="1">  1        1 0.32599802E+00 0.39857514E+03</pdfrwt>
<pdfrwt beam="2">  1       -2 0.12731091E-01 0.39857514E+03</pdfrwt>
<totfact> 0.10862734E+02</totfact>
</mgrwt>
</event>
<event>
12    3  0.1201947E-007  0.1391070E+04  0.7818608E-02  0.8960308E-01
         -2   -1    0    0    0  501 -0.00000000000E+00  0.00000000000E+00  0.22514141977E+04  0.22514141977E+04  0.00000000000E+00 0.  1.
          1   -1    0    0  501    0  0.00000000000E+00 -0.00000000000E+00 -0.87354917306E+03  0.87354917306E+03  0.00000000000E+00 0. -1.
        -24    2    1    2    0    0  0.13138409212E+04  0.23926080621E+03  0.58942179136E+03  0.14621418322E+04  0.83767473663E+02 0.  0.
    5000000    2    1    2    0    0 -0.13138409212E+04 -0.23926080621E+03  0.78844323326E+03  0.16628215386E+04  0.59992419302E+03 0.  0.
        -24    2    4    4    0    0 -0.45024563269E+03  0.17285836115E+03  0.15518764836E+03  0.51262895703E+03  0.78128730954E+02 0.  0.
         24    2    4    4    0    0 -0.86359528853E+03 -0.41211916737E+03  0.63325558490E+03  0.11501925815E+04  0.79317768041E+02 0.  0.
         13    1    3    3    0    0  0.17666510236E+03  0.75918104213E+01  0.62008085268E+02  0.18738515581E+03  0.00000000000E+00 0. -1.
        -14    1    3    3    0    0  0.11371758189E+04  0.23166899579E+03  0.52741370610E+03  0.12747566764E+04  0.00000000000E+00 0.  1.
         15    1    5    5    0    0 -0.96039338473E+02  0.13018297086E+02  0.54461742758E+02  0.11118574435E+03  0.17770000000E+01 0. -1.
        -16    1    5    5    0    0 -0.35420629422E+03  0.15984006407E+03  0.10072590560E+03  0.40144321268E+03  0.00000000000E+00 0.  1.
          2    1    6    6  502    0 -0.72487438933E+02 -0.14864051130E+02  0.35839636772E+02  0.82218297130E+02  0.00000000000E+00 0. -1.
         -1    1    6    6    0  502 -0.79110784959E+03 -0.39725511624E+03  0.59741594813E+03  0.10679742844E+04  0.00000000000E+00 0.  1.
<mgrwt>
<rscale>  0 0.13910704E+04</rscale>
<asrwt>0</asrwt>
<pdfrwt beam="1">  1        1 0.13439218E+00 0.13910704E+04</pdfrwt>
<pdfrwt beam="2">  1       -2 0.34637141E+00 0.13910704E+04</pdfrwt>
<totfact> 0.26514026E-01</totfact>
</mgrwt>
</event>
<event>
12    3  0.1201947E-007  0.6233926E+03  0.7818608E-02  0.9858028E-01
         -2   -1    0    0    0  501 -0.00000000000E+00  0.00000000000E+00  0.50933149105E+03  0.50933149105E+03  0.00000000000E+00 0.  1.
          1   -1    0    0  501    0  0.00000000000E+00 -0.00000000000E+00 -0.39540712224E+04  0.39540712224E+04  0.00000000000E+00 0. -1.
        -24    2    1    2    0    0  0.53660631839E+03 -0.90461516998E+02 -0.35970931119E+04  0.36389182440E+04  0.80731057632E+02 0.  0.
    5000000    2    1    2    0    0 -0.53660631839E+03  0.90461516998E+02  0.15235338055E+03  0.82448446948E+03  0.60036110870E+03 0.  0.
        -24    2    4    4    0    0 -0.29163139269E+03 -0.17254362605E+03  0.26821673016E+03  0.43913816030E+03  0.77986777118E+02 0.  0.
         24    2    4    4    0    0 -0.24497492570E+03  0.26300514305E+03 -0.11586334961E+03  0.38534630917E+03  0.76700995536E+02 0.  0.
         11    1    3    3    0    0  0.31044491026E+03 -0.24426942644E+02 -0.22367491149E+04  0.22583222358E+04  0.00000000000E+00 0. -1.
        -12    1    3    3    0    0  0.22616140813E+03 -0.66034574354E+02 -0.13603439970E+04  0.13805960082E+04  0.00000000000E+00 0.  1.
         15    1    5    5    0    0 -0.14802453531E+03 -0.69124331384E+02  0.17388260945E+03  0.23859538101E+03  0.17770000000E+01 0. -1.
        -16    1    5    5    0    0 -0.14360685738E+03 -0.10341929467E+03  0.94334120712E+02  0.20054277929E+03  0.00000000000E+00 0.  1.
          4    1    6    6  502    0 -0.76607624250E+02  0.80970310158E+02 -0.74213562315E+02  0.13391255375E+03  0.00000000000E+00 0. -1.
         -3    1    6    6    0  502 -0.16836730145E+03  0.18203483289E+03 -0.41649787296E+02  0.25143375542E+03  0.00000000000E+00 0.  1.
<mgrwt>
<rscale>  0 0.62339265E+03</rscale>
<asrwt>0</asrwt>
<pdfrwt beam="1">  1        1 0.60831867E+00 0.62339265E+03</pdfrwt>
<pdfrwt beam="2">  1       -2 0.78358688E-01 0.62339265E+03</pdfrwt>
<totfact> 0.15401506E-01</totfact>
</mgrwt>
</event>
<event>
12    3  0.1201947E-007  0.6533728E+03  0.7818608E-02  0.9800471E-01
         -2   -1    0    0    0  501 -0.00000000000E+00  0.00000000000E+00  0.86031993060E+03  0.86031993060E+03  0.00000000000E+00 0.  1.
          1   -1    0    0  501    0  0.00000000000E+00 -0.00000000000E+00 -0.66336682686E+03  0.66336682686E+03  0.00000000000E+00 0. -1.
        -24    2    1    2    0    0 -0.31869068724E+03 -0.53800991528E+03 -0.18435209336E+02  0.63083427031E+03  0.81200964185E+02 0.  0.
    5000000    2    1    2    0    0  0.31869068724E+03  0.53800991528E+03  0.21538831307E+03  0.89285248714E+03  0.59981248346E+03 0.  0.
        -24    2    4    4    0    0  0.34194240972E+03  0.35139047010E+03 -0.11056753721E+03  0.50895668199E+03  0.80074027111E+02 0.  0.
         24    2    4    4    0    0 -0.23251722471E+02  0.18661944518E+03  0.32595585029E+03  0.38389580516E+03  0.75903313252E+02 0.  0.
         11    1    3    3    0    0 -0.21024481102E+03 -0.33336902675E+03 -0.49247156989E+02  0.39719399672E+03  0.00000000000E+00 0. -1.
        -12    1    3    3    0    0 -0.10844587623E+03 -0.20464088853E+03  0.30811947653E+02  0.23364027360E+03  0.00000000000E+00 0.  1.
         15    1    5    5    0    0  0.25986989828E+03  0.28439612126E+03 -0.54479934688E+02  0.38908191789E+03  0.17770000000E+01 0. -1.
        -16    1    5    5    0    0  0.82072511438E+02  0.66994348835E+02 -0.56087602524E+02  0.11987476409E+03  0.00000000000E+00 0.  1.
          2    1    6    6  502    0 -0.25707696812E+02  0.10270199868E+03  0.24663144167E+03  0.26839458681E+03  0.00000000000E+00 0. -1.
         -1    1    6    6    0  502  0.24559743411E+01  0.83917446503E+02  0.79324408620E+02  0.11550121835E+03  0.00000000000E+00 0.  1.
<mgrwt>
<rscale>  0 0.65337284E+03</rscale>
<asrwt>0</asrwt>
<pdfrwt beam="1">  1        1 0.10205644E+00 0.65337284E+03</pdfrwt>
<pdfrwt beam="2">  1       -2 0.13235691E+00 0.65337284E+03</pdfrwt>
<totfact> 0.11075414E+01</totfact>
</mgrwt>
</event>
<event>
12    3  0.1201947E-007  0.8536414E+03  0.7818608E-02  0.9485463E-01
          1   -1    0    0  501    0  0.00000000000E+00  0.00000000000E+00  0.21348237486E+04  0.21348237486E+04  0.00000000000E+00 0. -1.
         -2   -1    0    0    0  501 -0.00000000000E+00 -0.00000000000E+00 -0.51690281264E+03  0.51690281264E+03  0.00000000000E+00 0.  1.
        -24    2    1    2    0    0 -0.75933746557E+03 -0.37534051926E+03  0.13227126415E+04  0.15726895492E+04  0.79434212704E+02 0.  0.
    5000000    2    1    2    0    0  0.75933746557E+03  0.37534051926E+03  0.29520829447E+03  0.10790370121E+04  0.59974915113E+03 0.  0.
        -24    2    4    4    0    0  0.35455500539E+03  0.20709497468E+03  0.44394321298E+03  0.60966960682E+03  0.77549163371E+02 0.  0.
         24    2    4    4    0    0  0.40478246018E+03  0.16824554458E+03 -0.14873491850E+03  0.46936740525E+03  0.77642010509E+02 0.  0.
         11    1    3    3    0    0 -0.15263900861E+03 -0.89712362721E+02  0.22420502797E+03  0.28568316286E+03  0.00000000000E+00 0. -1.
        -12    1    3    3    0    0 -0.60669845696E+03 -0.28562815654E+03  0.10985076136E+04  0.12870063864E+04  0.00000000000E+00 0.  1.
         15    1    5    5    0    0  0.22333699152E+03  0.87307471004E+02  0.24190119018E+03  0.34061906848E+03  0.17770000000E+01 0. -1.
        -16    1    5    5    0    0  0.13121801387E+03  0.11978750367E+03  0.20204202280E+03  0.26905053834E+03  0.00000000000E+00 0.  1.
          4    1    6    6  502    0  0.20487459132E+03  0.11653354095E+03 -0.10631905917E+03  0.25856799236E+03  0.00000000000E+00 0. -1.
         -3    1    6    6    0  502  0.19990786886E+03  0.51712003633E+02 -0.42415859336E+02  0.21079941289E+03  0.00000000000E+00 0.  1.
<mgrwt>
<rscale>  0 0.85364137E+03</rscale>
<asrwt>0</asrwt>
<pdfrwt beam="1">  1        1 0.32843442E+00 0.85364137E+03</pdfrwt>
<pdfrwt beam="2">  1       -2 0.79523511E-01 0.85364137E+03</pdfrwt>
<totfact> 0.30566771E+00</totfact>
</mgrwt>
</event>
<event>
12    3  0.1201947E-007  0.8492424E+03  0.7818608E-02  0.9491354E-01
          1   -1    0    0  501    0  0.00000000000E+00  0.00000000000E+00  0.13585764718E+04  0.13585764718E+04  0.00000000000E+00 0. -1.
         -2   -1    0    0    0  501 -0.00000000000E+00 -0.00000000000E+00 -0.60439705016E+03  0.60439705016E+03  0.00000000000E+00 0.  1.
        -24    2    1    2    0    0 -0.72609464790E+03  0.33343678965E+03  0.43892144116E+03  0.91507098187E+03  0.79431353659E+02 0.  0.
    5000000    2    1    2    0    0  0.72609464790E+03 -0.33343678965E+03  0.31525798046E+03  0.10479025401E+04  0.60026544864E+03 0.  0.
        -24    2    4    4    0    0  0.41479501176E+02 -0.18250670289E+03  0.27702698298E+03  0.34123353237E+03  0.68316386739E+02 0.  0.
         24    2    4    4    0    0  0.68461514672E+03 -0.15093008676E+03  0.38230997482E+02  0.70666900770E+03  0.80260121228E+02 0.  0.
         11    1    3    3    0    0 -0.65049415378E+03  0.28317288232E+03  0.41185238952E+03  0.82033646521E+03  0.00000000000E+00 0. -1.
        -12    1    3    3    0    0 -0.75600494114E+02  0.50263907330E+02  0.27069051634E+02  0.94734516659E+02  0.00000000000E+00 0.  1.
         15    1    5    5    0    0  0.17552603520E+02 -0.13019023639E+02  0.65815708824E+02  0.69371853974E+02  0.17770000000E+01 0. -1.
        -16    1    5    5    0    0  0.23926897656E+02 -0.16948767925E+03  0.21121127415E+03  0.27186167839E+03  0.00000000000E+00 0.  1.
          4    1    6    6  502    0  0.36866152457E+03 -0.42481781011E+02  0.70316862062E+01  0.37116770606E+03  0.00000000000E+00 0. -1.
         -3    1    6    6    0  502  0.31595362216E+03 -0.10844830575E+03  0.31199311276E+02  0.33550130163E+03  0.00000000000E+00 0.  1.
<mgrwt>
<rscale>  0 0.84924243E+03</rscale>
<asrwt>0</asrwt>
<pdfrwt beam="1">  1        1 0.20901176E+00 0.84924243E+03</pdfrwt>
<pdfrwt beam="2">  1       -2 0.92984162E-01 0.84924243E+03</pdfrwt>
<totfact> 0.71846762E+00</totfact>
</mgrwt>
</event>
<event>
12    3  0.1201947E-007  0.9669598E+03  0.7818608E-02  0.9345544E-01
         -2   -1    0    0    0  501 -0.00000000000E+00  0.00000000000E+00  0.53689240781E+03  0.53689240781E+03  0.00000000000E+00 0.  1.
          1   -1    0    0  501    0  0.00000000000E+00 -0.00000000000E+00 -0.19917722209E+04  0.19917722209E+04  0.00000000000E+00 0. -1.
        -24    2    1    2    0    0 -0.85797672086E+03 -0.39578305086E+03 -0.66861694081E+03  0.11607914139E+04  0.87291557785E+02 0.  0.
    5000000    2    1    2    0    0  0.85797672086E+03  0.39578305086E+03 -0.78626287225E+03  0.13678732148E+04  0.60008295316E+03 0.  0.
        -24    2    4    4    0    0  0.64113236279E+02 -0.26403078287E+02 -0.34966102653E+03  0.36497088824E+03  0.78315299780E+02 0.  0.
         24    2    4    4    0    0  0.79386348458E+03  0.42218612915E+03 -0.43660184572E+03  0.10029023266E+04  0.82045994335E+02 0.  0.
         11    1    3    3    0    0 -0.77194497653E+03 -0.38007174271E+03 -0.59094394095E+03  0.10438238921E+04  0.00000000000E+00 0. -1.
        -12    1    3    3    0    0 -0.86031744332E+02 -0.15711308153E+02 -0.77672999863E+02  0.11696752175E+03  0.00000000000E+00 0.  1.
         15    1    5    5    0    0 -0.21135258959E+01 -0.16233166590E+02 -0.20371394996E+03  0.20437835949E+03  0.17770000000E+01 0. -1.
        -16    1    5    5    0    0  0.66226762175E+02 -0.10169911697E+02 -0.14594707657E+03  0.16059252876E+03  0.00000000000E+00 0.  1.
          2    1    6    6  502    0  0.14145370459E+03  0.11060867901E+03 -0.76260061507E+02  0.19508723022E+03  0.00000000000E+00 0. -1.
         -1    1    6    6    0  502  0.65240977999E+03  0.31157745014E+03 -0.36034178421E+03  0.80781509637E+03  0.00000000000E+00 0.  1.
<mgrwt>
<rscale>  0 0.96695984E+03</rscale>
<asrwt>0</asrwt>
<pdfrwt beam="1">  1        1 0.30642649E+00 0.96695984E+03</pdfrwt>
<pdfrwt beam="2">  1       -2 0.82598834E-01 0.96695984E+03</pdfrwt>
<totfact> 0.34462763E+00</totfact>
</mgrwt>
</event>
<event>
12    3  0.1292452E-007  0.6218402E+03  0.7818608E-02  0.9861103E-01
         -2   -1    0    0    0  501 -0.00000000000E+00  0.00000000000E+00  0.85782054523E+03  0.85782054523E+03  0.00000000000E+00 0.  1.
          1   -1    0    0  501    0  0.00000000000E+00 -0.00000000000E+00 -0.48490368870E+03  0.48490368870E+03  0.00000000000E+00 0. -1.
        -24    2    1    2    0    0  0.68777314954E+02  0.49358413571E+03  0.18923302202E+03  0.54168546878E+03  0.96220540381E+02 0.  0.
    5000000    2    1    2    0    0 -0.68777314954E+02 -0.49358413571E+03  0.18368383451E+03  0.80103876514E+03  0.59963967024E+03 0.  0.
        -24    2    4    4    0    0 -0.28240572973E+03 -0.16692890520E+03 -0.44342630379E+02  0.34157692197E+03  0.84203736133E+02 0.  0.
         24    2    4    4    0    0  0.21362841477E+03 -0.32665523051E+03  0.22802646489E+03  0.45946184317E+03  0.82270149067E+02 0.  0.
         11    1    3    3    0    0  0.69815973018E+02  0.17434563093E+03  0.81885204973E+02  0.20488010129E+03  0.00000000000E+00 0. -1.
        -12    1    3    3    0    0 -0.10386580641E+01  0.31923850478E+03  0.10734781705E+03  0.33680536749E+03  0.00000000000E+00 0.  1.
         15    1    5    5    0    0 -0.20288381114E+03 -0.16081322284E+03 -0.36014276420E+02  0.26138653236E+03  0.17770000000E+01 0. -1.
        -16    1    5    5    0    0 -0.79521918585E+02 -0.61156823610E+01 -0.83283539598E+01  0.80190389610E+02  0.00000000000E+00 0.  1.
          4    1    6    6  502    0  0.11235776008E+03 -0.23881761832E+03  0.16563324680E+03  0.31159668406E+03  0.00000000000E+00 0. -1.
         -3    1    6    6    0  502  0.10127065470E+03 -0.87837612186E+02  0.62393218088E+02  0.14786515912E+03  0.00000000000E+00 0.  1.
<mgrwt>
<rscale>  0 0.62184016E+03</rscale>
<asrwt>0</asrwt>
<pdfrwt beam="1">  1        1 0.74600568E-01 0.62184016E+03</pdfrwt>
<pdfrwt beam="2">  1       -2 0.13197239E+00 0.62184016E+03</pdfrwt>
<totfact> 0.17434638E+01</totfact>
</mgrwt>
</event>
<event>
12    3  0.1201947E-007  0.4314190E+03  0.7818608E-02  0.1033413E+00
          1   -1    0    0  501    0  0.00000000000E+00  0.00000000000E+00  0.71374096667E+03  0.71374096667E+03  0.00000000000E+00 0. -1.
         -2   -1    0    0    0  501 -0.00000000000E+00 -0.00000000000E+00 -0.88376641687E+03  0.88376641687E+03  0.00000000000E+00 0.  1.
        -24    2    1    2    0    0  0.40338374030E+03  0.10589579905E+03  0.46474150941E+03  0.62952357329E+03  0.79893032016E+02 0.  0.
    5000000    2    1    2    0    0 -0.40338374030E+03 -0.10589579905E+03 -0.63476695960E+03  0.96798381025E+03  0.60010932480E+03 0.  0.
        -24    2    4    4    0    0 -0.21238134864E+03 -0.97688725305E+02 -0.70708257144E+03  0.74913011620E+03  0.81124865864E+02 0.  0.
         24    2    4    4    0    0 -0.19100239166E+03 -0.82070737502E+01  0.72315611845E+02  0.21885369405E+03  0.78218424944E+02 0.  0.
         11    1    3    3    0    0  0.26549863180E+03  0.31226671891E+02  0.30755151391E+03  0.40749547511E+03  0.00000000000E+00 0. -1.
        -12    1    3    3    0    0  0.13788510850E+03  0.74669127164E+02  0.15718999549E+03  0.22202809818E+03  0.00000000000E+00 0.  1.
         15    1    5    5    0    0 -0.32661494704E+02  0.14288215492E+02 -0.10329859841E+03  0.10929174031E+03  0.17770000000E+01 0. -1.
        -16    1    5    5    0    0 -0.17971985394E+03 -0.11197694080E+03 -0.60378397304E+03  0.63983837589E+03  0.00000000000E+00 0.  1.
          2    1    6    6  502    0 -0.10904092776E+02  0.82584848857E+00 -0.14950604808E+02  0.18523008641E+02  0.00000000000E+00 0. -1.
         -1    1    6    6    0  502 -0.18009829889E+03 -0.90329222388E+01  0.87266216652E+02  0.20033068541E+03  0.00000000000E+00 0.  1.
<mgrwt>
<rscale>  0 0.43141896E+03</rscale>
<asrwt>0</asrwt>
<pdfrwt beam="1">  1        1 0.10980630E+00 0.43141896E+03</pdfrwt>
<pdfrwt beam="2">  1       -2 0.13596406E+00 0.43141896E+03</pdfrwt>
<totfact> 0.95981785E+00</totfact>
</mgrwt>
</event>
<event>
12    3  0.1201947E-007  0.5991705E+03  0.7818608E-02  0.9907128E-01
          1   -1    0    0  501    0  0.00000000000E+00  0.00000000000E+00  0.19233685032E+04  0.19233685032E+04  0.00000000000E+00 0. -1.
         -2   -1    0    0    0  501 -0.00000000000E+00 -0.00000000000E+00 -0.25522934182E+03  0.25522934182E+03  0.00000000000E+00 0.  1.
        -24    2    1    2    0    0  0.43868931170E+03 -0.19902554780E+03  0.21317618939E+03  0.53269520555E+03  0.79124038120E+02 0.  0.
    5000000    2    1    2    0    0 -0.43868931170E+03  0.19902554780E+03  0.14549629719E+04  0.16459026394E+04  0.60001563970E+03 0.  0.
        -24    2    4    4    0    0 -0.29935496309E+03 -0.15357662072E+03  0.93627533760E+03  0.99824463389E+03  0.81741476190E+02 0.  0.
         24    2    4    4    0    0 -0.13933434862E+03  0.35260216851E+03  0.51868763434E+03  0.64765800554E+03  0.81741545031E+02 0.  0.
         11    1    3    3    0    0  0.88448238727E+02 -0.47266862886E+02  0.11378473580E+02  0.10092926693E+03  0.00000000000E+00 0. -1.
        -12    1    3    3    0    0  0.35024107298E+03 -0.15175868491E+03  0.20179771581E+03  0.43176593862E+03  0.00000000000E+00 0.  1.
         15    1    5    5    0    0 -0.10029563881E+03 -0.46997333104E+02  0.42743267590E+03  0.44155386381E+03  0.17770000000E+01 0. -1.
        -16    1    5    5    0    0 -0.19905932428E+03 -0.10657928761E+03  0.50884266170E+03  0.55669077008E+03  0.00000000000E+00 0.  1.
          2    1    6    6  502    0 -0.23474252924E+02  0.84776531887E+02  0.18176883227E+03  0.20193565632E+03  0.00000000000E+00 0. -1.
         -1    1    6    6    0  502 -0.11586009569E+03  0.26782563663E+03  0.33691880207E+03  0.44572234922E+03  0.00000000000E+00 0.  1.
<mgrwt>
<rscale>  0 0.59917055E+03</rscale>
<asrwt>0</asrwt>
<pdfrwt beam="1">  1        1 0.29590284E+00 0.59917055E+03</pdfrwt>
<pdfrwt beam="2">  1       -2 0.39266054E-01 0.59917055E+03</pdfrwt>
<totfact> 0.19184067E+01</totfact>
</mgrwt>
</event>
<event>
12    3  0.1716927E-007  0.1006176E+04  0.7818608E-02  0.9301797E-01
          1   -1    0    0  501    0  0.00000000000E+00  0.00000000000E+00  0.80666159686E+03  0.80666159686E+03  0.00000000000E+00 0. -1.
         -2   -1    0    0    0  501 -0.00000000000E+00 -0.00000000000E+00 -0.13243836906E+04  0.13243836906E+04  0.00000000000E+00 0.  1.
        -24    2    1    2    0    0  0.64935400428E+03  0.67177291718E+03 -0.38237744871E+03  0.10125030432E+04  0.77526924803E+02 0.  0.
    5000000    2    1    2    0    0 -0.64935400428E+03 -0.67177291718E+03 -0.13534464507E+03  0.11185422443E+04  0.59989924506E+03 0.  0.
        -24    2    4    4    0    0  0.92213110583E+02 -0.94422314499E+02 -0.73135258328E+02  0.17312536573E+03  0.84881063900E+02 0.  0.
         24    2    4    4    0    0 -0.74156711486E+03 -0.57735060268E+03 -0.62209386740E+02  0.94541687858E+03  0.81777516748E+02 0.  0.
         11    1    3    3    0    0  0.26671066650E+03  0.32534664752E+03 -0.19065085621E+03  0.46187960514E+03  0.00000000000E+00 0. -1.
        -12    1    3    3    0    0  0.38264333778E+03  0.34642626966E+03 -0.19172659250E+03  0.55062343805E+03  0.00000000000E+00 0.  1.
         15    1    5    5    0    0  0.26342521568E+02 -0.33400878505E+02  0.17049270271E+02  0.45862647910E+02  0.17770000000E+01 0. -1.
        -16    1    5    5    0    0  0.65870589015E+02 -0.61021435994E+02 -0.90184528598E+02  0.12726271782E+03  0.00000000000E+00 0.  1.
          2    1    6    6  502    0 -0.29509596425E+03 -0.27926172639E+03 -0.37467652926E+02  0.40801049614E+03  0.00000000000E+00 0. -1.
         -1    1    6    6    0  502 -0.44647115061E+03 -0.29808887629E+03 -0.24741733814E+02  0.53740638244E+03  0.00000000000E+00 0.  1.
<mgrwt>
<rscale>  0 0.10061761E+04</rscale>
<asrwt>0</asrwt>
<pdfrwt beam="1">  1        1 0.12410179E+00 0.10061761E+04</pdfrwt>
<pdfrwt beam="2">  1       -2 0.20375133E+00 0.10061761E+04</pdfrwt>
<totfact> 0.23945995E+00</totfact>
</mgrwt>
</event>
<event>
12    3  0.1201947E-007  0.7092442E+03  0.7818608E-02  0.9701553E-01
         -2   -1    0    0    0  501 -0.00000000000E+00  0.00000000000E+00  0.42989492486E+03  0.42989492486E+03  0.00000000000E+00 0.  1.
          1   -1    0    0  501    0  0.00000000000E+00 -0.00000000000E+00 -0.12906911688E+04  0.12906911688E+04  0.00000000000E+00 0. -1.
        -24    2    1    2    0    0  0.52827323084E+03  0.26460636503E+03 -0.14050634345E+03  0.61247588926E+03  0.79344486534E+02 0.  0.
    5000000    2    1    2    0    0 -0.52827323084E+03 -0.26460636503E+03 -0.72028990049E+03  0.11081102044E+04  0.60000129125E+03 0.  0.
        -24    2    4    4    0    0 -0.64187088428E+03 -0.29476085455E+03 -0.64502453961E+03  0.95981580956E+03  0.79420010802E+02 0.  0.
         24    2    4    4    0    0  0.11359765344E+03  0.30154489512E+02 -0.75265360878E+02  0.14829439484E+03  0.50126169714E+02 0.  0.
         13    1    3    3    0    0  0.27482714897E+03  0.17329616502E+03 -0.52795384246E+02  0.32916390328E+03  0.00000000000E+00 0. -1.
        -14    1    3    3    0    0  0.25344608187E+03  0.91310200017E+02 -0.87710959202E+02  0.28331198599E+03  0.00000000000E+00 0.  1.
         15    1    5    5    0    0 -0.29500304804E+03 -0.14305419107E+03 -0.24699106323E+03  0.41048634932E+03  0.17770000000E+01 0. -1.
        -16    1    5    5    0    0 -0.34686783624E+03 -0.15170666348E+03 -0.39803347639E+03  0.54932946023E+03  0.00000000000E+00 0.  1.
          4    1    6    6  502    0  0.40348209955E+02  0.72832525937E+01 -0.55591295934E+02  0.69075437013E+02  0.00000000000E+00 0. -1.
         -3    1    6    6    0  502  0.73249443481E+02  0.22871236918E+02 -0.19674064944E+02  0.79218957831E+02  0.00000000000E+00 0.  1.
<mgrwt>
<rscale>  0 0.70924416E+03</rscale>
<asrwt>0</asrwt>
<pdfrwt beam="1">  1        1 0.19856787E+00 0.70924416E+03</pdfrwt>
<pdfrwt beam="2">  1       -2 0.66137680E-01 0.70924416E+03</pdfrwt>
<totfact> 0.17502242E+01</totfact>
</mgrwt>
</event>
<event>
12    3  0.1201947E-007  0.9545952E+03  0.7818608E-02  0.9359796E-01
         -2   -1    0    0    0  501 -0.00000000000E+00  0.00000000000E+00  0.47609888739E+03  0.47609888739E+03  0.00000000000E+00 0.  1.
          1   -1    0    0  501    0  0.00000000000E+00 -0.00000000000E+00 -0.20434790588E+04  0.20434790588E+04  0.00000000000E+00 0. -1.
        -24    2    1    2    0    0  0.87993983378E+03  0.71346690276E+02 -0.53913665694E+03  0.10374666819E+04  0.79273703050E+02 0.  0.
    5000000    2    1    2    0    0 -0.87993983378E+03 -0.71346690276E+02 -0.10282435144E+04  0.14821112642E+04  0.59998717760E+03 0.  0.
        -24    2    4    4    0    0 -0.91366300990E+03  0.21723825251E+01 -0.10089116248E+04  0.13633522337E+04  0.77729220581E+02 0.  0.
         24    2    4    4    0    0  0.33723176128E+02 -0.73519072801E+02 -0.19331889669E+02  0.11875903049E+03  0.84780178639E+02 0.  0.
         11    1    3    3    0    0  0.50801245749E+03  0.54069474563E+02 -0.35484381587E+03  0.62202435540E+03  0.00000000000E+00 0. -1.
        -12    1    3    3    0    0  0.37192737628E+03  0.17277215713E+02 -0.18429284108E+03  0.41544232654E+03  0.00000000000E+00 0.  1.
         15    1    5    5    0    0 -0.22643491341E+03  0.25714646146E+02 -0.21892322348E+03  0.31601352589E+03  0.17770000000E+01 0. -1.
        -16    1    5    5    0    0 -0.68722809650E+03 -0.23542263621E+02 -0.78998840129E+03  0.10473387079E+04  0.00000000000E+00 0.  1.
          2    1    6    6  502    0  0.57155098568E+02 -0.40868851750E+02 -0.31164944802E+02  0.76864960289E+02  0.00000000000E+00 0. -1.
         -1    1    6    6    0  502 -0.23431922440E+02 -0.32650221051E+02  0.11833055133E+02  0.41894070197E+02  0.00000000000E+00 0.  1.
<mgrwt>
<rscale>  0 0.95459524E+03</rscale>
<asrwt>0</asrwt>
<pdfrwt beam="1">  1        1 0.31438140E+00 0.95459524E+03</pdfrwt>
<pdfrwt beam="2">  1       -2 0.73245981E-01 0.95459524E+03</pdfrwt>
<totfact> 0.41714915E+00</totfact>
</mgrwt>
</event>
<event>
12    3  0.1201947E-007  0.1199056E+04  0.7818608E-02  0.9113683E-01
          1   -1    0    0  501    0  0.00000000000E+00  0.00000000000E+00  0.43933516763E+03  0.43933516763E+03  0.00000000000E+00 0. -1.
         -2   -1    0    0    0  501 -0.00000000000E+00 -0.00000000000E+00 -0.35945879719E+04  0.35945879719E+04  0.00000000000E+00 0.  1.
        -24    2    1    2    0    0  0.93281009014E+03  0.72103390370E+03 -0.13118144714E+04  0.17650219485E+04  0.66488470285E+02 0.  0.
    5000000    2    1    2    0    0 -0.93281009014E+03 -0.72103390370E+03 -0.18434383329E+04  0.22689011911E+04  0.59968589540E+03 0.  0.
        -24    2    4    4    0    0 -0.10993092089E+03 -0.23246313693E+03 -0.83107064646E+03  0.87366830511E+03  0.80585175693E+02 0.  0.
         24    2    4    4    0    0 -0.82287916925E+03 -0.48857076678E+03 -0.10123676864E+04  0.13952328860E+04  0.77168336970E+02 0.  0.
         13    1    3    3    0    0  0.18131057700E+03  0.16784918598E+03 -0.29871829670E+03  0.38765899364E+03  0.00000000000E+00 0. -1.
        -14    1    3    3    0    0  0.75149951314E+03  0.55318471772E+03 -0.10130961747E+04  0.13773629548E+04  0.00000000000E+00 0.  1.
         15    1    5    5    0    0 -0.62600131583E+02 -0.85008400688E+02 -0.23186814423E+03  0.25477676248E+03  0.17770000000E+01 0. -1.
        -16    1    5    5    0    0 -0.47330789306E+02 -0.14745473624E+03 -0.59920250223E+03  0.61889154263E+03  0.00000000000E+00 0.  1.
          2    1    6    6  502    0 -0.37482228032E+03 -0.20564165503E+03 -0.50395133959E+03  0.66086850793E+03  0.00000000000E+00 0. -1.
         -1    1    6    6    0  502 -0.44805688893E+03 -0.28292911175E+03 -0.50841634686E+03  0.73436437805E+03  0.00000000000E+00 0.  1.
<mgrwt>
<rscale>  0 0.11990562E+04</rscale>
<asrwt>0</asrwt>
<pdfrwt beam="1">  1        1 0.67590023E-01 0.11990562E+04</pdfrwt>
<pdfrwt beam="2">  1       -2 0.55301356E+00 0.11990562E+04</pdfrwt>
<totfact> 0.37096285E-02</totfact>
</mgrwt>
</event>
<event>
12    3  0.1201947E-007  0.9615279E+03  0.7818608E-02  0.9351777E-01
          1   -1    0    0  501    0  0.00000000000E+00  0.00000000000E+00  0.21306983348E+04  0.21306983348E+04  0.00000000000E+00 0. -1.
         -2   -1    0    0    0  501 -0.00000000000E+00 -0.00000000000E+00 -0.44494558984E+03  0.44494558984E+03  0.00000000000E+00 0.  1.
        -24    2    1    2    0    0  0.52360236013E+03 -0.70642969977E+03  0.74809121349E+03  0.11571397439E+04  0.78291576611E+02 0.  0.
    5000000    2    1    2    0    0 -0.52360236013E+03  0.70642969977E+03  0.93766153150E+03  0.14185041808E+04  0.59978547074E+03 0.  0.
        -24    2    4    4    0    0 -0.15547915536E+03  0.63776625627E+03  0.72250558710E+03  0.97945515057E+03  0.79990644468E+02 0.  0.
         24    2    4    4    0    0 -0.36812320477E+03  0.68663443500E+02  0.21515594440E+03  0.43904903018E+03  0.79010177378E+02 0.  0.
         11    1    3    3    0    0  0.27789614879E+03 -0.41252810370E+03  0.38079468534E+03  0.62642661042E+03  0.00000000000E+00 0. -1.
        -12    1    3    3    0    0  0.24570621134E+03 -0.29390159607E+03  0.36729652816E+03  0.53071313349E+03  0.00000000000E+00 0.  1.
         15    1    5    5    0    0 -0.11514020101E+03  0.57669297269E+03  0.64543640587E+03  0.87316857616E+03  0.17770000000E+01 0. -1.
        -16    1    5    5    0    0 -0.40338954346E+02  0.61073283580E+02  0.77069181229E+02  0.10628657441E+03  0.00000000000E+00 0.  1.
          2    1    6    6  502    0 -0.96646303395E+02  0.50948171015E+02  0.44950957723E+02  0.11813895501E+03  0.00000000000E+00 0. -1.
         -1    1    6    6    0  502 -0.27147690138E+03  0.17715272485E+02  0.17020498668E+03  0.32091007518E+03  0.00000000000E+00 0.  1.
<mgrwt>
<rscale>  0 0.96152789E+03</rscale>
<asrwt>0</asrwt>
<pdfrwt beam="1">  1        1 0.32779974E+00 0.96152789E+03</pdfrwt>
<pdfrwt beam="2">  1       -2 0.68453169E-01 0.96152789E+03</pdfrwt>
<totfact> 0.42240505E+00</totfact>
</mgrwt>
</event>
<event>
12    3  0.1201947E-007  0.5367600E+03  0.7818608E-02  0.1004606E+00
         -2   -1    0    0    0  501 -0.00000000000E+00  0.00000000000E+00  0.14655278808E+04  0.14655278808E+04  0.00000000000E+00 0.  1.
          1   -1    0    0  501    0  0.00000000000E+00 -0.00000000000E+00 -0.20631794964E+03  0.20631794964E+03  0.00000000000E+00 0. -1.
        -24    2    1    2    0    0 -0.10605551587E+03  0.35641100760E+03  0.31876015210E+03  0.49592614015E+03  0.77833945883E+02 0.  0.
    5000000    2    1    2    0    0  0.10605551587E+03 -0.35641100760E+03  0.94044977907E+03  0.11759196903E+04  0.60005395782E+03 0.  0.
        -24    2    4    4    0    0  0.34637404111E+03 -0.21304170002E+03  0.58173087868E+03  0.71438244675E+03  0.81053825989E+02 0.  0.
         24    2    4    4    0    0 -0.24031852524E+03 -0.14336930758E+03  0.35871890039E+03  0.46153724355E+03  0.77650664895E+02 0.  0.
         13    1    3    3    0    0 -0.74948705291E+02  0.32811917832E+03  0.29543977333E+03  0.44784390503E+03  0.00000000000E+00 0. -1.
        -14    1    3    3    0    0 -0.31106810575E+02  0.28291829278E+02  0.23320378773E+02  0.48082235120E+02  0.00000000000E+00 0.  1.
         15    1    5    5    0    0  0.12623677825E+03 -0.12467526529E+03  0.24805256522E+03  0.30498012853E+03  0.17770000000E+01 0. -1.
        -16    1    5    5    0    0  0.22013726286E+03 -0.88366434732E+02  0.33367831346E+03  0.40940231821E+03  0.00000000000E+00 0.  1.
          4    1    6    6  502    0 -0.15178918920E+03 -0.99102537487E+02  0.28641493403E+03  0.33896133309E+03  0.00000000000E+00 0. -1.
         -3    1    6    6    0  502 -0.88529336041E+02 -0.44266770088E+02  0.72303966358E+02  0.12257591046E+03  0.00000000000E+00 0.  1.
<mgrwt>
<rscale>  0 0.53675998E+03</rscale>
<asrwt>0</asrwt>
<pdfrwt beam="1">  1        1 0.31741224E-01 0.53675998E+03</pdfrwt>
<pdfrwt beam="2">  1       -2 0.22546582E+00 0.53675998E+03</pdfrwt>
<totfact> 0.11936875E+01</totfact>
</mgrwt>
</event>
<event>
12    3  0.1201947E-007  0.1270593E+04  0.7818608E-02  0.9053216E-01
          1   -1    0    0  501    0  0.00000000000E+00  0.00000000000E+00  0.16502519723E+04  0.16502519723E+04  0.00000000000E+00 0. -1.
         -2   -1    0    0    0  501 -0.00000000000E+00 -0.00000000000E+00 -0.11510189424E+04  0.11510189424E+04  0.00000000000E+00 0.  1.
        -24    2    1    2    0    0  0.12175069287E+04 -0.15003684947E+03 -0.23347713288E+03  0.12515133278E+04  0.83305825393E+02 0.  0.
    5000000    2    1    2    0    0 -0.12175069287E+04  0.15003684947E+03  0.73271016285E+03  0.15497575869E+04  0.60004184659E+03 0.  0.
        -24    2    4    4    0    0 -0.70684220897E+03  0.31323647324E+03  0.23036935876E+03  0.81061671571E+03  0.79286958416E+02 0.  0.
         24    2    4    4    0    0 -0.51066471973E+03 -0.16319962377E+03  0.50234080409E+03  0.73914087116E+03  0.81057823744E+02 0.  0.
         11    1    3    3    0    0  0.25090822997E+03 -0.15013255671E+02 -0.17824439754E+02  0.25198819092E+03  0.00000000000E+00 0. -1.
        -12    1    3    3    0    0  0.96659869873E+03 -0.13502359380E+03 -0.21565269313E+03  0.99952513691E+03  0.00000000000E+00 0.  1.
         15    1    5    5    0    0 -0.42960959796E+02  0.21710888013E+02 -0.46936098829E+01  0.48396223279E+02  0.17770000000E+01 0. -1.
        -16    1    5    5    0    0 -0.66388124917E+03  0.29152558522E+03  0.23506296865E+03  0.76222049243E+03  0.00000000000E+00 0.  1.
          2    1    6    6  502    0 -0.27894847048E+03 -0.12535908791E+03  0.25590583135E+03  0.39876677974E+03  0.00000000000E+00 0. -1.
         -1    1    6    6    0  502 -0.23171624925E+03 -0.37840535855E+02  0.24643497274E+03  0.34037409142E+03  0.00000000000E+00 0.  1.
<mgrwt>
<rscale>  0 0.12705930E+04</rscale>
<asrwt>0</asrwt>
<pdfrwt beam="1">  1        1 0.25388492E+00 0.12705930E+04</pdfrwt>
<pdfrwt beam="2">  1       -2 0.17707984E+00 0.12705930E+04</pdfrwt>
<totfact> 0.83043108E-01</totfact>
</mgrwt>
</event>
<event>
12    3  0.1201947E-007  0.5356179E+03  0.7818608E-02  0.1004879E+00
         -2   -1    0    0    0  501 -0.00000000000E+00  0.00000000000E+00  0.22164696703E+03  0.22164696703E+03  0.00000000000E+00 0.  1.
          1   -1    0    0  501    0  0.00000000000E+00 -0.00000000000E+00 -0.15120217361E+04  0.15120217361E+04  0.00000000000E+00 0. -1.
        -24    2    1    2    0    0 -0.34069154187E+03 -0.14547275302E+03 -0.76777449542E+03  0.85594646850E+03  0.77030075581E+02 0.  0.
    5000000    2    1    2    0    0  0.34069154187E+03  0.14547275302E+03 -0.52260027367E+03  0.87772223464E+03  0.60004352056E+03 0.  0.
        -24    2    4    4    0    0 -0.16103145500E+03  0.47308429910E+02 -0.11123758255E+03  0.21677607572E+03  0.80304733332E+02 0.  0.
         24    2    4    4    0    0  0.50172299687E+03  0.98164323111E+02 -0.41136269112E+03  0.66094615892E+03  0.79172984188E+02 0.  0.
         13    1    3    3    0    0 -0.15581210580E+03 -0.60539013750E+02 -0.26199269343E+03  0.31077734137E+03  0.00000000000E+00 0. -1.
        -14    1    3    3    0    0 -0.18487943608E+03 -0.84933739272E+02 -0.50578180199E+03  0.54516912713E+03  0.00000000000E+00 0.  1.
         15    1    5    5    0    0 -0.11403887397E+03  0.70056017640E+02 -0.79828811069E+02  0.15584770511E+03  0.17770000000E+01 0. -1.
        -16    1    5    5    0    0 -0.46992581028E+02 -0.22747587729E+02 -0.31408771485E+02  0.60928370611E+02  0.00000000000E+00 0.  1.
          2    1    6    6  502    0  0.47205017882E+03  0.10613975090E+03 -0.36838922114E+03  0.60811811048E+03  0.00000000000E+00 0. -1.
         -1    1    6    6    0  502  0.29672818046E+02 -0.79754277876E+01 -0.42973469982E+02  0.52828048435E+02  0.00000000000E+00 0.  1.
<mgrwt>
<rscale>  0 0.53561794E+03</rscale>
<asrwt>0</asrwt>
<pdfrwt beam="1">  1        1 0.23261873E+00 0.53561794E+03</pdfrwt>
<pdfrwt beam="2">  1       -2 0.34099533E-01 0.53561794E+03</pdfrwt>
<totfact> 0.47792712E+01</totfact>
</mgrwt>
</event>
<event>
12    3  0.1201947E-007  0.7157039E+03  0.7818608E-02  0.9690747E-01
         -2   -1    0    0    0  501 -0.00000000000E+00  0.00000000000E+00  0.88406925216E+03  0.88406925216E+03  0.00000000000E+00 0.  1.
          1   -1    0    0  501    0  0.00000000000E+00 -0.00000000000E+00 -0.79968757054E+03  0.79968757054E+03  0.00000000000E+00 0. -1.
        -24    2    1    2    0    0 -0.53348337710E+03  0.29251714072E+03 -0.36865286720E+03  0.71669145777E+03  0.87011021656E+02 0.  0.
    5000000    2    1    2    0    0  0.53348337710E+03 -0.29251714072E+03  0.45303454882E+03  0.96706536493E+03  0.59983691647E+03 0.  0.
        -24    2    4    4    0    0  0.30199979164E+03  0.13416288111E+03  0.79478392596E+02  0.34911101313E+03  0.79737894230E+02 0.  0.
         24    2    4    4    0    0  0.23148358546E+03 -0.42668002184E+03  0.37355615622E+03  0.61795435180E+03  0.81748930777E+02 0.  0.
         13    1    3    3    0    0 -0.11340450104E+03  0.43162944392E+02 -0.11073471191E+03  0.16427354335E+03  0.00000000000E+00 0. -1.
        -14    1    3    3    0    0 -0.42007887606E+03  0.24935419633E+03 -0.25791815529E+03  0.55241791442E+03  0.00000000000E+00 0.  1.
         15    1    5    5    0    0  0.11214368941E+03  0.55213076832E+02 -0.88509265961E+01  0.12532432948E+03  0.17770000000E+01 0. -1.
        -16    1    5    5    0    0  0.18985610223E+03  0.78949804281E+02  0.88329319192E+02  0.22378668365E+03  0.00000000000E+00 0.  1.
          2    1    6    6  502    0  0.17255371964E+03 -0.37398340545E+03  0.29594771948E+03  0.50717198896E+03  0.00000000000E+00 0. -1.
         -1    1    6    6    0  502  0.58929865818E+02 -0.52696616387E+02  0.77608436737E+02  0.11078236284E+03  0.00000000000E+00 0.  1.
<mgrwt>
<rscale>  0 0.71570393E+03</rscale>
<asrwt>0</asrwt>
<pdfrwt beam="1">  1        1 0.12302886E+00 0.71570393E+03</pdfrwt>
<pdfrwt beam="2">  1       -2 0.13601065E+00 0.71570393E+03</pdfrwt>
<totfact> 0.77015660E+00</totfact>
</mgrwt>
</event>
<event>
12    3  0.1201947E-007  0.1804185E+04  0.7818608E-02  0.8704077E-01
         -4   -1    0    0    0  501 -0.00000000000E+00  0.00000000000E+00  0.13386765111E+04  0.13386765111E+04  0.00000000000E+00 0.  1.
          1   -1    0    0  501    0  0.00000000000E+00 -0.00000000000E+00 -0.25039498026E+04  0.25039498026E+04  0.00000000000E+00 0. -1.
        -24    2    1    2    0    0 -0.11616991573E+03  0.17766896303E+04 -0.59962706588E+03  0.18804320602E+04  0.79690796453E+02 0.  0.
    5000000    2    1    2    0    0  0.11616991573E+03 -0.17766896303E+04 -0.56564622557E+03  0.19621942535E+04  0.60010761065E+03 0.  0.
        -24    2    4    4    0    0 -0.99780667797E+02 -0.16056834943E+03 -0.20539598257E+03  0.29047019572E+03  0.80293514316E+02 0.  0.
         24    2    4    4    0    0  0.21595058353E+03 -0.16161212809E+04 -0.36025024300E+03  0.16717240578E+04  0.79990242324E+02 0.  0.
         13    1    3    3    0    0 -0.97996565686E+02  0.88817972709E+03 -0.30147124109E+03  0.94305432702E+03  0.00000000000E+00 0. -1.
        -14    1    3    3    0    0 -0.18173350043E+02  0.88850990322E+03 -0.29815582479E+03  0.93737773316E+03  0.00000000000E+00 0.  1.
         15    1    5    5    0    0 -0.28679061236E+02 -0.15453589579E+02 -0.49534837421E+01  0.32999950219E+02  0.17770000000E+01 0. -1.
        -16    1    5    5    0    0 -0.71101606560E+02 -0.14511475985E+03 -0.20044249883E+03  0.25747024550E+03  0.00000000000E+00 0.  1.
          4    1    6    6  502    0  0.15006932066E+03 -0.13209633335E+04 -0.31049940669E+03  0.13652380052E+04  0.00000000000E+00 0. -1.
         -3    1    6    6    0  502  0.65881262862E+02 -0.29515794742E+03 -0.49750836304E+02  0.30648605260E+03  0.00000000000E+00 0.  1.
<mgrwt>
<rscale>  0 0.18041852E+04</rscale>
<asrwt>0</asrwt>
<pdfrwt beam="1">  1        1 0.38522304E+00 0.18041852E+04</pdfrwt>
<pdfrwt beam="2">  1       -4 0.20595023E+00 0.18041852E+04</pdfrwt>
<totfact> 0.70900610E-02</totfact>
</mgrwt>
</event>
<event>
12    3  0.1201947E-007  0.1120252E+04  0.7818608E-02  0.9185674E-01
          1   -1    0    0  501    0  0.00000000000E+00  0.00000000000E+00  0.25570572298E+04  0.25570572298E+04  0.00000000000E+00 0. -1.
         -2   -1    0    0    0  501 -0.00000000000E+00 -0.00000000000E+00 -0.56501259293E+03  0.56501259293E+03  0.00000000000E+00 0.  1.
        -24    2    1    2    0    0  0.62808004872E+03 -0.83126904905E+03  0.14882962310E+04  0.18185149831E+04  0.80487843985E+02 0.  0.
    5000000    2    1    2    0    0 -0.62808004872E+03  0.83126904905E+03  0.50374840580E+03  0.13035548396E+04  0.59999998660E+03 0.  0.
        -24    2    4    4    0    0 -0.72034589228E+03  0.60648770157E+03  0.41169685954E+03  0.10311753897E+04  0.84278368763E+02 0.  0.
         24    2    4    4    0    0  0.92265843558E+02  0.22478134748E+03  0.92051546265E+02  0.27237944990E+03  0.81715589060E+02 0.  0.
         11    1    3    3    0    0  0.16371253757E+03 -0.26270457997E+03  0.40023718469E+03  0.50596965848E+03  0.00000000000E+00 0. -1.
        -12    1    3    3    0    0  0.46436751116E+03 -0.56856446908E+03  0.10880590464E+04  0.13125453247E+04  0.00000000000E+00 0.  1.
         15    1    5    5    0    0 -0.22350181471E+03  0.16879280233E+03  0.16171133826E+03  0.32341580968E+03  0.17770000000E+01 0. -1.
        -16    1    5    5    0    0 -0.49684407757E+03  0.43769489923E+03  0.24998552128E+03  0.70775958000E+03  0.00000000000E+00 0.  1.
          2    1    6    6  502    0  0.35410894190E+02  0.17115876636E+02  0.32053994341E+01  0.39460857135E+02  0.00000000000E+00 0. -1.
         -1    1    6    6    0  502  0.56854949368E+02  0.20766547084E+03  0.88846146831E+02  0.23291859276E+03  0.00000000000E+00 0.  1.
<mgrwt>
<rscale>  0 0.11202522E+04</rscale>
<asrwt>0</asrwt>
<pdfrwt beam="1">  1        1 0.39339341E+00 0.11202522E+04</pdfrwt>
<pdfrwt beam="2">  1       -2 0.86925016E-01 0.11202522E+04</pdfrwt>
<totfact> 0.12409267E+00</totfact>
</mgrwt>
</event>
<event>
12    3  0.1201947E-007  0.5963018E+03  0.7818608E-02  0.9913108E-01
          1   -1    0    0  501    0  0.00000000000E+00  0.00000000000E+00  0.61267634467E+03  0.61267634467E+03  0.00000000000E+00 0. -1.
         -2   -1    0    0    0  501 -0.00000000000E+00 -0.00000000000E+00 -0.69953894187E+03  0.69953894187E+03  0.00000000000E+00 0.  1.
        -24    2    1    2    0    0  0.48991288865E+03 -0.80410514243E+02  0.97109962550E+02  0.51225532394E+03  0.80589594958E+02 0.  0.
    5000000    2    1    2    0    0 -0.48991288865E+03  0.80410514243E+02 -0.18397255975E+03  0.79995996260E+03  0.59967453653E+03 0.  0.
        -24    2    4    4    0    0  0.51858285089E+02 -0.81536582131E+02 -0.18656367703E+03  0.22524542369E+03  0.81191128512E+02 0.  0.
         24    2    4    4    0    0 -0.54177117374E+03  0.16194709637E+03  0.25911172804E+01  0.57471453891E+03  0.10269966227E+03 0.  0.
         11    1    3    3    0    0  0.25974400864E+03 -0.13770511887E+02  0.21537721785E+02  0.26099894729E+03  0.00000000000E+00 0. -1.
        -12    1    3    3    0    0  0.23016888000E+03 -0.66640002356E+02  0.75572240765E+02  0.25125637666E+03  0.00000000000E+00 0.  1.
         15    1    5    5    0    0 -0.16392507671E+01 -0.61970509688E+02 -0.59259956519E+02  0.85778385330E+02  0.17770000000E+01 0. -1.
        -16    1    5    5    0    0  0.53497535856E+02 -0.19566072443E+02 -0.12730372051E+03  0.13946703836E+03  0.00000000000E+00 0.  1.
          4    1    6    6  502    0 -0.22825342053E+03  0.11910751484E+03  0.16394481902E+02  0.25798256358E+03  0.00000000000E+00 0. -1.
         -3    1    6    6    0  502 -0.31351775321E+03  0.42839581539E+02 -0.13803364622E+02  0.31673197533E+03  0.00000000000E+00 0.  1.
<mgrwt>
<rscale>  0 0.59630184E+03</rscale>
<asrwt>0</asrwt>
<pdfrwt beam="1">  1        1 0.94257900E-01 0.59630184E+03</pdfrwt>
<pdfrwt beam="2">  1       -2 0.10762138E+00 0.59630184E+03</pdfrwt>
<totfact> 0.20852998E+01</totfact>
</mgrwt>
</event>
<event>
12    3  0.1602845E-007  0.9542827E+03  0.7818608E-02  0.9360159E-01
          1   -1    0    0  501    0  0.00000000000E+00  0.00000000000E+00  0.13656502628E+04  0.13656502628E+04  0.00000000000E+00 0. -1.
         -2   -1    0    0    0  501 -0.00000000000E+00 -0.00000000000E+00 -0.81663569529E+03  0.81663569529E+03  0.00000000000E+00 0.  1.
        -24    2    1    2    0    0 -0.88653839428E+03 -0.78549371965E+02  0.64960377763E+03  0.11042846309E+04  0.73069486130E+02 0.  0.
    5000000    2    1    2    0    0  0.88653839428E+03  0.78549371965E+02 -0.10058921010E+03  0.10780013272E+04  0.59987360656E+03 0.  0.
        -24    2    4    4    0    0  0.80016960017E+03 -0.99628626045E+02 -0.21133494490E+03  0.83722078098E+03  0.77967461120E+02 0.  0.
         24    2    4    4    0    0  0.86368794113E+02  0.17817799801E+03  0.11074573480E+03  0.24078054621E+03  0.80645434378E+02 0.  0.
         11    1    3    3    0    0 -0.42398271900E+03 -0.18062569689E+01  0.29869214764E+03  0.51863436797E+03  0.00000000000E+00 0. -1.
        -12    1    3    3    0    0 -0.46255567528E+03 -0.76743114996E+02  0.35091162999E+03  0.58565026295E+03  0.00000000000E+00 0.  1.
         15    1    5    5    0    0  0.20815145826E+03 -0.12662297385E+02 -0.22470347305E+02  0.20975089413E+03  0.17770000000E+01 0. -1.
        -16    1    5    5    0    0  0.59201814191E+03 -0.86966328660E+02 -0.18886459760E+03  0.62746988684E+03  0.00000000000E+00 0.  1.
          4    1    6    6  502    0  0.92459683709E+02  0.12617147957E+03  0.59044790133E+02  0.16719546229E+03  0.00000000000E+00 0. -1.
         -3    1    6    6    0  502 -0.60908895957E+01  0.52006518439E+02  0.51700944666E+02  0.73585083921E+02  0.00000000000E+00 0.  1.
<mgrwt>
<rscale>  0 0.95428267E+03</rscale>
<asrwt>0</asrwt>
<pdfrwt beam="1">  1        1 0.21010004E+00 0.95428267E+03</pdfrwt>
<pdfrwt beam="2">  1       -2 0.12563626E+00 0.95428267E+03</pdfrwt>
<totfact> 0.33850921E+00</totfact>
</mgrwt>
</event>
<event>
12    3  0.1201947E-007  0.8565561E+03  0.7818608E-02  0.9481580E-01
          1   -1    0    0  501    0  0.00000000000E+00  0.00000000000E+00  0.35325175463E+04  0.35325175463E+04  0.00000000000E+00 0. -1.
         -2   -1    0    0    0  501 -0.00000000000E+00 -0.00000000000E+00 -0.14257960289E+04  0.14257960289E+04  0.00000000000E+00 0.  1.
        -24    2    1    2    0    0  0.25914222809E+03  0.71265762600E+03 -0.12504833642E+04  0.14646433941E+04  0.80224941888E+02 0.  0.
    5000000    2    1    2    0    0 -0.25914222809E+03 -0.71265762600E+03  0.33572048817E+04  0.34936701812E+04  0.59989259977E+03 0.  0.
        -24    2    4    4    0    0  0.17212752657E+03 -0.31092275390E+03  0.15083528050E+04  0.15514865663E+04  0.75375970139E+02 0.  0.
         24    2    4    4    0    0 -0.43126975466E+03 -0.40173487210E+03  0.18488520767E+04  0.19421836149E+04  0.80241409021E+02 0.  0.
         11    1    3    3    0    0  0.10798786420E+03  0.20472353895E+03 -0.41763922707E+03  0.47748887967E+03  0.00000000000E+00 0. -1.
        -12    1    3    3    0    0  0.15115436389E+03  0.50793408705E+03 -0.83284413716E+03  0.98715451440E+03  0.00000000000E+00 0.  1.
         15    1    5    5    0    0  0.15151122498E+03 -0.30427198040E+03  0.14480716632E+04  0.14874312720E+04  0.17770000000E+01 0. -1.
        -16    1    5    5    0    0  0.20616301583E+02 -0.66507735025E+01  0.60281141781E+02  0.64055294345E+02  0.00000000000E+00 0.  1.
          4    1    6    6  502    0 -0.37253498171E+03 -0.36019010923E+03  0.16930092309E+04  0.17705364959E+04  0.00000000000E+00 0. -1.
         -3    1    6    6    0  502 -0.58734772947E+02 -0.41544762873E+02  0.15584284579E+03  0.17164711899E+03  0.00000000000E+00 0.  1.
<mgrwt>
<rscale>  0 0.85655606E+03</rscale>
<asrwt>0</asrwt>
<pdfrwt beam="1">  1        1 0.54346424E+00 0.85655606E+03</pdfrwt>
<pdfrwt beam="2">  1       -2 0.21935324E+00 0.85655606E+03</pdfrwt>
<totfact> 0.22093665E-02</totfact>
</mgrwt>
</event>
<event>
12    3  0.1419115E-007  0.6682936E+03  0.7818608E-02  0.9773045E-01
          1   -1    0    0  501    0  0.00000000000E+00  0.00000000000E+00  0.17145673240E+04  0.17145673240E+04  0.00000000000E+00 0. -1.
         -2   -1    0    0    0  501 -0.00000000000E+00 -0.00000000000E+00 -0.31366560788E+03  0.31366560788E+03  0.00000000000E+00 0.  1.
        -24    2    1    2    0    0  0.37393277748E+03  0.40789911642E+03  0.93253178874E+03  0.10872723716E+04  0.79613201301E+02 0.  0.
    5000000    2    1    2    0    0 -0.37393277748E+03 -0.40789911642E+03  0.46836992734E+03  0.94096056023E+03  0.59985746293E+03 0.  0.
        -24    2    4    4    0    0  0.12830058262E+03 -0.52125249678E+02  0.22048170076E+03  0.27227916455E+03  0.79659788643E+02 0.  0.
         24    2    4    4    0    0 -0.50223336010E+03 -0.35577386674E+03  0.24788822658E+03  0.66868139568E+03  0.82902616355E+02 0.  0.
         11    1    3    3    0    0  0.92168376453E+02  0.15456098751E+03  0.31377068920E+03  0.36171280580E+03  0.00000000000E+00 0. -1.
        -12    1    3    3    0    0  0.28176440103E+03  0.25333812890E+03  0.61876109954E+03  0.72555956582E+03  0.00000000000E+00 0.  1.
         15    1    5    5    0    0  0.48001476378E+02 -0.59159963476E+02  0.81228676784E+02  0.11137907646E+03  0.17770000000E+01 0. -1.
        -16    1    5    5    0    0  0.80299106242E+02  0.70347137981E+01  0.13925302397E+03  0.16090008809E+03  0.00000000000E+00 0.  1.
          4    1    6    6  502    0 -0.10104595401E+03 -0.11471711204E+03  0.55281953541E+02  0.16256197281E+03  0.00000000000E+00 0. -1.
         -3    1    6    6    0  502 -0.40118740608E+03 -0.24105675470E+03  0.19260627304E+03  0.50611942286E+03  0.00000000000E+00 0.  1.
<mgrwt>
<rscale>  0 0.66829363E+03</rscale>
<asrwt>0</asrwt>
<pdfrwt beam="1">  1        1 0.26377958E+00 0.66829363E+03</pdfrwt>
<pdfrwt beam="2">  1       -2 0.48256248E-01 0.66829363E+03</pdfrwt>
<totfact> 0.17399667E+01</totfact>
</mgrwt>
</event>
<event>
12    3  0.1201947E-007  0.4933754E+03  0.7818608E-02  0.1015523E+00
         -2   -1    0    0    0  501 -0.00000000000E+00  0.00000000000E+00  0.30895787921E+03  0.30895787921E+03  0.00000000000E+00 0.  1.
          1   -1    0    0  501    0  0.00000000000E+00 -0.00000000000E+00 -0.90461765814E+03  0.90461765814E+03  0.00000000000E+00 0. -1.
        -24    2    1    2    0    0 -0.18858149405E+03  0.25923610550E+03 -0.37203621858E+03  0.49735969870E+03  0.78672636031E+02 0.  0.
    5000000    2    1    2    0    0  0.18858149405E+03 -0.25923610550E+03 -0.22362356035E+03  0.71621583866E+03  0.60015938925E+03 0.  0.
        -24    2    4    4    0    0  0.39402250090E+03 -0.13513069428E+03 -0.10301691006E+03  0.43662732601E+03  0.80727333134E+02 0.  0.
         24    2    4    4    0    0 -0.20544100685E+03 -0.12410541122E+03 -0.12060665030E+03  0.27958851264E+03  0.77560375951E+02 0.  0.
         13    1    3    3    0    0 -0.77336831499E+02  0.94998969451E+02 -0.20125950788E+03  0.23560810516E+03  0.00000000000E+00 0. -1.
        -14    1    3    3    0    0 -0.11124466255E+03  0.16423713605E+03 -0.17077671070E+03  0.26175159354E+03  0.00000000000E+00 0.  1.
         15    1    5    5    0    0  0.21248553804E+03 -0.34380056563E+02 -0.70297730666E+02  0.22644429962E+03  0.17770000000E+01 0. -1.
        -16    1    5    5    0    0  0.18153696286E+03 -0.10075063771E+03 -0.32719179391E+02  0.21018302639E+03  0.00000000000E+00 0.  1.
          4    1    6    6  502    0 -0.15777731342E+03 -0.75420835500E+02 -0.50943002665E+02  0.18214601993E+03  0.00000000000E+00 0. -1.
         -3    1    6    6    0  502 -0.47663693431E+02 -0.48684575721E+02 -0.69663647630E+02  0.97442492711E+02  0.00000000000E+00 0.  1.
<mgrwt>
<rscale>  0 0.49337541E+03</rscale>
<asrwt>0</asrwt>
<pdfrwt beam="1">  1        1 0.13917195E+00 0.49337541E+03</pdfrwt>
<pdfrwt beam="2">  1       -2 0.47531982E-01 0.49337541E+03</pdfrwt>
<totfact> 0.69275291E+01</totfact>
</mgrwt>
</event>
<event>
12    3  0.1201947E-007  0.5580729E+03  0.7818608E-02  0.9996425E-01
          1   -1    0    0  501    0  0.00000000000E+00  0.00000000000E+00  0.29859928459E+03  0.29859928459E+03  0.00000000000E+00 0. -1.
         -2   -1    0    0    0  501 -0.00000000000E+00 -0.00000000000E+00 -0.15519698864E+04  0.15519698864E+04  0.00000000000E+00 0.  1.
        -24    2    1    2    0    0  0.17444880988E+03 -0.45376947248E+03 -0.17211767042E+03  0.52194682206E+03  0.80404422548E+02 0.  0.
    5000000    2    1    2    0    0 -0.17444880988E+03  0.45376947248E+03 -0.10812529314E+04  0.13286223490E+04  0.59982524371E+03 0.  0.
        -24    2    4    4    0    0 -0.22165670643E+03  0.87702843710E+02 -0.88583948778E+02  0.26659110695E+03  0.80001362637E+02 0.  0.
         24    2    4    4    0    0  0.47207896550E+02  0.36606662877E+03 -0.99266898266E+03  0.10620312420E+04  0.79279806220E+02 0.  0.
         13    1    3    3    0    0  0.10674225627E+03 -0.35498712320E+03 -0.10798167778E+03  0.38609559651E+03  0.00000000000E+00 0. -1.
        -14    1    3    3    0    0  0.67706553614E+02 -0.98782349287E+02 -0.64135992634E+02  0.13585122555E+03  0.00000000000E+00 0.  1.
         15    1    5    5    0    0 -0.18722342043E+03  0.40430707703E+02 -0.79570831513E+02  0.20741727566E+03  0.17770000000E+01 0. -1.
        -16    1    5    5    0    0 -0.34433285997E+02  0.47272136007E+02 -0.90131172652E+01  0.59173831294E+02  0.00000000000E+00 0.  1.
          4    1    6    6  502    0  0.49724443423E+02  0.12413814539E+03 -0.40503582876E+03  0.42654052796E+03  0.00000000000E+00 0. -1.
         -3    1    6    6    0  502 -0.25165468729E+01  0.24192848339E+03 -0.58763315390E+03  0.63549071405E+03  0.00000000000E+00 0.  1.
<mgrwt>
<rscale>  0 0.55807291E+03</rscale>
<asrwt>0</asrwt>
<pdfrwt beam="1">  1        1 0.45938352E-01 0.55807291E+03</pdfrwt>
<pdfrwt beam="2">  1       -2 0.23876459E+00 0.55807291E+03</pdfrwt>
<totfact> 0.61361611E+00</totfact>
</mgrwt>
</event>
<event>
12    3  0.1201947E-007  0.7462635E+03  0.7818608E-02  0.9641231E-01
          1   -1    0    0  501    0  0.00000000000E+00  0.00000000000E+00  0.17870733053E+04  0.17870733053E+04  0.00000000000E+00 0. -1.
         -4   -1    0    0    0  501 -0.00000000000E+00 -0.00000000000E+00 -0.58806725902E+03  0.58806725902E+03  0.00000000000E+00 0.  1.
        -24    2    1    2    0    0  0.66787560306E+03 -0.30356983487E+03  0.12214582435E+04  0.14271466258E+04  0.81085047645E+02 0.  0.
    5000000    2    1    2    0    0 -0.66787560306E+03  0.30356983487E+03 -0.22452197203E+02  0.94799393860E+03  0.59997995021E+03 0.  0.
        -24    2    4    4    0    0 -0.60016542758E+03  0.28669521401E+03  0.20135360026E+03  0.69986329488E+03  0.82901586081E+02 0.  0.
         24    2    4    4    0    0 -0.67710175475E+02  0.16874620854E+02 -0.22380579746E+03  0.24813064372E+03  0.81304124648E+02 0.  0.
         13    1    3    3    0    0  0.20101153958E+03 -0.11910961030E+03  0.44369597857E+03  0.50145673763E+03  0.00000000000E+00 0. -1.
        -14    1    3    3    0    0  0.46686406348E+03 -0.18446022456E+03  0.77776226496E+03  0.92568988814E+03  0.00000000000E+00 0.  1.
         15    1    5    5    0    0 -0.37124369123E+03  0.13225761425E+03  0.12134185717E+03  0.41236022946E+03  0.17770000000E+01 0. -1.
        -16    1    5    5    0    0 -0.22892173635E+03  0.15443759976E+03  0.80011743090E+02  0.28750306542E+03  0.00000000000E+00 0.  1.
          2    1    6    6  502    0 -0.58654598934E+02 -0.88993615185E+01 -0.20858576001E+03  0.21685843283E+03  0.00000000000E+00 0. -1.
         -1    1    6    6    0  502 -0.90555765414E+01  0.25773982372E+02 -0.15220037448E+02  0.31272210886E+02  0.00000000000E+00 0.  1.
<mgrwt>
<rscale>  0 0.74626352E+03</rscale>
<asrwt>0</asrwt>
<pdfrwt beam="1">  1        1 0.27493435E+00 0.74626352E+03</pdfrwt>
<pdfrwt beam="2">  1       -4 0.90471887E-01 0.74626352E+03</pdfrwt>
<totfact> 0.21500793E+00</totfact>
</mgrwt>
</event>
<event>
12    3  0.1201947E-007  0.2041995E+04  0.7818608E-02  0.8587235E-01
         -2   -1    0    0    0  501 -0.00000000000E+00  0.00000000000E+00  0.13056364263E+04  0.13056364263E+04  0.00000000000E+00 0.  1.
          1   -1    0    0  501    0  0.00000000000E+00 -0.00000000000E+00 -0.39631952038E+04  0.39631952038E+04  0.00000000000E+00 0. -1.
        -24    2    1    2    0    0  0.19877469177E+04  0.39528101376E+03 -0.21628249038E+03  0.20397114063E+04  0.79117738150E+02 0.  0.
    5000000    2    1    2    0    0 -0.19877469177E+04 -0.39528101376E+03 -0.24412762872E+04  0.32291202239E+04  0.60000218445E+03 0.  0.
        -24    2    4    4    0    0 -0.86535130154E+03 -0.33685239810E+01 -0.68366721001E+03  0.11056969226E+04  0.79502255060E+02 0.  0.
         24    2    4    4    0    0 -0.11223956162E+04 -0.39191248977E+03 -0.17576090772E+04  0.21234233013E+04  0.79809332468E+02 0.  0.
         11    1    3    3    0    0  0.96439140369E+03  0.21366152147E+03 -0.71990134531E+02  0.99039618574E+03  0.00000000000E+00 0. -1.
        -12    1    3    3    0    0  0.10233555140E+04  0.18161949228E+03 -0.14429235585E+03  0.10493152205E+04  0.00000000000E+00 0.  1.
         15    1    5    5    0    0 -0.44165631761E+03  0.20064305252E+01 -0.39917945675E+03  0.59532489035E+03  0.17770000000E+01 0. -1.
        -16    1    5    5    0    0 -0.42369498392E+03 -0.53749545062E+01 -0.28448775326E+03  0.51037203224E+03  0.00000000000E+00 0.  1.
          4    1    6    6  502    0 -0.30993241584E+03 -0.14607623730E+03 -0.51462427830E+03  0.61825117655E+03  0.00000000000E+00 0. -1.
         -3    1    6    6    0  502 -0.81246320033E+03 -0.24583625247E+03 -0.12429847989E+04  0.15051721247E+04  0.00000000000E+00 0.  1.
<mgrwt>
<rscale>  0 0.20419949E+04</rscale>
<asrwt>0</asrwt>
<pdfrwt beam="1">  1        1 0.60972232E+00 0.20419949E+04</pdfrwt>
<pdfrwt beam="2">  1       -2 0.20086715E+00 0.20419949E+04</pdfrwt>
<totfact> 0.10591388E-02</totfact>
</mgrwt>
</event>
<event>
12    3  0.1201947E-007  0.7633818E+03  0.7818608E-02  0.9614587E-01
          3   -1    0    0  501    0  0.00000000000E+00  0.00000000000E+00  0.78701698335E+03  0.78701698335E+03  0.00000000000E+00 0. -1.
         -4   -1    0    0    0  501 -0.00000000000E+00 -0.00000000000E+00 -0.80449604559E+03  0.80449604559E+03  0.00000000000E+00 0.  1.
        -24    2    1    2    0    0  0.20302987001E+03  0.64838330772E+03 -0.38588761196E+02  0.68491210639E+03  0.77417434382E+02 0.  0.
    5000000    2    1    2    0    0 -0.20302987001E+03 -0.64838330772E+03  0.21109698952E+02  0.90660092254E+03  0.59988129786E+03 0.  0.
        -24    2    4    4    0    0 -0.28285635211E+03 -0.13115847634E+03  0.16003295524E+03  0.35945037185E+03  0.79898443150E+02 0.  0.
         24    2    4    4    0    0  0.79826482103E+02 -0.51722483138E+03 -0.13892325629E+03  0.54715055069E+03  0.78614633086E+02 0.  0.
         11    1    3    3    0    0  0.41001488795E+02  0.23104580493E+03 -0.34704431774E+02  0.23720810198E+03  0.00000000000E+00 0. -1.
        -12    1    3    3    0    0  0.16202838121E+03  0.41733750279E+03 -0.38843294221E+01  0.44770400442E+03  0.00000000000E+00 0.  1.
         15    1    5    5    0    0 -0.21214781432E+03 -0.12889711667E+03  0.14373722162E+03  0.28685311296E+03  0.17770000000E+01 0. -1.
        -16    1    5    5    0    0 -0.70708537795E+02 -0.22613596610E+01  0.16295733620E+02  0.72597258893E+02  0.00000000000E+00 0.  1.
          4    1    6    6  502    0 -0.56227419306E+01 -0.62308593785E+02 -0.38663516454E+02  0.73544840681E+02  0.00000000000E+00 0. -1.
         -3    1    6    6    0  502  0.85449224034E+02 -0.45491623760E+03 -0.10025973984E+03  0.47360571001E+03  0.00000000000E+00 0.  1.
<mgrwt>
<rscale>  0 0.76338181E+03</rscale>
<asrwt>0</asrwt>
<pdfrwt beam="1">  1        3 0.12107954E+00 0.76338181E+03</pdfrwt>
<pdfrwt beam="2">  1       -4 0.12376862E+00 0.76338181E+03</pdfrwt>
<totfact> 0.61030380E-01</totfact>
</mgrwt>
</event>
<event>
12    3  0.1201947E-007  0.1127232E+04  0.7818608E-02  0.9179048E-01
         -4   -1    0    0    0  501 -0.00000000000E+00  0.00000000000E+00  0.45047712508E+03  0.45047712508E+03  0.00000000000E+00 0.  1.
          1   -1    0    0  501    0  0.00000000000E+00 -0.00000000000E+00 -0.29250310238E+04  0.29250310238E+04  0.00000000000E+00 0. -1.
        -24    2    1    2    0    0  0.46360324857E+03 -0.94501290740E+03 -0.88865014548E+03  0.13797660042E+04  0.77960104781E+02 0.  0.
    5000000    2    1    2    0    0 -0.46360324857E+03  0.94501290740E+03 -0.15859037533E+04  0.19957421448E+04  0.59993218490E+03 0.  0.
        -24    2    4    4    0    0  0.12561807855E+03  0.27495577706E+03 -0.47602147433E+03  0.56943606998E+03  0.79249055362E+02 0.  0.
         24    2    4    4    0    0 -0.58922132712E+03  0.67005713034E+03 -0.11098822789E+04  0.14263060748E+04  0.79699533170E+02 0.  0.
         13    1    3    3    0    0  0.14397279511E+03 -0.21722330586E+03 -0.21901414643E+03  0.34041346430E+03  0.00000000000E+00 0. -1.
        -14    1    3    3    0    0  0.31963045346E+03 -0.72778960154E+03 -0.66963599906E+03  0.10393525399E+04  0.00000000000E+00 0.  1.
         15    1    5    5    0    0  0.38345743228E+02  0.11812514780E+03 -0.13098233321E+03  0.18050893582E+03  0.17770000000E+01 0. -1.
        -16    1    5    5    0    0  0.87272335318E+02  0.15683062926E+03 -0.34503914112E+03  0.38892713416E+03  0.00000000000E+00 0.  1.
          4    1    6    6  502    0 -0.32842406493E+03  0.42788825743E+03 -0.64439822491E+03  0.84035694770E+03  0.00000000000E+00 0. -1.
         -3    1    6    6    0  502 -0.26079726218E+03  0.24216887291E+03 -0.46548405403E+03  0.58594912708E+03  0.00000000000E+00 0.  1.
<mgrwt>
<rscale>  0 0.11272324E+04</rscale>
<asrwt>0</asrwt>
<pdfrwt beam="1">  1        1 0.45000479E+00 0.11272324E+04</pdfrwt>
<pdfrwt beam="2">  1       -4 0.69304170E-01 0.11272324E+04</pdfrwt>
<totfact> 0.63232954E-01</totfact>
</mgrwt>
</event>
<event>
12    3  0.1201947E-007  0.7543817E+03  0.7818608E-02  0.9628501E-01
         -4   -1    0    0    0  501 -0.00000000000E+00  0.00000000000E+00  0.59372631944E+03  0.59372631944E+03  0.00000000000E+00 0.  1.
          1   -1    0    0  501    0  0.00000000000E+00 -0.00000000000E+00 -0.98461228457E+03  0.98461228457E+03  0.00000000000E+00 0. -1.
        -24    2    1    2    0    0 -0.64107293897E+03  0.41178004811E+02 -0.11801455194E+03  0.65793545269E+03  0.79255815396E+02 0.  0.
    5000000    2    1    2    0    0  0.64107293897E+03 -0.41178004811E+02 -0.27287141319E+03  0.92040315131E+03  0.60001084294E+03 0.  0.
        -24    2    4    4    0    0  0.54436131358E+03  0.20755747847E+03 -0.25808736233E+03  0.64227738243E+03  0.80633757160E+02 0.  0.
         24    2    4    4    0    0  0.96711625394E+02 -0.24873548328E+03 -0.14784050860E+02  0.27812576888E+03  0.76895357655E+02 0.  0.
         11    1    3    3    0    0 -0.65178538268E+02  0.26779588624E+02 -0.32480160390E+01  0.70540327656E+02  0.00000000000E+00 0. -1.
        -12    1    3    3    0    0 -0.57589440071E+03  0.14398416187E+02 -0.11476653590E+03  0.58739512504E+03  0.00000000000E+00 0.  1.
         15    1    5    5    0    0  0.25591912677E+03  0.12531224187E+03 -0.15945577000E+03  0.32653798817E+03  0.17770000000E+01 0. -1.
        -16    1    5    5    0    0  0.28844218682E+03  0.82245236601E+02 -0.98631592330E+02  0.31573939425E+03  0.00000000000E+00 0.  1.
          4    1    6    6  502    0  0.41081641855E+02 -0.19740202379E+03 -0.17434200800E+02  0.20238382260E+03  0.00000000000E+00 0. -1.
         -3    1    6    6    0  502  0.55629983539E+02 -0.51333459488E+02  0.26501499398E+01  0.75741946280E+02  0.00000000000E+00 0.  1.
<mgrwt>
<rscale>  0 0.75438165E+03</rscale>
<asrwt>0</asrwt>
<pdfrwt beam="1">  1        1 0.15147881E+00 0.75438165E+03</pdfrwt>
<pdfrwt beam="2">  1       -4 0.91342510E-01 0.75438165E+03</pdfrwt>
<totfact> 0.77350850E+00</totfact>
</mgrwt>
</event>
<event>
12    3  0.1201947E-007  0.7010027E+03  0.7818608E-02  0.9715519E-01
         -2   -1    0    0    0  501 -0.00000000000E+00  0.00000000000E+00  0.10666763505E+04  0.10666763505E+04  0.00000000000E+00 0.  1.
          1   -1    0    0  501    0  0.00000000000E+00 -0.00000000000E+00 -0.50247336329E+03  0.50247336329E+03  0.00000000000E+00 0. -1.
        -24    2    1    2    0    0 -0.54689697380E+03 -0.24971286564E+03  0.15387557050E+03  0.62580313492E+03  0.80616730646E+02 0.  0.
    5000000    2    1    2    0    0  0.54689697380E+03  0.24971286564E+03  0.41032741674E+03  0.94334657889E+03  0.60006779930E+03 0.  0.
        -24    2    4    4    0    0 -0.75088265812E+02 -0.38865705696E+02  0.18157132296E+03  0.21579675819E+03  0.80320014843E+02 0.  0.
         24    2    4    4    0    0  0.62198523961E+03  0.28857857134E+03  0.22875609378E+03  0.72754982070E+03  0.82801938495E+02 0.  0.
         11    1    3    3    0    0 -0.18818378866E+03 -0.12695714585E+03  0.69313607515E+02  0.23735128267E+03  0.00000000000E+00 0. -1.
        -12    1    3    3    0    0 -0.35871318514E+03 -0.12275571979E+03  0.84561962983E+02  0.38845185225E+03  0.00000000000E+00 0.  1.
         15    1    5    5    0    0 -0.53660437669E+02 -0.58720158362E+02  0.92263421710E+02  0.12183265688E+03  0.17770000000E+01 0. -1.
        -16    1    5    5    0    0 -0.21427828143E+02  0.19854452666E+02  0.89307901245E+02  0.93964101307E+02  0.00000000000E+00 0.  1.
          4    1    6    6  502    0  0.39708753150E+03  0.16068063494E+03  0.17810830572E+03  0.46391738779E+03  0.00000000000E+00 0. -1.
         -3    1    6    6    0  502  0.22489770811E+03  0.12789793639E+03  0.50647788058E+02  0.26363243291E+03  0.00000000000E+00 0.  1.
<mgrwt>
<rscale>  0 0.70100270E+03</rscale>
<asrwt>0</asrwt>
<pdfrwt beam="1">  1        1 0.77303595E-01 0.70100270E+03</pdfrwt>
<pdfrwt beam="2">  1       -2 0.16410405E+00 0.70100270E+03</pdfrwt>
<totfact> 0.92888256E+00</totfact>
</mgrwt>
</event>
<event>
12    3  0.1201947E-007  0.9762986E+03  0.7818608E-02  0.9334929E-01
         -2   -1    0    0    0  501 -0.00000000000E+00  0.00000000000E+00  0.38839761503E+03  0.38839761503E+03  0.00000000000E+00 0.  1.
          1   -1    0    0  501    0  0.00000000000E+00 -0.00000000000E+00 -0.27788470516E+04  0.27788470516E+04  0.00000000000E+00 0. -1.
        -24    2    1    2    0    0  0.75558807403E+03 -0.57654704851E+03 -0.10897411962E+04  0.14482392062E+04  0.80876986855E+02 0.  0.
    5000000    2    1    2    0    0 -0.75558807403E+03  0.57654704851E+03 -0.13007082404E+04  0.17190054605E+04  0.59984832215E+03 0.  0.
        -24    2    4    4    0    0  0.18732515231E+02 -0.83111756833E+01 -0.33904609156E+03  0.35052900576E+03  0.86593007279E+02 0.  0.
         24    2    4    4    0    0 -0.77432058926E+03  0.58485822420E+03 -0.96166214887E+03  0.13684764547E+04  0.79386403854E+02 0.  0.
         11    1    3    3    0    0  0.72386595010E+03 -0.56984503366E+03 -0.10577600906E+04  0.14026980022E+04  0.00000000000E+00 0. -1.
        -12    1    3    3    0    0  0.31722123927E+02 -0.67020148591E+01 -0.31981105617E+02  0.45541204047E+02  0.00000000000E+00 0.  1.
         15    1    5    5    0    0 -0.92009251101E+00 -0.62540519485E+01 -0.32765504249E+03  0.32772083293E+03  0.17770000000E+01 0. -1.
        -16    1    5    5    0    0  0.19652607742E+02 -0.20571237348E+01 -0.11391049070E+02  0.22808172835E+02  0.00000000000E+00 0.  1.
          4    1    6    6  502    0 -0.74607430578E+03  0.57732850970E+03 -0.92101884687E+03  0.13184122247E+04  0.00000000000E+00 0. -1.
         -3    1    6    6    0  502 -0.28246283476E+02  0.75297145005E+01 -0.40643302004E+02  0.50064230030E+02  0.00000000000E+00 0.  1.
<mgrwt>
<rscale>  0 0.97629857E+03</rscale>
<asrwt>0</asrwt>
<pdfrwt beam="1">  1        1 0.42751493E+00 0.97629857E+03</pdfrwt>
<pdfrwt beam="2">  1       -2 0.59753479E-01 0.97629857E+03</pdfrwt>
<totfact> 0.20281110E+00</totfact>
</mgrwt>
</event>
<event>
12    3  0.1201947E-007  0.2079751E+03  0.7818608E-02  0.1143180E+00
          1   -1    0    0  501    0  0.00000000000E+00  0.00000000000E+00  0.42195621034E+03  0.42195621034E+03  0.00000000000E+00 0. -1.
         -2   -1    0    0    0  501 -0.00000000000E+00 -0.00000000000E+00 -0.43277497525E+03  0.43277497525E+03  0.00000000000E+00 0.  1.
        -24    2    1    2    0    0  0.41510633082E+02  0.15550891845E+03  0.12495195512E+03  0.21880206211E+03  0.79719476397E+02 0.  0.
    5000000    2    1    2    0    0 -0.41510633082E+02 -0.15550891845E+03 -0.13577072002E+03  0.63592912348E+03  0.60005500190E+03 0.  0.
        -24    2    4    4    0    0  0.54031041422E+02 -0.32271152690E+02  0.21825481019E+03  0.24094415666E+03  0.80362576638E+02 0.  0.
         24    2    4    4    0    0 -0.95541674504E+02 -0.12323776576E+03 -0.35402553022E+03  0.39498496682E+03  0.79770229359E+02 0.  0.
         13    1    3    3    0    0 -0.92807718045E+01  0.11018924311E+03  0.88181502166E+02  0.14143471761E+03  0.00000000000E+00 0. -1.
        -14    1    3    3    0    0  0.50791404887E+02  0.45319675346E+02  0.36770452951E+02  0.77367344494E+02  0.00000000000E+00 0.  1.
         15    1    5    5    0    0 -0.95040384190E+01 -0.22096057332E+01  0.11849667129E+03  0.11891100849E+03  0.17770000000E+01 0. -1.
        -16    1    5    5    0    0  0.63535079841E+02 -0.30061546957E+02  0.99758138905E+02  0.12203314818E+03  0.00000000000E+00 0.  1.
          4    1    6    6  502    0 -0.64995755088E+02 -0.97351867439E+02 -0.16837425092E+03  0.20506516683E+03  0.00000000000E+00 0. -1.
         -3    1    6    6    0  502 -0.30545919416E+02 -0.25885898324E+02 -0.18565127929E+03  0.18991979999E+03  0.00000000000E+00 0.  1.
<mgrwt>
<rscale>  0 0.20797511E+03</rscale>
<asrwt>0</asrwt>
<pdfrwt beam="1">  1        1 0.64916340E-01 0.20797511E+03</pdfrwt>
<pdfrwt beam="2">  1       -2 0.66580766E-01 0.20797511E+03</pdfrwt>
<totfact> 0.10749165E+02</totfact>
</mgrwt>
</event>
<event>
12    3  0.1201947E-007  0.7334826E+03  0.7818608E-02  0.9661626E-01
         -2   -1    0    0    0  501 -0.00000000000E+00  0.00000000000E+00  0.64161341674E+03  0.64161341674E+03  0.00000000000E+00 0.  1.
          1   -1    0    0  501    0  0.00000000000E+00 -0.00000000000E+00 -0.11281341545E+04  0.11281341545E+04  0.00000000000E+00 0. -1.
        -24    2    1    2    0    0  0.66327095952E+03  0.28978586294E+03 -0.40816455033E+02  0.72962574094E+03  0.82362168133E+02 0.  0.
    5000000    2    1    2    0    0 -0.66327095952E+03 -0.28978586294E+03 -0.44570428276E+03  0.10401218303E+04  0.59941379879E+03 0.  0.
        -24    2    4    4    0    0 -0.26754282412E+03 -0.18477278429E+03  0.10338088069E+03  0.35056154022E+03  0.80533486415E+02 0.  0.
         24    2    4    4    0    0 -0.39572813540E+03 -0.10501307865E+03 -0.54908516345E+03  0.68956029012E+03  0.79814617484E+02 0.  0.
         11    1    3    3    0    0  0.24601099107E+03  0.10450820665E+03 -0.54875762337E+02  0.27286392631E+03  0.00000000000E+00 0. -1.
        -12    1    3    3    0    0  0.41725996845E+03  0.18527765628E+03  0.14059307304E+02  0.45676181463E+03  0.00000000000E+00 0.  1.
         15    1    5    5    0    0 -0.17901784983E+03 -0.15569602763E+03  0.47674753890E+02  0.24200141211E+03  0.17770000000E+01 0. -1.
        -16    1    5    5    0    0 -0.88524974297E+02 -0.29076756664E+02  0.55706126799E+02  0.10856012811E+03  0.00000000000E+00 0.  1.
          2    1    6    6  502    0 -0.22283064942E+03 -0.85614296691E+02 -0.36624231326E+03  0.43716900410E+03  0.00000000000E+00 0. -1.
         -1    1    6    6    0  502 -0.17289748597E+03 -0.19398781958E+02 -0.18284285019E+03  0.25239128603E+03  0.00000000000E+00 0.  1.
<mgrwt>
<rscale>  0 0.73348265E+03</rscale>
<asrwt>0</asrwt>
<pdfrwt beam="1">  1        1 0.17355910E+00 0.73348265E+03</pdfrwt>
<pdfrwt beam="2">  1       -2 0.98709756E-01 0.73348265E+03</pdfrwt>
<totfact> 0.92751547E+00</totfact>
</mgrwt>
</event>
<event>
12    3  0.1201947E-007  0.6121148E+03  0.7818608E-02  0.9880586E-01
         -2   -1    0    0    0  501 -0.00000000000E+00  0.00000000000E+00  0.35582804684E+03  0.35582804684E+03  0.00000000000E+00 0.  1.
          1   -1    0    0  501    0  0.00000000000E+00 -0.00000000000E+00 -0.13675075618E+04  0.13675075618E+04  0.00000000000E+00 0. -1.
        -24    2    1    2    0    0 -0.30170254721E+03 -0.35952810550E+03 -0.80329537384E+03  0.93362352071E+03  0.78003430348E+02 0.  0.
    5000000    2    1    2    0    0  0.30170254721E+03  0.35952810550E+03 -0.20838414110E+03  0.78971208791E+03  0.59994695256E+03 0.  0.
        -24    2    4    4    0    0 -0.22359199811E+02  0.41466110532E+03 -0.99833686277E+02  0.43445332442E+03  0.79618842643E+02 0.  0.
         24    2    4    4    0    0  0.32406174702E+03 -0.55132999816E+02 -0.10855045483E+03  0.35525876349E+03  0.79811805165E+02 0.  0.
         13    1    3    3    0    0 -0.16708746107E+03 -0.17129093370E+03 -0.47622094143E+03  0.53295889961E+03  0.00000000000E+00 0. -1.
        -14    1    3    3    0    0 -0.13461508614E+03 -0.18823717180E+03 -0.32707443241E+03  0.40066462109E+03  0.00000000000E+00 0.  1.
         15    1    5    5    0    0  0.24681746087E+02  0.22542495975E+03 -0.38382710331E+02  0.23000432876E+03  0.17770000000E+01 0. -1.
        -16    1    5    5    0    0 -0.47040945898E+02  0.18923614557E+03 -0.61450975946E+02  0.20444899566E+03  0.00000000000E+00 0.  1.
          4    1    6    6  502    0  0.40900027215E+02  0.79004836478E+01 -0.38736342417E+02  0.56883513357E+02  0.00000000000E+00 0. -1.
         -3    1    6    6    0  502  0.28316171981E+03 -0.63033483464E+02 -0.69814112409E+02  0.29837525013E+03  0.00000000000E+00 0.  1.
<mgrwt>
<rscale>  0 0.61211484E+03</rscale>
<asrwt>0</asrwt>
<pdfrwt beam="1">  1        1 0.21038578E+00 0.61211484E+03</pdfrwt>
<pdfrwt beam="2">  1       -2 0.54742776E-01 0.61211484E+03</pdfrwt>
<totfact> 0.23341570E+01</totfact>
</mgrwt>
</event>
<event>
12    3  0.1201947E-007  0.7572815E+03  0.7818608E-02  0.9623996E-01
         -2   -1    0    0    0  501 -0.00000000000E+00  0.00000000000E+00  0.50817022486E+03  0.50817022486E+03  0.00000000000E+00 0.  1.
          1   -1    0    0  501    0  0.00000000000E+00 -0.00000000000E+00 -0.18967095715E+04  0.18967095715E+04  0.00000000000E+00 0. -1.
        -24    2    1    2    0    0  0.74081017886E+03 -0.83923504233E+02 -0.39274731679E+02  0.75085332466E+03  0.79970838044E+02 0.  0.
    5000000    2    1    2    0    0 -0.74081017886E+03  0.83923504233E+02 -0.13492646149E+04  0.16540264717E+04  0.59953789890E+03 0.  0.
        -24    2    4    4    0    0 -0.35769960062E+03  0.76951418245E+02 -0.16956075536E+03  0.41106487534E+03  0.79705438512E+02 0.  0.
         24    2    4    4    0    0 -0.38311057823E+03  0.69720859882E+01 -0.11797038596E+04  0.12429615963E+04  0.80187333815E+02 0.  0.
         13    1    3    3    0    0  0.60570332949E+03 -0.39308276637E+02 -0.20360100347E+02  0.60731885995E+03  0.00000000000E+00 0. -1.
        -14    1    3    3    0    0  0.13510684937E+03 -0.44615227597E+02 -0.18914631332E+02  0.14353446470E+03  0.00000000000E+00 0.  1.
         15    1    5    5    0    0 -0.65950668892E+02  0.46459488548E+02 -0.44840978264E+02  0.92313844380E+02  0.17770000000E+01 0. -1.
        -16    1    5    5    0    0 -0.29174893173E+03  0.30491929697E+02 -0.12471977709E+03  0.31875103096E+03  0.00000000000E+00 0.  1.
          2    1    6    6  502    0 -0.19425964220E+03  0.43134704830E+02 -0.61988830097E+03  0.65104448160E+03  0.00000000000E+00 0. -1.
         -1    1    6    6    0  502 -0.18885093603E+03 -0.36162618841E+02 -0.55981555860E+03  0.59191711472E+03  0.00000000000E+00 0.  1.
<mgrwt>
<rscale>  0 0.75728147E+03</rscale>
<asrwt>0</asrwt>
<pdfrwt beam="1">  1        1 0.29180147E+00 0.75728147E+03</pdfrwt>
<pdfrwt beam="2">  1       -2 0.78180034E-01 0.75728147E+03</pdfrwt>
<totfact> 0.46541617E+00</totfact>
</mgrwt>
</event>
<event>
12    3  0.1201947E-007  0.1422345E+04  0.7818608E-02  0.8937801E-01
          1   -1    0    0  501    0  0.00000000000E+00  0.00000000000E+00  0.25191392659E+04  0.25191392659E+04  0.00000000000E+00 0. -1.
         -2   -1    0    0    0  501 -0.00000000000E+00 -0.00000000000E+00 -0.11088214782E+04  0.11088214782E+04  0.00000000000E+00 0.  1.
        -24    2    1    2    0    0 -0.63497703092E+03  0.12397027054E+04  0.15740064105E+04  0.21025701746E+04  0.56978340189E+02 0.  0.
    5000000    2    1    2    0    0  0.63497703092E+03 -0.12397027054E+04 -0.16368862278E+03  0.15253905695E+04  0.59996982994E+03 0.  0.
        -24    2    4    4    0    0  0.66117830385E+03 -0.94050054571E+03  0.41238481386E+02  0.11529850112E+04  0.77303284917E+02 0.  0.
         24    2    4    4    0    0 -0.26201272928E+02 -0.29920215967E+03 -0.20492710416E+03  0.37240555827E+03  0.80512997438E+02 0.  0.
         13    1    3    3    0    0 -0.37079377670E+03  0.78315405650E+03  0.98724107973E+03  0.13135688983E+04  0.00000000000E+00 0. -1.
        -14    1    3    3    0    0 -0.26418325422E+03  0.45654864888E+03  0.58676533079E+03  0.78900127631E+03  0.00000000000E+00 0.  1.
         15    1    5    5    0    0  0.63673110513E+03 -0.91666435298E+03  0.28293732223E+02  0.11164693141E+04  0.17770000000E+01 0. -1.
        -16    1    5    5    0    0  0.24447198723E+02 -0.23836192729E+02  0.12944749163E+02  0.36515697174E+02  0.00000000000E+00 0.  1.
          4    1    6    6  502    0 -0.24284992174E+02 -0.23932918461E+03 -0.12095169429E+03  0.26925365699E+03  0.00000000000E+00 0. -1.
         -3    1    6    6    0  502 -0.19162807544E+01 -0.59872975059E+02 -0.83975409873E+02  0.10315190128E+03  0.00000000000E+00 0.  1.
<mgrwt>
<rscale>  0 0.14223445E+04</rscale>
<asrwt>0</asrwt>
<pdfrwt beam="1">  1        1 0.38755989E+00 0.14223445E+04</pdfrwt>
<pdfrwt beam="2">  1       -2 0.17058792E+00 0.14223445E+04</pdfrwt>
<totfact> 0.23179575E-01</totfact>
</mgrwt>
</event>
<event>
12    3  0.1201947E-007  0.1349767E+04  0.7818608E-02  0.8991004E-01
          1   -1    0    0  501    0  0.00000000000E+00  0.00000000000E+00  0.17089535498E+04  0.17089535498E+04  0.00000000000E+00 0. -1.
         -2   -1    0    0    0  501 -0.00000000000E+00 -0.00000000000E+00 -0.11551675062E+04  0.11551675062E+04  0.00000000000E+00 0.  1.
        -24    2    1    2    0    0 -0.12861403718E+04 -0.20132460028E+03 -0.57974699971E+02  0.13055874975E+04  0.80678356362E+02 0.  0.
    5000000    2    1    2    0    0  0.12861403718E+04  0.20132460028E+03  0.61176074351E+03  0.15585335585E+04  0.60007249170E+03 0.  0.
        -24    2    4    4    0    0  0.74413271369E+03  0.36680912727E+03  0.20687991514E+03  0.85868698286E+03  0.79130296459E+02 0.  0.
         24    2    4    4    0    0  0.54200765806E+03 -0.16548452699E+03  0.40488082837E+03  0.69984657569E+03  0.68551544465E+02 0.  0.
         11    1    3    3    0    0 -0.94232064266E+03 -0.16765295870E+03 -0.72134410397E+02  0.95983284029E+03  0.00000000000E+00 0. -1.
        -12    1    3    3    0    0 -0.34381972910E+03 -0.33671641584E+02  0.14159710426E+02  0.34575465718E+03  0.00000000000E+00 0.  1.
         15    1    5    5    0    0  0.64382883115E+03  0.30717500468E+03  0.20403268691E+03  0.74195993314E+03  0.17770000000E+01 0. -1.
        -16    1    5    5    0    0  0.10030388254E+03  0.59634122584E+02  0.28472282265E+01  0.11672704973E+03  0.00000000000E+00 0.  1.
          2    1    6    6  502    0  0.24990328280E+03 -0.68525822421E+02  0.22617176657E+03  0.34394927981E+03  0.00000000000E+00 0. -1.
         -1    1    6    6    0  502  0.29210437526E+03 -0.96958704565E+02  0.17870906180E+03  0.35589729587E+03  0.00000000000E+00 0.  1.
<mgrwt>
<rscale>  0 0.13497671E+04</rscale>
<asrwt>0</asrwt>
<pdfrwt beam="1">  1        1 0.26291593E+00 0.13497671E+04</pdfrwt>
<pdfrwt beam="2">  1       -2 0.17771808E+00 0.13497671E+04</pdfrwt>
<totfact> 0.74310988E-01</totfact>
</mgrwt>
</event>
<event>
12    3  0.1201947E-007  0.1109278E+04  0.7818608E-02  0.9196196E-01
         -2   -1    0    0    0  501 -0.00000000000E+00  0.00000000000E+00  0.66980430578E+03  0.66980430578E+03  0.00000000000E+00 0.  1.
          1   -1    0    0  501    0  0.00000000000E+00 -0.00000000000E+00 -0.20504926331E+04  0.20504926331E+04  0.00000000000E+00 0. -1.
        -24    2    1    2    0    0 -0.64033926669E+03 -0.88465041413E+03 -0.57906639446E+03  0.12388042339E+04  0.81714803644E+02 0.  0.
    5000000    2    1    2    0    0  0.64033926669E+03  0.88465041413E+03 -0.80162193286E+03  0.14814927049E+04  0.59965171547E+03 0.  0.
        -24    2    4    4    0    0  0.52957011345E+03  0.54545817483E+03 -0.81238362833E+03  0.11155917522E+04  0.81293741035E+02 0.  0.
         24    2    4    4    0    0  0.11076915324E+03  0.33919223930E+03  0.10761695477E+02  0.36590095279E+03  0.80290177817E+02 0.  0.
         11    1    3    3    0    0 -0.48609929279E+03 -0.64468102796E+03 -0.46376511974E+03  0.93111988301E+03  0.00000000000E+00 0. -1.
        -12    1    3    3    0    0 -0.15423997390E+03 -0.23996938617E+03 -0.11530127473E+03  0.30768435093E+03  0.00000000000E+00 0.  1.
         15    1    5    5    0    0  0.15542594777E+03  0.15393741169E+03 -0.28901858224E+03  0.36247599998E+03  0.17770000000E+01 0. -1.
        -16    1    5    5    0    0  0.37414416568E+03  0.39152076314E+03 -0.52336504610E+03  0.75311575217E+03  0.00000000000E+00 0.  1.
          2    1    6    6  502    0  0.82936459189E+02  0.12774937353E+03  0.99146719200E+01  0.15263243240E+03  0.00000000000E+00 0. -1.
         -1    1    6    6    0  502  0.27832694052E+02  0.21144286576E+03  0.84702355699E+00  0.21326852039E+03  0.00000000000E+00 0.  1.
<mgrwt>
<rscale>  0 0.11092782E+04</rscale>
<asrwt>0</asrwt>
<pdfrwt beam="1">  1        1 0.31546040E+00 0.11092782E+04</pdfrwt>
<pdfrwt beam="2">  1       -2 0.10304682E+00 0.11092782E+04</pdfrwt>
<totfact> 0.18449371E+00</totfact>
</mgrwt>
</event>
<event>
12    3  0.1201947E-007  0.9696830E+03  0.7818608E-02  0.9342436E-01
          1   -1    0    0  501    0  0.00000000000E+00  0.00000000000E+00  0.23830026068E+04  0.23830026068E+04  0.00000000000E+00 0. -1.
         -4   -1    0    0    0  501 -0.00000000000E+00 -0.00000000000E+00 -0.48493059383E+03  0.48493059383E+03  0.00000000000E+00 0.  1.
        -24    2    1    2    0    0  0.95307567338E+03  0.13233015640E+03  0.11844645483E+04  0.15281151054E+04  0.79466972236E+02 0.  0.
    5000000    2    1    2    0    0 -0.95307567338E+03 -0.13233015640E+03  0.71360746465E+03  0.13398180952E+04  0.60001033758E+03 0.  0.
        -24    2    4    4    0    0 -0.46602535377E+03 -0.11210003476E+03  0.69168659260E+03  0.84527236433E+03  0.79429083816E+02 0.  0.
         24    2    4    4    0    0 -0.48705031961E+03 -0.20230121635E+02  0.21920872044E+02  0.49454573090E+03  0.80421910352E+02 0.  0.
         11    1    3    3    0    0  0.83077579917E+03  0.13930338765E+03  0.10517910754E+04  0.13475378765E+04  0.00000000000E+00 0. -1.
        -12    1    3    3    0    0  0.12229987421E+03 -0.69732312511E+01  0.13267347290E+03  0.18057722890E+03  0.00000000000E+00 0.  1.
         15    1    5    5    0    0 -0.33528148737E+03 -0.11660064726E+03  0.49994727850E+03  0.61315562928E+03  0.17770000000E+01 0. -1.
        -16    1    5    5    0    0 -0.13074386640E+03  0.45006124922E+01  0.19173931411E+03  0.23211673504E+03  0.00000000000E+00 0.  1.
          2    1    6    6  502    0 -0.47485500544E+03 -0.25194103878E+02  0.82916099094E+01  0.47559517435E+03  0.00000000000E+00 0. -1.
         -1    1    6    6    0  502 -0.12195314165E+02  0.49639822436E+01  0.13629262135E+02  0.18950556552E+02  0.00000000000E+00 0.  1.
<mgrwt>
<rscale>  0 0.96968300E+03</rscale>
<asrwt>0</asrwt>
<pdfrwt beam="1">  1        1 0.36661578E+00 0.96968300E+03</pdfrwt>
<pdfrwt beam="2">  1       -4 0.74604708E-01 0.96968300E+03</pdfrwt>
<totfact> 0.12998881E+00</totfact>
</mgrwt>
</event>
<event>
12    3  0.1201947E-007  0.3058011E+03  0.7818608E-02  0.1082376E+00
         -2   -1    0    0    0  501 -0.00000000000E+00  0.00000000000E+00  0.18387656007E+03  0.18387656007E+03  0.00000000000E+00 0.  1.
          1   -1    0    0  501    0  0.00000000000E+00 -0.00000000000E+00 -0.16450887446E+04  0.16450887446E+04  0.00000000000E+00 0. -1.
        -24    2    1    2    0    0 -0.57417031306E+02  0.20868329183E+03  0.46736009831E+01  0.23032152067E+03  0.78617609777E+02 0.  0.
    5000000    2    1    2    0    0  0.57417031306E+02 -0.20868329183E+03 -0.14658857855E+04  0.15986437840E+04  0.59999615015E+03 0.  0.
        -24    2    4    4    0    0  0.13858415794E+03  0.98780919589E+01 -0.59571074420E+02  0.17125495705E+03  0.80476095046E+02 0.  0.
         24    2    4    4    0    0 -0.81167126637E+02 -0.21856138379E+03 -0.14063147111E+04  0.14273888269E+04  0.73216225971E+02 0.  0.
         11    1    3    3    0    0 -0.47996485441E+02  0.11129891320E+03  0.37900645575E+02  0.12699436849E+03  0.00000000000E+00 0. -1.
        -12    1    3    3    0    0 -0.94205458654E+01  0.97384378629E+02 -0.33227044592E+02  0.10332715218E+03  0.00000000000E+00 0.  1.
         15    1    5    5    0    0  0.81785610207E+02  0.44056156148E+02 -0.45639719625E+02  0.10351798234E+03  0.17770000000E+01 0. -1.
        -16    1    5    5    0    0  0.56798547736E+02 -0.34178064189E+02 -0.13931354795E+02  0.67736974711E+02  0.00000000000E+00 0.  1.
          2    1    6    6  502    0 -0.19151991033E+02 -0.40455268138E+02 -0.47925016568E+03  0.48133579628E+03  0.00000000000E+00 0. -1.
         -1    1    6    6    0  502 -0.62015135604E+02 -0.17810611565E+03 -0.92706454538E+03  0.94605303064E+03  0.00000000000E+00 0.  1.
<mgrwt>
<rscale>  0 0.30580110E+03</rscale>
<asrwt>0</asrwt>
<pdfrwt beam="1">  1        1 0.25309058E+00 0.30580110E+03</pdfrwt>
<pdfrwt beam="2">  1       -2 0.28288701E-01 0.30580110E+03</pdfrwt>
<totfact> 0.57502131E+01</totfact>
</mgrwt>
</event>
<event>
12    3  0.1201947E-007  0.3419828E+03  0.7818608E-02  0.1065955E+00
          1   -1    0    0  501    0  0.00000000000E+00  0.00000000000E+00  0.77109120150E+03  0.77109120150E+03  0.00000000000E+00 0. -1.
         -2   -1    0    0    0  501 -0.00000000000E+00 -0.00000000000E+00 -0.14685343895E+04  0.14685343895E+04  0.00000000000E+00 0.  1.
        -24    2    1    2    0    0 -0.32273526086E+03  0.42179307729E+02  0.64892381102E+03  0.73012723289E+03  0.77759379511E+02 0.  0.
    5000000    2    1    2    0    0  0.32273526086E+03 -0.42179307729E+02 -0.13463669990E+04  0.15094983581E+04  0.59995337691E+03 0.  0.
        -24    2    4    4    0    0  0.27519389438E+03 -0.15733182872E+02 -0.13706177612E+04  0.14002156523E+04  0.77663460984E+02 0.  0.
         24    2    4    4    0    0  0.47541366476E+02 -0.26446124857E+02  0.24250762177E+02  0.10928270577E+03  0.91624403239E+02 0.  0.
         11    1    3    3    0    0 -0.11788735728E+03  0.49936531488E+02  0.28508220155E+03  0.31251071634E+03  0.00000000000E+00 0. -1.
        -12    1    3    3    0    0 -0.20484790357E+03 -0.77572237587E+01  0.36384160947E+03  0.41761651655E+03  0.00000000000E+00 0.  1.
         15    1    5    5    0    0  0.17966931735E+03 -0.14055563763E+02 -0.10608130185E+04  0.10760139592E+04  0.17770000000E+01 0. -1.
        -16    1    5    5    0    0  0.95524577032E+02 -0.16776191091E+01 -0.30980474269E+03  0.32420169311E+03  0.00000000000E+00 0.  1.
          4    1    6    6  502    0  0.31332051741E+02  0.11923336343E+02  0.50084723632E+02  0.60268921984E+02  0.00000000000E+00 0. -1.
         -3    1    6    6    0  502  0.16209314735E+02 -0.38369461200E+02 -0.25833961455E+02  0.49013783790E+02  0.00000000000E+00 0.  1.
<mgrwt>
<rscale>  0 0.34198281E+03</rscale>
<asrwt>0</asrwt>
<pdfrwt beam="1">  1        1 0.11862942E+00 0.34198281E+03</pdfrwt>
<pdfrwt beam="2">  1       -2 0.22592836E+00 0.34198281E+03</pdfrwt>
<totfact> 0.21129477E+00</totfact>
</mgrwt>
</event>
<event>
12    3  0.1201947E-007  0.6448737E+03  0.7818608E-02  0.9816446E-01
         -2   -1    0    0    0  501 -0.00000000000E+00  0.00000000000E+00  0.14921252622E+03  0.14921252622E+03  0.00000000000E+00 0.  1.
          1   -1    0    0  501    0  0.00000000000E+00 -0.00000000000E+00 -0.31876055743E+04  0.31876055743E+04  0.00000000000E+00 0. -1.
        -24    2    1    2    0    0  0.92623159745E+02  0.51329351871E+03 -0.17019028339E+04  0.17817798422E+04  0.78847092740E+02 0.  0.
    5000000    2    1    2    0    0 -0.92623159745E+02 -0.51329351871E+03 -0.13364902142E+04  0.15550382583E+04  0.59990716455E+03 0.  0.
        -24    2    4    4    0    0 -0.23460605311E+03 -0.55751092144E+03 -0.11642085744E+04  0.13161817248E+04  0.10532948463E+03 0.  0.
         24    2    4    4    0    0  0.14198289337E+03  0.44217402729E+02 -0.17228163973E+03  0.23885653344E+03  0.72506271897E+02 0.  0.
         13    1    3    3    0    0  0.96058049063E+02  0.31978490742E+03 -0.10633753423E+04  0.11145656797E+04  0.00000000000E+00 0. -1.
        -14    1    3    3    0    0 -0.34348893182E+01  0.19350861129E+03 -0.63852749166E+03  0.66721416256E+03  0.00000000000E+00 0.  1.
         15    1    5    5    0    0 -0.11554549550E+03 -0.38350954686E+03 -0.70381055733E+03  0.80980416916E+03  0.17770000000E+01 0. -1.
        -16    1    5    5    0    0 -0.11906055761E+03 -0.17400137458E+03 -0.46039801712E+03  0.50637755568E+03  0.00000000000E+00 0.  1.
          2    1    6    6  502    0  0.80067263325E+02  0.11460407159E+02 -0.42478512329E+02  0.91359354191E+02  0.00000000000E+00 0. -1.
         -1    1    6    6    0  502  0.61915630042E+02  0.32756995571E+02 -0.12980312740E+03  0.14749717924E+03  0.00000000000E+00 0.  1.
<mgrwt>
<rscale>  0 0.64487372E+03</rscale>
<asrwt>0</asrwt>
<pdfrwt beam="1">  1        1 0.49040080E+00 0.64487372E+03</pdfrwt>
<pdfrwt beam="2">  1       -2 0.22955776E-01 0.64487372E+03</pdfrwt>
<totfact> 0.69450507E+00</totfact>
</mgrwt>
</event>
<event>
12    3  0.1201947E-007  0.7023171E+03  0.7818608E-02  0.9713278E-01
          1   -1    0    0  501    0  0.00000000000E+00  0.00000000000E+00  0.32039767126E+04  0.32039767126E+04  0.00000000000E+00 0. -1.
         -2   -1    0    0    0  501 -0.00000000000E+00 -0.00000000000E+00 -0.35051416214E+03  0.35051416214E+03  0.00000000000E+00 0.  1.
        -24    2    1    2    0    0 -0.22425856597E+03 -0.56650304709E+03  0.25867178016E+04  0.26587222931E+04  0.80483786027E+02 0.  0.
    5000000    2    1    2    0    0  0.22425856597E+03  0.56650304709E+03  0.26674474889E+03  0.89576858170E+03  0.60002581955E+03 0.  0.
        -24    2    4    4    0    0 -0.14844820203E+03  0.24934573645E+03 -0.53236830112E+02  0.30580762639E+03  0.80461042150E+02 0.  0.
         24    2    4    4    0    0  0.37270676799E+03  0.31715731064E+03  0.31998157900E+03  0.58996095531E+03  0.78527850445E+02 0.  0.
         11    1    3    3    0    0 -0.13298441553E+03 -0.34962146354E+03  0.14147021880E+04  0.14633189343E+04  0.00000000000E+00 0. -1.
        -12    1    3    3    0    0 -0.91274150443E+02 -0.21688158355E+03  0.11720156136E+04  0.11954033588E+04  0.00000000000E+00 0.  1.
         15    1    5    5    0    0 -0.99650696511E+02  0.91506820945E+02 -0.14182144675E+02  0.13604429628E+03  0.17770000000E+01 0. -1.
        -16    1    5    5    0    0 -0.48797505515E+02  0.15783891551E+03 -0.39054685437E+02  0.16976333010E+03  0.00000000000E+00 0.  1.
          2    1    6    6  502    0  0.16356553996E+03  0.92878314218E+02  0.10463478720E+03  0.21524057658E+03  0.00000000000E+00 0. -1.
         -1    1    6    6    0  502  0.20914122803E+03  0.22427899642E+03  0.21534679180E+03  0.37472037873E+03  0.00000000000E+00 0.  1.
<mgrwt>
<rscale>  0 0.70231715E+03</rscale>
<asrwt>0</asrwt>
<pdfrwt beam="1">  1        1 0.49291947E+00 0.70231715E+03</pdfrwt>
<pdfrwt beam="2">  1       -2 0.53925258E-01 0.70231715E+03</pdfrwt>
<totfact> 0.13067578E+00</totfact>
</mgrwt>
</event>
<event>
12    3  0.1201947E-007  0.3885145E+03  0.7818608E-02  0.1047831E+00
          1   -1    0    0  501    0  0.00000000000E+00  0.00000000000E+00  0.10879825883E+04  0.10879825883E+04  0.00000000000E+00 0. -1.
         -2   -1    0    0    0  501 -0.00000000000E+00 -0.00000000000E+00 -0.20336649859E+03  0.20336649859E+03  0.00000000000E+00 0.  1.
        -24    2    1    2    0    0 -0.18118595814E+03 -0.15017340984E+03  0.80936161743E+02  0.26119190624E+03  0.79310435356E+02 0.  0.
    5000000    2    1    2    0    0  0.18118595814E+03  0.15017340984E+03  0.80367992799E+03  0.10301571807E+04  0.59995165289E+03 0.  0.
        -24    2    4    4    0    0  0.34010069323E+03  0.85032068388E+02  0.23113571343E+03  0.42698311452E+03  0.77407544029E+02 0.  0.
         24    2    4    4    0    0 -0.15891473509E+03  0.65141341451E+02  0.57254421455E+03  0.60317406616E+03  0.80714243304E+02 0.  0.
         13    1    3    3    0    0 -0.12767933189E+03 -0.14475482855E+03  0.51004098005E+02  0.19964315714E+03  0.00000000000E+00 0. -1.
        -14    1    3    3    0    0 -0.53506626244E+02 -0.54185812905E+01  0.29932063737E+02  0.61548749092E+02  0.00000000000E+00 0.  1.
         15    1    5    5    0    0  0.15298873352E+03  0.10642769651E+01  0.83714997710E+02  0.17440769432E+03  0.17770000000E+01 0. -1.
        -16    1    5    5    0    0  0.18711195971E+03  0.83967791423E+02  0.14742071572E+03  0.25257542020E+03  0.00000000000E+00 0.  1.
          4    1    6    6  502    0 -0.91799186449E+02  0.31413257186E+02  0.44234909105E+03  0.45286488240E+03  0.00000000000E+00 0. -1.
         -3    1    6    6    0  502 -0.67115548639E+02  0.33728084265E+02  0.13019512350E+03  0.15030918376E+03  0.00000000000E+00 0.  1.
<mgrwt>
<rscale>  0 0.38851450E+03</rscale>
<asrwt>0</asrwt>
<pdfrwt beam="1">  1        1 0.16738193E+00 0.38851450E+03</pdfrwt>
<pdfrwt beam="2">  1       -2 0.31287154E-01 0.38851450E+03</pdfrwt>
<totfact> 0.11355237E+02</totfact>
</mgrwt>
</event>
<event>
12    3  0.1201947E-007  0.9578453E+03  0.7818608E-02  0.9356027E-01
         -2   -1    0    0    0  501 -0.00000000000E+00  0.00000000000E+00  0.12925143541E+04  0.12925143541E+04  0.00000000000E+00 0.  1.
          1   -1    0    0  501    0  0.00000000000E+00 -0.00000000000E+00 -0.76626349586E+03  0.76626349586E+03  0.00000000000E+00 0. -1.
        -24    2    1    2    0    0 -0.83591434979E+03 -0.31338756784E+03  0.37872248121E+03  0.97314288192E+03  0.81312871046E+02 0.  0.
    5000000    2    1    2    0    0  0.83591434979E+03  0.31338756784E+03  0.14752837704E+03  0.10856349680E+04  0.59989506911E+03 0.  0.
        -24    2    4    4    0    0  0.67726100956E+03  0.10506339681E+02  0.24054451412E+03  0.72328314714E+03  0.80523222930E+02 0.  0.
         24    2    4    4    0    0  0.15865334023E+03  0.30288122816E+03 -0.93016137077E+02  0.36235182090E+03  0.75755657297E+02 0.  0.
         13    1    3    3    0    0 -0.38303443925E+03 -0.18545919905E+03  0.16833424241E+03  0.45765370460E+03  0.00000000000E+00 0. -1.
        -14    1    3    3    0    0 -0.45287991054E+03 -0.12792836879E+03  0.21038823879E+03  0.51548917732E+03  0.00000000000E+00 0.  1.
         15    1    5    5    0    0  0.19396432195E+03 -0.42706365045E+01  0.10740961817E+03  0.22176649956E+03  0.17770000000E+01 0. -1.
        -16    1    5    5    0    0  0.48329668761E+03  0.14776976186E+02  0.13313489594E+03  0.50151664758E+03  0.00000000000E+00 0.  1.
          4    1    6    6  502    0  0.11435979864E+03  0.22431262616E+03 -0.10211175279E+03  0.27170043772E+03  0.00000000000E+00 0. -1.
         -3    1    6    6    0  502  0.44293541597E+02  0.78568601999E+02  0.90956157088E+01  0.90651383180E+02  0.00000000000E+00 0.  1.
<mgrwt>
<rscale>  0 0.95784531E+03</rscale>
<asrwt>0</asrwt>
<pdfrwt beam="1">  1        1 0.11788669E+00 0.95784531E+03</pdfrwt>
<pdfrwt beam="2">  1       -2 0.19884836E+00 0.95784531E+03</pdfrwt>
<totfact> 0.28128907E+00</totfact>
</mgrwt>
</event>
<event>
12    3  0.1201947E-007  0.5226796E+03  0.7818608E-02  0.1008023E+00
         -2   -1    0    0    0  501 -0.00000000000E+00  0.00000000000E+00  0.42362712543E+03  0.42362712543E+03  0.00000000000E+00 0.  1.
          1   -1    0    0  501    0  0.00000000000E+00 -0.00000000000E+00 -0.89416078031E+03  0.89416078031E+03  0.00000000000E+00 0. -1.
        -24    2    1    2    0    0 -0.18690909830E+03 -0.39664735758E+03 -0.14086904859E+02  0.44566315962E+03  0.78441530109E+02 0.  0.
    5000000    2    1    2    0    0  0.18690909830E+03  0.39664735758E+03 -0.45644675002E+03  0.87212474612E+03  0.59999483321E+03 0.  0.
        -24    2    4    4    0    0  0.16728293505E+03 -0.25748169774E+02  0.62759311074E+02  0.19812165520E+03  0.81651151423E+02 0.  0.
         24    2    4    4    0    0  0.19626163255E+02  0.42239552736E+03 -0.51920606110E+03  0.67400309091E+03  0.76824897458E+02 0.  0.
         11    1    3    3    0    0 -0.86748827007E+02 -0.20726676197E+03  0.30757916351E+02  0.22678385970E+03  0.00000000000E+00 0. -1.
        -12    1    3    3    0    0 -0.10016027129E+03 -0.18938059562E+03 -0.44844821210E+02  0.21887929992E+03  0.00000000000E+00 0.  1.
         15    1    5    5    0    0  0.13183551322E+03 -0.49213304847E+02  0.28651755767E+02  0.14361975058E+03  0.17770000000E+01 0. -1.
        -16    1    5    5    0    0  0.35447421831E+02  0.23465135073E+02  0.34107555307E+02  0.54501904622E+02  0.00000000000E+00 0.  1.
          2    1    6    6  502    0  0.40805537116E+01  0.26475818978E+03 -0.37980646155E+03  0.46299729828E+03  0.00000000000E+00 0. -1.
         -1    1    6    6    0  502  0.15545609543E+02  0.15763733758E+03 -0.13939959954E+03  0.21100579264E+03  0.00000000000E+00 0.  1.
<mgrwt>
<rscale>  0 0.52267961E+03</rscale>
<asrwt>0</asrwt>
<pdfrwt beam="1">  1        1 0.13756319E+00 0.52267961E+03</pdfrwt>
<pdfrwt beam="2">  1       -2 0.65173405E-01 0.52267961E+03</pdfrwt>
<totfact> 0.36632473E+01</totfact>
</mgrwt>
</event>
<event>
12    3  0.1201947E-007  0.1218329E+04  0.7818608E-02  0.9096963E-01
         -2   -1    0    0    0  501 -0.00000000000E+00  0.00000000000E+00  0.12629899343E+04  0.12629899343E+04  0.00000000000E+00 0.  1.
          1   -1    0    0  501    0  0.00000000000E+00 -0.00000000000E+00 -0.17678419896E+04  0.17678419896E+04  0.00000000000E+00 0. -1.
        -24    2    1    2    0    0 -0.11361866112E+04  0.18333767796E+03 -0.11080089605E+04  0.15995853238E+04  0.80353170977E+02 0.  0.
    5000000    2    1    2    0    0  0.11361866112E+04 -0.18333767796E+03  0.60315690527E+03  0.14312466000E+04  0.60011320445E+03 0.  0.
        -24    2    4    4    0    0  0.74063937202E+03  0.15957590928E+03  0.28550156885E+03  0.81353254444E+03  0.79453790602E+02 0.  0.
         24    2    4    4    0    0  0.39554723918E+03 -0.34291358724E+03  0.31765533642E+03  0.61771405561E+03  0.81353518691E+02 0.  0.
         11    1    3    3    0    0 -0.96407638012E+03  0.18322151583E+03 -0.95419947379E+03  0.13687622242E+04  0.00000000000E+00 0. -1.
        -12    1    3    3    0    0 -0.17211023108E+03  0.11616212541E+00 -0.15380948670E+03  0.23082309966E+03  0.00000000000E+00 0.  1.
         15    1    5    5    0    0  0.18944289237E+03  0.53595048629E+02  0.10952822779E+03  0.22530119645E+03  0.17770000000E+01 0. -1.
        -16    1    5    5    0    0  0.55119647965E+03  0.10598086065E+03  0.17597334105E+03  0.58823134799E+03  0.00000000000E+00 0.  1.
          2    1    6    6  502    0  0.10430031982E+03 -0.67824220871E+02  0.11194723888E+03  0.16736447037E+03  0.00000000000E+00 0. -1.
         -1    1    6    6    0  502  0.29124691936E+03 -0.27508936637E+03  0.20570809755E+03  0.45034958524E+03  0.00000000000E+00 0.  1.
<mgrwt>
<rscale>  0 0.12183291E+04</rscale>
<asrwt>0</asrwt>
<pdfrwt beam="1">  1        1 0.27197569E+00 0.12183291E+04</pdfrwt>
<pdfrwt beam="2">  1       -2 0.19430614E+00 0.12183291E+04</pdfrwt>
<totfact> 0.53002466E-01</totfact>
</mgrwt>
</event>
<event>
12    3  0.1201947E-007  0.1547811E+04  0.7818608E-02  0.8853267E-01
          1   -1    0    0  501    0  0.00000000000E+00  0.00000000000E+00  0.11820641799E+04  0.11820641799E+04  0.00000000000E+00 0. -1.
         -2   -1    0    0    0  501 -0.00000000000E+00 -0.00000000000E+00 -0.21563806826E+04  0.21563806826E+04  0.00000000000E+00 0.  1.
        -24    2    1    2    0    0 -0.86432919184E+02  0.15078954593E+04 -0.78009712736E+03  0.17017230209E+04  0.78040668534E+02 0.  0.
    5000000    2    1    2    0    0  0.86432919184E+02 -0.15078954593E+04 -0.19421937529E+03  0.16367218416E+04  0.59993154233E+03 0.  0.
        -24    2    4    4    0    0  0.26655460526E+03 -0.62055150342E+03  0.85496517799E+02  0.68541198315E+03  0.79651780316E+02 0.  0.
         24    2    4    4    0    0 -0.18012168608E+03 -0.88734395586E+03 -0.27971589309E+03  0.95130985848E+03  0.83224684976E+02 0.  0.
         13    1    3    3    0    0 -0.31351958652E+02  0.66900240128E+03 -0.38892388156E+03  0.77447333322E+03  0.00000000000E+00 0. -1.
        -14    1    3    3    0    0 -0.55080960532E+02  0.83889305800E+03 -0.39117324581E+03  0.92724968763E+03  0.00000000000E+00 0.  1.
         15    1    5    5    0    0  0.84846837150E+02 -0.29425867461E+03  0.49150473570E+02  0.31017104981E+03  0.17770000000E+01 0. -1.
        -16    1    5    5    0    0  0.18170776811E+03 -0.32629282881E+03  0.36346044229E+02  0.37524093334E+03  0.00000000000E+00 0.  1.
          2    1    6    6  502    0 -0.65599840396E+02 -0.31004827087E+03 -0.56792359814E+02  0.32196062098E+03  0.00000000000E+00 0. -1.
         -1    1    6    6    0  502 -0.11452184568E+03 -0.57729568499E+03 -0.22292353328E+03  0.62934923749E+03  0.00000000000E+00 0.  1.
<mgrwt>
<rscale>  0 0.15478110E+04</rscale>
<asrwt>0</asrwt>
<pdfrwt beam="1">  1        1 0.18185603E+00 0.15478110E+04</pdfrwt>
<pdfrwt beam="2">  1       -2 0.33175087E+00 0.15478110E+04</pdfrwt>
<totfact> 0.18417098E-01</totfact>
</mgrwt>
</event>
<event>
12    3  0.1201947E-007  0.1165797E+04  0.7818608E-02  0.9143333E-01
         -2   -1    0    0    0  501 -0.00000000000E+00  0.00000000000E+00  0.10750624226E+04  0.10750624226E+04  0.00000000000E+00 0.  1.
          1   -1    0    0  501    0  0.00000000000E+00 -0.00000000000E+00 -0.21567993991E+04  0.21567993991E+04  0.00000000000E+00 0. -1.
        -24    2    1    2    0    0  0.61313786458E+03  0.90437987752E+03 -0.15517022707E+04  0.18995933305E+04  0.82667289176E+02 0.  0.
    5000000    2    1    2    0    0 -0.61313786458E+03 -0.90437987752E+03  0.46996529422E+03  0.13322684912E+04  0.60019242836E+03 0.  0.
        -24    2    4    4    0    0 -0.11447349243E+03 -0.67830175242E+03  0.28707771202E+03  0.74953789241E+03  0.78714621373E+02 0.  0.
         24    2    4    4    0    0 -0.49866437215E+03 -0.22607812510E+03  0.18288758220E+03  0.58273059880E+03  0.79684429817E+02 0.  0.
         13    1    3    3    0    0  0.42560712413E+03  0.64075787559E+03 -0.10263432115E+04  0.12826115808E+04  0.00000000000E+00 0. -1.
        -14    1    3    3    0    0  0.18753074045E+03  0.26362200193E+03 -0.52535905916E+03  0.61698174978E+03  0.00000000000E+00 0.  1.
         15    1    5    5    0    0 -0.65427608944E+02 -0.51609127135E+03  0.18749542247E+03  0.55298161231E+03  0.17770000000E+01 0. -1.
        -16    1    5    5    0    0 -0.49045883486E+02 -0.16221048107E+03  0.99582289549E+02  0.19655628010E+03  0.00000000000E+00 0.  1.
          4    1    6    6  502    0 -0.39851246958E+03 -0.16151353139E+03  0.11304003013E+03  0.44460865674E+03  0.00000000000E+00 0. -1.
         -3    1    6    6    0  502 -0.10015190257E+03 -0.64564593707E+02  0.69847552074E+02  0.13812194206E+03  0.00000000000E+00 0.  1.
<mgrwt>
<rscale>  0 0.11657966E+04</rscale>
<asrwt>0</asrwt>
<pdfrwt beam="1">  1        1 0.33181529E+00 0.11657966E+04</pdfrwt>
<pdfrwt beam="2">  1       -2 0.16539422E+00 0.11657966E+04</pdfrwt>
<totfact> 0.46189235E-01</totfact>
</mgrwt>
</event>
<event>
12    3  0.1201947E-007  0.2077947E+04  0.7818608E-02  0.8571021E-01
         -2   -1    0    0    0  501 -0.00000000000E+00  0.00000000000E+00  0.16449263611E+04  0.16449263611E+04  0.00000000000E+00 0.  1.
          1   -1    0    0  501    0  0.00000000000E+00 -0.00000000000E+00 -0.27897284604E+04  0.27897284604E+04  0.00000000000E+00 0. -1.
        -24    2    1    2    0    0  0.10829348815E+04  0.17451200733E+04 -0.11105178426E+03  0.20583827946E+04  0.80094958130E+02 0.  0.
    5000000    2    1    2    0    0 -0.10829348815E+04 -0.17451200733E+04 -0.10337503150E+04  0.23762720269E+04  0.59986415480E+03 0.  0.
        -24    2    4    4    0    0 -0.99548440162E+03 -0.17510985370E+04 -0.10046071408E+04  0.22524946820E+04  0.84625676021E+02 0.  0.
         24    2    4    4    0    0 -0.87450479892E+02  0.59784637018E+01 -0.29143174226E+02  0.12377734488E+03  0.82390400171E+02 0.  0.
         11    1    3    3    0    0  0.78811825159E+03  0.12869366942E+04 -0.47281610462E+02  0.15098251502E+04  0.00000000000E+00 0. -1.
        -12    1    3    3    0    0  0.29481662992E+03  0.45818337909E+03 -0.63770173793E+02  0.54855764439E+03  0.00000000000E+00 0.  1.
         15    1    5    5    0    0 -0.66413555881E+03 -0.11593540258E+04 -0.71048112292E+03  0.15132628263E+04  0.17770000000E+01 0. -1.
        -16    1    5    5    0    0 -0.33134884281E+03 -0.59174451122E+03 -0.29412601790E+03  0.73923185578E+03  0.00000000000E+00 0.  1.
          4    1    6    6  502    0 -0.21906560321E+02  0.20727894592E+01 -0.50210223274E+02  0.54820255039E+02  0.00000000000E+00 0. -1.
         -3    1    6    6    0  502 -0.65543919571E+02  0.39056742426E+01  0.21067049048E+02  0.68957089843E+02  0.00000000000E+00 0.  1.
<mgrwt>
<rscale>  0 0.20779465E+04</rscale>
<asrwt>0</asrwt>
<pdfrwt beam="1">  1        1 0.42918899E+00 0.20779465E+04</pdfrwt>
<pdfrwt beam="2">  1       -2 0.25306560E+00 0.20779465E+04</pdfrwt>
<totfact> 0.40327152E-02</totfact>
</mgrwt>
</event>
<event>
12    3  0.1201947E-007  0.7402778E+03  0.7818608E-02  0.9650728E-01
         -2   -1    0    0    0  501 -0.00000000000E+00  0.00000000000E+00  0.81435681975E+03  0.81435681975E+03  0.00000000000E+00 0.  1.
          1   -1    0    0  501    0  0.00000000000E+00 -0.00000000000E+00 -0.78357351564E+03  0.78357351564E+03  0.00000000000E+00 0. -1.
        -24    2    1    2    0    0  0.67341797626E+03  0.12394144587E+02  0.12852340140E+03  0.69057058682E+03  0.82000518877E+02 0.  0.
    5000000    2    1    2    0    0 -0.67341797626E+03 -0.12394144587E+02 -0.97740097294E+02  0.90735974858E+03  0.60008599480E+03 0.  0.
        -24    2    4    4    0    0 -0.18476976212E+03 -0.20287216887E+03 -0.22304589777E+03  0.36243990277E+03  0.79474704877E+02 0.  0.
         24    2    4    4    0    0 -0.48864821414E+03  0.19047802428E+03  0.12530580048E+03  0.54491984581E+03  0.78594782322E+02 0.  0.
         11    1    3    3    0    0  0.41361979675E+03  0.27377595138E+02  0.11409906175E+03  0.42994123420E+03  0.00000000000E+00 0. -1.
        -12    1    3    3    0    0  0.25979817951E+03 -0.14983450551E+02  0.14424339657E+02  0.26062935261E+03  0.00000000000E+00 0.  1.
         15    1    5    5    0    0 -0.17404287956E+03 -0.16138354231E+03 -0.21184761938E+03  0.31814798949E+03  0.17770000000E+01 0. -1.
        -16    1    5    5    0    0 -0.10726882559E+02 -0.41488626555E+02 -0.11198278394E+02  0.44291913279E+02  0.00000000000E+00 0.  1.
          2    1    6    6  502    0 -0.25988842951E+03  0.11971339595E+03  0.31962625098E+02  0.28791474843E+03  0.00000000000E+00 0. -1.
         -1    1    6    6    0  502 -0.22875978463E+03  0.70764628324E+02  0.93343175378E+02  0.25700509737E+03  0.00000000000E+00 0.  1.
<mgrwt>
<rscale>  0 0.74027777E+03</rscale>
<asrwt>0</asrwt>
<pdfrwt beam="1">  1        1 0.12054977E+00 0.74027777E+03</pdfrwt>
<pdfrwt beam="2">  1       -2 0.12528566E+00 0.74027777E+03</pdfrwt>
<totfact> 0.97639257E+00</totfact>
</mgrwt>
</event>
<event>
12    3  0.1201947E-007  0.2904249E+03  0.7818608E-02  0.1090128E+00
         -2   -1    0    0    0  501 -0.00000000000E+00  0.00000000000E+00  0.78754022191E+02  0.78754022191E+02  0.00000000000E+00 0.  1.
          1   -1    0    0  501    0  0.00000000000E+00 -0.00000000000E+00 -0.26818467950E+04  0.26818467950E+04  0.00000000000E+00 0. -1.
        -24    2    1    2    0    0 -0.58722898513E+02  0.20266986606E+03 -0.11862330229E+04  0.12074574040E+04  0.79253670739E+02 0.  0.
    5000000    2    1    2    0    0  0.58722898513E+02 -0.20266986606E+03 -0.14168597498E+04  0.15531434131E+04  0.60019951493E+03 0.  0.
        -24    2    4    4    0    0  0.15253655174E+03 -0.18629919773E+03 -0.14061634360E+04  0.14288012697E+04  0.78757024624E+02 0.  0.
         24    2    4    4    0    0 -0.93813653222E+02 -0.16370668335E+02 -0.10696313846E+02  0.12434214345E+03  0.79231036820E+02 0.  0.
         13    1    3    3    0    0 -0.59454480593E+02  0.70637351716E+02 -0.54603051860E+03  0.55378136296E+03  0.00000000000E+00 0. -1.
        -14    1    3    3    0    0  0.73158208009E+00  0.13203251435E+03 -0.64020250435E+03  0.65367604104E+03  0.00000000000E+00 0.  1.
         15    1    5    5    0    0  0.73872288957E+02 -0.76837924052E+02 -0.41319107389E+03  0.42672145824E+03  0.17770000000E+01 0. -1.
        -16    1    5    5    0    0  0.78664262779E+02 -0.10946127368E+03 -0.99297236208E+03  0.10020798115E+04  0.00000000000E+00 0.  1.
          2    1    6    6  502    0 -0.30705693722E+02 -0.37563507631E+02 -0.27383738253E+02  0.55711092731E+02  0.00000000000E+00 0. -1.
         -1    1    6    6    0  502 -0.63107959500E+02  0.21192839296E+02  0.16687424408E+02  0.68631050721E+02  0.00000000000E+00 0.  1.
<mgrwt>
<rscale>  0 0.29042488E+03</rscale>
<asrwt>0</asrwt>
<pdfrwt beam="1">  1        1 0.41259191E+00 0.29042488E+03</pdfrwt>
<pdfrwt beam="2">  1       -2 0.12116001E-01 0.29042488E+03</pdfrwt>
<totfact> 0.51047603E+01</totfact>
</mgrwt>
</event>
<event>
12    3  0.1201947E-007  0.7334406E+03  0.7818608E-02  0.9661694E-01
         -2   -1    0    0    0  501 -0.00000000000E+00  0.00000000000E+00  0.80975708464E+03  0.80975708464E+03  0.00000000000E+00 0.  1.
          1   -1    0    0  501    0  0.00000000000E+00 -0.00000000000E+00 -0.11862768747E+04  0.11862768747E+04  0.00000000000E+00 0. -1.
        -24    2    1    2    0    0 -0.31453266129E+02  0.68892662375E+03  0.39612378097E+03  0.79932955071E+03  0.80027994652E+02 0.  0.
    5000000    2    1    2    0    0  0.31453266129E+02 -0.68892662375E+03 -0.77264357105E+03  0.11967044086E+04  0.59959499072E+03 0.  0.
        -24    2    4    4    0    0 -0.12123778357E+02  0.29001755916E+02  0.53987597629E+02  0.98114734562E+02  0.75655486202E+02 0.  0.
         24    2    4    4    0    0  0.43577044486E+02 -0.71792837967E+03 -0.82663116868E+03  0.10985896741E+04  0.79120577690E+02 0.  0.
         13    1    3    3    0    0 -0.54468985530E+02  0.59789663595E+03  0.34357863927E+03  0.69173227410E+03  0.00000000000E+00 0. -1.
        -14    1    3    3    0    0  0.23015719401E+02  0.91029987798E+02  0.52545141702E+02  0.10759727661E+03  0.00000000000E+00 0.  1.
         15    1    5    5    0    0 -0.15163887701E+02  0.38264534700E+02 -0.20369187201E+01  0.41248331758E+02  0.17770000000E+01 0. -1.
        -16    1    5    5    0    0  0.30401093443E+01 -0.92627787837E+01  0.56024516349E+02  0.56866402803E+02  0.00000000000E+00 0.  1.
          2    1    6    6  502    0  0.57952071985E+02 -0.61779998988E+03 -0.73703945571E+03  0.96346376653E+03  0.00000000000E+00 0. -1.
         -1    1    6    6    0  502 -0.14375027500E+02 -0.10012838979E+03 -0.89591712968E+02  0.13512590754E+03  0.00000000000E+00 0.  1.
<mgrwt>
<rscale>  0 0.73344058E+03</rscale>
<asrwt>0</asrwt>
<pdfrwt beam="1">  1        1 0.18250413E+00 0.73344058E+03</pdfrwt>
<pdfrwt beam="2">  1       -2 0.12457801E+00 0.73344058E+03</pdfrwt>
<totfact> 0.47779532E+00</totfact>
</mgrwt>
</event>
<event>
12    3  0.1201947E-007  0.8433401E+03  0.7818608E-02  0.9499320E-01
         -4   -1    0    0    0  501 -0.00000000000E+00  0.00000000000E+00  0.54235494761E+03  0.54235494761E+03  0.00000000000E+00 0.  1.
          1   -1    0    0  501    0  0.00000000000E+00 -0.00000000000E+00 -0.20432189381E+04  0.20432189381E+04  0.00000000000E+00 0. -1.
        -24    2    1    2    0    0  0.40451281236E+03  0.62298938060E+03  0.66771524508E+02  0.75005036291E+03  0.79816832243E+02 0.  0.
    5000000    2    1    2    0    0 -0.40451281236E+03 -0.62298938060E+03 -0.15676355150E+04  0.18355235228E+04  0.59993258888E+03 0.  0.
        -24    2    4    4    0    0 -0.49326173002E+03 -0.24935064716E+03 -0.83723219969E+03  0.10063765643E+04  0.79706671137E+02 0.  0.
         24    2    4    4    0    0  0.88748917660E+02 -0.37363873343E+03 -0.73040331530E+03  0.82914695851E+03  0.80705652147E+02 0.  0.
         11    1    3    3    0    0  0.38202453751E+03  0.54932761973E+03  0.71328005512E+02  0.67289766342E+03  0.00000000000E+00 0. -1.
        -12    1    3    3    0    0  0.22488274851E+02  0.73661760863E+02 -0.45564810033E+01  0.77152699489E+02  0.00000000000E+00 0.  1.
         15    1    5    5    0    0 -0.16269784159E+03 -0.49412481117E+02 -0.21734771040E+03  0.27596261684E+03  0.17770000000E+01 0. -1.
        -16    1    5    5    0    0 -0.33056388843E+03 -0.19993816605E+03 -0.61988448929E+03  0.73041394746E+03  0.00000000000E+00 0.  1.
          4    1    6    6  502    0  0.50262861295E+02 -0.18836749533E+03 -0.28593056826E+03  0.34607074188E+03  0.00000000000E+00 0. -1.
         -3    1    6    6    0  502  0.38486056365E+02 -0.18527123810E+03 -0.44447274704E+03  0.48307621662E+03  0.00000000000E+00 0.  1.
<mgrwt>
<rscale>  0 0.84334006E+03</rscale>
<asrwt>0</asrwt>
<pdfrwt beam="1">  1        1 0.31434137E+00 0.84334006E+03</pdfrwt>
<pdfrwt beam="2">  1       -4 0.83439223E-01 0.84334006E+03</pdfrwt>
<totfact> 0.17296502E+00</totfact>
</mgrwt>
</event>
<event>
12    3  0.1201947E-007  0.4989784E+03  0.7818608E-02  0.1014046E+00
         -2   -1    0    0    0  501 -0.00000000000E+00  0.00000000000E+00  0.24636154844E+03  0.24636154844E+03  0.00000000000E+00 0.  1.
          1   -1    0    0  501    0  0.00000000000E+00 -0.00000000000E+00 -0.12459992379E+04  0.12459992379E+04  0.00000000000E+00 0. -1.
        -24    2    1    2    0    0  0.20406627498E+03 -0.31545108399E+03 -0.23905634139E+03  0.45328939242E+03  0.84681213648E+02 0.  0.
    5000000    2    1    2    0    0 -0.20406627498E+03  0.31545108399E+03 -0.76058134805E+03  0.10390713939E+04  0.60002745240E+03 0.  0.
        -24    2    4    4    0    0 -0.82537928127E+02  0.43562194744E+03 -0.29886438482E+03  0.54069421980E+03  0.80320160288E+02 0.  0.
         24    2    4    4    0    0 -0.12152834686E+03 -0.12017086345E+03 -0.46171696324E+03  0.49837717410E+03  0.77376210867E+02 0.  0.
         11    1    3    3    0    0  0.15547217724E+03 -0.28196719503E+03 -0.22444149131E+03  0.39249341394E+03  0.00000000000E+00 0. -1.
        -12    1    3    3    0    0  0.48594097749E+02 -0.33483888960E+02 -0.14614850077E+02  0.60795978475E+02  0.00000000000E+00 0.  1.
         15    1    5    5    0    0 -0.18399898470E+02  0.17247903462E+03 -0.73687108814E+02  0.18846888703E+03  0.17770000000E+01 0. -1.
        -16    1    5    5    0    0 -0.64138029657E+02  0.26314291282E+03 -0.22517727600E+03  0.35222533277E+03  0.00000000000E+00 0.  1.
          2    1    6    6  502    0 -0.86516500646E+02 -0.10001223521E+03 -0.24980393055E+03  0.28264740543E+03  0.00000000000E+00 0. -1.
         -1    1    6    6    0  502 -0.35011846212E+02 -0.20158628232E+02 -0.21191303269E+03  0.21572976867E+03  0.00000000000E+00 0.  1.
<mgrwt>
<rscale>  0 0.49897844E+03</rscale>
<asrwt>0</asrwt>
<pdfrwt beam="1">  1        1 0.19169219E+00 0.49897844E+03</pdfrwt>
<pdfrwt beam="2">  1       -2 0.37901776E-01 0.49897844E+03</pdfrwt>
<totfact> 0.59967700E+01</totfact>
</mgrwt>
</event>
<event>
12    3  0.1201947E-007  0.1161377E+04  0.7818608E-02  0.9147352E-01
          1   -1    0    0  501    0  0.00000000000E+00  0.00000000000E+00  0.23370792928E+04  0.23370792928E+04  0.00000000000E+00 0. -1.
         -4   -1    0    0    0  501 -0.00000000000E+00 -0.00000000000E+00 -0.76626091096E+03  0.76626091096E+03  0.00000000000E+00 0.  1.
        -24    2    1    2    0    0  0.61755167088E+03  0.90324008556E+03  0.14936143737E+04  0.18529961558E+04  0.74149429882E+02 0.  0.
    5000000    2    1    2    0    0 -0.61755167088E+03 -0.90324008556E+03  0.77204008171E+02  0.12503440479E+04  0.60015586386E+03 0.  0.
        -24    2    4    4    0    0 -0.68165072638E+03 -0.59432905093E+03 -0.29625064999E+02  0.90835016727E+03  0.79672130306E+02 0.  0.
         24    2    4    4    0    0  0.64099055500E+02 -0.30891103463E+03  0.10682907317E+03  0.34199388066E+03  0.77541261899E+02 0.  0.
         13    1    3    3    0    0  0.31401672244E+03  0.48561918707E+03  0.84624300709E+03  0.10249681575E+04  0.00000000000E+00 0. -1.
        -14    1    3    3    0    0  0.30353494844E+03  0.41762089849E+03  0.64737136658E+03  0.82802799835E+03  0.00000000000E+00 0.  1.
         15    1    5    5    0    0 -0.47257704009E+03 -0.43565440762E+03 -0.52483079043E+02  0.64488871367E+03  0.17770000000E+01 0. -1.
        -16    1    5    5    0    0 -0.20907368629E+03 -0.15867464331E+03  0.22858014044E+02  0.26346145360E+03  0.00000000000E+00 0.  1.
          2    1    6    6  502    0  0.45896654580E+02 -0.29846187891E+03  0.90015168005E+02  0.31510113700E+03  0.00000000000E+00 0. -1.
         -1    1    6    6    0  502  0.18202400920E+02 -0.10449155720E+02  0.16813905166E+02  0.26892743657E+02  0.00000000000E+00 0.  1.
<mgrwt>
<rscale>  0 0.11613766E+04</rscale>
<asrwt>0</asrwt>
<pdfrwt beam="1">  1        1 0.35955066E+00 0.11613766E+04</pdfrwt>
<pdfrwt beam="2">  1       -4 0.11788629E+00 0.11613766E+04</pdfrwt>
<totfact> 0.46106049E-01</totfact>
</mgrwt>
</event>
<event>
12    3  0.1201947E-007  0.1357401E+04  0.7818608E-02  0.8985244E-01
         -2   -1    0    0    0  501 -0.00000000000E+00  0.00000000000E+00  0.82920481803E+03  0.82920481803E+03  0.00000000000E+00 0.  1.
          1   -1    0    0  501    0  0.00000000000E+00 -0.00000000000E+00 -0.23687656717E+04  0.23687656717E+04  0.00000000000E+00 0. -1.
        -24    2    1    2    0    0  0.10630954742E+04 -0.79389552351E+03 -0.91345743129E+03  0.16128486857E+04  0.80214179857E+02 0.  0.
    5000000    2    1    2    0    0 -0.10630954742E+04  0.79389552351E+03 -0.62610342239E+03  0.15851218040E+04  0.60013627501E+03 0.  0.
        -24    2    4    4    0    0 -0.28522681966E+03  0.43922578088E+03 -0.11208849566E+02  0.52952509291E+03  0.77443918233E+02 0.  0.
         24    2    4    4    0    0 -0.77786865456E+03  0.35466974263E+03 -0.61489457283E+03  0.10555967111E+04  0.72930177456E+02 0.  0.
         11    1    3    3    0    0  0.79001718835E+03 -0.63152774354E+03 -0.70446807691E+03  0.12325703713E+04  0.00000000000E+00 0. -1.
        -12    1    3    3    0    0  0.27307828587E+03 -0.16236777997E+03 -0.20898935439E+03  0.38027831443E+03  0.00000000000E+00 0.  1.
         15    1    5    5    0    0 -0.15184430695E+03  0.29358151213E+03  0.11512249821E+02  0.33073023364E+03  0.17770000000E+01 0. -1.
        -16    1    5    5    0    0 -0.13338251270E+03  0.14564426875E+03 -0.22721099387E+02  0.19879485927E+03  0.00000000000E+00 0.  1.
          2    1    6    6  502    0 -0.38352483257E+03  0.21261506012E+03 -0.29934447583E+03  0.53094592587E+03  0.00000000000E+00 0. -1.
         -1    1    6    6    0  502 -0.39434382199E+03  0.14205468251E+03 -0.31555009700E+03  0.52465078527E+03  0.00000000000E+00 0.  1.
<mgrwt>
<rscale>  0 0.13574014E+04</rscale>
<asrwt>0</asrwt>
<pdfrwt beam="1">  1        1 0.36442549E+00 0.13574014E+04</pdfrwt>
<pdfrwt beam="2">  1       -2 0.12756997E+00 0.13574014E+04</pdfrwt>
<totfact> 0.64332942E-01</totfact>
</mgrwt>
</event>
<event>
12    3  0.1201947E-007  0.1456646E+04  0.7818608E-02  0.8913806E-01
          1   -1    0    0  501    0  0.00000000000E+00  0.00000000000E+00  0.13197771836E+04  0.13197771836E+04  0.00000000000E+00 0. -1.
         -2   -1    0    0    0  501 -0.00000000000E+00 -0.00000000000E+00 -0.25609016382E+04  0.25609016382E+04  0.00000000000E+00 0.  1.
        -24    2    1    2    0    0 -0.13065468290E+04 -0.52718681375E+03  0.55833148188E+03  0.15176507580E+04  0.80865485716E+02 0.  0.
    5000000    2    1    2    0    0  0.13065468290E+04  0.52718681375E+03 -0.17994559364E+04  0.23630280638E+04  0.60072407148E+03 0.  0.
        -24    2    4    4    0    0  0.76379186330E+03  0.39039792324E+02 -0.69424841254E+03  0.10359208191E+04  0.79050423111E+02 0.  0.
         24    2    4    4    0    0  0.54275496570E+03  0.48814702143E+03 -0.11052075239E+04  0.13271072446E+04  0.82822101835E+02 0.  0.
         11    1    3    3    0    0 -0.55366532008E+03 -0.19513559182E+03  0.20026379085E+03  0.62026508187E+03  0.00000000000E+00 0. -1.
        -12    1    3    3    0    0 -0.75288150892E+03 -0.33205122193E+03  0.35806769102E+03  0.89738567618E+03  0.00000000000E+00 0.  1.
         15    1    5    5    0    0  0.62270632066E+03  0.62201930279E+02 -0.55921939479E+03  0.83926261155E+03  0.17770000000E+01 0. -1.
        -16    1    5    5    0    0  0.14108554265E+03 -0.23162137954E+02 -0.13502901775E+03  0.19665820759E+03  0.00000000000E+00 0.  1.
          2    1    6    6  502    0  0.23442980983E+03  0.15699190946E+03 -0.43223462583E+03  0.51616912649E+03  0.00000000000E+00 0. -1.
         -1    1    6    6    0  502  0.30832515587E+03  0.33115511197E+03 -0.67297289807E+03  0.81093811814E+03  0.00000000000E+00 0.  1.
<mgrwt>
<rscale>  0 0.14566462E+04</rscale>
<asrwt>0</asrwt>
<pdfrwt beam="1">  1        1 0.20304265E+00 0.14566462E+04</pdfrwt>
<pdfrwt beam="2">  1       -2 0.39398486E+00 0.14566462E+04</pdfrwt>
<totfact> 0.59363151E-02</totfact>
</mgrwt>
</event>
<event>
12    3  0.1201947E-007  0.7790456E+03  0.7818608E-02  0.9590853E-01
          1   -1    0    0  501    0  0.00000000000E+00  0.00000000000E+00  0.30209091169E+04  0.30209091169E+04  0.00000000000E+00 0. -1.
         -2   -1    0    0    0  501 -0.00000000000E+00 -0.00000000000E+00 -0.29208944407E+03  0.29208944407E+03  0.00000000000E+00 0.  1.
        -24    2    1    2    0    0  0.75808798505E+03  0.93467748233E+02  0.18505468458E+04  0.20034752797E+04  0.77174832089E+02 0.  0.
    5000000    2    1    2    0    0 -0.75808798505E+03 -0.93467748233E+02  0.87827282705E+03  0.13095232813E+04  0.60004537542E+03 0.  0.
        -24    2    4    4    0    0 -0.37003484842E+03  0.37561731493E+02  0.53417694556E+02  0.38495845268E+03  0.83683256884E+02 0.  0.
         24    2    4    4    0    0 -0.38805313663E+03 -0.13102947973E+03  0.82485513249E+03  0.92456482864E+03  0.81732315253E+02 0.  0.
         11    1    3    3    0    0  0.54324227344E+03  0.70318071394E+02  0.12326200901E+04  0.13488547310E+04  0.00000000000E+00 0. -1.
        -12    1    3    3    0    0  0.21484571161E+03  0.23149676839E+02  0.61792675565E+03  0.65462054863E+03  0.00000000000E+00 0.  1.
         15    1    5    5    0    0 -0.20088639400E+03 -0.13465699526E+02  0.35434777945E+01  0.20137622085E+03  0.17770000000E+01 0. -1.
        -16    1    5    5    0    0 -0.16914845442E+03  0.51027431019E+02  0.49874216761E+02  0.18358223184E+03  0.00000000000E+00 0.  1.
          4    1    6    6  502    0 -0.21083709471E+03 -0.10982010432E+03  0.50880353680E+03  0.56159930099E+03  0.00000000000E+00 0. -1.
         -3    1    6    6    0  502 -0.17721604193E+03 -0.21209375401E+02  0.31605159570E+03  0.36296552765E+03  0.00000000000E+00 0.  1.
<mgrwt>
<rscale>  0 0.77904560E+03</rscale>
<asrwt>0</asrwt>
<pdfrwt beam="1">  1        1 0.46475523E+00 0.77904560E+03</pdfrwt>
<pdfrwt beam="2">  1       -2 0.44936840E-01 0.77904560E+03</pdfrwt>
<totfact> 0.25311692E+00</totfact>
</mgrwt>
</event>
<event>
12    3  0.1201947E-007  0.2219334E+03  0.7818608E-02  0.1132450E+00
         -2   -1    0    0    0  501 -0.00000000000E+00  0.00000000000E+00  0.22366070172E+03  0.22366070172E+03  0.00000000000E+00 0.  1.
          1   -1    0    0  501    0  0.00000000000E+00 -0.00000000000E+00 -0.85114461568E+03  0.85114461568E+03  0.00000000000E+00 0. -1.
        -24    2    1    2    0    0  0.68844542102E+02  0.16471059261E+03 -0.32575277314E+03  0.37987652873E+03  0.79511996438E+02 0.  0.
    5000000    2    1    2    0    0 -0.68844542102E+02 -0.16471059261E+03 -0.30173114081E+03  0.69492878867E+03  0.60001265794E+03 0.  0.
        -24    2    4    4    0    0  0.27442598344E+02 -0.12983859656E+03 -0.46290784666E+03  0.48797698019E+03  0.78909450238E+02 0.  0.
         24    2    4    4    0    0 -0.96287140446E+02 -0.34871996050E+02  0.16117670585E+03  0.20695180848E+03  0.79773748824E+02 0.  0.
         11    1    3    3    0    0  0.81407896008E+02  0.97410993266E+02 -0.20942084319E+03  0.24489433784E+03  0.00000000000E+00 0. -1.
        -12    1    3    3    0    0 -0.12563353905E+02  0.67299599343E+02 -0.11633192995E+03  0.13498219090E+03  0.00000000000E+00 0.  1.
         15    1    5    5    0    0  0.29656806030E+02 -0.79211901409E+02 -0.39074491952E+03  0.39979845088E+03  0.17770000000E+01 0. -1.
        -16    1    5    5    0    0 -0.22142076861E+01 -0.50626695150E+02 -0.72162927137E+02  0.88178529305E+02  0.00000000000E+00 0.  1.
          4    1    6    6  502    0 -0.52066936461E+02 -0.43832764100E+02  0.14288335339E+03  0.15826537763E+03  0.00000000000E+00 0. -1.
         -3    1    6    6    0  502 -0.44220203985E+02  0.89607680506E+01  0.18293352457E+02  0.48686430847E+02  0.00000000000E+00 0.  1.
<mgrwt>
<rscale>  0 0.22193339E+03</rscale>
<asrwt>0</asrwt>
<pdfrwt beam="1">  1        1 0.13094533E+00 0.22193339E+03</pdfrwt>
<pdfrwt beam="2">  1       -2 0.34409338E-01 0.22193339E+03</pdfrwt>
<totfact> 0.14846774E+02</totfact>
</mgrwt>
</event>
<event>
12    3  0.1201947E-007  0.3944913E+03  0.7818608E-02  0.1045704E+00
          1   -1    0    0  501    0  0.00000000000E+00  0.00000000000E+00  0.35000548904E+03  0.35000548904E+03  0.00000000000E+00 0. -1.
         -2   -1    0    0    0  501 -0.00000000000E+00 -0.00000000000E+00 -0.67404584556E+03  0.67404584556E+03  0.00000000000E+00 0.  1.
        -24    2    1    2    0    0  0.28907425120E+03 -0.36033140432E+02 -0.67057214547E+02  0.30923421561E+03  0.79163250100E+02 0.  0.
    5000000    2    1    2    0    0 -0.28907425120E+03  0.36033140432E+02 -0.25698314197E+03  0.71481711900E+03  0.60005072155E+03 0.  0.
        -24    2    4    4    0    0 -0.33815244519E+03  0.11965794572E+03 -0.38696401350E+03  0.53374129338E+03  0.80458190108E+02 0.  0.
         24    2    4    4    0    0  0.49078193986E+02 -0.83624805290E+02  0.12998087152E+03  0.18107582562E+03  0.80570779297E+02 0.  0.
         13    1    3    3    0    0  0.23533174913E+03 -0.84917135676E+01 -0.27597656920E+02  0.23709654576E+03  0.00000000000E+00 0. -1.
        -14    1    3    3    0    0  0.53742502073E+02 -0.27541426865E+02 -0.39459557627E+02  0.72137669847E+02  0.00000000000E+00 0.  1.
         15    1    5    5    0    0 -0.37843377837E+02  0.43134394514E+02 -0.52899512769E+02  0.78065443164E+02  0.17770000000E+01 0. -1.
        -16    1    5    5    0    0 -0.30030906735E+03  0.76523551208E+02 -0.33406450073E+03  0.45567585021E+03  0.00000000000E+00 0.  1.
          2    1    6    6  502    0  0.81098555485E+01  0.16075195446E+02  0.14610938999E+02  0.23187522595E+02  0.00000000000E+00 0. -1.
         -1    1    6    6    0  502  0.40968338438E+02 -0.99700000736E+02  0.11536993253E+03  0.15788830302E+03  0.00000000000E+00 0.  1.
<mgrwt>
<rscale>  0 0.39449135E+03</rscale>
<asrwt>0</asrwt>
<pdfrwt beam="1">  1        1 0.53846999E-01 0.39449135E+03</pdfrwt>
<pdfrwt beam="2">  1       -2 0.10369936E+00 0.39449135E+03</pdfrwt>
<totfact> 0.49556636E+01</totfact>
</mgrwt>
</event>
<event>
12    3  0.1201947E-007  0.4741933E+03  0.7818608E-02  0.1020743E+00
          1   -1    0    0  501    0  0.00000000000E+00  0.00000000000E+00  0.74586971583E+03  0.74586971583E+03  0.00000000000E+00 0. -1.
         -2   -1    0    0    0  501 -0.00000000000E+00 -0.00000000000E+00 -0.50482150774E+03  0.50482150774E+03  0.00000000000E+00 0.  1.
        -24    2    1    2    0    0 -0.18281169932E+03  0.42342509929E+03  0.13114118354E+03  0.48590436120E+03  0.78715348542E+02 0.  0.
    5000000    2    1    2    0    0  0.18281169932E+03 -0.42342509929E+03  0.10990702455E+03  0.76478686238E+03  0.60009204186E+03 0.  0.
        -24    2    4    4    0    0  0.10428779890E+03 -0.33440712709E+03  0.33952438807E+03  0.49452656018E+03  0.81090301387E+02 0.  0.
         24    2    4    4    0    0  0.78523900420E+02 -0.89017972198E+02 -0.22961736352E+03  0.27026030220E+03  0.78906875507E+02 0.  0.
         11    1    3    3    0    0 -0.89940569041E+02  0.29174782623E+03  0.10384985076E+03  0.32247618760E+03  0.00000000000E+00 0. -1.
        -12    1    3    3    0    0 -0.92871130278E+02  0.13167727306E+03  0.27291332780E+02  0.16342817360E+03  0.00000000000E+00 0.  1.
         15    1    5    5    0    0  0.72713508723E+02 -0.13040527649E+03  0.17850729771E+03  0.23272473773E+03  0.17770000000E+01 0. -1.
        -16    1    5    5    0    0  0.31574290176E+02 -0.20400185060E+03  0.16101709036E+03  0.26180182245E+03  0.00000000000E+00 0.  1.
          4    1    6    6  502    0  0.42151562506E+02 -0.16855447699E+02 -0.28719190226E+02  0.53718267154E+02  0.00000000000E+00 0. -1.
         -3    1    6    6    0  502  0.36372337914E+02 -0.72162524499E+02 -0.20089817330E+03  0.21654203504E+03  0.00000000000E+00 0.  1.
<mgrwt>
<rscale>  0 0.47419332E+03</rscale>
<asrwt>0</asrwt>
<pdfrwt beam="1">  1        1 0.11474919E+00 0.47419332E+03</pdfrwt>
<pdfrwt beam="2">  1       -2 0.77664848E-01 0.47419332E+03</pdfrwt>
<totfact> 0.33588002E+01</totfact>
</mgrwt>
</event>
<event>
12    3  0.1201947E-007  0.1124479E+04  0.7818608E-02  0.9181656E-01
          1   -1    0    0  501    0  0.00000000000E+00  0.00000000000E+00  0.68876859894E+03  0.68876859894E+03  0.00000000000E+00 0. -1.
         -2   -1    0    0    0  501 -0.00000000000E+00 -0.00000000000E+00 -0.20703068855E+04  0.20703068855E+04  0.00000000000E+00 0.  1.
        -24    2    1    2    0    0  0.11009775417E+04  0.18605776405E+03 -0.60132132479E+03  0.12706133914E+04  0.78115400316E+02 0.  0.
    5000000    2    1    2    0    0 -0.11009775417E+04 -0.18605776405E+03 -0.78021696180E+03  0.14884620931E+04  0.60000987994E+03 0.  0.
        -24    2    4    4    0    0 -0.67726904748E+03 -0.80747872599E+02 -0.12636890595E+03  0.69818281050E+03  0.79224711311E+02 0.  0.
         24    2    4    4    0    0 -0.42370849427E+03 -0.10530989145E+03 -0.65384805585E+03  0.79027928257E+03  0.80031262413E+02 0.  0.
         13    1    3    3    0    0  0.73935396253E+03  0.88859849666E+02 -0.38921112434E+03  0.84025332734E+03  0.00000000000E+00 0. -1.
        -14    1    3    3    0    0  0.36162357921E+03  0.97197914381E+02 -0.21211020045E+03  0.43036006406E+03  0.00000000000E+00 0.  1.
         15    1    5    5    0    0 -0.51312482223E+03 -0.28772103098E+02 -0.10662213848E+03  0.52487746689E+03  0.17770000000E+01 0. -1.
        -16    1    5    5    0    0 -0.16414422525E+03 -0.51975769501E+02 -0.19746767464E+02  0.17330534361E+03  0.00000000000E+00 0.  1.
          2    1    6    6  502    0 -0.72473440456E+02  0.11888986041E+02 -0.11625266270E+03  0.13750792393E+03  0.00000000000E+00 0. -1.
         -1    1    6    6    0  502 -0.35123505381E+03 -0.11719887749E+03 -0.53759539316E+03  0.65277135863E+03  0.00000000000E+00 0.  1.
<mgrwt>
<rscale>  0 0.11244791E+04</rscale>
<asrwt>0</asrwt>
<pdfrwt beam="1">  1        1 0.10596440E+00 0.11244791E+04</pdfrwt>
<pdfrwt beam="2">  1       -2 0.31850875E+00 0.11244791E+04</pdfrwt>
<totfact> 0.59552255E-01</totfact>
</mgrwt>
</event>
<event>
12    3  0.1201947E-007  0.7431070E+03  0.7818608E-02  0.9646227E-01
          1   -1    0    0  501    0  0.00000000000E+00  0.00000000000E+00  0.11441454934E+04  0.11441454934E+04  0.00000000000E+00 0. -1.
         -2   -1    0    0    0  501 -0.00000000000E+00 -0.00000000000E+00 -0.48981383222E+03  0.48981383222E+03  0.00000000000E+00 0.  1.
        -24    2    1    2    0    0  0.61403485231E+03  0.89122443541E+02  0.19068780498E+03  0.65387633271E+03  0.78808690623E+02 0.  0.
    5000000    2    1    2    0    0 -0.61403485231E+03 -0.89122443541E+02  0.46364385621E+03  0.98008299293E+03  0.60051264586E+03 0.  0.
        -24    2    4    4    0    0 -0.55122547630E+03  0.17051710115E+03  0.33908760332E+03  0.67412725262E+03  0.80879802745E+02 0.  0.
         24    2    4    4    0    0 -0.62809376002E+02 -0.25963954469E+03  0.12455625289E+03  0.30595574030E+03  0.82078888937E+02 0.  0.
         11    1    3    3    0    0  0.30846721152E+03  0.55796399773E+01  0.10133526438E+03  0.32473371980E+03  0.00000000000E+00 0. -1.
        -12    1    3    3    0    0  0.30556764078E+03  0.83542803564E+02  0.89352540597E+02  0.32914261291E+03  0.00000000000E+00 0.  1.
         15    1    5    5    0    0 -0.55427806960E+02  0.44397451646E+02  0.42760119726E+02  0.82915384972E+02  0.17770000000E+01 0. -1.
        -16    1    5    5    0    0 -0.49579766934E+03  0.12611964950E+03  0.29632748359E+03  0.59121186765E+03  0.00000000000E+00 0.  1.
          2    1    6    6  502    0  0.18512019195E+02 -0.39961412856E+02  0.98380409704E+01  0.45126449253E+02  0.00000000000E+00 0. -1.
         -1    1    6    6    0  502 -0.81321395196E+02 -0.21967813184E+03  0.11471821192E+03  0.26082929105E+03  0.00000000000E+00 0.  1.
<mgrwt>
<rscale>  0 0.74310704E+03</rscale>
<asrwt>0</asrwt>
<pdfrwt beam="1">  1        1 0.17602238E+00 0.74310704E+03</pdfrwt>
<pdfrwt beam="2">  1       -2 0.75355974E-01 0.74310704E+03</pdfrwt>
<totfact> 0.16712574E+01</totfact>
</mgrwt>
</event>
<event>
12    3  0.1201947E-007  0.1047766E+04  0.7818608E-02  0.9257653E-01
          1   -1    0    0  501    0  0.00000000000E+00  0.00000000000E+00  0.95269516892E+03  0.95269516892E+03  0.00000000000E+00 0. -1.
         -2   -1    0    0    0  501 -0.00000000000E+00 -0.00000000000E+00 -0.24426925781E+04  0.24426925781E+04  0.00000000000E+00 0.  1.
        -24    2    1    2    0    0 -0.10169951767E+04 -0.11759248715E+03 -0.18832350127E+04  0.21453340685E+04  0.88187129632E+02 0.  0.
    5000000    2    1    2    0    0  0.10169951767E+04  0.11759248715E+03  0.39323760353E+03  0.12500536785E+04  0.59990932977E+03 0.  0.
        -24    2    4    4    0    0  0.18237761177E+03 -0.68736523021E+02  0.32628530670E+03  0.38851541732E+03  0.80596682656E+02 0.  0.
         24    2    4    4    0    0  0.83461756492E+03  0.18632901017E+03  0.66952296827E+02  0.86153826122E+03  0.80377769167E+02 0.  0.
         13    1    3    3    0    0 -0.62313141448E+03 -0.11494742650E+03 -0.11515811058E+04  0.13143989934E+04  0.00000000000E+00 0. -1.
        -14    1    3    3    0    0 -0.39386376221E+03 -0.26450606570E+01 -0.73165390689E+03  0.83093507508E+03  0.00000000000E+00 0.  1.
         15    1    5    5    0    0 -0.52884495802E+01 -0.12227683112E+02  0.34425149875E+02  0.36955819652E+02  0.17770000000E+01 0. -1.
        -16    1    5    5    0    0  0.18766606135E+03 -0.56508839908E+02  0.29186015683E+03  0.35155959767E+03  0.00000000000E+00 0.  1.
          4    1    6    6  502    0  0.78212131341E+02  0.41139368121E+02  0.14360666467E+02  0.89531077508E+02  0.00000000000E+00 0. -1.
         -3    1    6    6    0  502  0.75640543358E+03  0.14518964205E+03  0.52591630360E+02  0.77200718371E+03  0.00000000000E+00 0.  1.
<mgrwt>
<rscale>  0 0.10477663E+04</rscale>
<asrwt>0</asrwt>
<pdfrwt beam="1">  1        1 0.14656849E+00 0.10477663E+04</pdfrwt>
<pdfrwt beam="2">  1       -2 0.37579885E+00 0.10477663E+04</pdfrwt>
<totfact> 0.15578119E-01</totfact>
</mgrwt>
</event>
<event>
12    3  0.1201947E-007  0.5369319E+03  0.7818608E-02  0.1004565E+00
         -2   -1    0    0    0  501 -0.00000000000E+00  0.00000000000E+00  0.10158451011E+04  0.10158451011E+04  0.00000000000E+00 0.  1.
          1   -1    0    0  501    0  0.00000000000E+00 -0.00000000000E+00 -0.10617258193E+04  0.10617258193E+04  0.00000000000E+00 0. -1.
        -24    2    1    2    0    0  0.48795280719E+03  0.12318722999E+03  0.78506478002E+03  0.93575927249E+03  0.77753916637E+02 0.  0.
    5000000    2    1    2    0    0 -0.48795280719E+03 -0.12318722999E+03 -0.83094549823E+03  0.11418116479E+04  0.59999198535E+03 0.  0.
        -24    2    4    4    0    0 -0.83919295578E+02 -0.13844910103E+03 -0.67945962722E+03  0.70262032293E+03  0.76153341558E+02 0.  0.
         24    2    4    4    0    0 -0.40403351161E+03  0.15261871048E+02 -0.15148587101E+03  0.43919132493E+03  0.80405519482E+02 0.  0.
         11    1    3    3    0    0  0.21204996134E+02  0.31516953271E+00  0.11914527070E+02  0.24325031309E+02  0.00000000000E+00 0. -1.
        -12    1    3    3    0    0  0.46674781105E+03  0.12287206045E+03  0.77315025295E+03  0.91143424118E+03  0.00000000000E+00 0.  1.
         15    1    5    5    0    0 -0.59245826592E+02 -0.77633454566E+02 -0.53645925689E+03  0.54527856484E+03  0.17770000000E+01 0. -1.
        -16    1    5    5    0    0 -0.24673468986E+02 -0.60815646468E+02 -0.14300037033E+03  0.15734175810E+03  0.00000000000E+00 0.  1.
          2    1    6    6  502    0 -0.31608032372E+03  0.30084663837E+02 -0.87263196901E+02  0.32928213370E+03  0.00000000000E+00 0. -1.
         -1    1    6    6    0  502 -0.87953187893E+02 -0.14822792790E+02 -0.64222674112E+02  0.10990919123E+03  0.00000000000E+00 0.  1.
<mgrwt>
<rscale>  0 0.53693187E+03</rscale>
<asrwt>0</asrwt>
<pdfrwt beam="1">  1        1 0.16334243E+00 0.53693187E+03</pdfrwt>
<pdfrwt beam="2">  1       -2 0.15628386E+00 0.53693187E+03</pdfrwt>
<totfact> 0.34017958E+00</totfact>
</mgrwt>
</event>
<event>
12    3  0.1201947E-007  0.5072480E+03  0.7818608E-02  0.1011904E+00
         -2   -1    0    0    0  501 -0.00000000000E+00  0.00000000000E+00  0.61063090003E+03  0.61063090003E+03  0.00000000000E+00 0.  1.
          1   -1    0    0  501    0  0.00000000000E+00 -0.00000000000E+00 -0.46303429265E+03  0.46303429265E+03  0.00000000000E+00 0. -1.
        -24    2    1    2    0    0 -0.63607925090E+02 -0.33189920598E+03 -0.52323444965E+02  0.35716057430E+03  0.10306736572E+03 0.  0.
    5000000    2    1    2    0    0  0.63607925090E+02  0.33189920598E+03  0.19992005234E+03  0.71650461838E+03  0.59933946121E+03 0.  0.
        -24    2    4    4    0    0 -0.23192647446E+03  0.31605334182E+02  0.10296761216E+02  0.24764497110E+03  0.80207366952E+02 0.  0.
         24    2    4    4    0    0  0.29553439955E+03  0.30029387180E+03  0.18962329113E+03  0.46885964728E+03  0.79720672003E+02 0.  0.
         11    1    3    3    0    0  0.19736137389E+02 -0.15300879196E+03 -0.57315685428E+01  0.15438282422E+03  0.00000000000E+00 0. -1.
        -12    1    3    3    0    0 -0.83344062479E+02 -0.17889041402E+03 -0.46591876422E+02  0.20277775008E+03  0.00000000000E+00 0.  1.
         15    1    5    5    0    0 -0.93803642674E+01 -0.25759319369E+01 -0.18180180837E+02  0.20695491378E+02  0.17770000000E+01 0. -1.
        -16    1    5    5    0    0 -0.22254611020E+03  0.34181266119E+02  0.28476942053E+02  0.22694947972E+03  0.00000000000E+00 0.  1.
          4    1    6    6  502    0  0.16949571266E+03  0.11931358086E+03  0.10772332092E+03  0.23359974542E+03  0.00000000000E+00 0. -1.
         -3    1    6    6    0  502  0.12603868689E+03  0.18098029094E+03  0.81899970204E+02  0.23525990186E+03  0.00000000000E+00 0.  1.
<mgrwt>
<rscale>  0 0.50724803E+03</rscale>
<asrwt>0</asrwt>
<pdfrwt beam="1">  1        1 0.71236045E-01 0.50724803E+03</pdfrwt>
<pdfrwt beam="2">  1       -2 0.93943216E-01 0.50724803E+03</pdfrwt>
<totfact> 0.42771202E+01</totfact>
</mgrwt>
</event>
<event>
12    3  0.1201947E-007  0.2455545E+03  0.7818608E-02  0.1116147E+00
         -2   -1    0    0    0  501 -0.00000000000E+00  0.00000000000E+00  0.36516380334E+03  0.36516380334E+03  0.00000000000E+00 0.  1.
          1   -1    0    0  501    0  0.00000000000E+00 -0.00000000000E+00 -0.35186950382E+03  0.35186950382E+03  0.00000000000E+00 0. -1.
        -24    2    1    2    0    0  0.37312830621E+02  0.36849894338E+01 -0.67773256960E+02  0.11028962611E+03  0.78515990686E+02 0.  0.
    5000000    2    1    2    0    0 -0.37312830621E+02 -0.36849894338E+01  0.81067556475E+02  0.60674368105E+03  0.60013341792E+03 0.  0.
        -24    2    4    4    0    0 -0.21426052498E+03 -0.20386570464E+02 -0.17230986420E+03  0.28653244387E+03  0.78019018652E+02 0.  0.
         24    2    4    4    0    0  0.17694769435E+03  0.16701581030E+02  0.25337742068E+03  0.32021123718E+03  0.82132148153E+02 0.  0.
         13    1    3    3    0    0  0.53329578838E+02  0.20474271791E+02 -0.65597083927E+02  0.86984005450E+02  0.00000000000E+00 0. -1.
        -14    1    3    3    0    0 -0.16016748217E+02 -0.16789282357E+02 -0.21761730334E+01  0.23305620665E+02  0.00000000000E+00 0.  1.
         15    1    5    5    0    0 -0.11991573599E+03 -0.38403712989E+02 -0.13180336276E+03  0.18229073776E+03  0.17770000000E+01 0. -1.
        -16    1    5    5    0    0 -0.94344788990E+02  0.18017142526E+02 -0.40506501440E+02  0.10424170611E+03  0.00000000000E+00 0.  1.
          2    1    6    6  502    0  0.91690924891E+02 -0.23334808349E+02  0.16935358892E+03  0.19399066232E+03  0.00000000000E+00 0. -1.
         -1    1    6    6    0  502  0.85256769463E+02  0.40036389379E+02  0.84023831755E+02  0.12622057485E+03  0.00000000000E+00 0.  1.
<mgrwt>
<rscale>  0 0.24555450E+03</rscale>
<asrwt>0</asrwt>
<pdfrwt beam="1">  1        1 0.54133770E-01 0.24555450E+03</pdfrwt>
<pdfrwt beam="2">  1       -2 0.56179047E-01 0.24555450E+03</pdfrwt>
<totfact> 0.19226648E+02</totfact>
</mgrwt>
</event>
<event>
12    3  0.1201947E-007  0.4139129E+03  0.7818608E-02  0.1039066E+00
         -2   -1    0    0    0  501 -0.00000000000E+00  0.00000000000E+00  0.13455597857E+04  0.13455597857E+04  0.00000000000E+00 0.  1.
          1   -1    0    0  501    0  0.00000000000E+00 -0.00000000000E+00 -0.32251899121E+03  0.32251899121E+03  0.00000000000E+00 0. -1.
        -24    2    1    2    0    0 -0.34749996033E+03 -0.80327640264E+02 -0.68792708248E+02  0.37202020172E+03  0.80360696588E+02 0.  0.
    5000000    2    1    2    0    0  0.34749996033E+03  0.80327640264E+02  0.10918335028E+04  0.12960585752E+04  0.60038211199E+03 0.  0.
        -24    2    4    4    0    0  0.24958060852E+03  0.17975009618E+03  0.10901705674E+04  0.11356486530E+04  0.81396680910E+02 0.  0.
         24    2    4    4    0    0  0.97919351814E+02 -0.99422455917E+02  0.16629353398E+01  0.16040992225E+03  0.79092057771E+02 0.  0.
         11    1    3    3    0    0 -0.21653947301E+03 -0.72859452432E+02 -0.75651353400E+02  0.24066775948E+03  0.00000000000E+00 0. -1.
        -12    1    3    3    0    0 -0.13096048733E+03 -0.74681878326E+01  0.68586451518E+01  0.13135244224E+03  0.00000000000E+00 0.  1.
         15    1    5    5    0    0  0.36117984496E+02  0.33599083486E+02  0.30468847231E+03  0.30866102783E+03  0.17770000000E+01 0. -1.
        -16    1    5    5    0    0  0.21346262402E+03  0.14615101270E+03  0.78548209511E+03  0.82698762513E+03  0.00000000000E+00 0.  1.
          2    1    6    6  502    0  0.11120000375E+02 -0.66285127206E+02 -0.39790852535E+01  0.67329084477E+02  0.00000000000E+00 0. -1.
         -1    1    6    6    0  502  0.86799351439E+02 -0.33137328710E+02  0.56420205933E+01  0.93080837774E+02  0.00000000000E+00 0.  1.
<mgrwt>
<rscale>  0 0.41391289E+03</rscale>
<asrwt>0</asrwt>
<pdfrwt beam="1">  1        1 0.49618307E-01 0.41391289E+03</pdfrwt>
<pdfrwt beam="2">  1       -2 0.20700920E+00 0.41391289E+03</pdfrwt>
<totfact> 0.89446964E+00</totfact>
</mgrwt>
</event>
<event>
12    3  0.1201947E-007  0.6551508E+03  0.7818608E-02  0.9797162E-01
          1   -1    0    0  501    0  0.00000000000E+00  0.00000000000E+00  0.31218236620E+03  0.31218236620E+03  0.00000000000E+00 0. -1.
         -2   -1    0    0    0  501 -0.00000000000E+00 -0.00000000000E+00 -0.17824632837E+04  0.17824632837E+04  0.00000000000E+00 0.  1.
        -24    2    1    2    0    0  0.41763489020E+03  0.30604048953E+03 -0.13315250172E+03  0.54037335459E+03  0.78702546927E+02 0.  0.
    5000000    2    1    2    0    0 -0.41763489020E+03 -0.30604048953E+03 -0.13371284158E+04  0.15542722953E+04  0.59980854021E+03 0.  0.
        -24    2    4    4    0    0 -0.11441924154E+03  0.17103847968E+03 -0.35350306218E+03  0.41708355913E+03  0.81537451235E+02 0.  0.
         24    2    4    4    0    0 -0.30321564866E+03 -0.47707896922E+03 -0.98362535359E+03  0.11371887362E+04  0.78328238782E+02 0.  0.
         11    1    3    3    0    0  0.27812036917E+03  0.16555209108E+03 -0.10569856421E+03  0.34048586033E+03  0.00000000000E+00 0. -1.
        -12    1    3    3    0    0  0.13951452103E+03  0.14048839845E+03 -0.27453937513E+02  0.19988749426E+03  0.00000000000E+00 0.  1.
         15    1    5    5    0    0 -0.35546845832E+02  0.59743317630E+01 -0.38194887462E+02  0.52547864332E+02  0.17770000000E+01 0. -1.
        -16    1    5    5    0    0 -0.78872395707E+02  0.16506414792E+03 -0.31530817472E+03  0.36453569479E+03  0.00000000000E+00 0.  1.
          2    1    6    6  502    0 -0.25160039353E+03 -0.33870922975E+03 -0.69722551788E+03  0.81495406197E+03  0.00000000000E+00 0. -1.
         -1    1    6    6    0  502 -0.51615255133E+02 -0.13836973947E+03 -0.28639983571E+03  0.32223467420E+03  0.00000000000E+00 0.  1.
<mgrwt>
<rscale>  0 0.65515082E+03</rscale>
<asrwt>0</asrwt>
<pdfrwt beam="1">  1        1 0.48028056E-01 0.65515082E+03</pdfrwt>
<pdfrwt beam="2">  1       -2 0.27422512E+00 0.65515082E+03</pdfrwt>
<totfact> 0.34944962E+00</totfact>
</mgrwt>
</event>
<event>
12    3  0.1201947E-007  0.5999412E+03  0.7818608E-02  0.9905528E-01
          1   -1    0    0  501    0  0.00000000000E+00  0.00000000000E+00  0.86329782422E+03  0.86329782422E+03  0.00000000000E+00 0. -1.
         -2   -1    0    0    0  501 -0.00000000000E+00 -0.00000000000E+00 -0.73233685896E+03  0.73233685896E+03  0.00000000000E+00 0.  1.
        -24    2    1    2    0    0  0.44224780284E+03  0.32790279926E+03 -0.34514131625E+03  0.65251327329E+03  0.59562393836E+02 0.  0.
    5000000    2    1    2    0    0 -0.44224780284E+03 -0.32790279926E+03  0.47610228150E+03  0.94312140989E+03  0.59975098704E+03 0.  0.
        -24    2    4    4    0    0 -0.29818298755E+03 -0.15201672265E+02 -0.45030674305E+02  0.31328695476E+03  0.83527058435E+02 0.  0.
         24    2    4    4    0    0 -0.14406481529E+03 -0.31270112699E+03  0.52113295581E+03  0.62983445513E+03  0.81087714308E+02 0.  0.
         11    1    3    3    0    0  0.23776531818E+03  0.21162508558E+03 -0.18923903674E+03  0.37030924428E+03  0.00000000000E+00 0. -1.
        -12    1    3    3    0    0  0.20448248466E+03  0.11627771368E+03 -0.15590227951E+03  0.28220402901E+03  0.00000000000E+00 0.  1.
         15    1    5    5    0    0 -0.55155834852E+02  0.12356930018E+02 -0.38876092138E+02  0.68624835931E+02  0.17770000000E+01 0. -1.
        -16    1    5    5    0    0 -0.24302715270E+03 -0.27558602282E+02 -0.61545821667E+01  0.24466211883E+03  0.00000000000E+00 0.  1.
          2    1    6    6  502    0 -0.17385892935E+02 -0.61007488741E+02  0.15757835388E+03  0.16986795038E+03  0.00000000000E+00 0. -1.
         -1    1    6    6    0  502 -0.12667892236E+03 -0.25169363825E+03  0.36355460192E+03  0.45996650474E+03  0.00000000000E+00 0.  1.
<mgrwt>
<rscale>  0 0.59994119E+03</rscale>
<asrwt>0</asrwt>
<pdfrwt beam="1">  1        1 0.13281505E+00 0.59994119E+03</pdfrwt>
<pdfrwt beam="2">  1       -2 0.11266721E+00 0.59994119E+03</pdfrwt>
<totfact> 0.11046133E+01</totfact>
</mgrwt>
</event>
<event>
12    3  0.1201947E-007  0.6914112E+03  0.7818608E-02  0.9732034E-01
          1   -1    0    0  501    0  0.00000000000E+00  0.00000000000E+00  0.21802708614E+04  0.21802708614E+04  0.00000000000E+00 0. -1.
         -2   -1    0    0    0  501 -0.00000000000E+00 -0.00000000000E+00 -0.30820236832E+03  0.30820236832E+03  0.00000000000E+00 0.  1.
        -24    2    1    2    0    0 -0.18775465278E+03 -0.60663887708E+03  0.12863820845E+04  0.14365723309E+04  0.75489454629E+02 0.  0.
    5000000    2    1    2    0    0  0.18775465278E+03  0.60663887708E+03  0.58568640860E+03  0.10519008988E+04  0.60017030493E+03 0.  0.
        -24    2    4    4    0    0  0.26938994830E+03  0.25846737695E+03  0.56831756438E+03  0.68498888038E+03  0.82756166383E+02 0.  0.
         24    2    4    4    0    0 -0.81635295518E+02  0.34817150014E+03  0.17368844224E+02  0.36691201845E+03  0.80218685814E+02 0.  0.
         13    1    3    3    0    0 -0.52933293625E+02 -0.28554515397E+03  0.62176525739E+03  0.68624339984E+03  0.00000000000E+00 0. -1.
        -14    1    3    3    0    0 -0.13482135916E+03 -0.32109372311E+03  0.66461682713E+03  0.75032893107E+03  0.00000000000E+00 0.  1.
         15    1    5    5    0    0  0.60203252922E+02  0.25197072126E+02  0.13821407284E+03  0.15285814262E+03  0.17770000000E+01 0. -1.
        -16    1    5    5    0    0  0.20918669538E+03  0.23327030482E+03  0.43010349154E+03  0.53213073776E+03  0.00000000000E+00 0.  1.
          2    1    6    6  502    0 -0.43393183559E+02  0.55805943256E+02 -0.70748388851E+01  0.71044528482E+02  0.00000000000E+00 0. -1.
         -1    1    6    6    0  502 -0.38242111959E+02  0.29236555688E+03  0.24443683109E+02  0.29586748997E+03  0.00000000000E+00 0.  1.
<mgrwt>
<rscale>  0 0.69141123E+03</rscale>
<asrwt>0</asrwt>
<pdfrwt beam="1">  1        1 0.33542628E+00 0.69141123E+03</pdfrwt>
<pdfrwt beam="2">  1       -2 0.47415750E-01 0.69141123E+03</pdfrwt>
<totfact> 0.87772638E+00</totfact>
</mgrwt>
</event>
<event>
12    3  0.1201947E-007  0.5579502E+03  0.7818608E-02  0.9996703E-01
         -2   -1    0    0    0  501 -0.00000000000E+00  0.00000000000E+00  0.20243126690E+03  0.20243126690E+03  0.00000000000E+00 0.  1.
          1   -1    0    0  501    0  0.00000000000E+00 -0.00000000000E+00 -0.26109846666E+04  0.26109846666E+04  0.00000000000E+00 0. -1.
        -24    2    1    2    0    0 -0.42683655419E+03 -0.28700592088E+02 -0.18814900977E+03  0.47397579774E+03  0.78992651459E+02 0.  0.
    5000000    2    1    2    0    0  0.42683655419E+03  0.28700592088E+02 -0.22204043899E+04  0.23394401357E+04  0.59980940809E+03 0.  0.
        -24    2    4    4    0    0  0.41551311526E+03  0.22538375029E+03 -0.11150537937E+04  0.12137407500E+04  0.79828951733E+02 0.  0.
         24    2    4    4    0    0  0.11323438930E+02 -0.19668315820E+03 -0.11053505962E+04  0.11256993857E+04  0.81158373126E+02 0.  0.
         11    1    3    3    0    0 -0.22659377739E+03 -0.42688884305E+02 -0.13133339676E+03  0.26535926948E+03  0.00000000000E+00 0. -1.
        -12    1    3    3    0    0 -0.20024277680E+03  0.13988292217E+02 -0.56815613008E+02  0.20861652825E+03  0.00000000000E+00 0.  1.
         15    1    5    5    0    0  0.16622545211E+03  0.11687885126E+03 -0.39804728462E+03  0.44691874577E+03  0.17770000000E+01 0. -1.
        -16    1    5    5    0    0  0.24928766314E+03  0.10850489903E+03 -0.71700650911E+03  0.76682200426E+03  0.00000000000E+00 0.  1.
          2    1    6    6  502    0  0.41676060844E+02 -0.10763229449E+03 -0.50500950678E+03  0.51803108671E+03  0.00000000000E+00 0. -1.
         -1    1    6    6    0  502 -0.30352621914E+02 -0.89050863714E+02 -0.60034108940E+03  0.60766829899E+03  0.00000000000E+00 0.  1.
<mgrwt>
<rscale>  0 0.55795025E+03</rscale>
<asrwt>0</asrwt>
<pdfrwt beam="1">  1        1 0.40168995E+00 0.55795025E+03</pdfrwt>
<pdfrwt beam="2">  1       -2 0.31143272E-01 0.55795025E+03</pdfrwt>
<totfact> 0.10378534E+01</totfact>
</mgrwt>
</event>
<event>
12    3  0.1201947E-007  0.6276470E+03  0.7818608E-02  0.9849651E-01
         -2   -1    0    0    0  501 -0.00000000000E+00  0.00000000000E+00  0.51890677221E+03  0.51890677221E+03  0.00000000000E+00 0.  1.
          1   -1    0    0  501    0  0.00000000000E+00 -0.00000000000E+00 -0.10401676886E+04  0.10401676886E+04  0.00000000000E+00 0. -1.
        -24    2    1    2    0    0  0.40521268092E+03 -0.43713560479E+03 -0.84699928107E+02  0.60725815393E+03  0.79394797898E+02 0.  0.
    5000000    2    1    2    0    0 -0.40521268092E+03  0.43713560479E+03 -0.43656098833E+03  0.95181630692E+03  0.60006993911E+03 0.  0.
        -24    2    4    4    0    0  0.13751178040E+02  0.12647312419E+03  0.11456126389E+03  0.18867374804E+03  0.79302925379E+02 0.  0.
         24    2    4    4    0    0 -0.41896385896E+03  0.31066248060E+03 -0.55112225223E+03  0.76314255888E+03  0.81295364599E+02 0.  0.
         11    1    3    3    0    0  0.54854283573E+02 -0.28500057664E+02  0.30098204347E+01  0.61889455743E+02  0.00000000000E+00 0. -1.
        -12    1    3    3    0    0  0.35035839735E+03 -0.40863554713E+03 -0.87709748542E+02  0.54536869819E+03  0.00000000000E+00 0.  1.
         15    1    5    5    0    0  0.23446175479E+01  0.78429295713E+02  0.11507552787E+03  0.13929173163E+03  0.17770000000E+01 0. -1.
        -16    1    5    5    0    0  0.11406560492E+02  0.48043828478E+02 -0.51426397401E+00  0.49382016408E+02  0.00000000000E+00 0.  1.
          4    1    6    6  502    0 -0.12451954903E+03  0.50292694591E+02 -0.15550979976E+03  0.20546963532E+03  0.00000000000E+00 0. -1.
         -3    1    6    6    0  502 -0.29444430993E+03  0.26036978601E+03 -0.39561245247E+03  0.55767292356E+03  0.00000000000E+00 0.  1.
<mgrwt>
<rscale>  0 0.62764699E+03</rscale>
<asrwt>0</asrwt>
<pdfrwt beam="1">  1        1 0.16002580E+00 0.62764699E+03</pdfrwt>
<pdfrwt beam="2">  1       -2 0.79831812E-01 0.62764699E+03</pdfrwt>
<totfact> 0.17820633E+01</totfact>
</mgrwt>
</event>
<event>
12    3  0.1201947E-007  0.1303790E+04  0.7818608E-02  0.9026565E-01
         -2   -1    0    0    0  501 -0.00000000000E+00  0.00000000000E+00  0.88993023060E+03  0.88993023060E+03  0.00000000000E+00 0.  1.
          1   -1    0    0  501    0  0.00000000000E+00 -0.00000000000E+00 -0.20631046940E+04  0.20631046940E+04  0.00000000000E+00 0. -1.
        -24    2    1    2    0    0 -0.10725324578E+03  0.12689143873E+04 -0.35208462454E+03  0.13233680998E+04  0.75449081173E+02 0.  0.
    5000000    2    1    2    0    0  0.10725324578E+03 -0.12689143873E+04 -0.82108983890E+03  0.16296668248E+04  0.59998204586E+03 0.  0.
        -24    2    4    4    0    0  0.25292777613E+03 -0.83619733662E+03 -0.28835280826E+03  0.92345542194E+03  0.80150661729E+02 0.  0.
         24    2    4    4    0    0 -0.14567453035E+03 -0.43271705067E+03 -0.53273703064E+03  0.70621140287E+03  0.80378398841E+02 0.  0.
         11    1    3    3    0    0  0.90087508528E+01  0.17963491440E+03 -0.60439883236E+02  0.18974414233E+03  0.00000000000E+00 0. -1.
        -12    1    3    3    0    0 -0.11626199663E+03  0.10892794729E+04 -0.29164474130E+03  0.11336239575E+04  0.00000000000E+00 0.  1.
         15    1    5    5    0    0  0.61756389242E+02 -0.24275755321E+03 -0.46823053701E+02  0.25483452934E+03  0.17770000000E+01 0. -1.
        -16    1    5    5    0    0  0.19117138689E+03 -0.59343978340E+03 -0.24152975456E+03  0.66862089261E+03  0.00000000000E+00 0.  1.
          2    1    6    6  502    0 -0.81309665208E+02 -0.18021987117E+03 -0.17783838167E+03  0.26592659441E+03  0.00000000000E+00 0. -1.
         -1    1    6    6    0  502 -0.64364865141E+02 -0.25249717949E+03 -0.35489864897E+03  0.44028480846E+03  0.00000000000E+00 0.  1.
<mgrwt>
<rscale>  0 0.13037899E+04</rscale>
<asrwt>0</asrwt>
<pdfrwt beam="1">  1        1 0.31740072E+00 0.13037899E+04</pdfrwt>
<pdfrwt beam="2">  1       -2 0.13691234E+00 0.13037899E+04</pdfrwt>
<totfact> 0.87203450E-01</totfact>
</mgrwt>
</event>
<event>
12    3  0.1201947E-007  0.7415397E+03  0.7818608E-02  0.9648717E-01
         -2   -1    0    0    0  501 -0.00000000000E+00  0.00000000000E+00  0.25019598953E+03  0.25019598953E+03  0.00000000000E+00 0.  1.
          1   -1    0    0  501    0  0.00000000000E+00 -0.00000000000E+00 -0.27463803685E+04  0.27463803685E+04  0.00000000000E+00 0. -1.
        -24    2    1    2    0    0 -0.41097742465E+03  0.47655764776E+03 -0.17120484050E+04  0.18256886864E+04  0.77587391861E+02 0.  0.
    5000000    2    1    2    0    0  0.41097742465E+03 -0.47655764776E+03 -0.78413597401E+03  0.11708876717E+04  0.60008255990E+03 0.  0.
        -24    2    4    4    0    0  0.20809833004E+03  0.93238464888E+02 -0.33773055374E+03  0.41496243515E+03  0.78317107717E+02 0.  0.
         24    2    4    4    0    0  0.20287909461E+03 -0.56979611265E+03 -0.44640542028E+03  0.75592523651E+03  0.79483500917E+02 0.  0.
         13    1    3    3    0    0 -0.76939928085E+02  0.13413044332E+03 -0.46499303382E+03  0.49002984588E+03  0.00000000000E+00 0. -1.
        -14    1    3    3    0    0 -0.33403749657E+03  0.34242720445E+03 -0.12470553712E+04  0.13356588405E+04  0.00000000000E+00 0.  1.
         15    1    5    5    0    0  0.12313473487E+03  0.12522212732E+02 -0.16663861271E+03  0.20758264310E+03  0.17770000000E+01 0. -1.
        -16    1    5    5    0    0  0.84963595174E+02  0.80716252156E+02 -0.17109194103E+03  0.20737979205E+03  0.00000000000E+00 0.  1.
          2    1    6    6  502    0  0.15951669478E+03 -0.34403960842E+03 -0.29801370362E+03  0.48230798834E+03  0.00000000000E+00 0. -1.
         -1    1    6    6    0  502  0.43362399832E+02 -0.22575650423E+03 -0.14839171666E+03  0.27361724817E+03  0.00000000000E+00 0.  1.
<mgrwt>
<rscale>  0 0.74153974E+03</rscale>
<asrwt>0</asrwt>
<pdfrwt beam="1">  1        1 0.42252003E+00 0.74153974E+03</pdfrwt>
<pdfrwt beam="2">  1       -2 0.38491693E-01 0.74153974E+03</pdfrwt>
<totfact> 0.54034780E+00</totfact>
</mgrwt>
</event>
<event>
12    3  0.1201947E-007  0.7049047E+03  0.7818608E-02  0.9708881E-01
         -2   -1    0    0    0  501 -0.00000000000E+00  0.00000000000E+00  0.51549102205E+03  0.51549102205E+03  0.00000000000E+00 0.  1.
          1   -1    0    0  501    0  0.00000000000E+00 -0.00000000000E+00 -0.14415939040E+04  0.14415939040E+04  0.00000000000E+00 0. -1.
        -24    2    1    2    0    0  0.55769231604E+03  0.38484831543E+03 -0.30700151948E+02  0.68389969305E+03  0.87449102696E+02 0.  0.
    5000000    2    1    2    0    0 -0.55769231604E+03 -0.38484831543E+03 -0.89540273004E+03  0.12731852330E+04  0.60010469371E+03 0.  0.
        -24    2    4    4    0    0 -0.97484738055E+01 -0.95194420862E+02  0.54262293243E+02  0.13628983311E+03  0.80458135925E+02 0.  0.
         24    2    4    4    0    0 -0.54794384224E+03 -0.28965389456E+03 -0.94966502328E+03  0.11368953999E+04  0.80781563853E+02 0.  0.
         11    1    3    3    0    0  0.30843724364E+03  0.16413190583E+03  0.17133083124E+01  0.34939340463E+03  0.00000000000E+00 0. -1.
        -12    1    3    3    0    0  0.24925507240E+03  0.22071640960E+03 -0.32413460261E+02  0.33450628842E+03  0.00000000000E+00 0.  1.
         15    1    5    5    0    0 -0.26833257372E+02 -0.56671723987E+02 -0.57146237511E+01  0.62988273945E+02  0.17770000000E+01 0. -1.
        -16    1    5    5    0    0  0.17084783567E+02 -0.38522696875E+02  0.59976916994E+02  0.73301559166E+02  0.00000000000E+00 0.  1.
          4    1    6    6  502    0 -0.33679118465E+03 -0.21024196004E+03 -0.55655213228E+03  0.68365214822E+03  0.00000000000E+00 0. -1.
         -3    1    6    6    0  502 -0.21115265758E+03 -0.79411934525E+02 -0.39311289100E+03  0.45324325171E+03  0.00000000000E+00 0.  1.
<mgrwt>
<rscale>  0 0.70490474E+03</rscale>
<asrwt>0</asrwt>
<pdfrwt beam="1">  1        1 0.22178367E+00 0.70490474E+03</pdfrwt>
<pdfrwt beam="2">  1       -2 0.79306313E-01 0.70490474E+03</pdfrwt>
<totfact> 0.92210990E+00</totfact>
</mgrwt>
</event>
<event>
12    3  0.1201947E-007  0.6299771E+03  0.7818608E-02  0.9845094E-01
          1   -1    0    0  501    0  0.00000000000E+00  0.00000000000E+00  0.20287271637E+04  0.20287271637E+04  0.00000000000E+00 0. -1.
         -2   -1    0    0    0  501 -0.00000000000E+00 -0.00000000000E+00 -0.28096033858E+03  0.28096033858E+03  0.00000000000E+00 0.  1.
        -24    2    1    2    0    0  0.15609908280E+02 -0.61267672658E+03  0.49616304329E+03  0.79242653886E+03  0.78393962928E+02 0.  0.
    5000000    2    1    2    0    0 -0.15609908280E+02  0.61267672658E+03  0.12516037818E+04  0.15172609634E+04  0.59996030197E+03 0.  0.
        -24    2    4    4    0    0 -0.10488690161E+03  0.37752419967E+03  0.22790667840E+03  0.46008577517E+03  0.78814230885E+02 0.  0.
         24    2    4    4    0    0  0.89276993332E+02  0.23515252691E+03  0.10236971034E+04  0.10571751883E+04  0.79978288612E+02 0.  0.
         13    1    3    3    0    0 -0.38483719505E+01 -0.32288930490E+03  0.21326979704E+03  0.38698361659E+03  0.00000000000E+00 0. -1.
        -14    1    3    3    0    0  0.19458280230E+02 -0.28978742168E+03  0.28289324625E+03  0.40544292226E+03  0.00000000000E+00 0.  1.
         15    1    5    5    0    0 -0.54377680149E+02  0.24587769383E+03  0.10428495534E+03  0.27256427144E+03  0.17770000000E+01 0. -1.
        -16    1    5    5    0    0 -0.50509221463E+02  0.13164650584E+03  0.12362172306E+03  0.18752150374E+03  0.00000000000E+00 0.  1.
          4    1    6    6  502    0  0.15475567155E+01  0.37428154278E+02  0.28520516421E+03  0.28765473637E+03  0.00000000000E+00 0. -1.
         -3    1    6    6    0  502  0.87729436617E+02  0.19772437263E+03  0.73849193923E+03  0.76952045190E+03  0.00000000000E+00 0.  1.
<mgrwt>
<rscale>  0 0.62997709E+03</rscale>
<asrwt>0</asrwt>
<pdfrwt beam="1">  1        1 0.31211186E+00 0.62997709E+03</pdfrwt>
<pdfrwt beam="2">  1       -2 0.43224669E-01 0.62997709E+03</pdfrwt>
<totfact> 0.13461410E+01</totfact>
</mgrwt>
</event>
<event>
12    3  0.1201947E-007  0.6510627E+03  0.7818608E-02  0.9804787E-01
         -2   -1    0    0    0  501 -0.00000000000E+00  0.00000000000E+00  0.29549526233E+03  0.29549526233E+03  0.00000000000E+00 0.  1.
          1   -1    0    0  501    0  0.00000000000E+00 -0.00000000000E+00 -0.38187358717E+04  0.38187358717E+04  0.00000000000E+00 0. -1.
        -24    2    1    2    0    0 -0.14864927779E+03  0.61094342812E+03 -0.17565761418E+03  0.65567601234E+03  0.60884773008E+02 0.  0.
    5000000    2    1    2    0    0  0.14864927779E+03 -0.61094342812E+03 -0.33475829952E+04  0.34585551217E+04  0.59995261472E+03 0.  0.
        -24    2    4    4    0    0  0.93937407041E+02 -0.55096735425E+03 -0.32765737915E+04  0.33248674992E+04  0.80117503219E+02 0.  0.
         24    2    4    4    0    0  0.54711870753E+02 -0.59976073869E+02 -0.71009203745E+02  0.13368762252E+03  0.78990854919E+02 0.  0.
         13    1    3    3    0    0 -0.29445390843E+02  0.18589533492E+03 -0.76902437163E+02  0.20331771057E+03  0.00000000000E+00 0. -1.
        -14    1    3    3    0    0 -0.11920388695E+03  0.42504809320E+03 -0.98755177016E+02  0.45235830177E+03  0.00000000000E+00 0.  1.
         15    1    5    5    0    0  0.33955342525E+02 -0.27548804000E+03 -0.14024301938E+04  0.14296363985E+04  0.17770000000E+01 0. -1.
        -16    1    5    5    0    0  0.59982064516E+02 -0.27547931424E+03 -0.18741435976E+04  0.18952311007E+04  0.00000000000E+00 0.  1.
          4    1    6    6  502    0  0.18671396990E+02  0.18693463942E+02 -0.20949793448E+02  0.33718844957E+02  0.00000000000E+00 0. -1.
         -3    1    6    6    0  502  0.36040473763E+02 -0.78669537811E+02 -0.50059410297E+02  0.99968777565E+02  0.00000000000E+00 0.  1.
<mgrwt>
<rscale>  0 0.65106265E+03</rscale>
<asrwt>0</asrwt>
<pdfrwt beam="1">  1        1 0.58749786E+00 0.65106265E+03</pdfrwt>
<pdfrwt beam="2">  1       -2 0.45460807E-01 0.65106265E+03</pdfrwt>
<totfact> 0.62438857E-01</totfact>
</mgrwt>
</event>
<event>
12    3  0.1201947E-007  0.4250644E+03  0.7818608E-02  0.1035431E+00
         -2   -1    0    0    0  501 -0.00000000000E+00  0.00000000000E+00  0.52594606442E+03  0.52594606442E+03  0.00000000000E+00 0.  1.
          1   -1    0    0  501    0  0.00000000000E+00 -0.00000000000E+00 -0.10696502283E+04  0.10696502283E+04  0.00000000000E+00 0. -1.
        -24    2    1    2    0    0  0.28692524171E+03  0.61805928954E+02 -0.81862506819E+03  0.87315959005E+03  0.78195909393E+02 0.  0.
    5000000    2    1    2    0    0 -0.28692524171E+03 -0.61805928954E+02  0.27492090433E+03  0.72243670266E+03  0.60015599516E+03 0.  0.
        -24    2    4    4    0    0 -0.52078983770E+02  0.18639989535E+03  0.30493157201E+03  0.37017614589E+03  0.81178653833E+02 0.  0.
         24    2    4    4    0    0 -0.23484625794E+03 -0.24820582431E+03 -0.30010667682E+02  0.35226055677E+03  0.80174581949E+02 0.  0.
         11    1    3    3    0    0  0.87432860907E+02  0.28263882125E+01 -0.34396196436E+03  0.35491171657E+03  0.00000000000E+00 0. -1.
        -12    1    3    3    0    0  0.19949238080E+03  0.58979540742E+02 -0.47466310383E+03  0.51824787348E+03  0.00000000000E+00 0.  1.
         15    1    5    5    0    0  0.20685031874E+02  0.65770084643E+02  0.10310560438E+03  0.12404635408E+03  0.17770000000E+01 0. -1.
        -16    1    5    5    0    0 -0.72764015645E+02  0.12062981071E+03  0.20182596763E+03  0.24612979181E+03  0.00000000000E+00 0.  1.
          2    1    6    6  502    0 -0.74287785461E+02 -0.11107446199E+03 -0.43903615718E+02  0.14065467873E+03  0.00000000000E+00 0. -1.
         -1    1    6    6    0  502 -0.16055847248E+03 -0.13713136232E+03  0.13892948036E+02  0.21160587804E+03  0.00000000000E+00 0.  1.
<mgrwt>
<rscale>  0 0.42506439E+03</rscale>
<asrwt>0</asrwt>
<pdfrwt beam="1">  1        1 0.16456157E+00 0.42506439E+03</pdfrwt>
<pdfrwt beam="2">  1       -2 0.80914779E-01 0.42506439E+03</pdfrwt>
<totfact> 0.16976652E+01</totfact>
</mgrwt>
</event>
<event>
12    3  0.1201947E-007  0.1200236E+04  0.7818608E-02  0.9112650E-01
         -2   -1    0    0    0  501 -0.00000000000E+00  0.00000000000E+00  0.50240004338E+03  0.50240004338E+03  0.00000000000E+00 0.  1.
          1   -1    0    0  501    0  0.00000000000E+00 -0.00000000000E+00 -0.29793493373E+04  0.29793493373E+04  0.00000000000E+00 0. -1.
        -24    2    1    2    0    0 -0.11320039161E+04 -0.18986080203E+03 -0.11204745085E+04  0.16062693044E+04  0.84604750275E+02 0.  0.
    5000000    2    1    2    0    0  0.11320039161E+04  0.18986080203E+03 -0.13564747854E+04  0.18754800763E+04  0.59993473224E+03 0.  0.
        -24    2    4    4    0    0  0.17164726233E+03 -0.15213800522E+03 -0.44238764790E+03  0.50390824409E+03  0.74886127942E+02 0.  0.
         24    2    4    4    0    0  0.96035665377E+03  0.34199880724E+03 -0.91408713754E+03  0.13715718322E+04  0.80036924906E+02 0.  0.
         11    1    3    3    0    0 -0.98190327295E+03 -0.19289069399E+03 -0.96614640404E+03  0.13909635981E+04  0.00000000000E+00 0. -1.
        -12    1    3    3    0    0 -0.15010064315E+03  0.30298919659E+01 -0.15432810447E+03  0.21530570626E+03  0.00000000000E+00 0.  1.
         15    1    5    5    0    0  0.69420004387E+02 -0.73100541123E+02 -0.27184374214E+03  0.28993965577E+03  0.17770000000E+01 0. -1.
        -16    1    5    5    0    0  0.10222725794E+03 -0.79037464093E+02 -0.17054390576E+03  0.21396858832E+03  0.00000000000E+00 0.  1.
          2    1    6    6  502    0  0.32664619896E+03  0.12628015156E+03 -0.26536329085E+03  0.43938831585E+03  0.00000000000E+00 0. -1.
         -1    1    6    6    0  502  0.63371045481E+03  0.21571865568E+03 -0.64872384669E+03  0.93218351638E+03  0.00000000000E+00 0.  1.
<mgrwt>
<rscale>  0 0.12002363E+04</rscale>
<asrwt>0</asrwt>
<pdfrwt beam="1">  1        1 0.45836143E+00 0.12002363E+04</pdfrwt>
<pdfrwt beam="2">  1       -2 0.77292315E-01 0.12002363E+04</pdfrwt>
<totfact> 0.80746514E-01</totfact>
</mgrwt>
</event>
<event>
12    3  0.1201947E-007  0.1798284E+04  0.7818608E-02  0.8707213E-01
          1   -1    0    0  501    0  0.00000000000E+00  0.00000000000E+00  0.29864440987E+04  0.29864440987E+04  0.00000000000E+00 0. -1.
         -2   -1    0    0    0  501 -0.00000000000E+00 -0.00000000000E+00 -0.16508239878E+04  0.16508239878E+04  0.00000000000E+00 0.  1.
        -24    2    1    2    0    0 -0.17234215282E+04 -0.38504281307E+03 -0.67741811828E+03  0.18930390574E+04  0.79131750655E+02 0.  0.
    5000000    2    1    2    0    0  0.17234215282E+04  0.38504281307E+03  0.20130382292E+04  0.27442290291E+04  0.60002526630E+03 0.  0.
        -24    2    4    4    0    0  0.55434991336E+02  0.12762397570E+03  0.28651975152E+03  0.32847082635E+03  0.80240876838E+02 0.  0.
         24    2    4    4    0    0  0.16679865369E+04  0.25741883737E+03  0.17265184777E+04  0.24157582028E+04  0.81105458528E+02 0.  0.
         11    1    3    3    0    0 -0.13366059849E+04 -0.27190054727E+03 -0.50076520796E+03  0.14530007777E+04  0.00000000000E+00 0. -1.
        -12    1    3    3    0    0 -0.38681554331E+03 -0.11314226579E+03 -0.17665291032E+03  0.44003827968E+03  0.00000000000E+00 0.  1.
         15    1    5    5    0    0 -0.27071947326E+01  0.84682644170E+01  0.95603454470E+02  0.96032383294E+02  0.17770000000E+01 0. -1.
        -16    1    5    5    0    0  0.58142186069E+02  0.11915571128E+03  0.19091629705E+03  0.23243844306E+03  0.00000000000E+00 0.  1.
          2    1    6    6  502    0  0.12178630678E+04  0.17688454354E+03  0.13070798432E+04  0.17952538289E+04  0.00000000000E+00 0. -1.
         -1    1    6    6    0  502  0.45012346905E+03  0.80534293831E+02  0.41943863448E+03  0.62050437385E+03  0.00000000000E+00 0.  1.
<mgrwt>
<rscale>  0 0.17982838E+04</rscale>
<asrwt>0</asrwt>
<pdfrwt beam="1">  1        1 0.45945294E+00 0.17982838E+04</pdfrwt>
<pdfrwt beam="2">  1       -2 0.25397292E+00 0.17982838E+04</pdfrwt>
<totfact> 0.29553081E-02</totfact>
</mgrwt>
</event>
<event>
12    3  0.1201947E-007  0.4795229E+03  0.7818608E-02  0.1019266E+00
         -2   -1    0    0    0  501 -0.00000000000E+00  0.00000000000E+00  0.75283068791E+03  0.75283068791E+03  0.00000000000E+00 0.  1.
          1   -1    0    0  501    0  0.00000000000E+00 -0.00000000000E+00 -0.48808461585E+03  0.48808461585E+03  0.00000000000E+00 0. -1.
        -24    2    1    2    0    0  0.13453348411E+03 -0.43237313522E+03  0.74440644067E+02  0.46565461963E+03  0.79038148324E+02 0.  0.
    5000000    2    1    2    0    0 -0.13453348411E+03  0.43237313522E+03  0.19030542800E+03  0.77526068413E+03  0.59980595697E+03 0.  0.
        -24    2    4    4    0    0 -0.15207711781E+03  0.19554699452E+03 -0.18879297285E+03  0.32084877676E+03  0.77039432261E+02 0.  0.
         24    2    4    4    0    0  0.17543633695E+02  0.23682614070E+03  0.37909840085E+03  0.45441190737E+03  0.79876054184E+02 0.  0.
         13    1    3    3    0    0  0.68724685918E+02 -0.33323506750E+03  0.63900959938E+02  0.34619651261E+03  0.00000000000E+00 0. -1.
        -14    1    3    3    0    0  0.65808798194E+02 -0.99138067720E+02  0.10539684130E+02  0.11945810702E+03  0.00000000000E+00 0.  1.
         15    1    5    5    0    0 -0.36337572552E+02  0.16033917788E+02 -0.58250753111E+02  0.70525269696E+02  0.17770000000E+01 0. -1.
        -16    1    5    5    0    0 -0.11573954525E+03  0.17951307673E+03 -0.13054221974E+03  0.25032350706E+03  0.00000000000E+00 0.  1.
          4    1    6    6  502    0 -0.24701904093E+02  0.11149698494E+03  0.13533009068E+03  0.17707624109E+03  0.00000000000E+00 0. -1.
         -3    1    6    6    0  502  0.42245537788E+02  0.12532915576E+03  0.24376831017E+03  0.27733566628E+03  0.00000000000E+00 0.  1.
<mgrwt>
<rscale>  0 0.47952286E+03</rscale>
<asrwt>0</asrwt>
<pdfrwt beam="1">  1        1 0.75089941E-01 0.47952286E+03</pdfrwt>
<pdfrwt beam="2">  1       -2 0.11582011E+00 0.47952286E+03</pdfrwt>
<totfact> 0.24301294E+01</totfact>
</mgrwt>
</event>
<event>
12    3  0.1201947E-007  0.6804400E+03  0.7818608E-02  0.9751280E-01
         -2   -1    0    0    0  501 -0.00000000000E+00  0.00000000000E+00  0.62075851475E+03  0.62075851475E+03  0.00000000000E+00 0.  1.
          1   -1    0    0  501    0  0.00000000000E+00 -0.00000000000E+00 -0.14422043041E+04  0.14422043041E+04  0.00000000000E+00 0. -1.
        -24    2    1    2    0    0  0.53762481611E+03  0.17114189734E+03 -0.10613419324E+04  0.12048804275E+04  0.83427543282E+02 0.  0.
    5000000    2    1    2    0    0 -0.53762481611E+03 -0.17114189734E+03  0.23989614310E+03  0.85808239138E+03  0.60035426124E+03 0.  0.
        -24    2    4    4    0    0  0.11941841044E+03 -0.21106224251E+02  0.49748613958E+02  0.15322433177E+03  0.79350751743E+02 0.  0.
         24    2    4    4    0    0 -0.65704322656E+03 -0.15003567309E+03  0.19014752914E+03  0.70485805960E+03  0.80326188679E+02 0.  0.
         13    1    3    3    0    0  0.22090139905E+03  0.84689360316E+02 -0.52815738828E+03  0.57872268199E+03  0.00000000000E+00 0. -1.
        -14    1    3    3    0    0  0.31672341706E+03  0.86452537026E+02 -0.53318454416E+03  0.62615774546E+03  0.00000000000E+00 0.  1.
         15    1    5    5    0    0  0.99125982634E+02 -0.12829290635E+02  0.12192692728E+01  0.99975974503E+02  0.17770000000E+01 0. -1.
        -16    1    5    5    0    0  0.20292427808E+02 -0.82769336166E+01  0.48529344685E+02  0.53248357270E+02  0.00000000000E+00 0.  1.
          4    1    6    6  502    0 -0.82443857888E+02 -0.23691728124E+02  0.52748581926E+02  0.10070104558E+03  0.00000000000E+00 0. -1.
         -3    1    6    6    0  502 -0.57459936867E+03 -0.12634394497E+03  0.13739894722E+03  0.60415701403E+03  0.00000000000E+00 0.  1.
<mgrwt>
<rscale>  0 0.68043999E+03</rscale>
<asrwt>0</asrwt>
<pdfrwt beam="1">  1        1 0.22187758E+00 0.68043999E+03</pdfrwt>
<pdfrwt beam="2">  1       -2 0.95501311E-01 0.68043999E+03</pdfrwt>
<totfact> 0.60440950E+00</totfact>
</mgrwt>
</event>
<event>
12    3  0.1201947E-007  0.4305174E+03  0.7818608E-02  0.1033697E+00
         -2   -1    0    0    0  501 -0.00000000000E+00  0.00000000000E+00  0.33496944906E+03  0.33496944906E+03  0.00000000000E+00 0.  1.
          1   -1    0    0  501    0  0.00000000000E+00 -0.00000000000E+00 -0.76549515543E+03  0.76549515543E+03  0.00000000000E+00 0. -1.
        -24    2    1    2    0    0  0.15745030334E+03  0.16093720349E+03  0.10942449839E+03  0.26260645171E+03  0.79353929591E+02 0.  0.
    5000000    2    1    2    0    0 -0.15745030334E+03 -0.16093720349E+03 -0.53995020477E+03  0.83785815279E+03  0.59980720159E+03 0.  0.
        -24    2    4    4    0    0  0.86064909556E+02 -0.31667615602E+03 -0.30944006947E+03  0.45833723841E+03  0.81418124967E+02 0.  0.
         24    2    4    4    0    0 -0.24351521289E+03  0.15573895253E+03 -0.23051013530E+03  0.37952091438E+03  0.85714186269E+02 0.  0.
         11    1    3    3    0    0  0.70278802897E+02  0.67430235972E+02  0.91286802468E+02  0.13348867804E+03  0.00000000000E+00 0. -1.
        -12    1    3    3    0    0  0.87171500440E+02  0.93506967517E+02  0.18137695924E+02  0.12911777367E+03  0.00000000000E+00 0.  1.
         15    1    5    5    0    0  0.10184138044E+03 -0.25925234029E+03 -0.25317951756E+03  0.37641263071E+03  0.17770000000E+01 0. -1.
        -16    1    5    5    0    0 -0.15776470880E+02 -0.57423815729E+02 -0.56260551903E+02  0.81924607699E+02  0.00000000000E+00 0.  1.
          2    1    6    6  502    0 -0.13083304368E+03  0.12490215374E+03 -0.11011675180E+03  0.21176291543E+03  0.00000000000E+00 0. -1.
         -1    1    6    6    0  502 -0.11268216921E+03  0.30836798795E+02 -0.12039338350E+03  0.16775799894E+03  0.00000000000E+00 0.  1.
<mgrwt>
<rscale>  0 0.43051738E+03</rscale>
<asrwt>0</asrwt>
<pdfrwt beam="1">  1        1 0.11776848E+00 0.43051738E+03</pdfrwt>
<pdfrwt beam="2">  1       -2 0.51533762E-01 0.43051738E+03</pdfrwt>
<totfact> 0.77487594E+01</totfact>
</mgrwt>
</event>
<event>
12    3  0.1201947E-007  0.7048492E+03  0.7818608E-02  0.9708975E-01
          1   -1    0    0  501    0  0.00000000000E+00  0.00000000000E+00  0.72445620477E+03  0.72445620477E+03  0.00000000000E+00 0. -1.
         -2   -1    0    0    0  501 -0.00000000000E+00 -0.00000000000E+00 -0.70969675825E+03  0.70969675825E+03  0.00000000000E+00 0.  1.
        -24    2    1    2    0    0  0.52786403571E+03  0.25880243969E+03 -0.20480036908E+02  0.59384511887E+03  0.81323122868E+02 0.  0.
    5000000    2    1    2    0    0 -0.52786403571E+03 -0.25880243969E+03  0.35239483428E+02  0.84030784416E+03  0.59937993692E+03 0.  0.
        -24    2    4    4    0    0 -0.18913293061E+03  0.18087519220E+03 -0.43204152937E+02  0.27405959316E+03  0.68956226531E+02 0.  0.
         24    2    4    4    0    0 -0.33873110509E+03 -0.43967763189E+03  0.78443636365E+02  0.56624825100E+03  0.80177903023E+02 0.  0.
         13    1    3    3    0    0  0.33160384633E+03  0.12416071138E+03 -0.32231042479E+02  0.35555004325E+03  0.00000000000E+00 0. -1.
        -14    1    3    3    0    0  0.19626018937E+03  0.13464172831E+03  0.11751005571E+02  0.23829507563E+03  0.00000000000E+00 0.  1.
         15    1    5    5    0    0 -0.52113440624E+02  0.58101392029E+02 -0.44928550756E+02  0.90073941023E+02  0.17770000000E+01 0. -1.
        -16    1    5    5    0    0 -0.13701948999E+03  0.12277380017E+03  0.17243978182E+01  0.18398565213E+03  0.00000000000E+00 0.  1.
          4    1    6    6  502    0 -0.25014945451E+03 -0.34167037322E+03  0.26453601132E+02  0.42427960891E+03  0.00000000000E+00 0. -1.
         -3    1    6    6    0  502 -0.88581650587E+02 -0.98007258666E+02  0.51990035234E+02  0.14196864209E+03  0.00000000000E+00 0.  1.
<mgrwt>
<rscale>  0 0.70484916E+03</rscale>
<asrwt>0</asrwt>
<pdfrwt beam="1">  1        1 0.11145480E+00 0.70484916E+03</pdfrwt>
<pdfrwt beam="2">  1       -2 0.10918412E+00 0.70484916E+03</pdfrwt>
<totfact> 0.15527463E+01</totfact>
</mgrwt>
</event>
<event>
12    3  0.1201947E-007  0.1012818E+04  0.7818608E-02  0.9294597E-01
          1   -1    0    0  501    0  0.00000000000E+00  0.00000000000E+00  0.11119587371E+04  0.11119587371E+04  0.00000000000E+00 0. -1.
         -4   -1    0    0    0  501 -0.00000000000E+00 -0.00000000000E+00 -0.13851366085E+04  0.13851366085E+04  0.00000000000E+00 0.  1.
        -24    2    1    2    0    0 -0.80783079825E+03  0.59556796871E+03 -0.72716392292E+03  0.12424476471E+04  0.87275316866E+02 0.  0.
    5000000    2    1    2    0    0  0.80783079825E+03 -0.59556796871E+03  0.45398605151E+03  0.12546476985E+04  0.60062110219E+03 0.  0.
        -24    2    4    4    0    0  0.65654466319E+03 -0.44978696508E+03  0.61468959565E+02  0.80185995576E+03  0.76431321760E+02 0.  0.
         24    2    4    4    0    0  0.15128613506E+03 -0.14578100363E+03  0.39251709195E+03  0.45278774272E+03  0.82507434885E+02 0.  0.
         11    1    3    3    0    0 -0.21369527117E+03  0.12931036464E+03 -0.14445001092E+03  0.28853534442E+03  0.00000000000E+00 0. -1.
        -12    1    3    3    0    0 -0.59413552707E+03  0.46625760407E+03 -0.58271391201E+03  0.95391230264E+03  0.00000000000E+00 0.  1.
         15    1    5    5    0    0  0.11079269743E+03 -0.84612570705E+02  0.39207292697E+02  0.14482637348E+03  0.17770000000E+01 0. -1.
        -16    1    5    5    0    0  0.54575196575E+03 -0.36517439438E+03  0.22261666868E+02  0.65703358228E+03  0.00000000000E+00 0.  1.
          4    1    6    6  502    0  0.15752469773E+03 -0.12001560609E+03  0.32966271024E+03  0.38457155202E+03  0.00000000000E+00 0. -1.
         -3    1    6    6    0  502 -0.62385626713E+01 -0.25765397537E+02  0.62854381709E+02  0.68216190706E+02  0.00000000000E+00 0.  1.
<mgrwt>
<rscale>  0 0.10128184E+04</rscale>
<asrwt>0</asrwt>
<pdfrwt beam="1">  1        1 0.17107058E+00 0.10128184E+04</pdfrwt>
<pdfrwt beam="2">  1       -4 0.21309794E+00 0.10128184E+04</pdfrwt>
<totfact> 0.63434182E-01</totfact>
</mgrwt>
</event>
<event>
12    3  0.1201947E-007  0.2120289E+04  0.7818608E-02  0.8552358E-01
         -2   -1    0    0    0  501 -0.00000000000E+00  0.00000000000E+00  0.27286685575E+04  0.27286685575E+04  0.00000000000E+00 0.  1.
          1   -1    0    0  501    0  0.00000000000E+00 -0.00000000000E+00 -0.20729091537E+04  0.20729091537E+04  0.00000000000E+00 0. -1.
        -24    2    1    2    0    0 -0.20881598672E+04 -0.35345923807E+03  0.13267413620E+04  0.25004006181E+04  0.80097100011E+02 0.  0.
    5000000    2    1    2    0    0  0.20881598672E+04  0.35345923807E+03 -0.67098195821E+03  0.23011770931E+04  0.59987845555E+03 0.  0.
        -24    2    4    4    0    0  0.97319281374E+03  0.23226244353E+03 -0.61291024472E+03  0.11760405331E+04  0.79763851698E+02 0.  0.
         24    2    4    4    0    0  0.11149670535E+04  0.12119679454E+03 -0.58071713485E+02  0.11251365600E+04  0.68700519067E+02 0.  0.
         11    1    3    3    0    0 -0.12385869249E+04 -0.22160373566E+03  0.83229917744E+03  0.15086178134E+04  0.00000000000E+00 0. -1.
        -12    1    3    3    0    0 -0.84957294238E+03 -0.13185550240E+03  0.49444218457E+03  0.99178280476E+03  0.00000000000E+00 0.  1.
         15    1    5    5    0    0  0.42922859976E+02  0.89655711516E+01 -0.47881917893E+02  0.64950667161E+02  0.17770000000E+01 0. -1.
        -16    1    5    5    0    0  0.93026995376E+03  0.22329687238E+03 -0.56502832683E+03  0.11110898659E+04  0.00000000000E+00 0.  1.
          4    1    6    6  502    0  0.13178666910E+02 -0.20596440642E+01  0.59988042681E+01  0.14625493080E+02  0.00000000000E+00 0. -1.
         -3    1    6    6    0  502  0.11017883866E+04  0.12325643860E+03 -0.64070517753E+02  0.11105110669E+04  0.00000000000E+00 0.  1.
<mgrwt>
<rscale>  0 0.21202892E+04</rscale>
<asrwt>0</asrwt>
<pdfrwt beam="1">  1        1 0.31890910E+00 0.21202892E+04</pdfrwt>
<pdfrwt beam="2">  1       -2 0.41979516E+00 0.21202892E+04</pdfrwt>
<totfact> 0.11197322E-02</totfact>
</mgrwt>
</event>
<event>
12    3  0.1201947E-007  0.1076782E+04  0.7818608E-02  0.9228122E-01
         -2   -1    0    0    0  501 -0.00000000000E+00  0.00000000000E+00  0.99527469927E+03  0.99527469927E+03  0.00000000000E+00 0.  1.
          1   -1    0    0  501    0  0.00000000000E+00 -0.00000000000E+00 -0.16238682093E+04  0.16238682093E+04  0.00000000000E+00 0. -1.
        -24    2    1    2    0    0 -0.38864412352E+02  0.10392152604E+04 -0.91162757629E+03  0.13852802875E+04  0.80360668806E+02 0.  0.
    5000000    2    1    2    0    0  0.38864412352E+02 -0.10392152604E+04  0.28303406627E+03  0.12338626211E+04  0.60069117278E+03 0.  0.
        -24    2    4    4    0    0 -0.15565883347E+03 -0.67300872935E+03  0.39204965885E+03  0.79768039132E+03  0.73625060055E+02 0.  0.
         24    2    4    4    0    0  0.19452324582E+03 -0.36620653103E+03 -0.10901559258E+03  0.43618222975E+03  0.80149994351E+02 0.  0.
         13    1    3    3    0    0 -0.52088832730E+02  0.41746108994E+03 -0.38786693147E+03  0.57221304130E+03  0.00000000000E+00 0. -1.
        -14    1    3    3    0    0  0.13224420378E+02  0.62175417044E+03 -0.52376064482E+03  0.81306724618E+03  0.00000000000E+00 0.  1.
         15    1    5    5    0    0 -0.11138251539E+03 -0.57235563421E+03  0.34922079280E+03  0.67967297769E+03  0.17770000000E+01 0. -1.
        -16    1    5    5    0    0 -0.44276318082E+02 -0.10065309515E+03  0.42828866048E+02  0.11800741363E+03  0.00000000000E+00 0.  1.
          2    1    6    6  502    0  0.66146459539E+02 -0.17977433670E+03 -0.81443926068E+02  0.20815205821E+03  0.00000000000E+00 0. -1.
         -1    1    6    6    0  502  0.12837678628E+03 -0.18643219433E+03 -0.27571666515E+02  0.22803017154E+03  0.00000000000E+00 0.  1.
<mgrwt>
<rscale>  0 0.10767819E+04</rscale>
<asrwt>0</asrwt>
<pdfrwt beam="1">  1        1 0.24982588E+00 0.10767819E+04</pdfrwt>
<pdfrwt beam="2">  1       -2 0.15311919E+00 0.10767819E+04</pdfrwt>
<totfact> 0.13231160E+00</totfact>
</mgrwt>
</event>
<event>
12    3  0.1201947E-007  0.1994841E+03  0.7818608E-02  0.1150175E+00
          1   -1    0    0  501    0  0.00000000000E+00  0.00000000000E+00  0.28869514277E+04  0.28869514277E+04  0.00000000000E+00 0. -1.
         -2   -1    0    0    0  501 -0.00000000000E+00 -0.00000000000E+00 -0.54397042485E+02  0.54397042485E+02  0.00000000000E+00 0.  1.
        -24    2    1    2    0    0  0.80778538955E+02  0.10993686318E+03  0.35663559921E+03  0.39008143584E+03  0.79770230823E+02 0.  0.
    5000000    2    1    2    0    0 -0.80778538955E+02 -0.10993686318E+03  0.24759187860E+04  0.25512670343E+04  0.60014861440E+03 0.  0.
        -24    2    4    4    0    0 -0.81743272365E+02  0.27113829186E+02  0.23412203144E+04  0.23441585318E+04  0.79683995634E+02 0.  0.
         24    2    4    4    0    0  0.96473341038E+00 -0.13705069236E+03  0.13469847151E+03  0.20710850249E+03  0.77242673350E+02 0.  0.
         11    1    3    3    0    0  0.92448915656E+01  0.70135222072E+02  0.11563821601E+03  0.13556037178E+03  0.00000000000E+00 0. -1.
        -12    1    3    3    0    0  0.71533647389E+02  0.39801641107E+02  0.24099738320E+03  0.25452106406E+03  0.00000000000E+00 0.  1.
         15    1    5    5    0    0 -0.27283055897E+02  0.38651713208E+02  0.16573724244E+04  0.16580485008E+04  0.17770000000E+01 0. -1.
        -16    1    5    5    0    0 -0.54460216469E+02 -0.11537884022E+02  0.68384789001E+03  0.68611003098E+03  0.00000000000E+00 0.  1.
          2    1    6    6  502    0 -0.19765511431E+02 -0.86222548918E+02  0.12212092268E+03  0.15079298107E+03  0.00000000000E+00 0. -1.
         -1    1    6    6    0  502  0.20730244842E+02 -0.50828143447E+02  0.12577548829E+02  0.56315521413E+02  0.00000000000E+00 0.  1.
<mgrwt>
<rscale>  0 0.19948414E+03</rscale>
<asrwt>0</asrwt>
<pdfrwt beam="1">  1        1 0.44414625E+00 0.19948414E+03</pdfrwt>
<pdfrwt beam="2">  1       -2 0.83687780E-02 0.19948414E+03</pdfrwt>
<totfact> 0.69130171E+01</totfact>
</mgrwt>
</event>
<event>
12    3  0.1201947E-007  0.4543422E+03  0.7818608E-02  0.1026435E+00
          1   -1    0    0  501    0  0.00000000000E+00  0.00000000000E+00  0.15079588959E+04  0.15079588959E+04  0.00000000000E+00 0. -1.
         -2   -1    0    0    0  501 -0.00000000000E+00 -0.00000000000E+00 -0.16745141332E+03  0.16745141332E+03  0.00000000000E+00 0.  1.
        -24    2    1    2    0    0  0.24316061602E+03  0.13997580592E+03  0.67996180858E+03  0.73992263000E+03  0.80106964950E+02 0.  0.
    5000000    2    1    2    0    0 -0.24316061602E+03 -0.13997580592E+03  0.66054567398E+03  0.93548767920E+03  0.60008024388E+03 0.  0.
        -24    2    4    4    0    0 -0.40505304717E+03  0.11575181526E+01  0.53568605369E+03  0.67652540515E+03  0.81595127380E+02 0.  0.
         24    2    4    4    0    0  0.16189243116E+03 -0.14113332407E+03  0.12485962028E+03  0.25896227405E+03  0.73101027173E+02 0.  0.
         11    1    3    3    0    0  0.12193423929E+03  0.10425734893E+03  0.31141779201E+03  0.35031213895E+03  0.00000000000E+00 0. -1.
        -12    1    3    3    0    0  0.12122637673E+03  0.35718456990E+02  0.36854401657E+03  0.38961049105E+03  0.00000000000E+00 0.  1.
         15    1    5    5    0    0 -0.38503090893E+03 -0.61806918690E+01  0.47082364074E+03  0.60824753200E+03  0.17770000000E+01 0. -1.
        -16    1    5    5    0    0 -0.20022138246E+02  0.73382100216E+01  0.64862412958E+02  0.68277873143E+02  0.00000000000E+00 0.  1.
          2    1    6    6  502    0  0.58543489203E+02 -0.40270172368E+02  0.48976704374E+01  0.71225094499E+02  0.00000000000E+00 0. -1.
         -1    1    6    6    0  502  0.10334894195E+03 -0.10086315171E+03  0.11996194985E+03  0.18773717955E+03  0.00000000000E+00 0.  1.
<mgrwt>
<rscale>  0 0.45434217E+03</rscale>
<asrwt>0</asrwt>
<pdfrwt beam="1">  1        1 0.23199367E+00 0.45434217E+03</pdfrwt>
<pdfrwt beam="2">  1       -2 0.25761757E-01 0.45434217E+03</pdfrwt>
<totfact> 0.81560685E+01</totfact>
</mgrwt>
</event>
<event>
12    3  0.1201947E-007  0.5680897E+03  0.7818608E-02  0.9973915E-01
          1   -1    0    0  501    0  0.00000000000E+00  0.00000000000E+00  0.72642249148E+03  0.72642249148E+03  0.00000000000E+00 0. -1.
         -2   -1    0    0    0  501 -0.00000000000E+00 -0.00000000000E+00 -0.11008472797E+04  0.11008472797E+04  0.00000000000E+00 0.  1.
        -24    2    1    2    0    0  0.21437082312E+03 -0.46253559388E+03 -0.78490943185E+03  0.93931849682E+03  0.79639166559E+02 0.  0.
    5000000    2    1    2    0    0 -0.21437082312E+03  0.46253559388E+03  0.41048464359E+03  0.88795127440E+03  0.60005482890E+03 0.  0.
        -24    2    4    4    0    0 -0.10528647819E+03 -0.17582279785E+02  0.36295487805E+03  0.38685539679E+03  0.80786604535E+02 0.  0.
         24    2    4    4    0    0 -0.10908434492E+03  0.48011787367E+03  0.47529765540E+02  0.50109587762E+03  0.80158798833E+02 0.  0.
         13    1    3    3    0    0  0.17173134430E+03 -0.31142876770E+03 -0.49336330023E+03  0.60818326019E+03  0.00000000000E+00 0. -1.
        -14    1    3    3    0    0  0.42639478812E+02 -0.15110682618E+03 -0.29154613162E+03  0.33113523663E+03  0.00000000000E+00 0.  1.
         15    1    5    5    0    0  0.76633505592E+01  0.11629689724E+02  0.72476140765E+02  0.73823609598E+02  0.17770000000E+01 0. -1.
        -16    1    5    5    0    0 -0.11294982875E+03 -0.29211969509E+02  0.29047873728E+03  0.31303178719E+03  0.00000000000E+00 0.  1.
          2    1    6    6  502    0 -0.81491682723E+02  0.31244834078E+03  0.67875251756E+02  0.32995743636E+03  0.00000000000E+00 0. -1.
         -1    1    6    6    0  502 -0.27592662197E+02  0.16766953289E+03 -0.20345486216E+02  0.17113844126E+03  0.00000000000E+00 0.  1.
<mgrwt>
<rscale>  0 0.56808969E+03</rscale>
<asrwt>0</asrwt>
<pdfrwt beam="1">  1        1 0.11175731E+00 0.56808969E+03</pdfrwt>
<pdfrwt beam="2">  1       -2 0.16936112E+00 0.56808969E+03</pdfrwt>
<totfact> 0.51058329E+00</totfact>
</mgrwt>
</event>
<event>
12    3  0.1201947E-007  0.3528990E+03  0.7818608E-02  0.1061431E+00
         -2   -1    0    0    0  501 -0.00000000000E+00  0.00000000000E+00  0.30538100766E+03  0.30538100766E+03  0.00000000000E+00 0.  1.
          1   -1    0    0  501    0  0.00000000000E+00 -0.00000000000E+00 -0.62581094953E+03  0.62581094953E+03  0.00000000000E+00 0. -1.
        -24    2    1    2    0    0 -0.16596317229E+03 -0.65823134262E+02 -0.22514592114E+03  0.29796855933E+03  0.78855037750E+02 0.  0.
    5000000    2    1    2    0    0  0.16596317229E+03  0.65823134262E+02 -0.95284020730E+02  0.63322339786E+03  0.60001363937E+03 0.  0.
        -24    2    4    4    0    0 -0.20422341936E+02  0.24348817101E+03  0.12743319314E+03  0.28334511643E+03  0.65891386509E+02 0.  0.
         24    2    4    4    0    0  0.18638551423E+03 -0.17766503675E+03 -0.22271721387E+03  0.34987828143E+03  0.80668638638E+02 0.  0.
         11    1    3    3    0    0 -0.77558710283E+02 -0.67941079006E+02 -0.92323130582E+02  0.13840124348E+03  0.00000000000E+00 0. -1.
        -12    1    3    3    0    0 -0.88404462010E+02  0.21179447436E+01 -0.13282279056E+03  0.15956731584E+03  0.00000000000E+00 0.  1.
         15    1    5    5    0    0 -0.15453913247E+02  0.10045472597E+03  0.18119700690E+02  0.10325433011E+03  0.17770000000E+01 0. -1.
        -16    1    5    5    0    0 -0.49684286891E+01  0.14303344504E+03  0.10931349245E+03  0.18009078632E+03  0.00000000000E+00 0.  1.
          2    1    6    6  502    0  0.10986558778E+03 -0.50138179619E+02 -0.10867945319E+03  0.16246694427E+03  0.00000000000E+00 0. -1.
         -1    1    6    6    0  502  0.76519926449E+02 -0.12752685713E+03 -0.11403776068E+03  0.18741133716E+03  0.00000000000E+00 0.  1.
<mgrwt>
<rscale>  0 0.35289897E+03</rscale>
<asrwt>0</asrwt>
<pdfrwt beam="1">  1        1 0.96278607E-01 0.35289897E+03</pdfrwt>
<pdfrwt beam="2">  1       -2 0.46981694E-01 0.35289897E+03</pdfrwt>
<totfact> 0.12681845E+02</totfact>
</mgrwt>
</event>
<event>
12    3  0.1201947E-007  0.6831557E+03  0.7818608E-02  0.9746480E-01
         -2   -1    0    0    0  501 -0.00000000000E+00  0.00000000000E+00  0.53838933696E+03  0.53838933696E+03  0.00000000000E+00 0.  1.
          1   -1    0    0  501    0  0.00000000000E+00 -0.00000000000E+00 -0.12220559824E+04  0.12220559824E+04  0.00000000000E+00 0. -1.
        -24    2    1    2    0    0  0.55103029907E+03 -0.31701369762E+03 -0.60779061107E+03  0.88313202774E+03  0.79879137108E+02 0.  0.
    5000000    2    1    2    0    0 -0.55103029907E+03  0.31701369762E+03 -0.75876034337E+02  0.87731329159E+03  0.59982444435E+03 0.  0.
        -24    2    4    4    0    0 -0.54163663503E+03  0.34469467458E+03  0.12584206883E+03  0.65827722913E+03  0.72856166662E+02 0.  0.
         24    2    4    4    0    0 -0.93936640360E+01 -0.27680976955E+02 -0.20171810316E+03  0.21903606245E+03  0.80200536795E+02 0.  0.
         13    1    3    3    0    0  0.19445528203E+03 -0.10002082037E+03 -0.15993223493E+03  0.27091574518E+03  0.00000000000E+00 0. -1.
        -14    1    3    3    0    0  0.35657501704E+03 -0.21699287725E+03 -0.44785837614E+03  0.61221628256E+03  0.00000000000E+00 0.  1.
         15    1    5    5    0    0 -0.15650711077E+03  0.67338996145E+02  0.50607814704E+02  0.17774511178E+03  0.17770000000E+01 0. -1.
        -16    1    5    5    0    0 -0.38512952426E+03  0.27735567843E+03  0.75234254123E+02  0.48053211735E+03  0.00000000000E+00 0.  1.
          4    1    6    6  502    0  0.30542116445E+02 -0.32979489188E+02 -0.11230690349E+03  0.12096821134E+03  0.00000000000E+00 0. -1.
         -3    1    6    6    0  502 -0.39935780481E+02  0.52985122333E+01 -0.89411199675E+02  0.98067851113E+02  0.00000000000E+00 0.  1.
<mgrwt>
<rscale>  0 0.68315571E+03</rscale>
<asrwt>0</asrwt>
<pdfrwt beam="1">  1        1 0.18800861E+00 0.68315571E+03</pdfrwt>
<pdfrwt beam="2">  1       -2 0.82829129E-01 0.68315571E+03</pdfrwt>
<totfact> 0.11958402E+01</totfact>
</mgrwt>
</event>
<event>
12    3  0.1201947E-007  0.7964736E+03  0.7818608E-02  0.9565135E-01
         -2   -1    0    0    0  501 -0.00000000000E+00  0.00000000000E+00  0.60321697524E+03  0.60321697524E+03  0.00000000000E+00 0.  1.
          1   -1    0    0  501    0  0.00000000000E+00 -0.00000000000E+00 -0.17203296966E+04  0.17203296966E+04  0.00000000000E+00 0. -1.
        -24    2    1    2    0    0 -0.57878916259E+03 -0.50393797062E+03  0.85080839891E+02  0.77620733396E+03  0.79427344251E+02 0.  0.
    5000000    2    1    2    0    0  0.57878916259E+03  0.50393797062E+03 -0.12021935613E+04  0.15473393379E+04  0.60003274485E+03 0.  0.
        -24    2    4    4    0    0 -0.20227674088E+01  0.13761012191E+02  0.41035221700E+02  0.88003727304E+02  0.76598365224E+02 0.  0.
         24    2    4    4    0    0  0.58081193000E+03  0.49017695843E+03 -0.12432287830E+04  0.14593356106E+04  0.80166507634E+02 0.  0.
         13    1    3    3    0    0 -0.37864317342E+03 -0.33560399744E+03  0.18319884627E+02  0.50629666604E+03  0.00000000000E+00 0. -1.
        -14    1    3    3    0    0 -0.20014598918E+03 -0.16833397318E+03  0.66760955265E+02  0.26991066792E+03  0.00000000000E+00 0.  1.
         15    1    5    5    0    0  0.20685278713E+02  0.29038602014E+02  0.47946334948E+02  0.59775663328E+02  0.17770000000E+01 0. -1.
        -16    1    5    5    0    0 -0.22708046122E+02 -0.15277589823E+02 -0.69111132486E+01  0.28228063976E+02  0.00000000000E+00 0.  1.
          2    1    6    6  502    0  0.21676471026E+03  0.14556107700E+03 -0.37875022600E+03  0.46002902131E+03  0.00000000000E+00 0. -1.
         -1    1    6    6    0  502  0.36404721974E+03  0.34461588143E+03 -0.86447855696E+03  0.99930658928E+03  0.00000000000E+00 0.  1.
<mgrwt>
<rscale>  0 0.79647360E+03</rscale>
<asrwt>0</asrwt>
<pdfrwt beam="1">  1        1 0.26466610E+00 0.79647360E+03</pdfrwt>
<pdfrwt beam="2">  1       -2 0.92802613E-01 0.79647360E+03</pdfrwt>
<totfact> 0.41088055E+00</totfact>
</mgrwt>
</event>
<event>
12    3  0.1201947E-007  0.7297899E+03  0.7818608E-02  0.9667601E-01
          1   -1    0    0  501    0  0.00000000000E+00  0.00000000000E+00  0.70975935730E+03  0.70975935730E+03  0.00000000000E+00 0. -1.
         -2   -1    0    0    0  501 -0.00000000000E+00 -0.00000000000E+00 -0.78929474895E+03  0.78929474895E+03  0.00000000000E+00 0.  1.
        -24    2    1    2    0    0  0.52513614712E+03 -0.30437955285E+03 -0.18361981800E+03  0.63926084127E+03  0.80766951223E+02 0.  0.
    5000000    2    1    2    0    0 -0.52513614712E+03  0.30437955285E+03  0.10408442635E+03  0.85979326498E+03  0.59999667123E+03 0.  0.
        -24    2    4    4    0    0 -0.45798809616E+01 -0.14194372691E+03  0.23742901864E+02  0.16439074423E+03  0.79319571862E+02 0.  0.
         24    2    4    4    0    0 -0.52055626616E+03  0.44632327976E+03  0.80341524489E+02  0.69540252075E+03  0.83346319694E+02 0.  0.
         13    1    3    3    0    0  0.35593699813E+03 -0.21133228741E+03 -0.85579371257E+02  0.42270120785E+03  0.00000000000E+00 0. -1.
        -14    1    3    3    0    0  0.16919914900E+03 -0.93047265437E+02 -0.98040446744E+02  0.21655963341E+03  0.00000000000E+00 0.  1.
         15    1    5    5    0    0 -0.40284545305E+02 -0.95869369341E+02  0.98606305616E+01  0.10447090663E+03  0.17770000000E+01 0. -1.
        -16    1    5    5    0    0  0.35704664343E+02 -0.46074357571E+02  0.13882271302E+02  0.59919837600E+02  0.00000000000E+00 0.  1.
          4    1    6    6  502    0 -0.15958317320E+03  0.18665454612E+03  0.41315863593E+02  0.24902551945E+03  0.00000000000E+00 0. -1.
         -1    1    6    6    0  502 -0.36097309296E+03  0.25966873364E+03  0.39025660896E+02  0.44637700129E+03  0.00000000000E+00 0.  1.
<mgrwt>
<rscale>  0 0.72978985E+03</rscale>
<asrwt>0</asrwt>
<pdfrwt beam="1">  1        1 0.10919375E+00 0.72978985E+03</pdfrwt>
<pdfrwt beam="2">  1       -2 0.12142996E+00 0.72978985E+03</pdfrwt>
<totfact> 0.12319051E+01</totfact>
</mgrwt>
</event>
<event>
12    3  0.1201947E-007  0.1796086E+04  0.7818608E-02  0.8708384E-01
          1   -1    0    0  501    0  0.00000000000E+00  0.00000000000E+00  0.16334510878E+04  0.16334510878E+04  0.00000000000E+00 0. -1.
         -2   -1    0    0    0  501 -0.00000000000E+00 -0.00000000000E+00 -0.22343376489E+04  0.22343376489E+04  0.00000000000E+00 0.  1.
        -24    2    1    2    0    0 -0.40877408559E+03  0.17324040041E+04  0.26170854938E+03  0.18008063115E+04  0.78052035778E+02 0.  0.
    5000000    2    1    2    0    0  0.40877408559E+03 -0.17324040041E+04 -0.86259511048E+03  0.20669824252E+04  0.60002177891E+03 0.  0.
        -24    2    4    4    0    0 -0.24185350560E+01 -0.61653270413E+03 -0.56017635532E+03  0.83733753353E+03  0.84959822386E+02 0.  0.
         24    2    4    4    0    0  0.41119262064E+03 -0.11158713000E+04 -0.30241875516E+03  0.12296448917E+04  0.79506772522E+02 0.  0.
         11    1    3    3    0    0 -0.88554897113E+02  0.52711904664E+03  0.70476108592E+02  0.53913202559E+03  0.00000000000E+00 0. -1.
        -12    1    3    3    0    0 -0.32021918847E+03  0.12052849575E+04  0.19123244079E+03  0.12616742859E+04  0.00000000000E+00 0.  1.
         15    1    5    5    0    0  0.36855358142E+02 -0.25560512674E+03 -0.25697610228E+03  0.36432426918E+03  0.17770000000E+01 0. -1.
        -16    1    5    5    0    0 -0.39273893198E+02 -0.36092757739E+03 -0.30320025304E+03  0.47301326435E+03  0.00000000000E+00 0.  1.
          4    1    6    6  502    0  0.19349000087E+03 -0.53802025686E+03 -0.18614084381E+03  0.60129243381E+03  0.00000000000E+00 0. -1.
         -3    1    6    6    0  502  0.21770261977E+03 -0.57785104311E+03 -0.11627791135E+03  0.62835245790E+03  0.00000000000E+00 0.  1.
<mgrwt>
<rscale>  0 0.17960857E+04</rscale>
<asrwt>0</asrwt>
<pdfrwt beam="1">  1        1 0.25130017E+00 0.17960857E+04</pdfrwt>
<pdfrwt beam="2">  1       -2 0.34374425E+00 0.17960857E+04</pdfrwt>
<totfact> 0.72081247E-02</totfact>
</mgrwt>
</event>
<event>
12    3  0.1201947E-007  0.7903174E+03  0.7818608E-02  0.9574139E-01
          1   -1    0    0  501    0  0.00000000000E+00  0.00000000000E+00  0.18637709859E+04  0.18637709859E+04  0.00000000000E+00 0. -1.
         -2   -1    0    0    0  501 -0.00000000000E+00 -0.00000000000E+00 -0.38134911654E+03  0.38134911654E+03  0.00000000000E+00 0.  1.
        -24    2    1    2    0    0  0.68017849261E+03  0.27239498548E+03  0.70413718757E+03  0.10192819943E+04  0.79276699454E+02 0.  0.
    5000000    2    1    2    0    0 -0.68017849261E+03 -0.27239498548E+03  0.77828468183E+03  0.12258381082E+04  0.60009183593E+03 0.  0.
        -24    2    4    4    0    0 -0.59867449422E+03 -0.35932869479E+03  0.81310829077E+03  0.10749333025E+04  0.82512129042E+02 0.  0.
         24    2    4    4    0    0 -0.81503998383E+02  0.86933709314E+02 -0.34823608940E+02  0.15090480564E+03  0.85785809181E+02 0.  0.
         11    1    3    3    0    0  0.27654988214E+03  0.74161415397E+02  0.24864642208E+03  0.37921602822E+03  0.00000000000E+00 0. -1.
        -12    1    3    3    0    0  0.40362861047E+03  0.19823357008E+03  0.45549076548E+03  0.64006596608E+03  0.00000000000E+00 0.  1.
         15    1    5    5    0    0 -0.11561370283E+03 -0.41163154556E+02  0.17407328277E+03  0.21299201647E+03  0.17770000000E+01 0. -1.
        -16    1    5    5    0    0 -0.48306079139E+03 -0.31816554023E+03  0.63903500800E+03  0.86194128607E+03  0.00000000000E+00 0.  1.
          4    1    6    6  502    0 -0.96527360656E+02  0.84427215180E+02 -0.20258024332E+02  0.12983017202E+03  0.00000000000E+00 0. -1.
         -3    1    6    6    0  502  0.15023362273E+02  0.25064941345E+01 -0.14565584608E+02  0.21074633611E+02  0.00000000000E+00 0.  1.
<mgrwt>
<rscale>  0 0.79031740E+03</rscale>
<asrwt>0</asrwt>
<pdfrwt beam="1">  1        1 0.28673399E+00 0.79031740E+03</pdfrwt>
<pdfrwt beam="2">  1       -2 0.58669096E-01 0.79031740E+03</pdfrwt>
<totfact> 0.90828642E+00</totfact>
</mgrwt>
</event>
<event>
12    3  0.1201947E-007  0.7003314E+03  0.7818608E-02  0.9716666E-01
          1   -1    0    0  501    0  0.00000000000E+00  0.00000000000E+00  0.78338745592E+03  0.78338745592E+03  0.00000000000E+00 0. -1.
         -2   -1    0    0    0  501 -0.00000000000E+00 -0.00000000000E+00 -0.63947473813E+03  0.63947473813E+03  0.00000000000E+00 0.  1.
        -24    2    1    2    0    0 -0.17767808549E+03  0.54961639380E+03  0.55401671279E+02  0.58528132697E+03  0.76401597621E+02 0.  0.
    5000000    2    1    2    0    0  0.17767808549E+03 -0.54961639380E+03  0.88511046516E+02  0.83758086708E+03  0.60004984888E+03 0.  0.
        -24    2    4    4    0    0 -0.20661692294E+03 -0.22772488911E+03  0.88847205169E+02  0.32987602360E+03  0.79844768860E+02 0.  0.
         24    2    4    4    0    0  0.38429500842E+03 -0.32189150469E+03 -0.33615865337E+00  0.50770484348E+03  0.80419529970E+02 0.  0.
         13    1    3    3    0    0 -0.12487718179E+03  0.37416444229E+03  0.73222914410E+02  0.40119189374E+03  0.00000000000E+00 0. -1.
        -14    1    3    3    0    0 -0.52800903697E+02  0.17545195151E+03 -0.17821243130E+02  0.18408943323E+03  0.00000000000E+00 0.  1.
         15    1    5    5    0    0 -0.11869653351E+03 -0.79250251498E+02  0.60430459346E+02  0.15499828249E+03  0.17770000000E+01 0. -1.
        -16    1    5    5    0    0 -0.87920389426E+02 -0.14847463761E+03  0.28416745824E+02  0.17487774111E+03  0.00000000000E+00 0.  1.
          2    1    6    6  502    0  0.24383338650E+03 -0.15228655059E+03 -0.14345112529E+01  0.28748560257E+03  0.00000000000E+00 0. -1.
         -1    1    6    6    0  502  0.14046162192E+03 -0.16960495410E+03  0.10983525995E+01  0.22021924091E+03  0.00000000000E+00 0.  1.
<mgrwt>
<rscale>  0 0.70033137E+03</rscale>
<asrwt>0</asrwt>
<pdfrwt beam="1">  1        1 0.12052115E+00 0.70033137E+03</pdfrwt>
<pdfrwt beam="2">  1       -2 0.98380729E-01 0.70033137E+03</pdfrwt>
<totfact> 0.17648392E+01</totfact>
</mgrwt>
</event>
<event>
12    3  0.1201947E-007  0.6238435E+03  0.7818608E-02  0.9857137E-01
         -2   -1    0    0    0  501 -0.00000000000E+00  0.00000000000E+00  0.39244079559E+03  0.39244079559E+03  0.00000000000E+00 0.  1.
          1   -1    0    0  501    0  0.00000000000E+00 -0.00000000000E+00 -0.13779294691E+04  0.13779294691E+04  0.00000000000E+00 0. -1.
        -24    2    1    2    0    0 -0.57657430183E+03  0.16285532485E+03 -0.27722357434E+03  0.66550466762E+03  0.84165135914E+02 0.  0.
    5000000    2    1    2    0    0  0.57657430183E+03 -0.16285532485E+03 -0.70826509918E+03  0.11048655971E+04  0.60010728584E+03 0.  0.
        -24    2    4    4    0    0  0.38735929102E+03 -0.60810271433E+01 -0.50926794685E+02  0.39873005887E+03  0.79422428805E+02 0.  0.
         24    2    4    4    0    0  0.18921501081E+03 -0.15677429770E+03 -0.65733830450E+03  0.70613553821E+03  0.78442660740E+02 0.  0.
         11    1    3    3    0    0 -0.52221999435E+03  0.14107787927E+03 -0.27518849845E+03  0.60691465643E+03  0.00000000000E+00 0. -1.
        -12    1    3    3    0    0 -0.54354307481E+02  0.21777445579E+02 -0.20350758886E+01  0.58590011193E+02  0.00000000000E+00 0.  1.
         15    1    5    5    0    0  0.85645455037E+02  0.24916469532E+02  0.86495954415E+01  0.89632291351E+02  0.17770000000E+01 0. -1.
        -16    1    5    5    0    0  0.30171383598E+03 -0.30997496676E+02 -0.59576390126E+02  0.30909776752E+03  0.00000000000E+00 0.  1.
          4    1    6    6  502    0  0.82182466860E+01 -0.38718402565E+02 -0.71683893944E+02  0.81885498880E+02  0.00000000000E+00 0. -1.
         -3    1    6    6    0  502  0.18099676412E+03 -0.11805589514E+03 -0.58565441055E+03  0.62425003933E+03  0.00000000000E+00 0.  1.
<mgrwt>
<rscale>  0 0.62384354E+03</rscale>
<asrwt>0</asrwt>
<pdfrwt beam="1">  1        1 0.21198915E+00 0.62384354E+03</pdfrwt>
<pdfrwt beam="2">  1       -2 0.60375507E-01 0.62384354E+03</pdfrwt>
<totfact> 0.18680121E+01</totfact>
</mgrwt>
</event>
<event>
12    3  0.1201947E-007  0.1574472E+04  0.7818608E-02  0.8836386E-01
         -2   -1    0    0    0  501 -0.00000000000E+00  0.00000000000E+00  0.13009009418E+04  0.13009009418E+04  0.00000000000E+00 0.  1.
          1   -1    0    0  501    0  0.00000000000E+00 -0.00000000000E+00 -0.21344305136E+04  0.21344305136E+04  0.00000000000E+00 0. -1.
        -24    2    1    2    0    0 -0.53842931946E+03  0.14731513917E+04 -0.78474802530E+03  0.17553240154E+04  0.72469172066E+02 0.  0.
    5000000    2    1    2    0    0  0.53842931946E+03 -0.14731513917E+04 -0.48781546503E+02  0.16800074400E+04  0.59997016960E+03 0.  0.
        -24    2    4    4    0    0  0.39484713856E+03 -0.12780681361E+04  0.16190707001E+03  0.13498665524E+04  0.81014730732E+02 0.  0.
         24    2    4    4    0    0  0.14358218089E+03 -0.19508325560E+03 -0.21068861651E+03  0.33014088766E+03  0.77006449665E+02 0.  0.
         11    1    3    3    0    0 -0.50250135316E+03  0.13826471245E+04 -0.71592963732E+03  0.16360855498E+04  0.00000000000E+00 0. -1.
        -12    1    3    3    0    0 -0.35927966293E+02  0.90504267223E+02 -0.68818387984E+02  0.11923846557E+03  0.00000000000E+00 0.  1.
         15    1    5    5    0    0  0.14964824847E+03 -0.46486984889E+03  0.20349343249E+02  0.48879016784E+03  0.17770000000E+01 0. -1.
        -16    1    5    5    0    0  0.24519889009E+03 -0.81319828721E+03  0.14155772676E+03  0.86107638455E+03  0.00000000000E+00 0.  1.
          4    1    6    6  502    0  0.13531652911E+03 -0.18900990824E+03 -0.16948869456E+03  0.28768337812E+03  0.00000000000E+00 0. -1.
         -3    1    6    6    0  502  0.82656517860E+01 -0.60733473624E+01 -0.41199921946E+02  0.42457509536E+02  0.00000000000E+00 0.  1.
<mgrwt>
<rscale>  0 0.15744715E+04</rscale>
<asrwt>0</asrwt>
<pdfrwt beam="1">  1        1 0.32837392E+00 0.15744715E+04</pdfrwt>
<pdfrwt beam="2">  1       -2 0.20013861E+00 0.15744715E+04</pdfrwt>
<totfact> 0.26255134E-01</totfact>
</mgrwt>
</event>
<event>
12    3  0.1296091E-007  0.6586309E+03  0.7818608E-02  0.9790717E-01
         -2   -1    0    0    0  501 -0.00000000000E+00  0.00000000000E+00  0.79428828628E+03  0.79428828628E+03  0.00000000000E+00 0.  1.
          1   -1    0    0  501    0  0.00000000000E+00 -0.00000000000E+00 -0.97725505848E+03  0.97725505848E+03  0.00000000000E+00 0. -1.
        -24    2    1    2    0    0  0.51115817266E+03 -0.13545109032E+03 -0.65294982180E+03  0.84394741696E+03  0.79209200542E+02 0.  0.
    5000000    2    1    2    0    0 -0.51115817266E+03  0.13545109032E+03  0.46998304960E+03  0.92759592780E+03  0.59993371551E+03 0.  0.
        -24    2    4    4    0    0  0.78260310142E+02 -0.11178946669E+03  0.89133196848E+02  0.17920266374E+03  0.74480245068E+02 0.  0.
         24    2    4    4    0    0 -0.58941848280E+03  0.24724055701E+03  0.38084985275E+03  0.74839326406E+03  0.80646304585E+02 0.  0.
         11    1    3    3    0    0  0.16077841481E+03 -0.67294800649E+02 -0.26070918988E+03  0.31360416220E+03  0.00000000000E+00 0. -1.
        -12    1    3    3    0    0  0.35037975785E+03 -0.68156289670E+02 -0.39224063192E+03  0.53034325475E+03  0.00000000000E+00 0.  1.
         15    1    5    5    0    0  0.60475870222E+02 -0.39364589153E+02  0.73478715363E+02  0.10300087912E+03  0.17770000000E+01 0. -1.
        -16    1    5    5    0    0  0.17784439920E+02 -0.72424877538E+02  0.15654481486E+02  0.76201784627E+02  0.00000000000E+00 0.  1.
          2    1    6    6  502    0 -0.31567703652E+03  0.12658728073E+03  0.24876708829E+03  0.42138034511E+03  0.00000000000E+00 0. -1.
         -1    1    6    6    0  502 -0.27374144628E+03  0.12065327629E+03  0.13208276447E+03  0.32701291895E+03  0.00000000000E+00 0.  1.
<mgrwt>
<rscale>  0 0.65863086E+03</rscale>
<asrwt>0</asrwt>
<pdfrwt beam="1">  1        1 0.15034693E+00 0.65863086E+03</pdfrwt>
<pdfrwt beam="2">  1       -2 0.12219820E+00 0.65863086E+03</pdfrwt>
<totfact> 0.72731581E+00</totfact>
</mgrwt>
</event>
<event>
12    3  0.1201947E-007  0.6791459E+03  0.7818608E-02  0.9753575E-01
          1   -1    0    0  501    0  0.00000000000E+00  0.00000000000E+00  0.19455370454E+04  0.19455370454E+04  0.00000000000E+00 0. -1.
         -2   -1    0    0    0  501 -0.00000000000E+00 -0.00000000000E+00 -0.43781506260E+03  0.43781506260E+03  0.00000000000E+00 0.  1.
        -24    2    1    2    0    0 -0.15488403218E+03  0.65250126360E+03  0.59009280247E+02  0.67792855207E+03  0.79737470033E+02 0.  0.
    5000000    2    1    2    0    0  0.15488403218E+03 -0.65250126360E+03  0.14487127026E+04  0.17054235560E+04  0.59996170558E+03 0.  0.
        -24    2    4    4    0    0  0.14851200551E+03 -0.34454018475E+03  0.12971898676E+04  0.13529511089E+04  0.83734077024E+02 0.  0.
         24    2    4    4    0    0  0.63720266756E+01 -0.30796107885E+03  0.15152283496E+03  0.35247244708E+03  0.79981420516E+02 0.  0.
         11    1    3    3    0    0 -0.11043047418E+03  0.54786105249E+03  0.71995882383E+02  0.56349802976E+03  0.00000000000E+00 0. -1.
        -12    1    3    3    0    0 -0.44453558007E+02  0.10464021111E+03 -0.12986602136E+02  0.11443052231E+03  0.00000000000E+00 0.  1.
         15    1    5    5    0    0  0.12522989447E+03 -0.31953740053E+03  0.10837842328E+04  0.11368280863E+04  0.17770000000E+01 0. -1.
        -16    1    5    5    0    0  0.23282111037E+02 -0.25002784222E+02  0.21340563480E+03  0.21612302255E+03  0.00000000000E+00 0.  1.
          4    1    6    6  502    0  0.10741702471E+02 -0.18411293658E+03  0.13251660455E+03  0.22709823441E+03  0.00000000000E+00 0. -1.
         -3    1    6    6    0  502 -0.43696757951E+01 -0.12384814227E+03  0.19006230410E+02  0.12537421268E+03  0.00000000000E+00 0.  1.
<mgrwt>
<rscale>  0 0.67914586E+03</rscale>
<asrwt>0</asrwt>
<pdfrwt beam="1">  1        1 0.29931339E+00 0.67914586E+03</pdfrwt>
<pdfrwt beam="2">  1       -2 0.67356165E-01 0.67914586E+03</pdfrwt>
<totfact> 0.60698073E+00</totfact>
</mgrwt>
</event>
<event>
12    3  0.1201947E-007  0.1859654E+04  0.7818608E-02  0.8675204E-01
          1   -1    0    0  501    0  0.00000000000E+00  0.00000000000E+00  0.22963411881E+04  0.22963411881E+04  0.00000000000E+00 0. -1.
         -2   -1    0    0    0  501 -0.00000000000E+00 -0.00000000000E+00 -0.17900598958E+04  0.17900598958E+04  0.00000000000E+00 0.  1.
        -24    2    1    2    0    0  0.11331097709E+04  0.14558946402E+04  0.97851204179E+03  0.20897834449E+04  0.78371389273E+02 0.  0.
    5000000    2    1    2    0    0 -0.11331097709E+04 -0.14558946402E+04 -0.47223074943E+03  0.19966176389E+04  0.59992762826E+03 0.  0.
        -24    2    4    4    0    0 -0.21267780496E+02 -0.11540315967E+03 -0.17957424368E+03  0.22887507541E+03  0.79791499555E+02 0.  0.
         24    2    4    4    0    0 -0.11118419904E+04 -0.13404914805E+04 -0.29265650575E+03  0.17677425635E+04  0.78459668459E+02 0.  0.
         11    1    3    3    0    0  0.25110391194E+03  0.36232938359E+03  0.20805874343E+03  0.48746712456E+03  0.00000000000E+00 0. -1.
        -12    1    3    3    0    0  0.88200585893E+03  0.10935652566E+04  0.77045329836E+03  0.16023163204E+04  0.00000000000E+00 0.  1.
         15    1    5    5    0    0  0.15837364220E+02 -0.73494886592E+02 -0.57788182255E+02  0.94841721821E+02  0.17770000000E+01 0. -1.
        -16    1    5    5    0    0 -0.37105144716E+02 -0.41908273081E+02 -0.12178606142E+03  0.13403335359E+03  0.00000000000E+00 0.  1.
          4    1    6    6  502    0 -0.70398373268E+03 -0.88786648395E+03 -0.16201384185E+03  0.11446171736E+04  0.00000000000E+00 0. -1.
         -3    1    6    6    0  502 -0.40785825770E+03 -0.45262499657E+03 -0.13064266390E+03  0.62312538989E+03  0.00000000000E+00 0.  1.
<mgrwt>
<rscale>  0 0.18596543E+04</rscale>
<asrwt>0</asrwt>
<pdfrwt beam="1">  1        1 0.35328326E+00 0.18596543E+04</pdfrwt>
<pdfrwt beam="2">  1       -2 0.27539383E+00 0.18596543E+04</pdfrwt>
<totfact> 0.66521382E-02</totfact>
</mgrwt>
</event>
<event>
12    3  0.1201947E-007  0.5786414E+03  0.7818608E-02  0.9950737E-01
          1   -1    0    0  501    0  0.00000000000E+00  0.00000000000E+00  0.15439511573E+04  0.15439511573E+04  0.00000000000E+00 0. -1.
         -2   -1    0    0    0  501 -0.00000000000E+00 -0.00000000000E+00 -0.32854604408E+03  0.32854604408E+03  0.00000000000E+00 0.  1.
        -24    2    1    2    0    0 -0.55944463390E+03  0.13685819517E+03  0.61634650098E+03  0.84749904280E+03  0.81628146470E+02 0.  0.
    5000000    2    1    2    0    0  0.55944463390E+03 -0.13685819517E+03  0.59905861228E+03  0.10249981586E+04  0.60003461586E+03 0.  0.
        -24    2    4    4    0    0  0.29722877019E+03 -0.60204018993E+02 -0.49448179447E+02  0.31695860457E+03  0.77769973842E+02 0.  0.
         24    2    4    4    0    0  0.26221586371E+03 -0.76654176176E+02  0.64850679172E+03  0.70803955404E+03  0.78268315862E+02 0.  0.
         11    1    3    3    0    0 -0.13152584054E+03  0.48903067458E+01  0.17274089579E+03  0.21716901001E+03  0.00000000000E+00 0. -1.
        -12    1    3    3    0    0 -0.42791879336E+03  0.13196788842E+03  0.44360560519E+03  0.63033003280E+03  0.00000000000E+00 0.  1.
         15    1    5    5    0    0  0.23229212485E+03 -0.59121374731E+02 -0.68457544094E+02  0.24928810900E+03  0.17770000000E+01 0. -1.
        -16    1    5    5    0    0  0.64936645341E+02 -0.10826442612E+01  0.19009364648E+02  0.67670495573E+02  0.00000000000E+00 0.  1.
          2    1    6    6  502    0  0.13183253812E+03 -0.40254058157E+02  0.42437833009E+03  0.44620306404E+03  0.00000000000E+00 0. -1.
         -1    1    6    6    0  502  0.13038332559E+03 -0.36400118019E+02  0.22412846164E+03  0.26183649001E+03  0.00000000000E+00 0.  1.
<mgrwt>
<rscale>  0 0.57864136E+03</rscale>
<asrwt>0</asrwt>
<pdfrwt beam="1">  1        1 0.23753094E+00 0.57864136E+03</pdfrwt>
<pdfrwt beam="2">  1       -2 0.50545546E-01 0.57864136E+03</pdfrwt>
<totfact> 0.20918817E+01</totfact>
</mgrwt>
</event>
<event>
12    3  0.1201947E-007  0.5088130E+03  0.7818608E-02  0.1011504E+00
         -2   -1    0    0    0  501 -0.00000000000E+00  0.00000000000E+00  0.42918354277E+03  0.42918354277E+03  0.00000000000E+00 0.  1.
          1   -1    0    0  501    0  0.00000000000E+00 -0.00000000000E+00 -0.74595674265E+03  0.74595674265E+03  0.00000000000E+00 0. -1.
        -24    2    1    2    0    0  0.36570827683E+03  0.26914181458E+02 -0.28512966082E+03  0.47120265976E+03  0.79158740416E+02 0.  0.
    5000000    2    1    2    0    0 -0.36570827683E+03 -0.26914181458E+02 -0.31643539055E+02  0.70393762566E+03  0.60004995654E+03 0.  0.
        -24    2    4    4    0    0  0.52134842500E+02  0.16792987083E+03 -0.12053709420E+03  0.22750990011E+03  0.79454894450E+02 0.  0.
         24    2    4    4    0    0 -0.41784311933E+03 -0.19484405229E+03  0.88893555145E+02  0.47642772554E+03  0.80772745642E+02 0.  0.
         11    1    3    3    0    0  0.14147065543E+03 -0.22402968263E+02 -0.84522472370E+02  0.16631262030E+03  0.00000000000E+00 0. -1.
        -12    1    3    3    0    0  0.22423762139E+03  0.49317149721E+02 -0.20060718845E+03  0.30489003946E+03  0.00000000000E+00 0.  1.
         15    1    5    5    0    0  0.13026246372E+02  0.20670431896E+01  0.66411740473E+01  0.14873422062E+02  0.17770000000E+01 0. -1.
        -16    1    5    5    0    0  0.39108596128E+02  0.16586282764E+03 -0.12717826825E+03  0.21263647805E+03  0.00000000000E+00 0.  1.
          4    1    6    6  502    0 -0.18385918100E+03 -0.88933837436E+02  0.80267696699E+02  0.21944550351E+03  0.00000000000E+00 0. -1.
         -3    1    6    6    0  502 -0.23398393833E+03 -0.10591021485E+03  0.86258584467E+01  0.25698222203E+03  0.00000000000E+00 0.  1.
<mgrwt>
<rscale>  0 0.50881296E+03</rscale>
<asrwt>0</asrwt>
<pdfrwt beam="1">  1        1 0.11476258E+00 0.50881296E+03</pdfrwt>
<pdfrwt beam="2">  1       -2 0.66028237E-01 0.50881296E+03</pdfrwt>
<totfact> 0.47635551E+01</totfact>
</mgrwt>
</event>
<event>
12    3  0.1201947E-007  0.8185504E+03  0.7818608E-02  0.9533548E-01
         -2   -1    0    0    0  501 -0.00000000000E+00  0.00000000000E+00  0.90460655019E+03  0.90460655019E+03  0.00000000000E+00 0.  1.
          1   -1    0    0  501    0  0.00000000000E+00 -0.00000000000E+00 -0.14004033548E+04  0.14004033548E+04  0.00000000000E+00 0. -1.
        -24    2    1    2    0    0 -0.18508108277E+02 -0.77766411233E+03  0.48206538837E+03  0.91894948869E+03  0.83529051414E+02 0.  0.
    5000000    2    1    2    0    0  0.18508108277E+02  0.77766411233E+03 -0.97786219298E+03  0.13860604163E+04  0.59987080901E+03 0.  0.
        -24    2    4    4    0    0  0.41257817025E+01  0.77455353051E+03 -0.55673672474E+03  0.95709843914E+03  0.78303562112E+02 0.  0.
         24    2    4    4    0    0  0.14382326574E+02  0.31105818202E+01 -0.42112546824E+03  0.42896197715E+03  0.80281945728E+02 0.  0.
         11    1    3    3    0    0  0.27467998165E+02 -0.33188250863E+03  0.23070209504E+03  0.40512213851E+03  0.00000000000E+00 0. -1.
        -12    1    3    3    0    0 -0.45976106441E+02 -0.44578160370E+03  0.25136329333E+03  0.51382735018E+03  0.00000000000E+00 0.  1.
         15    1    5    5    0    0  0.68528923805E+01  0.41484584089E+03 -0.25035508716E+03  0.48458731023E+03  0.17770000000E+01 0. -1.
        -16    1    5    5    0    0 -0.27271106780E+01  0.35970768962E+03 -0.30638163758E+03  0.47251112891E+03  0.00000000000E+00 0.  1.
          2    1    6    6  502    0 -0.11435919894E+02 -0.34131808795E+02 -0.16816842410E+03  0.17197784595E+03  0.00000000000E+00 0. -1.
         -3    1    6    6    0  502  0.25818246468E+02  0.37242390616E+02 -0.25295704414E+03  0.25698413120E+03  0.00000000000E+00 0.  1.
<mgrwt>
<rscale>  0 0.81855042E+03</rscale>
<asrwt>0</asrwt>
<pdfrwt beam="1">  1        1 0.21544667E+00 0.81855042E+03</pdfrwt>
<pdfrwt beam="2">  1       -2 0.13917024E+00 0.81855042E+03</pdfrwt>
<totfact> 0.25101593E+00</totfact>
</mgrwt>
</event>
<event>
12    3  0.1201947E-007  0.4891417E+03  0.7818608E-02  0.1016653E+00
          1   -1    0    0  501    0  0.00000000000E+00  0.00000000000E+00  0.23360340399E+04  0.23360340399E+04  0.00000000000E+00 0. -1.
         -2   -1    0    0    0  501 -0.00000000000E+00 -0.00000000000E+00 -0.29281317383E+03  0.29281317383E+03  0.00000000000E+00 0.  1.
        -24    2    1    2    0    0  0.25463428799E+03 -0.19935990803E+03  0.19042715631E+04  0.19332328996E+04  0.80970764350E+02 0.  0.
    5000000    2    1    2    0    0 -0.25463428799E+03  0.19935990803E+03  0.13894930295E+03  0.69561431407E+03  0.59999114293E+03 0.  0.
        -24    2    4    4    0    0  0.17792882683E+03  0.11371539973E+02  0.81658300141E+02  0.21137654601E+03  0.78892248555E+02 0.  0.
         24    2    4    4    0    0 -0.43256311482E+03  0.18798836806E+03  0.57291002806E+02  0.48423776806E+03  0.93560045890E+02 0.  0.
         13    1    3    3    0    0  0.10267009601E+03 -0.84438697822E+02  0.10230397861E+04  0.10316401729E+04  0.00000000000E+00 0. -1.
        -14    1    3    3    0    0  0.15196419199E+03 -0.11492121021E+03  0.88123177694E+03  0.90159272673E+03  0.00000000000E+00 0.  1.
         15    1    5    5    0    0  0.14643239548E+03  0.18587973186E+02  0.95932467373E+02  0.17605156977E+03  0.17770000000E+01 0. -1.
        -16    1    5    5    0    0  0.31496431345E+02 -0.72164332130E+01 -0.14274167232E+02  0.35324976234E+02  0.00000000000E+00 0.  1.
          2    1    6    6  502    0 -0.16529943598E+03  0.10154945404E+03  0.60854055326E+02  0.20332095613E+03  0.00000000000E+00 0. -1.
         -1    1    6    6    0  502 -0.26726367884E+03  0.86438914019E+02 -0.35630525194E+01  0.28091681194E+03  0.00000000000E+00 0.  1.
<mgrwt>
<rscale>  0 0.48914175E+03</rscale>
<asrwt>0</asrwt>
<pdfrwt beam="1">  1        1 0.35938984E+00 0.48914175E+03</pdfrwt>
<pdfrwt beam="2">  1       -2 0.45048182E-01 0.48914175E+03</pdfrwt>
<totfact> 0.79702487E+00</totfact>
</mgrwt>
</event>
<event>
12    3  0.1201947E-007  0.3583993E+03  0.7818608E-02  0.1059219E+00
         -2   -1    0    0    0  501 -0.00000000000E+00  0.00000000000E+00  0.10633004919E+04  0.10633004919E+04  0.00000000000E+00 0.  1.
          1   -1    0    0  501    0  0.00000000000E+00 -0.00000000000E+00 -0.24709141352E+03  0.24709141352E+03  0.00000000000E+00 0. -1.
        -24    2    1    2    0    0  0.14100036775E+03 -0.28878137279E+03  0.36703624632E+03  0.49493938002E+03  0.83508076252E+02 0.  0.
    5000000    2    1    2    0    0 -0.14100036775E+03  0.28878137279E+03  0.44917283202E+03  0.81545252537E+03  0.59994233317E+03 0.  0.
        -24    2    4    4    0    0 -0.18331860590E+03  0.21398137727E+03  0.57391584773E+03  0.64424329184E+03  0.79222962061E+02 0.  0.
         24    2    4    4    0    0  0.42318238146E+02  0.74799995526E+02 -0.12474301571E+03  0.17120923353E+03  0.79786647176E+02 0.  0.
         13    1    3    3    0    0  0.59168994104E+02 -0.62143398325E+02  0.13796363775E+03  0.16247072708E+03  0.00000000000E+00 0. -1.
        -14    1    3    3    0    0  0.81831373647E+02 -0.22663797447E+03  0.22907260857E+03  0.33246865293E+03  0.00000000000E+00 0.  1.
         15    1    5    5    0    0 -0.15973333440E+03  0.18026700534E+03  0.53866439797E+03  0.59006221935E+03  0.17770000000E+01 0. -1.
        -16    1    5    5    0    0 -0.23585271494E+02  0.33714371928E+02  0.35251449761E+02  0.54181072491E+02  0.00000000000E+00 0.  1.
          4    1    6    6  502    0  0.51121029444E+02  0.24008306157E+02 -0.31507332571E+02  0.64672021939E+02  0.00000000000E+00 0. -1.
         -3    1    6    6    0  502 -0.88027912974E+01  0.50791689370E+02 -0.93235683138E+02  0.10653721159E+03  0.00000000000E+00 0.  1.
<mgrwt>
<rscale>  0 0.35839925E+03</rscale>
<asrwt>0</asrwt>
<pdfrwt beam="1">  1        1 0.38014064E-01 0.35839925E+03</pdfrwt>
<pdfrwt beam="2">  1       -2 0.16358469E+00 0.35839925E+03</pdfrwt>
<totfact> 0.24722335E+01</totfact>
</mgrwt>
</event>
<event>
12    3  0.1201947E-007  0.6196310E+03  0.7818608E-02  0.9865495E-01
         -2   -1    0    0    0  501 -0.00000000000E+00  0.00000000000E+00  0.52894754839E+03  0.52894754839E+03  0.00000000000E+00 0.  1.
          1   -1    0    0  501    0  0.00000000000E+00 -0.00000000000E+00 -0.77527724837E+03  0.77527724837E+03  0.00000000000E+00 0. -1.
        -24    2    1    2    0    0 -0.48197168775E+01 -0.49390187613E+03 -0.49012164630E+02  0.50244138308E+03  0.77992680665E+02 0.  0.
    5000000    2    1    2    0    0  0.48197168775E+01  0.49390187613E+03 -0.19731753536E+03  0.80178341368E+03  0.59996678222E+03 0.  0.
        -24    2    4    4    0    0 -0.73613826058E+02  0.59598816996E+03 -0.22895991408E+03  0.64763804046E+03  0.79946826511E+02 0.  0.
         24    2    4    4    0    0  0.78433542935E+02 -0.10208629383E+03  0.31642378724E+02  0.15414537322E+03  0.78651916114E+02 0.  0.
         11    1    3    3    0    0 -0.33374369987E+02 -0.11971629911E+03 -0.25976490650E+01  0.12430844149E+03  0.00000000000E+00 0. -1.
        -12    1    3    3    0    0  0.28554653109E+02 -0.37418557702E+03 -0.46414515565E+02  0.37813294159E+03  0.00000000000E+00 0.  1.
         15    1    5    5    0    0 -0.61393225150E+02  0.22307101686E+03 -0.10857373586E+03  0.25558016454E+03  0.17770000000E+01 0. -1.
        -16    1    5    5    0    0 -0.12220600908E+02  0.37291715310E+03 -0.12038617822E+03  0.39205787591E+03  0.00000000000E+00 0.  1.
          4    1    6    6  502    0  0.75644301729E+02 -0.70166713546E+02 -0.76324164555E+01  0.10345859971E+03  0.00000000000E+00 0. -1.
         -3    1    6    6    0  502  0.27892412062E+01 -0.31919580286E+02  0.39274795179E+02  0.50686773506E+02  0.00000000000E+00 0.  1.
<mgrwt>
<rscale>  0 0.61963098E+03</rscale>
<asrwt>0</asrwt>
<pdfrwt beam="1">  1        1 0.11927342E+00 0.61963098E+03</pdfrwt>
<pdfrwt beam="2">  1       -2 0.81376546E-01 0.61963098E+03</pdfrwt>
<totfact> 0.28003399E+01</totfact>
</mgrwt>
</event>
<event>
12    3  0.1201947E-007  0.4783040E+03  0.7818608E-02  0.1019602E+00
          1   -1    0    0  501    0  0.00000000000E+00  0.00000000000E+00  0.14817835640E+04  0.14817835640E+04  0.00000000000E+00 0. -1.
         -2   -1    0    0    0  501 -0.00000000000E+00 -0.00000000000E+00 -0.23820974738E+03  0.23820974738E+03  0.00000000000E+00 0.  1.
        -24    2    1    2    0    0 -0.35582503079E+03 -0.23528690472E+03  0.60797578216E+03  0.74706121155E+03  0.80588597440E+02 0.  0.
    5000000    2    1    2    0    0  0.35582503079E+03  0.23528690472E+03  0.63559803449E+03  0.97293209986E+03  0.60053362056E+03 0.  0.
        -24    2    4    4    0    0  0.42537995699E+02 -0.50190542916E+02  0.51456464597E+03  0.52453603295E+03  0.77670478967E+02 0.  0.
         24    2    4    4    0    0  0.31328703509E+03  0.28547744764E+03  0.12103338852E+03  0.44839606691E+03  0.82242399155E+02 0.  0.
         11    1    3    3    0    0 -0.21019594329E+03 -0.11549135452E+03  0.39943322886E+03  0.46590502451E+03  0.00000000000E+00 0. -1.
        -12    1    3    3    0    0 -0.14562908750E+03 -0.11979555020E+03  0.20854255330E+03  0.28115618704E+03  0.00000000000E+00 0.  1.
         15    1    5    5    0    0  0.39754326380E+02  0.98361721748E+01  0.17902249951E+03  0.18365557386E+03  0.17770000000E+01 0. -1.
        -16    1    5    5    0    0  0.27836693195E+01 -0.60026715091E+02  0.33554214646E+03  0.34088045910E+03  0.00000000000E+00 0.  1.
          4    1    6    6  502    0  0.17779101550E+03  0.12631562785E+03  0.94519726652E+02  0.23769573357E+03  0.00000000000E+00 0. -1.
         -3    1    6    6    0  502  0.13549601959E+03  0.15916181979E+03  0.26513661863E+02  0.21070033334E+03  0.00000000000E+00 0.  1.
<mgrwt>
<rscale>  0 0.47830397E+03</rscale>
<asrwt>0</asrwt>
<pdfrwt beam="1">  1        1 0.22796670E+00 0.47830397E+03</pdfrwt>
<pdfrwt beam="2">  1       -2 0.36647654E-01 0.47830397E+03</pdfrwt>
<totfact> 0.44095746E+01</totfact>
</mgrwt>
</event>
<event>
12    3  0.1201947E-007  0.6938907E+03  0.7818608E-02  0.9727737E-01
          1   -1    0    0  501    0  0.00000000000E+00  0.00000000000E+00  0.20696786048E+04  0.20696786048E+04  0.00000000000E+00 0. -1.
         -4   -1    0    0    0  501 -0.00000000000E+00 -0.00000000000E+00 -0.30570443008E+03  0.30570443008E+03  0.00000000000E+00 0.  1.
        -24    2    1    2    0    0  0.58567296269E+03  0.56540964257E+02  0.25090066886E+03  0.64457953886E+03  0.79510605635E+02 0.  0.
    5000000    2    1    2    0    0 -0.58567296269E+03 -0.56540964257E+02  0.15130735059E+04  0.17308034961E+04  0.60006633624E+03 0.  0.
        -24    2    4    4    0    0 -0.67834693640E+03 -0.11983086514E+02  0.10736186279E+04  0.12725384203E+04  0.79993203896E+02 0.  0.
         24    2    4    4    0    0  0.92673973708E+02 -0.44557877743E+02  0.43945487805E+03  0.45826507574E+03  0.79450739006E+02 0.  0.
         13    1    3    3    0    0  0.49803691811E+03  0.65948940064E+02  0.23651328777E+03  0.55527341895E+03  0.00000000000E+00 0. -1.
        -14    1    3    3    0    0  0.87636044582E+02 -0.94079758074E+01  0.14387381094E+02  0.89306119911E+02  0.00000000000E+00 0.  1.
         15    1    5    5    0    0 -0.58859046054E+03  0.16870349521E+02  0.92998736701E+03  0.11007283950E+04  0.17770000000E+01 0. -1.
        -16    1    5    5    0    0 -0.89756475865E+02 -0.28853436036E+02  0.14363126084E+03  0.17181002538E+03  0.00000000000E+00 0.  1.
          4    1    6    6  502    0  0.79793623666E+02 -0.14042209922E+02  0.39267426338E+03  0.40094548652E+03  0.00000000000E+00 0. -1.
         -3    1    6    6    0  502  0.12880350042E+02 -0.30515667821E+02  0.46780614671E+02  0.57319589224E+02  0.00000000000E+00 0.  1.
<mgrwt>
<rscale>  0 0.69389069E+03</rscale>
<asrwt>0</asrwt>
<pdfrwt beam="1">  1        1 0.31841208E+00 0.69389069E+03</pdfrwt>
<pdfrwt beam="2">  1       -4 0.47031452E-01 0.69389069E+03</pdfrwt>
<totfact> 0.59147443E+00</totfact>
</mgrwt>
</event>
<event>
12    3  0.1201947E-007  0.2744358E+03  0.7818608E-02  0.1098767E+00
         -2   -1    0    0    0  501 -0.00000000000E+00  0.00000000000E+00  0.83028528083E+02  0.83028528083E+02  0.00000000000E+00 0.  1.
          1   -1    0    0  501    0  0.00000000000E+00 -0.00000000000E+00 -0.25321769294E+04  0.25321769294E+04  0.00000000000E+00 0. -1.
        -24    2    1    2    0    0 -0.19850488982E+03 -0.13669388160E+03 -0.93291852907E+03  0.96686995576E+03  0.80069475596E+02 0.  0.
    5000000    2    1    2    0    0  0.19850488982E+03  0.13669388160E+03 -0.15162298722E+04  0.16483355017E+04  0.59997290955E+03 0.  0.
        -24    2    4    4    0    0  0.17733735789E+03  0.30007957264E+02 -0.14981627533E+04  0.15110482637E+04  0.80163607463E+02 0.  0.
         24    2    4    4    0    0  0.21167531932E+02  0.10668592434E+03 -0.18067118966E+02  0.13728723801E+03  0.81801063998E+02 0.  0.
         11    1    3    3    0    0 -0.61115436169E+02 -0.32484538855E+02 -0.42194824463E+03  0.42758702383E+03  0.00000000000E+00 0. -1.
        -12    1    3    3    0    0 -0.13738945365E+03 -0.10420934275E+03 -0.51097028443E+03  0.53928293192E+03  0.00000000000E+00 0.  1.
         15    1    5    5    0    0  0.71356258653E+02 -0.19581044284E+02 -0.41144335194E+03  0.41804775150E+03  0.17770000000E+01 0. -1.
        -16    1    5    5    0    0  0.10598109923E+03  0.49589001548E+02 -0.10867194013E+04  0.10930005122E+04  0.00000000000E+00 0.  1.
          4    1    6    6  502    0  0.18730337792E+02  0.13769920034E+02  0.25610762250E+02  0.34588255153E+02  0.00000000000E+00 0. -1.
         -3    1    6    6    0  502  0.24371941400E+01  0.92916004305E+02 -0.43677881216E+02  0.10269898285E+03  0.00000000000E+00 0.  1.
<mgrwt>
<rscale>  0 0.27443576E+03</rscale>
<asrwt>0</asrwt>
<pdfrwt beam="1">  1        1 0.38956560E+00 0.27443576E+03</pdfrwt>
<pdfrwt beam="2">  1       -2 0.12773622E-01 0.27443576E+03</pdfrwt>
<totfact> 0.59356625E+01</totfact>
</mgrwt>
</event>
<event>
12    3  0.1201947E-007  0.7017632E+03  0.7818608E-02  0.9714222E-01
         -2   -1    0    0    0  501 -0.00000000000E+00  0.00000000000E+00  0.11242176507E+04  0.11242176507E+04  0.00000000000E+00 0.  1.
          1   -1    0    0  501    0  0.00000000000E+00 -0.00000000000E+00 -0.45253133358E+03  0.45253133358E+03  0.00000000000E+00 0. -1.
        -24    2    1    2    0    0  0.25237662713E+03 -0.52445611622E+03  0.32417697289E+03  0.67138174815E+03  0.83153846800E+02 0.  0.
    5000000    2    1    2    0    0 -0.25237662713E+03  0.52445611622E+03  0.34750934421E+03  0.90536723612E+03  0.60014907162E+03 0.  0.
        -24    2    4    4    0    0 -0.14801632924E+03  0.63261434889E+03  0.33207030849E+03  0.73529605690E+03  0.90993699642E+02 0.  0.
         24    2    4    4    0    0 -0.10436029789E+03 -0.10815823268E+03  0.15439035722E+02  0.17007117921E+03  0.78080516794E+02 0.  0.
         13    1    3    3    0    0  0.17736452817E+03 -0.41235138583E+03  0.21431337144E+03  0.49741538218E+03  0.00000000000E+00 0. -1.
        -14    1    3    3    0    0  0.75012098962E+02 -0.11210473038E+03  0.10986360145E+03  0.17396636597E+03  0.00000000000E+00 0.  1.
         15    1    5    5    0    0 -0.11120826258E+03  0.40748059414E+03  0.16928395392E+03  0.45504717014E+03  0.17770000000E+01 0. -1.
        -16    1    5    5    0    0 -0.36808066657E+02  0.22513375475E+03  0.16278635457E+03  0.28024888677E+03  0.00000000000E+00 0.  1.
          4    1    6    6  502    0 -0.86474841677E+02 -0.11991905156E+03  0.15581701749E+02  0.14866494745E+03  0.00000000000E+00 0. -1.
         -3    1    6    6    0  502 -0.17885456216E+02  0.11760818883E+02 -0.14266602707E+00  0.21406231767E+02  0.00000000000E+00 0.  1.
<mgrwt>
<rscale>  0 0.70176324E+03</rscale>
<asrwt>0</asrwt>
<pdfrwt beam="1">  1        1 0.69620205E-01 0.70176324E+03</pdfrwt>
<pdfrwt beam="2">  1       -2 0.17295656E+00 0.70176324E+03</pdfrwt>
<totfact> 0.92647088E+00</totfact>
</mgrwt>
</event>
<event>
12    3  0.1201947E-007  0.8091970E+03  0.7818608E-02  0.9546799E-01
         -2   -1    0    0    0  501 -0.00000000000E+00  0.00000000000E+00  0.68851696681E+03  0.68851696681E+03  0.00000000000E+00 0.  1.
          1   -1    0    0  501    0  0.00000000000E+00 -0.00000000000E+00 -0.10153812074E+04  0.10153812074E+04  0.00000000000E+00 0. -1.
        -24    2    1    2    0    0 -0.57938277473E+03  0.43431183195E+03 -0.19480925214E+03  0.75431686434E+03  0.82049497815E+02 0.  0.
    5000000    2    1    2    0    0  0.57938277473E+03 -0.43431183195E+03 -0.13205498840E+03  0.94958130982E+03  0.59996247963E+03 0.  0.
        -24    2    4    4    0    0  0.45603342033E+03 -0.54266549062E+03  0.18263328369E+02  0.71352770353E+03  0.79598488561E+02 0.  0.
         24    2    4    4    0    0  0.12334935441E+03  0.10835365867E+03 -0.15031831677E+03  0.23605360628E+03  0.78550175699E+02 0.  0.
         13    1    3    3    0    0 -0.45837679809E+03  0.29963063427E+03 -0.14256019983E+03  0.56587208501E+03  0.00000000000E+00 0. -1.
        -14    1    3    3    0    0 -0.12100597664E+03  0.13468119768E+03 -0.52249052308E+02  0.18844477933E+03  0.00000000000E+00 0.  1.
         15    1    5    5    0    0  0.80258230203E+02 -0.11622324849E+03 -0.25205959116E+02  0.14348423296E+03  0.17770000000E+01 0. -1.
        -16    1    5    5    0    0  0.37577519012E+03 -0.42644224213E+03  0.43469287486E+02  0.57004347057E+03  0.00000000000E+00 0.  1.
          2    1    6    6  502    0  0.26122016582E+02  0.71467061769E+02 -0.80674284520E+02  0.11089743392E+03  0.00000000000E+00 0. -1.
         -1    1    6    6    0  502  0.97227337824E+02  0.36886596906E+02 -0.69644032251E+02  0.12515617236E+03  0.00000000000E+00 0.  1.
<mgrwt>
<rscale>  0 0.80919697E+03</rscale>
<asrwt>0</asrwt>
<pdfrwt beam="1">  1        1 0.15621249E+00 0.80919697E+03</pdfrwt>
<pdfrwt beam="2">  1       -2 0.10592569E+00 0.80919697E+03</pdfrwt>
<totfact> 0.94492257E+00</totfact>
</mgrwt>
</event>
<event>
12    3  0.1201947E-007  0.5642429E+03  0.7818608E-02  0.9982500E-01
          1   -1    0    0  501    0  0.00000000000E+00  0.00000000000E+00  0.74862859994E+03  0.74862859994E+03  0.00000000000E+00 0. -1.
         -2   -1    0    0    0  501 -0.00000000000E+00 -0.00000000000E+00 -0.59107651039E+03  0.59107651039E+03  0.00000000000E+00 0.  1.
        -24    2    1    2    0    0 -0.40451975085E+03  0.64260822662E+02 -0.26965536424E+03  0.49689274358E+03  0.80141755646E+02 0.  0.
    5000000    2    1    2    0    0  0.40451975085E+03 -0.64260822662E+02  0.42720745379E+03  0.84281236675E+03  0.60005066022E+03 0.  0.
        -24    2    4    4    0    0  0.50352788369E+03  0.99068869994E+02  0.31722053321E+03  0.60844913664E+03  0.78908266565E+02 0.  0.
         24    2    4    4    0    0 -0.99008132837E+02 -0.16332969266E+03  0.10998692058E+03  0.23436323012E+03  0.79685645269E+02 0.  0.
         11    1    3    3    0    0 -0.55983066389E+02  0.12768565541E+02 -0.74737133446E+02  0.94248496561E+02  0.00000000000E+00 0. -1.
        -12    1    3    3    0    0 -0.34853668446E+03  0.51492257121E+02 -0.19491823080E+03  0.40264424702E+03  0.00000000000E+00 0.  1.
         15    1    5    5    0    0  0.15878202583E+03  0.13844606619E+01  0.72694083759E+02  0.17464603059E+03  0.17770000000E+01 0. -1.
        -16    1    5    5    0    0  0.34474585786E+03  0.97684409332E+02  0.24452644945E+03  0.43380310605E+03  0.00000000000E+00 0.  1.
          2    1    6    6  502    0  0.31041270155E+01 -0.45929535389E+02  0.42269764377E+01  0.46227969406E+02  0.00000000000E+00 0. -1.
         -1    1    6    6    0  502 -0.10211225985E+03 -0.11740015727E+03  0.10575994414E+03  0.18813526071E+03  0.00000000000E+00 0.  1.
<mgrwt>
<rscale>  0 0.56424291E+03</rscale>
<asrwt>0</asrwt>
<pdfrwt beam="1">  1        1 0.11517363E+00 0.56424291E+03</pdfrwt>
<pdfrwt beam="2">  1       -2 0.90934847E-01 0.56424291E+03</pdfrwt>
<totfact> 0.23110411E+01</totfact>
</mgrwt>
</event>
<event>
12    3  0.1201947E-007  0.7754907E+03  0.7818608E-02  0.9596187E-01
          1   -1    0    0  501    0  0.00000000000E+00  0.00000000000E+00  0.15365639450E+04  0.15365639450E+04  0.00000000000E+00 0. -1.
         -2   -1    0    0    0  501 -0.00000000000E+00 -0.00000000000E+00 -0.41819960898E+03  0.41819960898E+03  0.00000000000E+00 0.  1.
        -24    2    1    2    0    0  0.22360072624E+03  0.64630168895E+03  0.40647800141E+03  0.79951918444E+03  0.79393971709E+02 0.  0.
    5000000    2    1    2    0    0 -0.22360072624E+03 -0.64630168895E+03  0.71188633460E+03  0.11552443695E+04  0.60008686207E+03 0.  0.
        -24    2    4    4    0    0 -0.20976634853E+03 -0.11892511592E+01  0.61803733723E+02  0.23588726342E+03  0.88429430878E+02 0.  0.
         24    2    4    4    0    0 -0.13834377712E+02 -0.64511243779E+03  0.65008260087E+03  0.91935710611E+03  0.79048423157E+02 0.  0.
         13    1    3    3    0    0  0.13633388693E+03  0.33864918129E+03  0.25743819033E+03  0.44670417342E+03  0.00000000000E+00 0. -1.
        -14    1    3    3    0    0  0.87266839315E+02  0.30765250766E+03  0.14903981108E+03  0.35281501102E+03  0.00000000000E+00 0.  1.
         15    1    5    5    0    0 -0.25059411226E+02  0.17395065749E+02  0.37947795644E+02  0.48721199971E+02  0.17770000000E+01 0. -1.
        -16    1    5    5    0    0 -0.18470693731E+03 -0.18584316909E+02  0.23855938079E+02  0.18716606345E+03  0.00000000000E+00 0.  1.
          4    1    6    6  502    0 -0.46377914144E+02 -0.39445854708E+03  0.40690519427E+03  0.56861260399E+03  0.00000000000E+00 0. -1.
         -3    1    6    6    0  502  0.32543536432E+02 -0.25065389071E+03  0.24317740660E+03  0.35074450213E+03  0.00000000000E+00 0.  1.
<mgrwt>
<rscale>  0 0.77549072E+03</rscale>
<asrwt>0</asrwt>
<pdfrwt beam="1">  1        1 0.23639445E+00 0.77549072E+03</pdfrwt>
<pdfrwt beam="2">  1       -2 0.64338402E-01 0.77549072E+03</pdfrwt>
<totfact> 0.12437605E+01</totfact>
</mgrwt>
</event>
<event>
12    3  0.1201947E-007  0.5330363E+03  0.7818608E-02  0.1005498E+00
         -2   -1    0    0    0  501 -0.00000000000E+00  0.00000000000E+00  0.67764002460E+03  0.67764002460E+03  0.00000000000E+00 0.  1.
          1   -1    0    0  501    0  0.00000000000E+00 -0.00000000000E+00 -0.48944925891E+03  0.48944925891E+03  0.00000000000E+00 0. -1.
        -24    2    1    2    0    0 -0.13098610128E+03 -0.36850754906E+03  0.20884635084E+03  0.45055828527E+03  0.80192254770E+02 0.  0.
    5000000    2    1    2    0    0  0.13098610128E+03  0.36850754906E+03 -0.20655585143E+02  0.71653099824E+03  0.60002903746E+03 0.  0.
        -24    2    4    4    0    0  0.12056141485E+03 -0.11513278522E+03  0.10146848064E+03  0.21126404809E+03  0.80907555085E+02 0.  0.
         24    2    4    4    0    0  0.10424686428E+02  0.48364033428E+03 -0.12212406578E+03  0.50526695014E+03  0.79773156091E+02 0.  0.
         13    1    3    3    0    0 -0.22335678815E+02 -0.72211930996E+02  0.78898376870E+02  0.10926298275E+03  0.00000000000E+00 0. -1.
        -14    1    3    3    0    0 -0.10865042246E+03 -0.29629561806E+03  0.12994797397E+03  0.34129530252E+03  0.00000000000E+00 0.  1.
         15    1    5    5    0    0  0.27088936263E+02 -0.80462528442E+02  0.37640987906E+02  0.92887193146E+02  0.17770000000E+01 0. -1.
        -16    1    5    5    0    0  0.93472478587E+02 -0.34670256780E+02  0.63827492732E+02  0.11837685495E+03  0.00000000000E+00 0.  1.
          4    1    6    6  502    0 -0.34666499791E+02  0.24216312818E+03 -0.60037228635E+02  0.25189127749E+03  0.00000000000E+00 0. -1.
         -3    1    6    6    0  502  0.45091186218E+02  0.24147720611E+03 -0.62086837146E+02  0.25337567265E+03  0.00000000000E+00 0.  1.
<mgrwt>
<rscale>  0 0.53303627E+03</rscale>
<asrwt>0</asrwt>
<pdfrwt beam="1">  1        1 0.75299886E-01 0.53303627E+03</pdfrwt>
<pdfrwt beam="2">  1       -2 0.10425231E+00 0.53303627E+03</pdfrwt>
<totfact> 0.30989872E+01</totfact>
</mgrwt>
</event>
<event>
12    3  0.1201947E-007  0.1208131E+04  0.7818608E-02  0.9105769E-01
         -2   -1    0    0    0  501 -0.00000000000E+00  0.00000000000E+00  0.21899276114E+04  0.21899276114E+04  0.00000000000E+00 0.  1.
          1   -1    0    0  501    0  0.00000000000E+00 -0.00000000000E+00 -0.70671738610E+03  0.70671738610E+03  0.00000000000E+00 0. -1.
        -24    2    1    2    0    0 -0.46380467427E+03 -0.10585037839E+04  0.48386727277E+03  0.12553919286E+04  0.79601006213E+02 0.  0.
    5000000    2    1    2    0    0  0.46380467427E+03  0.10585037839E+04  0.99934295255E+03  0.16412530690E+04  0.59956672956E+03 0.  0.
        -24    2    4    4    0    0  0.44459676110E+01  0.61456602513E+03  0.29368362070E+03  0.68585386946E+03  0.80214059323E+02 0.  0.
         24    2    4    4    0    0  0.45935870666E+03  0.44393775878E+03  0.70565933185E+03  0.95539919952E+03  0.82105923990E+02 0.  0.
         13    1    3    3    0    0 -0.33054655414E+03 -0.82686751386E+03  0.35397184570E+03  0.95826247839E+03  0.00000000000E+00 0. -1.
        -14    1    3    3    0    0 -0.13325812013E+03 -0.23163627005E+03  0.12989542708E+03  0.29712945017E+03  0.00000000000E+00 0.  1.
         15    1    5    5    0    0  0.31551406137E+02  0.25033580941E+03  0.14879438615E+03  0.29292735581E+03  0.17770000000E+01 0. -1.
        -16    1    5    5    0    0 -0.27105438526E+02  0.36423021573E+03  0.14488923455E+03  0.39292651365E+03  0.00000000000E+00 0.  1.
          4    1    6    6  502    0  0.36104086642E+03  0.31728176334E+03  0.48688056368E+03  0.68415707835E+03  0.00000000000E+00 0. -1.
         -3    1    6    6    0  502  0.98317840242E+02  0.12665599544E+03  0.21877876817E+03  0.27124212116E+03  0.00000000000E+00 0.  1.
<mgrwt>
<rscale>  0 0.12081312E+04</rscale>
<asrwt>0</asrwt>
<pdfrwt beam="1">  1        1 0.10872575E+00 0.12081312E+04</pdfrwt>
<pdfrwt beam="2">  1       -2 0.33691194E+00 0.12081312E+04</pdfrwt>
<totfact> 0.43640123E-01</totfact>
</mgrwt>
</event>
<event>
12    3  0.1201947E-007  0.6737888E+03  0.7818608E-02  0.9763137E-01
         -2   -1    0    0    0  501 -0.00000000000E+00  0.00000000000E+00  0.36330041570E+03  0.36330041570E+03  0.00000000000E+00 0.  1.
          1   -1    0    0  501    0  0.00000000000E+00 -0.00000000000E+00 -0.15809112645E+04  0.15809112645E+04  0.00000000000E+00 0. -1.
        -24    2    1    2    0    0 -0.60501030834E+03 -0.16294383783E+03 -0.37348536582E+03  0.73367889736E+03  0.78773336054E+02 0.  0.
    5000000    2    1    2    0    0  0.60501030834E+03  0.16294383783E+03 -0.84412548302E+03  0.12105327829E+04  0.60021131269E+03 0.  0.
        -24    2    4    4    0    0  0.26500578180E+03  0.24416878319E+03 -0.75646730826E+03  0.84172969627E+03  0.80122618786E+02 0.  0.
         24    2    4    4    0    0  0.34000452654E+03 -0.81224945368E+02 -0.87658174757E+02  0.36880308661E+03  0.78301923839E+02 0.  0.
         11    1    3    3    0    0 -0.19217640114E+03 -0.19751145974E+02 -0.13692548535E+03  0.23679202998E+03  0.00000000000E+00 0. -1.
        -12    1    3    3    0    0 -0.41283390720E+03 -0.14319269185E+03 -0.23655988047E+03  0.49688686739E+03  0.00000000000E+00 0.  1.
         15    1    5    5    0    0  0.22221537088E+03  0.23418448495E+03 -0.63102382007E+03  0.70881327814E+03  0.17770000000E+01 0. -1.
        -16    1    5    5    0    0  0.42790410916E+02  0.99842982423E+01 -0.12544348819E+03  0.13291641813E+03  0.00000000000E+00 0.  1.
          4    1    6    6  502    0  0.73277182840E+02 -0.29273039828E+02  0.11077456283E+02  0.79681656756E+02  0.00000000000E+00 0. -1.
         -3    1    6    6    0  502  0.26672734370E+03 -0.51951905540E+02 -0.98735631040E+02  0.28912142986E+03  0.00000000000E+00 0.  1.
<mgrwt>
<rscale>  0 0.67378881E+03</rscale>
<asrwt>0</asrwt>
<pdfrwt beam="1">  1        1 0.24321712E+00 0.67378881E+03</pdfrwt>
<pdfrwt beam="2">  1       -2 0.55892371E-01 0.67378881E+03</pdfrwt>
<totfact> 0.15832375E+01</totfact>
</mgrwt>
</event>
<event>
12    3  0.1201947E-007  0.1750245E+04  0.7818608E-02  0.8733216E-01
          1   -1    0    0  501    0  0.00000000000E+00  0.00000000000E+00  0.17254464138E+04  0.17254464138E+04  0.00000000000E+00 0. -1.
         -2   -1    0    0    0  501 -0.00000000000E+00 -0.00000000000E+00 -0.18696986049E+04  0.18696986049E+04  0.00000000000E+00 0.  1.
        -24    2    1    2    0    0 -0.56811135078E+03 -0.16500142966E+04 -0.55193778081E+02  0.17476460313E+04  0.76958504569E+02 0.  0.
    5000000    2    1    2    0    0  0.56811135078E+03  0.16500142966E+04 -0.89058413105E+02  0.18474989875E+04  0.60001951778E+03 0.  0.
        -24    2    4    4    0    0  0.47455319983E+03  0.12046001926E+04  0.18492363308E+03  0.13101844040E+04  0.78256367400E+02 0.  0.
         24    2    4    4    0    0  0.93558150954E+02  0.44541410409E+03 -0.27398204618E+03  0.53731458346E+03  0.80585037344E+02 0.  0.
         13    1    3    3    0    0 -0.16619098437E+03 -0.38761212015E+03 -0.20878371389E+01  0.42174276288E+03  0.00000000000E+00 0. -1.
        -14    1    3    3    0    0 -0.40192036641E+03 -0.12624021765E+04 -0.53105940942E+02  0.13259032684E+04  0.00000000000E+00 0.  1.
         15    1    5    5    0    0  0.29300705241E+03  0.73202904583E+03  0.74231227220E+02  0.79198048557E+03  0.17770000000E+01 0. -1.
        -16    1    5    5    0    0  0.18154614742E+03  0.47257114672E+03  0.11069240586E+03  0.51820391842E+03  0.00000000000E+00 0.  1.
          4    1    6    6  502    0  0.42302461002E+02  0.33240314153E+03 -0.17175489887E+03  0.37653830083E+03  0.00000000000E+00 0. -1.
         -3    1    6    6    0  502  0.51255689952E+02  0.11301096256E+03 -0.10222714731E+03  0.16077628263E+03  0.00000000000E+00 0.  1.
<mgrwt>
<rscale>  0 0.17502449E+04</rscale>
<asrwt>0</asrwt>
<pdfrwt beam="1">  1        1 0.26545330E+00 0.17502449E+04</pdfrwt>
<pdfrwt beam="2">  1       -2 0.28764594E+00 0.17502449E+04</pdfrwt>
<totfact> 0.13913823E-01</totfact>
</mgrwt>
</event>
<event>
12    3  0.1201947E-007  0.8654200E+03  0.7818608E-02  0.9469871E-01
          1   -1    0    0  501    0  0.00000000000E+00  0.00000000000E+00  0.76656089759E+03  0.76656089759E+03  0.00000000000E+00 0. -1.
         -2   -1    0    0    0  501 -0.00000000000E+00 -0.00000000000E+00 -0.11334091444E+04  0.11334091444E+04  0.00000000000E+00 0.  1.
        -24    2    1    2    0    0 -0.16128785596E+03 -0.81700946327E+03 -0.13308529167E+03  0.84709873428E+03  0.79663889007E+02 0.  0.
    5000000    2    1    2    0    0  0.16128785596E+03  0.81700946327E+03 -0.23376295519E+03  0.10528713078E+04  0.60031211542E+03 0.  0.
        -24    2    4    4    0    0  0.21796013592E+03  0.29210043570E+03 -0.34485520649E+03  0.50783702125E+03  0.78383935315E+02 0.  0.
         24    2    4    4    0    0 -0.56672279958E+02  0.52490902757E+03  0.11109225130E+03  0.54503428651E+03  0.77328200761E+02 0.  0.
         11    1    3    3    0    0 -0.44939348274E+02 -0.23592929265E+03 -0.75178690610E+02  0.25166249557E+03  0.00000000000E+00 0. -1.
        -12    1    3    3    0    0 -0.11634850769E+03 -0.58108017062E+03 -0.57906601058E+02  0.59543623871E+03  0.00000000000E+00 0.  1.
         15    1    5    5    0    0  0.13123839832E+03  0.18270562673E+03 -0.15938908418E+03  0.27570437269E+03  0.17770000000E+01 0. -1.
        -16    1    5    5    0    0  0.86721737598E+02  0.10939480897E+03 -0.18546612231E+03  0.23213264856E+03  0.00000000000E+00 0.  1.
          4    1    6    6  502    0  0.10933612746E+02  0.25542748832E+03  0.48003909417E+02  0.26012904681E+03  0.00000000000E+00 0. -1.
         -3    1    6    6    0  502 -0.67605892704E+02  0.26948153925E+03  0.63088341885E+02  0.28490523970E+03  0.00000000000E+00 0.  1.
<mgrwt>
<rscale>  0 0.86542003E+03</rscale>
<asrwt>0</asrwt>
<pdfrwt beam="1">  1        1 0.11793245E+00 0.86542003E+03</pdfrwt>
<pdfrwt beam="2">  1       -2 0.17437064E+00 0.86542003E+03</pdfrwt>
<totfact> 0.41589231E+00</totfact>
</mgrwt>
</event>
<event>
12    3  0.1201947E-007  0.5196897E+03  0.7818608E-02  0.1008764E+00
         -4   -1    0    0    0  501 -0.00000000000E+00  0.00000000000E+00  0.25593543061E+03  0.25593543061E+03  0.00000000000E+00 0.  1.
          1   -1    0    0  501    0  0.00000000000E+00 -0.00000000000E+00 -0.14686513939E+04  0.14686513939E+04  0.00000000000E+00 0. -1.
        -24    2    1    2    0    0 -0.42874728778E+03  0.86278685489E+02 -0.25260917018E+03  0.51088256510E+03  0.76950335418E+02 0.  0.
    5000000    2    1    2    0    0  0.42874728778E+03 -0.86278685489E+02 -0.96010679312E+03  0.12137042594E+04  0.60000393899E+03 0.  0.
        -24    2    4    4    0    0  0.46843720665E+03  0.95782207202E+01 -0.97074162904E+03  0.10808825108E+04  0.80265391183E+02 0.  0.
         24    2    4    4    0    0 -0.39689918876E+02 -0.95856906209E+02  0.10634835921E+02  0.13282174858E+03  0.82247681008E+02 0.  0.
         11    1    3    3    0    0 -0.23606913130E+03  0.81333101312E+02 -0.16413827104E+03  0.29880609121E+03  0.00000000000E+00 0. -1.
        -12    1    3    3    0    0 -0.19267815647E+03  0.49455841768E+01 -0.88470899145E+02  0.21207647390E+03  0.00000000000E+00 0.  1.
         15    1    5    5    0    0  0.95513789067E+02  0.67629604581E+01 -0.13310865486E+03  0.16398077102E+03  0.17770000000E+01 0. -1.
        -16    1    5    5    0    0  0.37292341758E+03  0.28152602621E+01 -0.83763297417E+03  0.91690173983E+03  0.00000000000E+00 0.  1.
          2    1    6    6  502    0  0.15466480157E+02  0.23179737816E+01  0.12774734026E+02  0.20193534617E+02  0.00000000000E+00 0. -1.
         -1    1    6    6    0  502 -0.55156399033E+02 -0.98174879991E+02 -0.21398981053E+01  0.11262821396E+03  0.00000000000E+00 0.  1.
<mgrwt>
<rscale>  0 0.51968969E+03</rscale>
<asrwt>0</asrwt>
<pdfrwt beam="1">  1        1 0.22594637E+00 0.51968969E+03</pdfrwt>
<pdfrwt beam="2">  1       -4 0.39374682E-01 0.51968969E+03</pdfrwt>
<totfact> 0.21819275E+01</totfact>
</mgrwt>
</event>
<event>
12    3  0.1201947E-007  0.4864001E+03  0.7818608E-02  0.1017391E+00
         -2   -1    0    0    0  501 -0.00000000000E+00  0.00000000000E+00  0.44825576172E+03  0.44825576172E+03  0.00000000000E+00 0.  1.
          1   -1    0    0  501    0  0.00000000000E+00 -0.00000000000E+00 -0.84688380200E+03  0.84688380200E+03  0.00000000000E+00 0. -1.
        -24    2    1    2    0    0  0.31703459283E+03 -0.31752566896E+03 -0.28450507810E+03  0.53723997486E+03  0.79687938971E+02 0.  0.
    5000000    2    1    2    0    0 -0.31703459283E+03  0.31752566896E+03 -0.11412296218E+03  0.75789958886E+03  0.60004520896E+03 0.  0.
        -24    2    4    4    0    0 -0.18417462366E+02  0.15784731439E+03  0.21469072871E+03  0.27877919336E+03  0.79816991146E+02 0.  0.
         24    2    4    4    0    0 -0.29861713046E+03  0.15967835457E+03 -0.32881369089E+03  0.47912039550E+03  0.82271152566E+02 0.  0.
         13    1    3    3    0    0  0.17233874186E+03 -0.12701776259E+03 -0.10692352272E+03  0.23930481331E+03  0.00000000000E+00 0. -1.
        -14    1    3    3    0    0  0.14469585097E+03 -0.19050790637E+03 -0.17758155538E+03  0.29793516155E+03  0.00000000000E+00 0.  1.
         15    1    5    5    0    0 -0.42146427150E+02  0.70625040206E+02  0.13594373128E+03  0.15889642359E+03  0.17770000000E+01 0. -1.
        -16    1    5    5    0    0  0.23728964784E+02  0.87222274188E+02  0.78746997429E+02  0.11988276977E+03  0.00000000000E+00 0.  1.
          2    1    6    6  502    0 -0.28243485080E+03  0.16800638534E+03 -0.29957655499E+03  0.44468157457E+03  0.00000000000E+00 0. -1.
         -1    1    6    6    0  502 -0.16182279665E+02 -0.83280307729E+01 -0.29237135891E+02  0.34438820927E+02  0.00000000000E+00 0.  1.
<mgrwt>
<rscale>  0 0.48640009E+03</rscale>
<asrwt>0</asrwt>
<pdfrwt beam="1">  1        1 0.13028981E+00 0.48640009E+03</pdfrwt>
<pdfrwt beam="2">  1       -2 0.68962426E-01 0.48640009E+03</pdfrwt>
<totfact> 0.35634446E+01</totfact>
</mgrwt>
</event>
<event>
12    3  0.1201947E-007  0.9873850E+03  0.7818608E-02  0.9322490E-01
          1   -1    0    0  501    0  0.00000000000E+00  0.00000000000E+00  0.16590469335E+04  0.16590469335E+04  0.00000000000E+00 0. -1.
         -2   -1    0    0    0  501 -0.00000000000E+00 -0.00000000000E+00 -0.74131607123E+03  0.74131607123E+03  0.00000000000E+00 0.  1.
        -24    2    1    2    0    0 -0.40972006537E+03 -0.80975267254E+03 -0.92412177922E+02  0.91572370835E+03  0.80249465710E+02 0.  0.
    5000000    2    1    2    0    0  0.40972006537E+03  0.80975267254E+03  0.10101430402E+04  0.14846392964E+04  0.60016244138E+03 0.  0.
        -24    2    4    4    0    0  0.55232026081E+02 -0.67518994061E+02  0.21765184453E+03  0.24778191815E+03  0.80088465277E+02 0.  0.
         24    2    4    4    0    0  0.35448803929E+03  0.87727166660E+03  0.79249119564E+03  0.12368573782E+04  0.80663076152E+02 0.  0.
         13    1    3    3    0    0 -0.11137817221E+03 -0.28104147328E+03 -0.56845457159E+02  0.30760496249E+03  0.00000000000E+00 0. -1.
        -14    1    3    3    0    0 -0.29834189316E+03 -0.52871119926E+03 -0.35566720763E+02  0.60811874586E+03  0.00000000000E+00 0.  1.
         15    1    5    5    0    0  0.18210848218E+02 -0.77453325594E+02  0.15728867569E+03  0.17627687843E+03  0.17770000000E+01 0. -1.
        -16    1    5    5    0    0  0.37021177863E+02  0.99343315325E+01  0.60363168836E+02  0.71505039720E+02  0.00000000000E+00 0.  1.
          4    1    6    6  502    0  0.64469064024E+02  0.21551194254E+03  0.15368206255E+03  0.27243317335E+03  0.00000000000E+00 0. -1.
         -3    1    6    6    0  502  0.29001897527E+03  0.66175972406E+03  0.63880913308E+03  0.96442420486E+03  0.00000000000E+00 0.  1.
<mgrwt>
<rscale>  0 0.98738504E+03</rscale>
<asrwt>0</asrwt>
<pdfrwt beam="1">  1        1 0.25523799E+00 0.98738504E+03</pdfrwt>
<pdfrwt beam="2">  1       -2 0.11404863E+00 0.98738504E+03</pdfrwt>
<totfact> 0.26913623E+00</totfact>
</mgrwt>
</event>
<event>
12    3  0.1201947E-007  0.1018363E+04  0.7818608E-02  0.9288631E-01
         -2   -1    0    0    0  501 -0.00000000000E+00  0.00000000000E+00  0.42971187409E+03  0.42971187409E+03  0.00000000000E+00 0.  1.
          1   -1    0    0  501    0  0.00000000000E+00 -0.00000000000E+00 -0.29301322452E+04  0.29301322452E+04  0.00000000000E+00 0. -1.
        -24    2    1    2    0    0 -0.98679566790E+03  0.94647423223E+02 -0.68985432539E+03  0.12102294681E+04  0.77669493308E+02 0.  0.
    5000000    2    1    2    0    0  0.98679566790E+03 -0.94647423223E+02 -0.18105660457E+04  0.21496146512E+04  0.59997493111E+03 0.  0.
        -24    2    4    4    0    0  0.87304800745E+03  0.14670556342E+02 -0.17576229499E+04  0.19642360505E+04  0.80973943885E+02 0.  0.
         24    2    4    4    0    0  0.11374766044E+03 -0.10931797956E+03 -0.52943095839E+02  0.18537860073E+03  0.81690288892E+02 0.  0.
         11    1    3    3    0    0 -0.49434993888E+03  0.10820743186E+02 -0.35955386131E+03  0.61137380525E+03  0.00000000000E+00 0. -1.
        -12    1    3    3    0    0 -0.49244572901E+03  0.83826680037E+02 -0.33030046407E+03  0.59885566281E+03  0.00000000000E+00 0.  1.
         15    1    5    5    0    0  0.81482230281E+03  0.99980021320E+00 -0.16695160716E+04  0.18577468762E+04  0.17770000000E+01 0. -1.
        -16    1    5    5    0    0  0.58225704646E+02  0.13670756129E+02 -0.88106878266E+02  0.10648917434E+03  0.00000000000E+00 0.  1.
          2    1    6    6  502    0  0.30098048458E+02 -0.68907663980E+02  0.58775850829E+01  0.75423502190E+02  0.00000000000E+00 0. -1.
         -1    1    6    6    0  502  0.83649611984E+02 -0.40410315585E+02 -0.58820680922E+02  0.10995509854E+03  0.00000000000E+00 0.  1.
<mgrwt>
<rscale>  0 0.10183625E+04</rscale>
<asrwt>0</asrwt>
<pdfrwt beam="1">  1        1 0.45078958E+00 0.10183625E+04</pdfrwt>
<pdfrwt beam="2">  1       -2 0.66109518E-01 0.10183625E+04</pdfrwt>
<totfact> 0.12677758E+00</totfact>
</mgrwt>
</event>
<event>
12    3  0.1201947E-007  0.7238703E+03  0.7818608E-02  0.9677260E-01
         -2   -1    0    0    0  501 -0.00000000000E+00  0.00000000000E+00  0.42299443685E+03  0.42299443685E+03  0.00000000000E+00 0.  1.
          1   -1    0    0  501    0  0.00000000000E+00 -0.00000000000E+00 -0.14273775949E+04  0.14273775949E+04  0.00000000000E+00 0. -1.
        -24    2    1    2    0    0  0.65574543810E+03 -0.59826880206E+02 -0.43304868011E+03  0.79213020436E+03  0.79735601424E+02 0.  0.
    5000000    2    1    2    0    0 -0.65574543810E+03  0.59826880206E+02 -0.57133447791E+03  0.10582418273E+04  0.59989277735E+03 0.  0.
        -24    2    4    4    0    0  0.39035764148E+02  0.48675548933E+02  0.57365050019E+02  0.11791770719E+03  0.81980099778E+02 0.  0.
         24    2    4    4    0    0 -0.69478120225E+03  0.11151331273E+02 -0.62869952792E+03  0.94032412015E+03  0.78109431813E+02 0.  0.
         13    1    3    3    0    0  0.54725474675E+03 -0.76953252587E+02 -0.37543431128E+03  0.66810215013E+03  0.00000000000E+00 0. -1.
        -14    1    3    3    0    0  0.10849069135E+03  0.17126372381E+02 -0.57614368827E+02  0.12402805423E+03  0.00000000000E+00 0.  1.
         15    1    5    5    0    0  0.36446883974E+01  0.50655466600E+02  0.39325003118E+00  0.50819016368E+02  0.17770000000E+01 0. -1.
        -16    1    5    5    0    0  0.35391075751E+02 -0.19799176671E+01  0.56971799988E+02  0.67098690826E+02  0.00000000000E+00 0.  1.
          2    1    6    6  502    0 -0.15746661146E+03  0.34423755039E+02 -0.15553960763E+03  0.22399396906E+03  0.00000000000E+00 0. -1.
         -1    1    6    6    0  502 -0.53731459079E+03 -0.23272423766E+02 -0.47315992030E+03  0.71633015109E+03  0.00000000000E+00 0.  1.
<mgrwt>
<rscale>  0 0.72387026E+03</rscale>
<asrwt>0</asrwt>
<pdfrwt beam="1">  1        1 0.21959655E+00 0.72387026E+03</pdfrwt>
<pdfrwt beam="2">  1       -2 0.65076067E-01 0.72387026E+03</pdfrwt>
<totfact> 0.14518438E+01</totfact>
</mgrwt>
</event>
<event>
12    3  0.1201947E-007  0.7455075E+03  0.7818608E-02  0.9642425E-01
         -2   -1    0    0    0  501 -0.00000000000E+00  0.00000000000E+00  0.51650946147E+03  0.51650946147E+03  0.00000000000E+00 0.  1.
          1   -1    0    0  501    0  0.00000000000E+00 -0.00000000000E+00 -0.13581970896E+04  0.13581970896E+04  0.00000000000E+00 0. -1.
        -24    2    1    2    0    0  0.57701512276E+03  0.38469322124E+03 -0.61554430524E+03  0.93020387211E+03  0.73818192944E+02 0.  0.
    5000000    2    1    2    0    0 -0.57701512276E+03 -0.38469322124E+03 -0.22614332290E+03  0.94450267896E+03  0.60000765138E+03 0.  0.
        -24    2    4    4    0    0 -0.58463595734E+03 -0.21145706669E+03 -0.34826438799E+03  0.71771802649E+03  0.85544070197E+02 0.  0.
         24    2    4    4    0    0  0.76208345736E+01 -0.17323615455E+03  0.12212106509E+03  0.22678465247E+03  0.80304929457E+02 0.  0.
         13    1    3    3    0    0  0.52944066033E+03  0.36092779698E+03 -0.59074739585E+03  0.87152669101E+03  0.00000000000E+00 0. -1.
        -14    1    3    3    0    0  0.47574462435E+02  0.23765424258E+02 -0.24796909385E+02  0.58677181094E+02  0.00000000000E+00 0.  1.
         15    1    5    5    0    0 -0.26071588826E+03 -0.68266883724E+02 -0.11125687277E+03  0.29157227453E+03  0.17770000000E+01 0. -1.
        -16    1    5    5    0    0 -0.32392006907E+03 -0.14319018297E+03 -0.23700751521E+03  0.42614575196E+03  0.00000000000E+00 0.  1.
          4    1    6    6  502    0  0.43501130044E+01 -0.99775864816E+02  0.21500527399E+02  0.10215879483E+03  0.00000000000E+00 0. -1.
         -3    1    6    6    0  502  0.32707215692E+01 -0.73460289736E+02  0.10062053769E+03  0.12462585764E+03  0.00000000000E+00 0.  1.
<mgrwt>
<rscale>  0 0.74550749E+03</rscale>
<asrwt>0</asrwt>
<pdfrwt beam="1">  1        1 0.20895340E+00 0.74550749E+03</pdfrwt>
<pdfrwt beam="2">  1       -2 0.79462995E-01 0.74550749E+03</pdfrwt>
<totfact> 0.10430651E+01</totfact>
</mgrwt>
</event>
<event>
12    3  0.1201947E-007  0.5411883E+03  0.7818608E-02  0.1003554E+00
         -2   -1    0    0    0  501 -0.00000000000E+00  0.00000000000E+00  0.21556008471E+03  0.21556008471E+03  0.00000000000E+00 0.  1.
          1   -1    0    0  501    0  0.00000000000E+00 -0.00000000000E+00 -0.17248174277E+04  0.17248174277E+04  0.00000000000E+00 0. -1.
        -24    2    1    2    0    0  0.10685940465E+03  0.44163389258E+03 -0.48517393046E+03  0.66949825925E+03  0.79842024621E+02 0.  0.
    5000000    2    1    2    0    0 -0.10685940465E+03 -0.44163389258E+03 -0.10240834126E+04  0.12708792532E+04  0.59993984108E+03 0.  0.
        -24    2    4    4    0    0 -0.26337774109E+03 -0.24654395777E+03 -0.23097676456E+03  0.43550830927E+03  0.78520469064E+02 0.  0.
         24    2    4    4    0    0  0.15651833644E+03 -0.19508993481E+03 -0.79310664801E+03  0.83537094394E+03  0.79173142914E+02 0.  0.
         13    1    3    3    0    0  0.16223414701E+02  0.14700840166E+02 -0.92982248025E+01  0.23785938506E+02  0.00000000000E+00 0. -1.
        -14    1    3    3    0    0  0.90635989949E+02  0.42693305241E+03 -0.47587570566E+03  0.64571232074E+03  0.00000000000E+00 0.  1.
         15    1    5    5    0    0 -0.87552729567E+02 -0.10558085694E+03 -0.12845986969E+03  0.18793055541E+03  0.17770000000E+01 0. -1.
        -16    1    5    5    0    0 -0.17582501153E+03 -0.14096310082E+03 -0.10251689487E+03  0.24757775386E+03  0.00000000000E+00 0.  1.
          2    1    6    6  502    0  0.34032151697E+02 -0.10239289626E+03 -0.29481684977E+03  0.31394182178E+03  0.00000000000E+00 0. -1.
         -1    1    6    6    0  502  0.12248618475E+03 -0.92697038546E+02 -0.49828979824E+03  0.52142912216E+03  0.00000000000E+00 0.  1.
<mgrwt>
<rscale>  0 0.54118834E+03</rscale>
<asrwt>0</asrwt>
<pdfrwt beam="1">  1        1 0.26535652E+00 0.54118834E+03</pdfrwt>
<pdfrwt beam="2">  1       -2 0.33163090E-01 0.54118834E+03</pdfrwt>
<totfact> 0.36221767E+01</totfact>
</mgrwt>
</event>
<event>
12    3  0.1201947E-007  0.3580443E+03  0.7818608E-02  0.1059361E+00
          1   -1    0    0  501    0  0.00000000000E+00  0.00000000000E+00  0.29082511126E+03  0.29082511126E+03  0.00000000000E+00 0. -1.
         -2   -1    0    0    0  501 -0.00000000000E+00 -0.00000000000E+00 -0.13849141986E+04  0.13849141986E+04  0.00000000000E+00 0.  1.
        -24    2    1    2    0    0 -0.28868042643E+03  0.13603080757E+03  0.61590688014E+02  0.33505363745E+03  0.81404901006E+02 0.  0.
    5000000    2    1    2    0    0  0.28868042643E+03 -0.13603080757E+03 -0.11556797754E+04  0.13406856724E+04  0.60000129987E+03 0.  0.
        -24    2    4    4    0    0  0.24600081347E+03 -0.21744568959E+02 -0.11657823082E+04  0.11943496387E+04  0.80208745527E+02 0.  0.
         24    2    4    4    0    0  0.42679612960E+02 -0.11428623861E+03  0.10102532796E+02  0.14633603375E+03  0.80182790595E+02 0.  0.
         11    1    3    3    0    0 -0.11435727164E+03  0.49081451835E+02 -0.15790844838E+02  0.12544291638E+03  0.00000000000E+00 0. -1.
        -12    1    3    3    0    0 -0.17432315480E+03  0.86949355735E+02  0.77381532852E+02  0.20961072107E+03  0.00000000000E+00 0.  1.
         15    1    5    5    0    0  0.71265858022E+02 -0.30666134941E+02 -0.49881126742E+03  0.50481191803E+03  0.17770000000E+01 0. -1.
        -16    1    5    5    0    0  0.17473495545E+03  0.89215659826E+01 -0.66697104076E+03  0.68953772066E+03  0.00000000000E+00 0.  1.
          4    1    6    6  502    0  0.24128719470E+01 -0.10220351134E+03  0.17295360310E+02  0.10368466217E+03  0.00000000000E+00 0. -1.
         -3    1    6    6    0  502  0.40266741013E+02 -0.12082727269E+02 -0.71928275144E+01  0.42651371580E+02  0.00000000000E+00 0.  1.
<mgrwt>
<rscale>  0 0.35804429E+03</rscale>
<asrwt>0</asrwt>
<pdfrwt beam="1">  1        1 0.44742324E-01 0.35804429E+03</pdfrwt>
<pdfrwt beam="2">  1       -2 0.21306373E+00 0.35804429E+03</pdfrwt>
<totfact> 0.94597225E+00</totfact>
</mgrwt>
</event>
<event>
12    3  0.1201947E-007  0.1656997E+04  0.7818608E-02  0.8786278E-01
          1   -1    0    0  501    0  0.00000000000E+00  0.00000000000E+00  0.20353104088E+04  0.20353104088E+04  0.00000000000E+00 0. -1.
         -2   -1    0    0    0  501 -0.00000000000E+00 -0.00000000000E+00 -0.25312772168E+04  0.25312772168E+04  0.00000000000E+00 0.  1.
        -24    2    1    2    0    0 -0.13756317615E+04  0.87806197458E+03  0.12841849110E+04  0.20781696241E+04  0.79388453428E+02 0.  0.
    5000000    2    1    2    0    0  0.13756317615E+04 -0.87806197458E+03 -0.17801517190E+04  0.24884180015E+04  0.59994035823E+03 0.  0.
        -24    2    4    4    0    0  0.20349201855E+03 -0.30483619095E+03 -0.69416267535E+03  0.78900862443E+03  0.79615856744E+02 0.  0.
         24    2    4    4    0    0  0.11721397429E+04 -0.57322578363E+03 -0.10859890437E+04  0.16994093771E+04  0.78234597206E+02 0.  0.
         13    1    3    3    0    0 -0.71864798177E+03  0.41268333927E+03  0.66201023343E+03  0.10606696043E+04  0.00000000000E+00 0. -1.
        -14    1    3    3    0    0 -0.65698377968E+03  0.46537863531E+03  0.62217467757E+03  0.10175000198E+04  0.00000000000E+00 0.  1.
         15    1    5    5    0    0  0.20348774765E+03 -0.26601941117E+03 -0.59984874058E+03  0.68701911172E+03  0.17770000000E+01 0. -1.
        -16    1    5    5    0    0  0.42709014789E-02 -0.38816779780E+02 -0.94313934770E+02  0.10198951271E+03  0.00000000000E+00 0.  1.
          4    1    6    6  502    0  0.62963912977E+03 -0.34402962690E+03 -0.62435018069E+03  0.95111248864E+03  0.00000000000E+00 0. -1.
         -3    1    6    6    0  502  0.54250061313E+03 -0.22919615674E+03 -0.46163886296E+03  0.74829688848E+03  0.00000000000E+00 0.  1.
<mgrwt>
<rscale>  0 0.16569971E+04</rscale>
<asrwt>0</asrwt>
<pdfrwt beam="1">  1        1 0.31312468E+00 0.16569971E+04</pdfrwt>
<pdfrwt beam="2">  1       -2 0.38942726E+00 0.16569971E+04</pdfrwt>
<totfact> 0.19843131E-02</totfact>
</mgrwt>
</event>
<event>
12    3  0.1201947E-007  0.6350715E+03  0.7818608E-02  0.9835202E-01
          1   -1    0    0  501    0  0.00000000000E+00  0.00000000000E+00  0.67634929157E+03  0.67634929157E+03  0.00000000000E+00 0. -1.
         -2   -1    0    0    0  501 -0.00000000000E+00 -0.00000000000E+00 -0.95375969925E+03  0.95375969925E+03  0.00000000000E+00 0.  1.
        -24    2    1    2    0    0  0.33812225184E+03 -0.39402509490E+03  0.33880844698E+03  0.62516033414E+03  0.80323390315E+02 0.  0.
    5000000    2    1    2    0    0 -0.33812225184E+03  0.39402509490E+03 -0.61621885467E+03  0.10049486567E+04  0.60051119315E+03 0.  0.
        -24    2    4    4    0    0 -0.15575635079E+03 -0.11060138413E+03 -0.33348897777E+03  0.39323073683E+03  0.83203408064E+02 0.  0.
         24    2    4    4    0    0 -0.18236590105E+03  0.50462647903E+03 -0.28272987690E+03  0.61171791985E+03  0.79733462007E+02 0.  0.
         11    1    3    3    0    0  0.31397516928E+03 -0.38960492532E+03  0.31709048674E+03  0.59238398150E+03  0.00000000000E+00 0. -1.
        -12    1    3    3    0    0  0.24147082560E+02 -0.44201695875E+01  0.21717960245E+02  0.32776352642E+02  0.00000000000E+00 0.  1.
         15    1    5    5    0    0 -0.10495553153E+03 -0.23627066611E+02 -0.17625856508E+03  0.20650457954E+03  0.17770000000E+01 0. -1.
        -16    1    5    5    0    0 -0.50800819260E+02 -0.86974317515E+02 -0.15723041269E+03  0.18672615730E+03  0.00000000000E+00 0.  1.
          4    1    6    6  502    0 -0.74993209259E+02  0.23528222457E+03 -0.86737770624E+02  0.26173488014E+03  0.00000000000E+00 0. -1.
         -3    1    6    6    0  502 -0.10737269179E+03  0.26934425447E+03 -0.19599210628E+03  0.34998303970E+03  0.00000000000E+00 0.  1.
<mgrwt>
<rscale>  0 0.63507150E+03</rscale>
<asrwt>0</asrwt>
<pdfrwt beam="1">  1        1 0.10405374E+00 0.63507150E+03</pdfrwt>
<pdfrwt beam="2">  1       -2 0.14673226E+00 0.63507150E+03</pdfrwt>
<totfact> 0.82688489E+00</totfact>
</mgrwt>
</event>
<event>
12    3  0.1201947E-007  0.2350997E+04  0.7818608E-02  0.8458081E-01
         -2   -1    0    0    0  501 -0.00000000000E+00  0.00000000000E+00  0.13813719190E+04  0.13813719190E+04  0.00000000000E+00 0.  1.
          1   -1    0    0  501    0  0.00000000000E+00 -0.00000000000E+00 -0.45358384928E+04  0.45358384928E+04  0.00000000000E+00 0. -1.
        -24    2    1    2    0    0 -0.24196237102E+03  0.23020459313E+04 -0.25615715701E+04  0.34535918309E+04  0.87671929448E+02 0.  0.
    5000000    2    1    2    0    0  0.24196237102E+03 -0.23020459313E+04 -0.59289500381E+03  0.24636185809E+04  0.59994230349E+03 0.  0.
        -24    2    4    4    0    0  0.41323327160E+03 -0.12280745858E+04 -0.37783653629E+03  0.13520717657E+04  0.80054271928E+02 0.  0.
         24    2    4    4    0    0 -0.17127090059E+03 -0.10739713456E+04 -0.21505846752E+03  0.11115468152E+04  0.80857933461E+02 0.  0.
         11    1    3    3    0    0 -0.24093786572E+02  0.58046198987E+03 -0.62795730564E+03  0.85548057251E+03  0.00000000000E+00 0. -1.
        -12    1    3    3    0    0 -0.21786858445E+03  0.17215839414E+04 -0.19336142644E+04  0.25981112584E+04  0.00000000000E+00 0.  1.
         15    1    5    5    0    0  0.21580325047E+03 -0.64588122089E+03 -0.15695023171E+03  0.69883483555E+03  0.17770000000E+01 0. -1.
        -16    1    5    5    0    0  0.19743002113E+03 -0.58219336487E+03 -0.22088630458E+03  0.65323693013E+03  0.00000000000E+00 0.  1.
          4    1    6    6  502    0 -0.87258251521E+02 -0.75877245917E+03 -0.13422957879E+03  0.77547870833E+03  0.00000000000E+00 0. -1.
         -3    1    6    6    0  502 -0.84012649065E+02 -0.31519888639E+03 -0.80828888731E+02  0.33606810684E+03  0.00000000000E+00 0.  1.
<mgrwt>
<rscale>  0 0.23509968E+04</rscale>
<asrwt>0</asrwt>
<pdfrwt beam="1">  1        1 0.69782130E+00 0.23509968E+04</pdfrwt>
<pdfrwt beam="2">  1       -2 0.21251876E+00 0.23509968E+04</pdfrwt>
<totfact> 0.24646121E-03</totfact>
</mgrwt>
</event>
<event>
12    3  0.1201947E-007  0.7534455E+03  0.7818608E-02  0.9629960E-01
         -2   -1    0    0    0  501 -0.00000000000E+00  0.00000000000E+00  0.34333501806E+03  0.34333501806E+03  0.00000000000E+00 0.  1.
          1   -1    0    0  501    0  0.00000000000E+00 -0.00000000000E+00 -0.22591112333E+04  0.22591112333E+04  0.00000000000E+00 0. -1.
        -24    2    1    2    0    0  0.27958173103E+03 -0.60830762493E+03 -0.14292390479E+04  0.15802052733E+04  0.78232593757E+02 0.  0.
    5000000    2    1    2    0    0 -0.27958173103E+03  0.60830762493E+03 -0.48653716731E+03  0.10222409781E+04  0.60004507429E+03 0.  0.
        -24    2    4    4    0    0 -0.59892916066E+02  0.60088132859E+03 -0.17624029125E+03  0.63405521044E+03  0.79497403571E+02 0.  0.
         24    2    4    4    0    0 -0.21968881497E+03  0.74262963376E+01 -0.31029687606E+03  0.38818576763E+03  0.78010983820E+02 0.  0.
         13    1    3    3    0    0  0.18161619933E+03 -0.47062696644E+03 -0.10409566652E+04  0.11567475801E+04  0.00000000000E+00 0. -1.
        -14    1    3    3    0    0  0.97965531708E+02 -0.13768065849E+03 -0.38828238277E+03  0.42345769315E+03  0.00000000000E+00 0.  1.
         15    1    5    5    0    0 -0.44705959644E+02  0.25792549417E+03 -0.40456187889E+02  0.26488496416E+03  0.17770000000E+01 0. -1.
        -16    1    5    5    0    0 -0.15186956422E+02  0.34295583442E+03 -0.13578410336E+03  0.36917024628E+03  0.00000000000E+00 0.  1.
          2    1    6    6  502    0 -0.18253754083E+03 -0.17922339963E+02 -0.21360788402E+03  0.28154838340E+03  0.00000000000E+00 0. -1.
         -1    1    6    6    0  502 -0.37151274142E+02  0.25348636300E+02 -0.96688992045E+02  0.10663738423E+03  0.00000000000E+00 0.  1.
<mgrwt>
<rscale>  0 0.75344550E+03</rscale>
<asrwt>0</asrwt>
<pdfrwt beam="1">  1        1 0.34755558E+00 0.75344550E+03</pdfrwt>
<pdfrwt beam="2">  1       -2 0.52820772E-01 0.75344550E+03</pdfrwt>
<totfact> 0.61746536E+00</totfact>
</mgrwt>
</event>
<event>
12    3  0.1201947E-007  0.5981950E+03  0.7818608E-02  0.9909158E-01
          1   -1    0    0  501    0  0.00000000000E+00  0.00000000000E+00  0.12288738347E+04  0.12288738347E+04  0.00000000000E+00 0. -1.
         -2   -1    0    0    0  501 -0.00000000000E+00 -0.00000000000E+00 -0.39162732359E+03  0.39162732359E+03  0.00000000000E+00 0.  1.
        -24    2    1    2    0    0 -0.19126072984E+03 -0.43757591605E+03  0.68508119889E+03  0.83873161609E+03  0.77981572617E+02 0.  0.
    5000000    2    1    2    0    0  0.19126072984E+03  0.43757591605E+03  0.15216531225E+03  0.78176954223E+03  0.59996332039E+03 0.  0.
        -24    2    4    4    0    0 -0.14626046575E+03  0.30129296706E+03 -0.64638960062E+02  0.35036838830E+03  0.80063952672E+02 0.  0.
         24    2    4    4    0    0  0.33752119559E+03  0.13628294899E+03  0.21680427231E+03  0.43140115393E+03  0.81297376727E+02 0.  0.
         11    1    3    3    0    0 -0.63354786556E+02 -0.70133515150E+02  0.12254337551E+03  0.15475599442E+03  0.00000000000E+00 0. -1.
        -12    1    3    3    0    0 -0.12790594328E+03 -0.36744240090E+03  0.56253782338E+03  0.68397562167E+03  0.00000000000E+00 0.  1.
         15    1    5    5    0    0 -0.93507228235E+02  0.11448833813E+03 -0.74976326802E+01  0.14802213863E+03  0.17770000000E+01 0. -1.
        -16    1    5    5    0    0 -0.52753237514E+02  0.18680462894E+03 -0.57141327381E+02  0.20234624967E+03  0.00000000000E+00 0.  1.
          4    1    6    6  502    0  0.85340336390E+02  0.24531455940E+01  0.69842829521E+02  0.11030417841E+03  0.00000000000E+00 0. -1.
         -3    1    6    6    0  502  0.25218085920E+03  0.13382980340E+03  0.14696144279E+03  0.32109697552E+03  0.00000000000E+00 0.  1.
<mgrwt>
<rscale>  0 0.59819504E+03</rscale>
<asrwt>0</asrwt>
<pdfrwt beam="1">  1        1 0.18905751E+00 0.59819504E+03</pdfrwt>
<pdfrwt beam="2">  1       -2 0.60250358E-01 0.59819504E+03</pdfrwt>
<totfact> 0.23966509E+01</totfact>
</mgrwt>
</event>
<event>
12    3  0.1201947E-007  0.1360028E+04  0.7818608E-02  0.8983272E-01
          1   -1    0    0  501    0  0.00000000000E+00  0.00000000000E+00  0.14776103448E+04  0.14776103448E+04  0.00000000000E+00 0. -1.
         -2   -1    0    0    0  501 -0.00000000000E+00 -0.00000000000E+00 -0.14549395021E+04  0.14549395021E+04  0.00000000000E+00 0.  1.
        -24    2    1    2    0    0  0.32464276465E+03  0.12697454867E+04  0.51374190939E+03  0.14098316442E+04  0.77768822774E+02 0.  0.
    5000000    2    1    2    0    0 -0.32464276465E+03 -0.12697454867E+04 -0.49107106675E+03  0.15227182027E+04  0.59989449629E+03 0.  0.
        -24    2    4    4    0    0  0.90809597173E+02 -0.69086801770E+02 -0.15019045716E+03  0.20484836747E+03  0.79914398684E+02 0.  0.
         24    2    4    4    0    0 -0.41545236182E+03 -0.12006586849E+04 -0.34088060959E+03  0.13178698353E+04  0.79996062592E+02 0.  0.
         11    1    3    3    0    0  0.12829048942E+03  0.44495426408E+03  0.14475485430E+03  0.48517699311E+03  0.00000000000E+00 0. -1.
        -12    1    3    3    0    0  0.19635227522E+03  0.82479122262E+03  0.36898705509E+03  0.92465465106E+03  0.00000000000E+00 0.  1.
         15    1    5    5    0    0  0.63825765898E+02  0.39903663987E+00 -0.57709092780E+02  0.86066164904E+02  0.17770000000E+01 0. -1.
        -16    1    5    5    0    0  0.26983831276E+02 -0.69485838410E+02 -0.92481364381E+02  0.11878220257E+03  0.00000000000E+00 0.  1.
          4    1    6    6  502    0 -0.80380108208E+02 -0.26323049851E+03 -0.41683391597E+02  0.27836803386E+03  0.00000000000E+00 0. -1.
         -3    1    6    6    0  502 -0.33507225361E+03 -0.93742818642E+03 -0.29919721799E+03  0.10395018014E+04  0.00000000000E+00 0.  1.
<mgrwt>
<rscale>  0 0.13600279E+04</rscale>
<asrwt>0</asrwt>
<pdfrwt beam="1">  1        1 0.22732467E+00 0.13600279E+04</pdfrwt>
<pdfrwt beam="2">  1       -2 0.22383685E+00 0.13600279E+04</pdfrwt>
<totfact> 0.53166284E-01</totfact>
</mgrwt>
</event>
<event>
12    3  0.1201947E-007  0.1063686E+04  0.7818608E-02  0.9241327E-01
          1   -1    0    0  501    0  0.00000000000E+00  0.00000000000E+00  0.12885096855E+04  0.12885096855E+04  0.00000000000E+00 0. -1.
         -2   -1    0    0    0  501 -0.00000000000E+00 -0.00000000000E+00 -0.99987432943E+03  0.99987432943E+03  0.00000000000E+00 0.  1.
        -24    2    1    2    0    0  0.21879862166E+03  0.10162835862E+04  0.31049102700E+03  0.10878837546E+04  0.79882546497E+02 0.  0.
    5000000    2    1    2    0    0 -0.21879862166E+03 -0.10162835862E+04 -0.21855670958E+02  0.12005002603E+04  0.60001503342E+03 0.  0.
        -24    2    4    4    0    0 -0.69451536609E+02 -0.46166648391E+02  0.16230745059E+03  0.19871133560E+03  0.78661369271E+02 0.  0.
         24    2    4    4    0    0 -0.14934708505E+03 -0.97011693779E+03 -0.18416312155E+03  0.10017889247E+04  0.78952958077E+02 0.  0.
         13    1    3    3    0    0  0.84393724959E+02  0.34927040964E+03  0.69045157031E+02  0.36589527678E+03  0.00000000000E+00 0. -1.
        -14    1    3    3    0    0  0.13440489670E+03  0.66701317654E+03  0.24144586997E+03  0.72198847779E+03  0.00000000000E+00 0.  1.
         15    1    5    5    0    0 -0.81363299308E+01 -0.40723039263E+02  0.11116460920E+03  0.11868148069E+03  0.17770000000E+01 0. -1.
        -16    1    5    5    0    0 -0.61315206678E+02 -0.54436091274E+01  0.51142841393E+02  0.80029854905E+02  0.00000000000E+00 0.  1.
          2    1    6    6  502    0 -0.50955378394E+02 -0.57773944624E+03 -0.98358994927E+02  0.58826338507E+03  0.00000000000E+00 0. -1.
         -1    1    6    6    0  502 -0.98391706654E+02 -0.39237749155E+03 -0.85804126624E+02  0.41352553967E+03  0.00000000000E+00 0.  1.
<mgrwt>
<rscale>  0 0.10636859E+04</rscale>
<asrwt>0</asrwt>
<pdfrwt beam="1">  1        1 0.19823226E+00 0.10636859E+04</pdfrwt>
<pdfrwt beam="2">  1       -2 0.15382682E+00 0.10636859E+04</pdfrwt>
<totfact> 0.22415156E+00</totfact>
</mgrwt>
</event>
<event>
12    3  0.1201947E-007  0.3902172E+03  0.7818608E-02  0.1047221E+00
          1   -1    0    0  501    0  0.00000000000E+00  0.00000000000E+00  0.63381720630E+03  0.63381720630E+03  0.00000000000E+00 0. -1.
         -2   -1    0    0    0  501 -0.00000000000E+00 -0.00000000000E+00 -0.39685894645E+03  0.39685894645E+03  0.00000000000E+00 0.  1.
        -24    2    1    2    0    0 -0.20595189227E+03  0.12427681798E+03 -0.13053980758E+03  0.28730962824E+03  0.87437244345E+02 0.  0.
    5000000    2    1    2    0    0  0.20595189227E+03 -0.12427681798E+03  0.36749806743E+03  0.74336652451E+03  0.59973164897E+03 0.  0.
        -24    2    4    4    0    0  0.31883028039E+03 -0.20211365637E+03  0.51038659792E+02  0.38914853297E+03  0.79554749268E+02 0.  0.
         24    2    4    4    0    0 -0.11287838812E+03  0.77836838395E+02  0.31645940764E+03  0.35421799154E+03  0.80769579239E+02 0.  0.
         13    1    3    3    0    0 -0.17830399717E+03  0.76038201064E+02 -0.72552310316E+02  0.20697333442E+03  0.00000000000E+00 0. -1.
        -14    1    3    3    0    0 -0.27647895095E+02  0.48238616913E+02 -0.57987497268E+02  0.80336293817E+02  0.00000000000E+00 0.  1.
         15    1    5    5    0    0  0.30801846046E+02 -0.17060462794E+02 -0.18485647330E+02  0.39808164951E+02  0.17770000000E+01 0. -1.
        -16    1    5    5    0    0  0.28802843435E+03 -0.18505319358E+03  0.69524307123E+02  0.34934036802E+03  0.00000000000E+00 0.  1.
          4    1    6    6  502    0 -0.94808319685E+02  0.25734595515E+02  0.15411694857E+03  0.18276465940E+03  0.00000000000E+00 0. -1.
         -3    1    6    6    0  502 -0.18070068439E+02  0.52102242880E+02  0.16234245907E+03  0.17145333214E+03  0.00000000000E+00 0.  1.
<mgrwt>
<rscale>  0 0.39021717E+03</rscale>
<asrwt>0</asrwt>
<pdfrwt beam="1">  1        1 0.97510339E-01 0.39021717E+03</pdfrwt>
<pdfrwt beam="2">  1       -2 0.61055223E-01 0.39021717E+03</pdfrwt>
<totfact> 0.72614808E+01</totfact>
</mgrwt>
</event>
<event>
12    3  0.1201947E-007  0.4782873E+03  0.7818608E-02  0.1019607E+00
          1   -1    0    0  501    0  0.00000000000E+00  0.00000000000E+00  0.11197767739E+04  0.11197767739E+04  0.00000000000E+00 0. -1.
         -2   -1    0    0    0  501 -0.00000000000E+00 -0.00000000000E+00 -0.39427696814E+03  0.39427696814E+03  0.00000000000E+00 0.  1.
        -24    2    1    2    0    0 -0.78878706917E+02 -0.45456249606E+03  0.39524381060E+01  0.46832829057E+03  0.80416744271E+02 0.  0.
    5000000    2    1    2    0    0  0.78878706917E+02  0.45456249606E+03  0.72154736761E+03  0.10457254514E+04  0.60005183345E+03 0.  0.
        -24    2    4    4    0    0  0.42038255526E+01  0.20457093986E+03  0.74036046463E+03  0.77221755863E+03  0.79494645641E+02 0.  0.
         24    2    4    4    0    0  0.74674881365E+02  0.24999155620E+03 -0.18813097014E+02  0.27350789280E+03  0.79878149233E+02 0.  0.
         13    1    3    3    0    0  0.13620059699E+02 -0.13101830253E+03  0.50145733884E+01  0.13181975410E+03  0.00000000000E+00 0. -1.
        -14    1    3    3    0    0 -0.92498766616E+02 -0.32354419352E+03 -0.10621352824E+01  0.33650853647E+03  0.00000000000E+00 0.  1.
         15    1    5    5    0    0  0.16231817651E+02  0.21309537490E+01  0.66049642253E+02  0.68071475956E+02  0.17770000000E+01 0. -1.
        -16    1    5    5    0    0 -0.12027992099E+02  0.20243998611E+03  0.67431082238E+03  0.70414608267E+03  0.00000000000E+00 0.  1.
          4    1    6    6  502    0  0.58001394899E+02  0.83004041730E+02 -0.29145760757E+02  0.10537223602E+03  0.00000000000E+00 0. -1.
         -3    1    6    6    0  502  0.16673486465E+02  0.16698751447E+03  0.10332663743E+02  0.16813565678E+03  0.00000000000E+00 0.  1.
<mgrwt>
<rscale>  0 0.47828726E+03</rscale>
<asrwt>0</asrwt>
<pdfrwt beam="1">  1        1 0.17227335E+00 0.47828726E+03</pdfrwt>
<pdfrwt beam="2">  1       -2 0.60657996E-01 0.47828726E+03</pdfrwt>
<totfact> 0.28843303E+01</totfact>
</mgrwt>
</event>
<event>
12    3  0.1201947E-007  0.1913306E+04  0.7818608E-02  0.8648261E-01
         -2   -1    0    0    0  501 -0.00000000000E+00  0.00000000000E+00  0.17982365318E+04  0.17982365318E+04  0.00000000000E+00 0.  1.
          1   -1    0    0  501    0  0.00000000000E+00 -0.00000000000E+00 -0.36772174594E+04  0.36772174594E+04  0.00000000000E+00 0. -1.
        -24    2    1    2    0    0  0.17917108196E+04  0.54868493619E+03 -0.27459770004E+04  0.33253838638E+04  0.80655653887E+02 0.  0.
    5000000    2    1    2    0    0 -0.17917108196E+04 -0.54868493619E+03  0.86699607282E+03  0.21500701275E+04  0.59986376987E+03 0.  0.
        -24    2    4    4    0    0 -0.22573437614E+03  0.11202530551E+03  0.90163850955E+02  0.27948013023E+03  0.80460832260E+02 0.  0.
         24    2    4    4    0    0 -0.15659764435E+04 -0.66071024170E+03  0.77683222187E+03  0.18705899972E+04  0.82573553978E+02 0.  0.
         13    1    3    3    0    0  0.98016664953E+03  0.30069356742E+03 -0.15733702092E+04  0.18779342634E+04  0.00000000000E+00 0. -1.
        -14    1    3    3    0    0  0.81154417009E+03  0.24799136878E+03 -0.11726067911E+04  0.14474496003E+04  0.00000000000E+00 0.  1.
         15    1    5    5    0    0 -0.30784922406E+01  0.12192247724E+01 -0.10518456325E+02  0.11169569194E+02  0.17770000000E+01 0. -1.
        -16    1    5    5    0    0 -0.22265588390E+03  0.11080608074E+03  0.10068230728E+03  0.26831056104E+03  0.00000000000E+00 0.  1.
          2    1    6    6  502    0 -0.32106236451E+03 -0.15633279922E+03  0.19385154255E+03  0.40632426283E+03  0.00000000000E+00 0. -1.
         -1    1    6    6    0  502 -0.12449140790E+04 -0.50437744249E+03  0.58298067931E+03  0.14642657344E+04  0.00000000000E+00 0.  1.
<mgrwt>
<rscale>  0 0.19133063E+04</rscale>
<asrwt>0</asrwt>
<pdfrwt beam="1">  1        1 0.56572575E+00 0.19133063E+04</pdfrwt>
<pdfrwt beam="2">  1       -2 0.27665178E+00 0.19133063E+04</pdfrwt>
<totfact> 0.62390221E-03</totfact>
</mgrwt>
</event>
<event>
12    3  0.1201947E-007  0.9344402E+03  0.7818608E-02  0.9383525E-01
         -2   -1    0    0    0  501 -0.00000000000E+00  0.00000000000E+00  0.26540343650E+03  0.26540343650E+03  0.00000000000E+00 0.  1.
          1   -1    0    0  501    0  0.00000000000E+00 -0.00000000000E+00 -0.34733604814E+04  0.34733604814E+04  0.00000000000E+00 0. -1.
        -24    2    1    2    0    0  0.26134870884E+03  0.81628702119E+03 -0.16692335078E+04  0.18780777677E+04  0.78790541256E+02 0.  0.
    5000000    2    1    2    0    0 -0.26134870884E+03 -0.81628702119E+03 -0.15387235371E+04  0.18606861502E+04  0.59987930232E+03 0.  0.
        -24    2    4    4    0    0 -0.13663530934E+03  0.39944296396E+02 -0.36884606888E+03  0.40327928900E+03  0.79511054790E+02 0.  0.
         24    2    4    4    0    0 -0.12471339950E+03 -0.85623131759E+03 -0.11698774682E+04  0.14574068612E+04  0.82072938322E+02 0.  0.
         11    1    3    3    0    0  0.13857525174E+03  0.45987402472E+03 -0.10178324085E+04  0.11254643623E+04  0.00000000000E+00 0. -1.
        -12    1    3    3    0    0  0.12277345710E+03  0.35641299648E+03 -0.65140109926E+03  0.75261340537E+03  0.00000000000E+00 0.  1.
         15    1    5    5    0    0 -0.58697477016E+02  0.28625950518E+02 -0.76933107279E+02  0.10092918099E+03  0.17770000000E+01 0. -1.
        -16    1    5    5    0    0 -0.77937832322E+02  0.11318345878E+02 -0.29191296160E+03  0.30235010801E+03  0.00000000000E+00 0.  1.
          2    1    6    6  502    0 -0.42517710143E+01 -0.21731668844E+03 -0.25563180646E+03  0.33554767337E+03  0.00000000000E+00 0. -1.
         -1    1    6    6    0  502 -0.12046162849E+03 -0.63891462915E+03 -0.91424566178E+03  0.11218591879E+04  0.00000000000E+00 0.  1.
<mgrwt>
<rscale>  0 0.93444017E+03</rscale>
<asrwt>0</asrwt>
<pdfrwt beam="1">  1        1 0.53436314E+00 0.93444017E+03</pdfrwt>
<pdfrwt beam="2">  1       -2 0.40831298E-01 0.93444017E+03</pdfrwt>
<totfact> 0.13705178E+00</totfact>
</mgrwt>
</event>
<event>
12    3  0.1201947E-007  0.4659964E+03  0.7818608E-02  0.1023056E+00
         -2   -1    0    0    0  501 -0.00000000000E+00  0.00000000000E+00  0.75923802867E+02  0.75923802867E+02  0.00000000000E+00 0.  1.
          1   -1    0    0  501    0  0.00000000000E+00 -0.00000000000E+00 -0.32027563008E+04  0.32027563008E+04  0.00000000000E+00 0. -1.
        -24    2    1    2    0    0  0.21260911826E+03 -0.17278664147E+03 -0.55725592363E+03  0.62579584586E+03  0.77642872359E+02 0.  0.
    5000000    2    1    2    0    0 -0.21260911826E+03  0.17278664147E+03 -0.25695765743E+04  0.26528842578E+04  0.60001104448E+03 0.  0.
        -24    2    4    4    0    0 -0.41089838976E+03  0.14431625558E+03 -0.18092936553E+04  0.18626163592E+04  0.78303909491E+02 0.  0.
         24    2    4    4    0    0  0.19828927150E+03  0.28470385894E+02 -0.76028291905E+03  0.79026789863E+03  0.79774911687E+02 0.  0.
         11    1    3    3    0    0  0.73740567361E+02 -0.40948341071E+02 -0.24910164261E+03  0.26299442249E+03  0.00000000000E+00 0. -1.
        -12    1    3    3    0    0  0.13886855090E+03 -0.13183830040E+03 -0.30815428102E+03  0.36280142336E+03  0.00000000000E+00 0.  1.
         15    1    5    5    0    0 -0.14861936591E+03  0.89883806876E+02 -0.65368713511E+03  0.67637034456E+03  0.17770000000E+01 0. -1.
        -16    1    5    5    0    0 -0.26227902385E+03  0.54432448703E+02 -0.11556065202E+04  0.11862460146E+04  0.00000000000E+00 0.  1.
          4    1    6    6  502    0  0.17346649286E+03 -0.42627113519E+01 -0.58217798434E+03  0.60748662562E+03  0.00000000000E+00 0. -1.
         -3    1    6    6    0  502  0.24822778638E+02  0.32733097246E+02 -0.17810493471E+03  0.18278127301E+03  0.00000000000E+00 0.  1.
<mgrwt>
<rscale>  0 0.46599640E+03</rscale>
<asrwt>0</asrwt>
<pdfrwt beam="1">  1        1 0.49273197E+00 0.46599640E+03</pdfrwt>
<pdfrwt beam="2">  1       -2 0.11680579E-01 0.46599640E+03</pdfrwt>
<totfact> 0.22237647E+01</totfact>
</mgrwt>
</event>
<event>
12    3  0.1201947E-007  0.6308109E+03  0.7818608E-02  0.9843468E-01
         -2   -1    0    0    0  501 -0.00000000000E+00  0.00000000000E+00  0.66581687567E+03  0.66581687567E+03  0.00000000000E+00 0.  1.
          1   -1    0    0  501    0  0.00000000000E+00 -0.00000000000E+00 -0.10115168560E+04  0.10115168560E+04  0.00000000000E+00 0. -1.
        -24    2    1    2    0    0 -0.16086950170E+03  0.47600291650E+03  0.36015437344E+03  0.62342662567E+03  0.80571780439E+02 0.  0.
    5000000    2    1    2    0    0  0.16086950170E+03 -0.47600291650E+03 -0.70585435380E+03  0.10539071060E+04  0.60002670463E+03 0.  0.
        -24    2    4    4    0    0  0.19002705706E+03 -0.59080115908E+03 -0.64586998230E+03  0.89932653356E+03  0.80522592819E+02 0.  0.
         24    2    4    4    0    0 -0.29157555360E+02  0.11479824259E+03 -0.59984371505E+02  0.15458057246E+03  0.79172148025E+02 0.  0.
         13    1    3    3    0    0 -0.41395060638E+02  0.24826692102E+03  0.17935074883E+03  0.30905777167E+03  0.00000000000E+00 0. -1.
        -14    1    3    3    0    0 -0.11947444106E+03  0.22773599547E+03  0.18080362461E+03  0.31436885401E+03  0.00000000000E+00 0.  1.
         15    1    5    5    0    0  0.60572466150E+02 -0.24745301589E+03 -0.31601254181E+03  0.40591760622E+03  0.17770000000E+01 0. -1.
        -16    1    5    5    0    0  0.12945459091E+03 -0.34334814319E+03 -0.32985744049E+03  0.49340892735E+03  0.00000000000E+00 0.  1.
          2    1    6    6  502    0  0.16938614478E+02  0.35254871171E+02  0.83955894628E+01  0.40003856366E+02  0.00000000000E+00 0. -1.
         -1    1    6    6    0  502 -0.46096169838E+02  0.79543371414E+02 -0.68379960967E+02  0.11457671610E+03  0.00000000000E+00 0.  1.
<mgrwt>
<rscale>  0 0.63081086E+03</rscale>
<asrwt>0</asrwt>
<pdfrwt beam="1">  1        1 0.15561798E+00 0.63081086E+03</pdfrwt>
<pdfrwt beam="2">  1       -2 0.10243337E+00 0.63081086E+03</pdfrwt>
<totfact> 0.10542225E+01</totfact>
</mgrwt>
</event>
<event>
12    3  0.1516821E-007  0.4853953E+03  0.7818608E-02  0.1017663E+00
          1   -1    0    0  501    0  0.00000000000E+00  0.00000000000E+00  0.17760283136E+04  0.17760283136E+04  0.00000000000E+00 0. -1.
         -2   -1    0    0    0  501 -0.00000000000E+00 -0.00000000000E+00 -0.22218386461E+03  0.22218386461E+03  0.00000000000E+00 0.  1.
        -24    2    1    2    0    0 -0.36166601437E+03 -0.22466964323E+03  0.24898786509E+03  0.50027058500E+03  0.83647753818E+02 0.  0.
    5000000    2    1    2    0    0  0.36166601437E+03  0.22466964323E+03  0.13048565839E+04  0.14979415932E+04  0.59991629212E+03 0.  0.
        -24    2    4    4    0    0  0.31211612703E+03  0.78994743377E+01  0.11943057686E+04  0.12371191360E+04  0.81354834841E+02 0.  0.
         24    2    4    4    0    0  0.49549887340E+02  0.21677016889E+03  0.11055081527E+03  0.26082245723E+03  0.79764490732E+02 0.  0.
         13    1    3    3    0    0 -0.18612818578E+03 -0.14191621608E+03  0.17634004470E+03  0.29305242755E+03  0.00000000000E+00 0. -1.
        -14    1    3    3    0    0 -0.17553782859E+03 -0.82753427152E+02  0.72647820387E+02  0.20721815745E+03  0.00000000000E+00 0.  1.
         15    1    5    5    0    0  0.11659964027E+03 -0.16053916955E+02  0.32177654816E+03  0.34263173968E+03  0.17770000000E+01 0. -1.
        -16    1    5    5    0    0  0.19551648676E+03  0.23953391293E+02  0.87252922046E+03  0.89448739628E+03  0.00000000000E+00 0.  1.
          2    1    6    6  502    0  0.45309714513E+02  0.86624287130E+02  0.14084639358E+02  0.98767982746E+02  0.00000000000E+00 0. -1.
         -1    1    6    6    0  502  0.42401728274E+01  0.13014588176E+03  0.96466175907E+02  0.16205447448E+03  0.00000000000E+00 0.  1.
<mgrwt>
<rscale>  0 0.48539532E+03</rscale>
<asrwt>0</asrwt>
<pdfrwt beam="1">  1        1 0.27323512E+00 0.48539532E+03</pdfrwt>
<pdfrwt beam="2">  1       -2 0.34182134E-01 0.48539532E+03</pdfrwt>
<totfact> 0.31946364E+01</totfact>
</mgrwt>
</event>
<event>
12    3  0.1201947E-007  0.9978363E+03  0.7818608E-02  0.9310921E-01
          1   -1    0    0  501    0  0.00000000000E+00  0.00000000000E+00  0.13503399681E+04  0.13503399681E+04  0.00000000000E+00 0. -1.
         -2   -1    0    0    0  501 -0.00000000000E+00 -0.00000000000E+00 -0.10547340670E+04  0.10547340670E+04  0.00000000000E+00 0.  1.
        -24    2    1    2    0    0 -0.39042475737E+03  0.87088707452E+03  0.72234376519E+03  0.11996751501E+04  0.81019522205E+02 0.  0.
    5000000    2    1    2    0    0  0.39042475737E+03 -0.87088707452E+03 -0.42673786410E+03  0.12053988850E+04  0.60000456637E+03 0.  0.
        -24    2    4    4    0    0 -0.14111080379E+02 -0.44048050860E+03 -0.41259826892E+03  0.60912695925E+03  0.81093279144E+02 0.  0.
         24    2    4    4    0    0  0.40453583775E+03 -0.43040656592E+03 -0.14139595178E+02  0.59627192579E+03  0.80257244682E+02 0.  0.
         13    1    3    3    0    0 -0.98119305033E+02  0.31269631945E+03  0.24498762536E+03  0.40917639570E+03  0.00000000000E+00 0. -1.
        -14    1    3    3    0    0 -0.29230545234E+03  0.55819075507E+03  0.47735613982E+03  0.79049875442E+03  0.00000000000E+00 0.  1.
         15    1    5    5    0    0  0.56224688356E+01 -0.29108677754E+03 -0.22185558347E+03  0.36604122973E+03  0.17770000000E+01 0. -1.
        -16    1    5    5    0    0 -0.19733549214E+02 -0.14939373106E+03 -0.19074268545E+03  0.24308572953E+03  0.00000000000E+00 0.  1.
          4    1    6    6  502    0  0.33240357175E+03 -0.30390595018E+03 -0.61461265882E+01  0.45043172173E+03  0.00000000000E+00 0. -1.
         -3    1    6    6    0  502  0.72132265997E+02 -0.12650061574E+03 -0.79934685893E+01  0.14584020406E+03  0.00000000000E+00 0.  1.
<mgrwt>
<rscale>  0 0.99783628E+03</rscale>
<asrwt>0</asrwt>
<pdfrwt beam="1">  1        1 0.20774461E+00 0.99783628E+03</pdfrwt>
<pdfrwt beam="2">  1       -2 0.16226678E+00 0.99783628E+03</pdfrwt>
<totfact> 0.17659812E+00</totfact>
</mgrwt>
</event>
<event>
12    3  0.1327481E-007  0.1215897E+04  0.7818608E-02  0.9099054E-01
         -2   -1    0    0    0  501 -0.00000000000E+00  0.00000000000E+00  0.15737717096E+04  0.15737717096E+04  0.00000000000E+00 0.  1.
          1   -1    0    0  501    0  0.00000000000E+00 -0.00000000000E+00 -0.96027413429E+03  0.96027413429E+03  0.00000000000E+00 0. -1.
        -24    2    1    2    0    0  0.26229955491E+03 -0.11227294690E+04  0.35263041007E+03  0.12083597953E+04  0.80390743430E+02 0.  0.
    5000000    2    1    2    0    0 -0.26229955491E+03  0.11227294690E+04  0.26086716529E+03  0.13256860487E+04  0.60005775107E+03 0.  0.
        -24    2    4    4    0    0 -0.42757286561E+03  0.73283787753E+03  0.74217931622E+02  0.85541954000E+03  0.79777051189E+02 0.  0.
         24    2    4    4    0    0  0.16527331070E+03  0.38989159147E+03  0.18664923367E+03  0.47026650866E+03  0.83557958378E+02 0.  0.
         11    1    3    3    0    0  0.53068016030E+02 -0.36955256980E+03  0.94119610802E+02  0.38502443729E+03  0.00000000000E+00 0. -1.
        -12    1    3    3    0    0  0.20923153888E+03 -0.75317689921E+03  0.25851079927E+03  0.82333535798E+03  0.00000000000E+00 0.  1.
         15    1    5    5    0    0 -0.69585900633E+02  0.77138234002E+02  0.24231859382E+02  0.10669041874E+03  0.17770000000E+01 0. -1.
        -16    1    5    5    0    0 -0.35798696498E+03  0.65569964353E+03  0.49986072240E+02  0.74872912127E+03  0.00000000000E+00 0.  1.
          4    1    6    6  502    0  0.69027458732E+02  0.11051608084E+03  0.93731751397E+02  0.16051241511E+03  0.00000000000E+00 0. -1.
         -3    1    6    6    0  502  0.96245851969E+02  0.27937551063E+03  0.92917482271E+02  0.30975409356E+03  0.00000000000E+00 0.  1.
<mgrwt>
<rscale>  0 0.12158973E+04</rscale>
<asrwt>0</asrwt>
<pdfrwt beam="1">  1        1 0.14773448E+00 0.12158973E+04</pdfrwt>
<pdfrwt beam="2">  1       -2 0.24211872E+00 0.12158973E+04</pdfrwt>
<totfact> 0.99948149E-01</totfact>
</mgrwt>
</event>
<event>
12    3  0.1201947E-007  0.1455031E+04  0.7818608E-02  0.8914920E-01
         -2   -1    0    0    0  501 -0.00000000000E+00  0.00000000000E+00  0.65575315093E+03  0.65575315093E+03  0.00000000000E+00 0.  1.
          1   -1    0    0  501    0  0.00000000000E+00 -0.00000000000E+00 -0.36647339213E+04  0.36647339213E+04  0.00000000000E+00 0. -1.
        -24    2    1    2    0    0  0.77060660316E+03 -0.12209954662E+04 -0.19677475699E+04  0.24419510465E+04  0.80186964325E+02 0.  0.
    5000000    2    1    2    0    0 -0.77060660316E+03  0.12209954662E+04 -0.10412332005E+04  0.18785360257E+04  0.60005546150E+03 0.  0.
        -24    2    4    4    0    0 -0.57241356315E+03  0.69859909304E+03 -0.93832713873E+03  0.13048659339E+04  0.80742219401E+02 0.  0.
         24    2    4    4    0    0 -0.19819304001E+03  0.52239637318E+03 -0.10290606175E+03  0.57367009189E+03  0.79556677651E+02 0.  0.
         11    1    3    3    0    0  0.34444610915E+03 -0.61857634969E+03 -0.98011375246E+03  0.12090917212E+04  0.00000000000E+00 0. -1.
        -12    1    3    3    0    0  0.42616049400E+03 -0.60241911653E+03 -0.98763381746E+03  0.12328593253E+04  0.00000000000E+00 0.  1.
         15    1    5    5    0    0 -0.35645042019E+03  0.41251265693E+03 -0.61843472206E+03  0.82443208172E+03  0.17770000000E+01 0. -1.
        -16    1    5    5    0    0 -0.21596314295E+03  0.28608643611E+03 -0.31989241667E+03  0.48043385214E+03  0.00000000000E+00 0.  1.
          4    1    6    6  502    0 -0.56580384620E+02  0.21029466471E+03 -0.74594658961E+01  0.21790096274E+03  0.00000000000E+00 0. -1.
         -3    1    6    6    0  502 -0.14161265539E+03  0.31210170847E+03 -0.95446595855E+02  0.35576912915E+03  0.00000000000E+00 0.  1.
<mgrwt>
<rscale>  0 0.14550310E+04</rscale>
<asrwt>0</asrwt>
<pdfrwt beam="1">  1        1 0.56380522E+00 0.14550310E+04</pdfrwt>
<pdfrwt beam="2">  1       -2 0.10088510E+00 0.14550310E+04</pdfrwt>
<totfact> 0.12675792E-01</totfact>
</mgrwt>
</event>
<event>
12    3  0.1201947E-007  0.6949625E+03  0.7818608E-02  0.9725886E-01
         -2   -1    0    0    0  501 -0.00000000000E+00  0.00000000000E+00  0.23381360723E+03  0.23381360723E+03  0.00000000000E+00 0.  1.
          1   -1    0    0  501    0  0.00000000000E+00 -0.00000000000E+00 -0.32488032243E+04  0.32488032243E+04  0.00000000000E+00 0. -1.
        -24    2    1    2    0    0 -0.56597338346E+03 -0.29225207087E+03 -0.21819376886E+04  0.22744005945E+04  0.79428227961E+02 0.  0.
    5000000    2    1    2    0    0  0.56597338346E+03  0.29225207087E+03 -0.83305192842E+03  0.12082162370E+04  0.60006151042E+03 0.  0.
        -24    2    4    4    0    0  0.16499311887E+03  0.29750539118E+03 -0.92295748140E+02  0.36203190235E+03  0.82561529406E+02 0.  0.
         24    2    4    4    0    0  0.40098026459E+03 -0.52533203166E+01 -0.74075618028E+03  0.84618433469E+03  0.80594290611E+02 0.  0.
         13    1    3    3    0    0 -0.25563987141E+03 -0.17542671897E+03 -0.10213325452E+04  0.10673548827E+04  0.00000000000E+00 0. -1.
        -14    1    3    3    0    0 -0.31033351204E+03 -0.11682535189E+03 -0.11606051434E+04  0.12070457118E+04  0.00000000000E+00 0.  1.
         15    1    5    5    0    0  0.28232921634E+02  0.35675887241E+02 -0.42858204021E+02  0.62528794770E+02  0.17770000000E+01 0. -1.
        -16    1    5    5    0    0  0.13676019723E+03  0.26182950394E+03 -0.49437544119E+02  0.29950310758E+03  0.00000000000E+00 0.  1.
          2    1    6    6  502    0  0.15742255492E+03  0.32930668782E+02 -0.25574001533E+03  0.30210800252E+03  0.00000000000E+00 0. -1.
         -1    1    6    6    0  502  0.24355770967E+03 -0.38183989098E+02 -0.48501616495E+03  0.54407633217E+03  0.00000000000E+00 0.  1.
<mgrwt>
<rscale>  0 0.69496250E+03</rscale>
<asrwt>0</asrwt>
<pdfrwt beam="1">  1        1 0.49981586E+00 0.69496250E+03</pdfrwt>
<pdfrwt beam="2">  1       -2 0.35971326E-01 0.69496250E+03</pdfrwt>
<totfact> 0.27092194E+00</totfact>
</mgrwt>
</event>
<event>
12    3  0.1201947E-007  0.3454830E+03  0.7818608E-02  0.1064484E+00
         -2   -1    0    0    0  501 -0.00000000000E+00  0.00000000000E+00  0.11770209831E+03  0.11770209831E+03  0.00000000000E+00 0.  1.
          1   -1    0    0  501    0  0.00000000000E+00 -0.00000000000E+00 -0.10955319959E+04  0.10955319959E+04  0.00000000000E+00 0. -1.
        -24    2    1    2    0    0 -0.64439343754E+02 -0.16418185056E+02 -0.22839541841E+03  0.25090516136E+03  0.79793151476E+02 0.  0.
    5000000    2    1    2    0    0  0.64439343754E+02  0.16418185056E+02 -0.74943447918E+03  0.96232893286E+03  0.60000245884E+03 0.  0.
        -24    2    4    4    0    0 -0.25632240504E+03  0.11114686810E+02 -0.28980938956E+03  0.39523676068E+03  0.79986893475E+02 0.  0.
         24    2    4    4    0    0  0.32076174880E+03  0.53034982456E+01 -0.45962508963E+03  0.56709217218E+03  0.86151506964E+02 0.  0.
         11    1    3    3    0    0 -0.50456237780E+02 -0.46466805148E+02 -0.12859198065E+03  0.14574255864E+03  0.00000000000E+00 0. -1.
        -12    1    3    3    0    0 -0.13983105974E+02  0.30048620092E+02 -0.99803437759E+02  0.10516260272E+03  0.00000000000E+00 0.  1.
         15    1    5    5    0    0 -0.16094161320E+03  0.23266267922E+02 -0.23107945208E+03  0.28256750164E+03  0.17770000000E+01 0. -1.
        -16    1    5    5    0    0 -0.95380791839E+02 -0.12151581112E+02 -0.58729937477E+02  0.11266925903E+03  0.00000000000E+00 0.  1.
          4    1    6    6  502    0  0.13046276042E+03  0.41170067563E+02 -0.21906413832E+03  0.25827234273E+03  0.00000000000E+00 0. -1.
         -3    1    6    6    0  502  0.19029898838E+03 -0.35866569317E+02 -0.24056095130E+03  0.30881982945E+03  0.00000000000E+00 0.  1.
<mgrwt>
<rscale>  0 0.34548299E+03</rscale>
<asrwt>0</asrwt>
<pdfrwt beam="1">  1        1 0.16854338E+00 0.34548299E+03</pdfrwt>
<pdfrwt beam="2">  1       -2 0.18108015E-01 0.34548299E+03</pdfrwt>
<totfact> 0.29697866E+02</totfact>
</mgrwt>
</event>
<event>
12    3  0.1201947E-007  0.8125875E+03  0.7818608E-02  0.9541974E-01
         -2   -1    0    0    0  501 -0.00000000000E+00  0.00000000000E+00  0.70715399109E+03  0.70715399109E+03  0.00000000000E+00 0.  1.
          1   -1    0    0  501    0  0.00000000000E+00 -0.00000000000E+00 -0.12826242239E+04  0.12826242239E+04  0.00000000000E+00 0. -1.
        -24    2    1    2    0    0  0.62790298400E+02 -0.69856381672E+03  0.25254302476E+03  0.74976642939E+03  0.80235227201E+02 0.  0.
    5000000    2    1    2    0    0 -0.62790298400E+02  0.69856381672E+03 -0.82801325758E+03  0.12400117856E+04  0.60007436715E+03 0.  0.
        -24    2    4    4    0    0  0.53232004203E+02  0.75993762119E+03 -0.67263244266E+03  0.10194476790E+04  0.80624642474E+02 0.  0.
         24    2    4    4    0    0 -0.11602230260E+03 -0.61373804472E+02 -0.15538081492E+03  0.22056410658E+03  0.85307730541E+02 0.  0.
         11    1    3    3    0    0  0.14453008282E+00 -0.43672047118E+03  0.15563544483E+03  0.46362396673E+03  0.00000000000E+00 0. -1.
        -12    1    3    3    0    0  0.62645768317E+02 -0.26184334554E+03  0.96907579932E+02  0.28614246267E+03  0.00000000000E+00 0.  1.
         15    1    5    5    0    0  0.56895189880E+02  0.37559037948E+03 -0.36937190818E+03  0.52985277207E+03  0.17770000000E+01 0. -1.
        -16    1    5    5    0    0 -0.36631856771E+01  0.38434724171E+03 -0.30326053447E+03  0.48959490695E+03  0.00000000000E+00 0.  1.
          2    1    6    6  502    0 -0.71784494239E+02 -0.79550482151E+02 -0.92445882771E+02  0.14151867038E+03  0.00000000000E+00 0. -1.
         -1    1    6    6    0  502 -0.44237808364E+02  0.18176677679E+02 -0.62934932147E+02  0.79045436204E+02  0.00000000000E+00 0.  1.
<mgrwt>
<rscale>  0 0.81258747E+03</rscale>
<asrwt>0</asrwt>
<pdfrwt beam="1">  1        1 0.19732680E+00 0.81258747E+03</pdfrwt>
<pdfrwt beam="2">  1       -2 0.10879292E+00 0.81258747E+03</pdfrwt>
<totfact> 0.56231020E+00</totfact>
</mgrwt>
</event>
<event>
12    3  0.1201947E-007  0.5889900E+03  0.7818608E-02  0.9928515E-01
         -2   -1    0    0    0  501 -0.00000000000E+00  0.00000000000E+00  0.12957624270E+04  0.12957624270E+04  0.00000000000E+00 0.  1.
          1   -1    0    0  501    0  0.00000000000E+00 -0.00000000000E+00 -0.31529230995E+03  0.31529230995E+03  0.00000000000E+00 0. -1.
        -24    2    1    2    0    0 -0.20367104979E+02 -0.46803286865E+03  0.18486661843E+03  0.50982632784E+03  0.79231514213E+02 0.  0.
    5000000    2    1    2    0    0  0.20367104979E+02  0.46803286865E+03  0.79560349860E+03  0.11012284091E+04  0.60020787807E+03 0.  0.
        -24    2    4    4    0    0  0.25881873010E+03  0.33839498451E+03  0.29033019914E+03  0.52217899970E+03  0.82951688342E+02 0.  0.
         24    2    4    4    0    0 -0.23845162512E+03  0.12963788414E+03  0.50527329946E+03  0.57904940940E+03  0.79573568785E+02 0.  0.
         13    1    3    3    0    0 -0.83844854761E+01 -0.26306719128E+03  0.14560190576E+03  0.30078989625E+03  0.00000000000E+00 0. -1.
        -14    1    3    3    0    0 -0.11982619503E+02 -0.20496567737E+03  0.39264712668E+02  0.20903643159E+03  0.00000000000E+00 0.  1.
         15    1    5    5    0    0  0.20118663404E+03  0.31042622428E+03  0.25005468341E+03  0.44650980376E+03  0.17770000000E+01 0. -1.
        -16    1    5    5    0    0  0.57632096061E+02  0.27968760232E+02  0.40275515734E+02  0.75669195932E+02  0.00000000000E+00 0.  1.
          2    1    6    6  502    0 -0.12288601455E+03  0.40023296150E+02  0.30333744852E+03  0.32972176829E+03  0.00000000000E+00 0. -1.
         -1    1    6    6    0  502 -0.11556561057E+03  0.89614587990E+02  0.20193585093E+03  0.24932764111E+03  0.00000000000E+00 0.  1.
<mgrwt>
<rscale>  0 0.58899005E+03</rscale>
<asrwt>0</asrwt>
<pdfrwt beam="1">  1        1 0.48506510E-01 0.58899005E+03</pdfrwt>
<pdfrwt beam="2">  1       -2 0.19934806E+00 0.58899005E+03</pdfrwt>
<totfact> 0.10035982E+01</totfact>
</mgrwt>
</event>
<event>
12    3  0.1201947E-007  0.5544932E+03  0.7818608E-02  0.1000459E+00
         -2   -1    0    0    0  501 -0.00000000000E+00  0.00000000000E+00  0.47820515989E+04  0.47820515989E+04  0.00000000000E+00 0.  1.
          1   -1    0    0  501    0  0.00000000000E+00 -0.00000000000E+00 -0.14185255252E+03  0.14185255252E+03  0.00000000000E+00 0. -1.
        -24    2    1    2    0    0  0.31264350860E+03 -0.24668230789E+03  0.25412506472E+03  0.47907810795E+03  0.79612564967E+02 0.  0.
    5000000    2    1    2    0    0 -0.31264350860E+03  0.24668230789E+03  0.43860739816E+04  0.44448260434E+04  0.60019618433E+03 0.  0.
        -24    2    4    4    0    0  0.54903001096E+02 -0.14441902402E+03  0.88709727511E+03  0.90403033633E+03  0.80362176880E+02 0.  0.
         24    2    4    4    0    0 -0.36754650969E+03  0.39110133191E+03  0.34989767065E+04  0.35407957071E+04  0.79659011688E+02 0.  0.
         13    1    3    3    0    0  0.27040445204E+03 -0.17412942939E+03  0.19121041687E+03  0.37416714097E+03  0.00000000000E+00 0. -1.
        -14    1    3    3    0    0  0.42239056556E+02 -0.72552878498E+02  0.62914647856E+02  0.10491096698E+03  0.00000000000E+00 0.  1.
         15    1    5    5    0    0  0.14882528597E+02 -0.11204510227E+03  0.45299325373E+03  0.46688503966E+03  0.17770000000E+01 0. -1.
        -16    1    5    5    0    0  0.40020472499E+02 -0.32373921753E+02  0.43410402137E+03  0.43714529667E+03  0.00000000000E+00 0.  1.
          2    1    6    6  502    0 -0.20714373265E+03  0.18498898638E+03  0.15965134370E+04  0.16204890020E+04  0.00000000000E+00 0. -1.
         -1    1    6    6    0  502 -0.16040277705E+03  0.20611234553E+03  0.19024632696E+04  0.19203067052E+04  0.00000000000E+00 0.  1.
<mgrwt>
<rscale>  0 0.55449321E+03</rscale>
<asrwt>0</asrwt>
<pdfrwt beam="1">  1        1 0.21823473E-01 0.55449321E+03</pdfrwt>
<pdfrwt beam="2">  1       -2 0.73570012E+00 0.55449321E+03</pdfrwt>
<totfact> 0.38563314E-02</totfact>
</mgrwt>
</event>
<event>
12    3  0.1201947E-007  0.7246123E+03  0.7818608E-02  0.9676044E-01
         -2   -1    0    0    0  501 -0.00000000000E+00  0.00000000000E+00  0.21679808453E+03  0.21679808453E+03  0.00000000000E+00 0.  1.
          1   -1    0    0  501    0  0.00000000000E+00 -0.00000000000E+00 -0.47476214101E+04  0.47476214101E+04  0.00000000000E+00 0. -1.
        -24    2    1    2    0    0  0.56394263801E+03 -0.25519382796E+03 -0.39249631124E+03  0.73731456230E+03  0.80151235992E+02 0.  0.
    5000000    2    1    2    0    0 -0.56394263801E+03  0.25519382796E+03 -0.41383270144E+04  0.42271049324E+04  0.59959189675E+03 0.  0.
        -24    2    4    4    0    0 -0.33450453146E+02  0.27866738984E+03 -0.20578392049E+04  0.20783101564E+04  0.76788449438E+02 0.  0.
         24    2    4    4    0    0 -0.53049218487E+03 -0.23473561872E+02 -0.20804878094E+04  0.21487947759E+04  0.83165483348E+02 0.  0.
         13    1    3    3    0    0  0.16819014944E+03 -0.37489893546E+02 -0.10085613391E+03  0.19966316194E+03  0.00000000000E+00 0. -1.
        -14    1    3    3    0    0  0.39575248858E+03 -0.21770393442E+03 -0.29164017733E+03  0.53765140036E+03  0.00000000000E+00 0.  1.
         15    1    5    5    0    0 -0.46329751678E+02  0.95640990181E+02 -0.84865608604E+03  0.85528589080E+03  0.17770000000E+01 0. -1.
        -16    1    5    5    0    0  0.12879298532E+02  0.18302639965E+03 -0.12091831189E+04  0.12230242656E+04  0.00000000000E+00 0.  1.
          4    1    6    6  502    0 -0.35268985212E+03 -0.48124766188E+02 -0.12924946814E+04  0.13406150179E+04  0.00000000000E+00 0. -1.
         -3    1    6    6    0  502 -0.17780233275E+03  0.24651204316E+02 -0.78799312805E+03  0.80817975801E+03  0.00000000000E+00 0.  1.
<mgrwt>
<rscale>  0 0.72461227E+03</rscale>
<asrwt>0</asrwt>
<pdfrwt beam="1">  1        1 0.73040328E+00 0.72461227E+03</pdfrwt>
<pdfrwt beam="2">  1       -2 0.33353552E-01 0.72461227E+03</pdfrwt>
<totfact> 0.14840273E-01</totfact>
</mgrwt>
</event>
<event>
12    3  0.1201947E-007  0.8287724E+03  0.7818608E-02  0.9519279E-01
          1   -1    0    0  501    0  0.00000000000E+00  0.00000000000E+00  0.27693795250E+04  0.27693795250E+04  0.00000000000E+00 0. -1.
         -2   -1    0    0    0  501 -0.00000000000E+00 -0.00000000000E+00 -0.36915933828E+03  0.36915933828E+03  0.00000000000E+00 0.  1.
        -24    2    1    2    0    0  0.14749697514E+03 -0.71767586245E+03  0.19603246481E+04  0.20943120601E+04  0.80350966943E+02 0.  0.
    5000000    2    1    2    0    0 -0.14749697514E+03  0.71767586245E+03  0.43989553857E+03  0.10442268031E+04  0.60007293748E+03 0.  0.
        -24    2    4    4    0    0  0.18362348934E+03  0.95876064939E+02  0.25764968512E+02  0.22308451855E+03  0.78696017362E+02 0.  0.
         24    2    4    4    0    0 -0.33112046449E+03  0.62179979751E+03  0.41413057006E+03  0.82114228458E+03  0.80590150005E+02 0.  0.
         13    1    3    3    0    0  0.51595103624E+02 -0.17969975363E+03  0.59534912734E+03  0.62401493540E+03  0.00000000000E+00 0. -1.
        -14    1    3    3    0    0  0.95901871521E+02 -0.53797610883E+03  0.13649755208E+04  0.14702971247E+04  0.00000000000E+00 0.  1.
         15    1    5    5    0    0  0.10831372895E+03  0.15391457591E+02 -0.19343762509E+01  0.10943336048E+03  0.17770000000E+01 0. -1.
        -16    1    5    5    0    0  0.75309760391E+02  0.80484607348E+02  0.27699344763E+02  0.11365115807E+03  0.00000000000E+00 0.  1.
          2    1    6    6  502    0 -0.19368710051E+03  0.36909857357E+03  0.29033445324E+03  0.50797888209E+03  0.00000000000E+00 0. -1.
         -1    1    6    6    0  502 -0.13743336398E+03  0.25270122394E+03  0.12379611682E+03  0.31316340249E+03  0.00000000000E+00 0.  1.
<mgrwt>
<rscale>  0 0.82877235E+03</rscale>
<asrwt>0</asrwt>
<pdfrwt beam="1">  1        1 0.42605837E+00 0.82877235E+03</pdfrwt>
<pdfrwt beam="2">  1       -2 0.56793746E-01 0.82877235E+03</pdfrwt>
<totfact> 0.23455654E+00</totfact>
</mgrwt>
</event>
<event>
12    3  0.1201947E-007  0.8224054E+03  0.7818608E-02  0.9528141E-01
          3   -1    0    0  501    0  0.00000000000E+00  0.00000000000E+00  0.45271225112E+03  0.45271225112E+03  0.00000000000E+00 0. -1.
         -4   -1    0    0    0  501 -0.00000000000E+00 -0.00000000000E+00 -0.18602616936E+04  0.18602616936E+04  0.00000000000E+00 0.  1.
        -24    2    1    2    0    0 -0.51250830256E+02  0.77977891368E+03 -0.93225866358E+03  0.12192245084E+04  0.81977949391E+02 0.  0.
    5000000    2    1    2    0    0  0.51250830256E+02 -0.77977891368E+03 -0.47529077891E+03  0.10937494363E+04  0.59975386882E+03 0.  0.
        -24    2    4    4    0    0 -0.64764668481E+02 -0.69107480324E+03 -0.57065401641E+03  0.90210217051E+03  0.79771383576E+02 0.  0.
         24    2    4    4    0    0  0.11601549874E+03 -0.88704110437E+02  0.95363237496E+02  0.19164726583E+03  0.79413552244E+02 0.  0.
         11    1    3    3    0    0 -0.12873529885E+02  0.60939033448E+03 -0.69155130349E+03  0.92182726847E+03  0.00000000000E+00 0. -1.
        -12    1    3    3    0    0 -0.38377300371E+02  0.17038857920E+03 -0.24070736009E+03  0.29739723991E+03  0.00000000000E+00 0.  1.
         15    1    5    5    0    0 -0.52455649428E+02 -0.43874411676E+03 -0.31478908823E+03  0.54253416754E+03  0.17770000000E+01 0. -1.
        -16    1    5    5    0    0 -0.12309019053E+02 -0.25233068649E+03 -0.25586492818E+03  0.35956800297E+03  0.00000000000E+00 0.  1.
          4    1    6    6  502    0 -0.95565004330E+01 -0.21886447977E+02  0.16224627943E+02  0.28871817702E+02  0.00000000000E+00 0. -1.
         -3    1    6    6    0  502  0.12557199917E+03 -0.66817662461E+02  0.79138609553E+02  0.16277544813E+03  0.00000000000E+00 0.  1.
<mgrwt>
<rscale>  0 0.82240538E+03</rscale>
<asrwt>0</asrwt>
<pdfrwt beam="1">  1        3 0.69648039E-01 0.82240538E+03</pdfrwt>
<pdfrwt beam="2">  1       -4 0.28619410E+00 0.82240538E+03</pdfrwt>
<totfact> 0.17017223E-01</totfact>
</mgrwt>
</event>
<event>
12    3  0.1201947E-007  0.7581086E+03  0.7818608E-02  0.9622714E-01
          1   -1    0    0  501    0  0.00000000000E+00  0.00000000000E+00  0.16566673694E+04  0.16566673694E+04  0.00000000000E+00 0. -1.
         -2   -1    0    0    0  501 -0.00000000000E+00 -0.00000000000E+00 -0.44743384151E+03  0.44743384151E+03  0.00000000000E+00 0.  1.
        -24    2    1    2    0    0 -0.52410644030E+03 -0.46566283099E+03  0.19351312451E+03  0.73179409961E+03  0.80906377605E+02 0.  0.
    5000000    2    1    2    0    0  0.52410644030E+03  0.46566283099E+03  0.10157204034E+04  0.13723071113E+04  0.60000786410E+03 0.  0.
        -24    2    4    4    0    0  0.29156495796E+02  0.28243612975E+03  0.68092587824E+03  0.74200933296E+03  0.79356977632E+02 0.  0.
         24    2    4    4    0    0  0.49494994451E+03  0.18322670124E+03  0.33479452516E+03  0.63029777837E+03  0.81488917844E+02 0.  0.
         11    1    3    3    0    0 -0.22643570298E+03 -0.22920744267E+03  0.12456627176E+03  0.34543586296E+03  0.00000000000E+00 0. -1.
        -12    1    3    3    0    0 -0.29767073732E+03 -0.23645538832E+03  0.68946852749E+02  0.38635823665E+03  0.00000000000E+00 0.  1.
         15    1    5    5    0    0  0.17316587507E+02  0.15683035923E+03  0.47484812702E+03  0.50037938331E+03  0.17770000000E+01 0. -1.
        -16    1    5    5    0    0  0.11839908289E+02  0.12560577053E+03  0.20607775122E+03  0.24162994965E+03  0.00000000000E+00 0.  1.
          2    1    6    6  502    0  0.24797825480E+03  0.66479811401E+02  0.20133409407E+03  0.32626399988E+03  0.00000000000E+00 0. -1.
         -1    1    6    6    0  502  0.24697168970E+03  0.11674688983E+03  0.13346043109E+03  0.30403377850E+03  0.00000000000E+00 0.  1.
<mgrwt>
<rscale>  0 0.75810864E+03</rscale>
<asrwt>0</asrwt>
<pdfrwt beam="1">  1        1 0.25487190E+00 0.75810864E+03</pdfrwt>
<pdfrwt beam="2">  1       -2 0.68835977E-01 0.75810864E+03</pdfrwt>
<totfact> 0.89301017E+00</totfact>
</mgrwt>
</event>
<event>
12    3  0.1201947E-007  0.8419976E+03  0.7818608E-02  0.9501141E-01
         -2   -1    0    0    0  501 -0.00000000000E+00  0.00000000000E+00  0.74025145521E+03  0.74025145521E+03  0.00000000000E+00 0.  1.
          1   -1    0    0  501    0  0.00000000000E+00 -0.00000000000E+00 -0.11422119362E+04  0.11422119362E+04  0.00000000000E+00 0. -1.
        -24    2    1    2    0    0 -0.65438905533E+03 -0.37695047270E+03  0.14582182518E+03  0.77323928957E+03  0.79487732638E+02 0.  0.
    5000000    2    1    2    0    0  0.65438905533E+03  0.37695047270E+03 -0.54778230621E+03  0.11092241019E+04  0.59999663214E+03 0.  0.
        -24    2    4    4    0    0  0.56302836699E+03  0.34782034468E+02 -0.46902772662E+03  0.73786907536E+03  0.79076115692E+02 0.  0.
         24    2    4    4    0    0  0.91360688334E+02  0.34216843823E+03 -0.78754579591E+02  0.37135502651E+03  0.79222827629E+02 0.  0.
         11    1    3    3    0    0 -0.34582116641E+03 -0.20276164428E+03  0.11762702497E+03  0.41778066079E+03  0.00000000000E+00 0. -1.
        -12    1    3    3    0    0 -0.30856788891E+03 -0.17418882842E+03  0.28194800216E+02  0.35545862878E+03  0.00000000000E+00 0.  1.
         15    1    5    5    0    0  0.31847335457E+03  0.56980174714E+02 -0.25095421425E+03  0.40945475117E+03  0.17770000000E+01 0. -1.
        -16    1    5    5    0    0  0.24455501242E+03 -0.22198140246E+02 -0.21807351237E+03  0.32841432418E+03  0.00000000000E+00 0.  1.
          2    1    6    6  502    0  0.95220160098E+02  0.25137113064E+03 -0.36977292840E+02  0.27133308754E+03  0.00000000000E+00 0. -1.
         -1    1    6    6    0  502 -0.38594717649E+01  0.90797307585E+02 -0.41777286751E+02  0.10002193897E+03  0.00000000000E+00 0.  1.
<mgrwt>
<rscale>  0 0.84199759E+03</rscale>
<asrwt>0</asrwt>
<pdfrwt beam="1">  1        1 0.17572491E+00 0.84199759E+03</pdfrwt>
<pdfrwt beam="2">  1       -2 0.11388484E+00 0.84199759E+03</pdfrwt>
<totfact> 0.63358174E+00</totfact>
</mgrwt>
</event>
<event>
12    3  0.1201947E-007  0.4832345E+03  0.7818608E-02  0.1018250E+00
          1   -1    0    0  501    0  0.00000000000E+00  0.00000000000E+00  0.48603018527E+03  0.48603018527E+03  0.00000000000E+00 0. -1.
         -2   -1    0    0    0  501 -0.00000000000E+00 -0.00000000000E+00 -0.54950094555E+03  0.54950094555E+03  0.00000000000E+00 0.  1.
        -24    2    1    2    0    0  0.31834538800E+03  0.49909254912E+02  0.74664027280E+02  0.34022133738E+03  0.79631160047E+02 0.  0.
    5000000    2    1    2    0    0 -0.31834538800E+03 -0.49909254912E+02 -0.13813478756E+03  0.69530979345E+03  0.60044963947E+03 0.  0.
        -24    2    4    4    0    0 -0.37506039091E+03 -0.22632847921E+03 -0.19515747706E+03  0.48624407199E+03  0.80324214037E+02 0.  0.
         24    2    4    4    0    0  0.56715002910E+02  0.17641922430E+03  0.57022689503E+02  0.20906572145E+03  0.78208404349E+02 0.  0.
         11    1    3    3    0    0  0.20477018182E+03  0.56856505069E+02  0.78015717964E+02  0.22638449987E+03  0.00000000000E+00 0. -1.
        -12    1    3    3    0    0  0.11357520618E+03 -0.69472501572E+01 -0.33516906844E+01  0.11383683751E+03  0.00000000000E+00 0.  1.
         15    1    5    5    0    0 -0.11141087608E+03 -0.46201261009E+02 -0.20701563020E+02  0.12238730436E+03  0.17770000000E+01 0. -1.
        -16    1    5    5    0    0 -0.26364951484E+03 -0.18012721820E+03 -0.17445591404E+03  0.36385676764E+03  0.00000000000E+00 0.  1.
          4    1    6    6  502    0 -0.17703659120E+02  0.55441956471E+02  0.76770638827E+01  0.58704066243E+02  0.00000000000E+00 0. -1.
         -3    1    6    6    0  502  0.74418662030E+02  0.12097726783E+03  0.49345625620E+02  0.15036165521E+03  0.00000000000E+00 0.  1.
<mgrwt>
<rscale>  0 0.48323451E+03</rscale>
<asrwt>0</asrwt>
<pdfrwt beam="1">  1        1 0.74773875E-01 0.48323451E+03</pdfrwt>
<pdfrwt beam="2">  1       -2 0.84538607E-01 0.48323451E+03</pdfrwt>
<totfact> 0.51133084E+01</totfact>
</mgrwt>
</event>
<event>
12    3  0.1201947E-007  0.1084268E+04  0.7818608E-02  0.9220663E-01
          1   -1    0    0  501    0  0.00000000000E+00  0.00000000000E+00  0.32381134561E+04  0.32381134561E+04  0.00000000000E+00 0. -1.
         -2   -1    0    0    0  501 -0.00000000000E+00 -0.00000000000E+00 -0.38534256344E+03  0.38534256344E+03  0.00000000000E+00 0.  1.
        -24    2    1    2    0    0  0.84091152547E+03 -0.56575569844E+03  0.98685857361E+03  0.14168749640E+04  0.80206703971E+02 0.  0.
    5000000    2    1    2    0    0 -0.84091152547E+03  0.56575569844E+03  0.18659123190E+04  0.22065810555E+04  0.60013287546E+03 0.  0.
        -24    2    4    4    0    0  0.53442889767E+02  0.15701732378E+03  0.21177700042E+03  0.28062788447E+03  0.79949541602E+02 0.  0.
         24    2    4    4    0    0 -0.89435441524E+03  0.40873837467E+03  0.16541353186E+04  0.19259531710E+04  0.78708867162E+02 0.  0.
         11    1    3    3    0    0  0.18718534803E+03 -0.15984084024E+03  0.21220395824E+03  0.32498918231E+03  0.00000000000E+00 0. -1.
        -12    1    3    3    0    0  0.65372617744E+03 -0.40591485820E+03  0.77465461537E+03  0.10918857817E+04  0.00000000000E+00 0.  1.
         15    1    5    5    0    0  0.46488316267E+02  0.15542808916E+03  0.15828923058E+03  0.22666647899E+03  0.17770000000E+01 0. -1.
        -16    1    5    5    0    0  0.69545734997E+01  0.15892346144E+01  0.53487769838E+02  0.53961405481E+02  0.00000000000E+00 0.  1.
          2    1    6    6  502    0 -0.55442439290E+03  0.24305705803E+03  0.94450313659E+03  0.11218508439E+04  0.00000000000E+00 0. -1.
         -1    1    6    6    0  502 -0.33993002233E+03  0.16568131664E+03  0.70963218199E+03  0.80410232712E+03  0.00000000000E+00 0.  1.
<mgrwt>
<rscale>  0 0.10842678E+04</rscale>
<asrwt>0</asrwt>
<pdfrwt beam="1">  1        1 0.49817128E+00 0.10842678E+04</pdfrwt>
<pdfrwt beam="2">  1       -2 0.59283473E-01 0.10842678E+04</pdfrwt>
<totfact> 0.94460145E-01</totfact>
</mgrwt>
</event>
<event>
12    3  0.1201947E-007  0.3891788E+03  0.7818608E-02  0.1047592E+00
          1   -1    0    0  501    0  0.00000000000E+00  0.00000000000E+00  0.10792856448E+04  0.10792856448E+04  0.00000000000E+00 0. -1.
         -2   -1    0    0    0  501 -0.00000000000E+00 -0.00000000000E+00 -0.27159392867E+03  0.27159392867E+03  0.00000000000E+00 0.  1.
        -24    2    1    2    0    0 -0.24154021293E+03 -0.26007398724E+03  0.15282272370E+03  0.39441791179E+03  0.78933839118E+02 0.  0.
    5000000    2    1    2    0    0  0.24154021293E+03  0.26007398724E+03  0.65486899241E+03  0.95646166166E+03  0.59998779964E+03 0.  0.
        -24    2    4    4    0    0  0.50168097271E+01  0.21731735178E+02 -0.98035476803E+02  0.12839735179E+03  0.79859179447E+02 0.  0.
         24    2    4    4    0    0  0.23652340320E+03  0.23834225206E+03  0.75290446921E+03  0.82806430987E+03  0.77942364232E+02 0.  0.
         11    1    3    3    0    0 -0.16004985152E+03 -0.14472095368E+03  0.55193640829E+02  0.22272504887E+03  0.00000000000E+00 0. -1.
        -12    1    3    3    0    0 -0.81490361402E+02 -0.11535303356E+03  0.97629082871E+02  0.17169286291E+03  0.00000000000E+00 0.  1.
         15    1    5    5    0    0 -0.24055823271E+02 -0.20411602567E+02 -0.40775512300E+02  0.51586008616E+02  0.17770000000E+01 0. -1.
        -16    1    5    5    0    0  0.29072632999E+02  0.42143337745E+02 -0.57259964504E+02  0.76811343178E+02  0.00000000000E+00 0.  1.
          2    1    6    6  502    0  0.93918681673E+02  0.65658917804E+02  0.33306485734E+03  0.35222721566E+03  0.00000000000E+00 0. -1.
         -1    1    6    6    0  502  0.14260472153E+03  0.17268333426E+03  0.41983961187E+03  0.47583709421E+03  0.00000000000E+00 0.  1.
<mgrwt>
<rscale>  0 0.38917875E+03</rscale>
<asrwt>0</asrwt>
<pdfrwt beam="1">  1        1 0.16604394E+00 0.38917875E+03</pdfrwt>
<pdfrwt beam="2">  1       -2 0.41783682E-01 0.38917875E+03</pdfrwt>
<totfact> 0.66592077E+01</totfact>
</mgrwt>
</event>
<event>
12    3  0.1201947E-007  0.4015318E+03  0.7818608E-02  0.1043251E+00
          1   -1    0    0  501    0  0.00000000000E+00  0.00000000000E+00  0.13733512449E+03  0.13733512449E+03  0.00000000000E+00 0. -1.
         -2   -1    0    0    0  501 -0.00000000000E+00 -0.00000000000E+00 -0.21815067434E+04  0.21815067434E+04  0.00000000000E+00 0.  1.
        -24    2    1    2    0    0 -0.29269265096E+03 -0.96839943582E+02 -0.11812401657E+04  0.12234402067E+04  0.80191319457E+02 0.  0.
    5000000    2    1    2    0    0  0.29269265096E+03  0.96839943582E+02 -0.86293145322E+03  0.10954016612E+04  0.60017259499E+03 0.  0.
        -24    2    4    4    0    0  0.14452403073E+03  0.23598852224E+03 -0.10513423190E+03  0.30670172778E+03  0.80218233700E+02 0.  0.
         24    2    4    4    0    0  0.14816862023E+03 -0.13914857866E+03 -0.75779722132E+03  0.78869993341E+03  0.80465454405E+02 0.  0.
         13    1    3    3    0    0 -0.19528121915E+03 -0.38502663637E+02 -0.63260761395E+03  0.66318142532E+03  0.00000000000E+00 0. -1.
        -14    1    3    3    0    0 -0.97411431804E+02 -0.58337279945E+02 -0.54863255174E+03  0.56025878137E+03  0.00000000000E+00 0.  1.
         15    1    5    5    0    0  0.98416617381E+02  0.15075422944E+03 -0.10763314490E+03  0.20976348557E+03  0.17770000000E+01 0. -1.
        -16    1    5    5    0    0  0.46107413348E+02  0.85234292809E+02  0.24989130018E+01  0.96938242208E+02  0.00000000000E+00 0.  1.
          2    1    6    6  502    0  0.12359119447E+02 -0.48971928129E+02 -0.26090425746E+03  0.26574805576E+03  0.00000000000E+00 0. -1.
         -1    1    6    6    0  502  0.13580950078E+03 -0.90176650533E+02 -0.49689296386E+03  0.52295187765E+03  0.00000000000E+00 0.  1.
<mgrwt>
<rscale>  0 0.40153183E+03</rscale>
<asrwt>0</asrwt>
<pdfrwt beam="1">  1        1 0.21128479E-01 0.40153183E+03</pdfrwt>
<pdfrwt beam="2">  1       -2 0.33561645E+00 0.40153183E+03</pdfrwt>
<totfact> 0.45432575E+00</totfact>
</mgrwt>
</event>
<event>
12    3  0.1201947E-007  0.4995688E+03  0.7818608E-02  0.1013892E+00
          1   -1    0    0  501    0  0.00000000000E+00  0.00000000000E+00  0.14791484111E+04  0.14791484111E+04  0.00000000000E+00 0. -1.
         -2   -1    0    0    0  501 -0.00000000000E+00 -0.00000000000E+00 -0.21444472868E+03  0.21444472868E+03  0.00000000000E+00 0.  1.
        -24    2    1    2    0    0 -0.17817369078E+03 -0.27618773913E+03  0.79464916312E+03  0.86364311464E+03  0.79916241633E+02 0.  0.
    5000000    2    1    2    0    0  0.17817369078E+03  0.27618773913E+03  0.47005451927E+03  0.82995002511E+03  0.59986687002E+03 0.  0.
        -24    2    4    4    0    0  0.37863156412E+03  0.25038513584E+03  0.37518079461E+03  0.59357198924E+03  0.74246213139E+02 0.  0.
         24    2    4    4    0    0 -0.20045787333E+03  0.25802603292E+02  0.94873724658E+02  0.23637803587E+03  0.77617130159E+02 0.  0.
         13    1    3    3    0    0 -0.14346149834E+03 -0.21143799346E+03  0.52069687254E+03  0.58001074099E+03  0.00000000000E+00 0. -1.
        -14    1    3    3    0    0 -0.34712192443E+02 -0.64749745669E+02  0.27395229058E+03  0.28363237365E+03  0.00000000000E+00 0.  1.
         15    1    5    5    0    0  0.32022044004E+02  0.13429792500E+02  0.77179141688E+01  0.35615931223E+02  0.17770000000E+01 0. -1.
        -16    1    5    5    0    0  0.34660952011E+03  0.23695534334E+03  0.36746288044E+03  0.55795605801E+03  0.00000000000E+00 0.  1.
          4    1    6    6  502    0 -0.11106798553E+03 -0.23370690323E+02  0.61159834222E+02  0.12892948421E+03  0.00000000000E+00 0. -1.
         -3    1    6    6    0  502 -0.89389887800E+02  0.49173293615E+02  0.33713890436E+02  0.10744855166E+03  0.00000000000E+00 0.  1.
<mgrwt>
<rscale>  0 0.49956877E+03</rscale>
<asrwt>0</asrwt>
<pdfrwt beam="1">  1        1 0.22756129E+00 0.49956877E+03</pdfrwt>
<pdfrwt beam="2">  1       -2 0.32991498E-01 0.49956877E+03</pdfrwt>
<totfact> 0.53818764E+01</totfact>
</mgrwt>
</event>
<event>
12    3  0.1201947E-007  0.1491438E+04  0.7818608E-02  0.8890167E-01
         -2   -1    0    0    0  501 -0.00000000000E+00  0.00000000000E+00  0.13041451998E+04  0.13041451998E+04  0.00000000000E+00 0.  1.
          1   -1    0    0  501    0  0.00000000000E+00 -0.00000000000E+00 -0.24453092649E+04  0.24453092649E+04  0.00000000000E+00 0. -1.
        -24    2    1    2    0    0 -0.80608070482E+03 -0.12303701022E+04  0.41011978237E+03  0.15291003507E+04  0.79830794525E+02 0.  0.
    5000000    2    1    2    0    0  0.80608070482E+03  0.12303701022E+04 -0.15512838475E+04  0.22203541139E+04  0.59992843296E+03 0.  0.
        -24    2    4    4    0    0  0.84267218252E+02  0.37565593367E+03 -0.73187249135E+03  0.83078919588E+03  0.79718252759E+02 0.  0.
         24    2    4    4    0    0  0.72181348656E+03  0.85471416850E+03 -0.81941135612E+03  0.13895649180E+04  0.88908220145E+02 0.  0.
         11    1    3    3    0    0 -0.50297879395E+03 -0.83617815679E+03  0.27601051380E+03  0.10140825315E+04  0.00000000000E+00 0. -1.
        -12    1    3    3    0    0 -0.30310191086E+03 -0.39419194537E+03  0.13410926857E+03  0.51501781919E+03  0.00000000000E+00 0.  1.
         15    1    5    5    0    0  0.38491467995E+02  0.68566663488E+02 -0.10448940080E+03  0.13078292342E+03  0.17770000000E+01 0. -1.
        -16    1    5    5    0    0  0.45775750257E+02  0.30708927018E+03 -0.62738309055E+03  0.70000627246E+03  0.00000000000E+00 0.  1.
          4    1    6    6  502    0  0.30634798654E+03  0.41399844388E+03 -0.41317665278E+03  0.66027172194E+03  0.00000000000E+00 0. -1.
         -3    1    6    6    0  502  0.41546550002E+03  0.44071572462E+03 -0.40623470333E+03  0.72929319606E+03  0.00000000000E+00 0.  1.
<mgrwt>
<rscale>  0 0.14914379E+04</rscale>
<asrwt>0</asrwt>
<pdfrwt beam="1">  1        1 0.37620142E+00 0.14914379E+04</pdfrwt>
<pdfrwt beam="2">  1       -2 0.20063772E+00 0.14914379E+04</pdfrwt>
<totfact> 0.16096924E-01</totfact>
</mgrwt>
</event>
<event>
12    3  0.1201947E-007  0.8429823E+03  0.7818608E-02  0.9499805E-01
          1   -1    0    0  501    0  0.00000000000E+00  0.00000000000E+00  0.15458346520E+04  0.15458346520E+04  0.00000000000E+00 0. -1.
         -2   -1    0    0    0  501 -0.00000000000E+00 -0.00000000000E+00 -0.66257411330E+03  0.66257411330E+03  0.00000000000E+00 0.  1.
        -24    2    1    2    0    0  0.78350720294E+03 -0.76472894283E+02 -0.11825510632E+03  0.80029785052E+03  0.82223711656E+02 0.  0.
    5000000    2    1    2    0    0 -0.78350720294E+03  0.76472894283E+02  0.10015156451E+04  0.14081109148E+04  0.60000926703E+03 0.  0.
        -24    2    4    4    0    0 -0.25113522051E+03  0.22787415548E+03  0.12774901682E+03  0.37085101111E+03  0.78836104836E+02 0.  0.
         24    2    4    4    0    0 -0.53237198243E+03 -0.15140126120E+03  0.87376662825E+03  0.10372599037E+04  0.78087884090E+02 0.  0.
         13    1    3    3    0    0  0.19661557187E+03 -0.39459200189E+02 -0.34818559893E+00  0.20053636283E+03  0.00000000000E+00 0. -1.
        -14    1    3    3    0    0  0.58689163106E+03 -0.37013694095E+02 -0.11790692073E+03  0.59976148769E+03  0.00000000000E+00 0.  1.
         15    1    5    5    0    0 -0.18660194598E+03  0.17707930638E+03  0.13094215474E+03  0.28866307801E+03  0.17770000000E+01 0. -1.
        -16    1    5    5    0    0 -0.64533274528E+02  0.50794849106E+02 -0.31931379214E+01  0.82187933097E+02  0.00000000000E+00 0.  1.
          4    1    6    6  502    0 -0.33462572646E+03 -0.59271437296E+02  0.50195090808E+03  0.60617010336E+03  0.00000000000E+00 0. -1.
         -3    1    6    6    0  502 -0.19774625597E+03 -0.92129823905E+02  0.37181572016E+03  0.43108980035E+03  0.00000000000E+00 0.  1.
<mgrwt>
<rscale>  0 0.84298228E+03</rscale>
<asrwt>0</asrwt>
<pdfrwt beam="1">  1        1 0.23782072E+00 0.84298228E+03</pdfrwt>
<pdfrwt beam="2">  1       -2 0.10193448E+00 0.84298228E+03</pdfrwt>
<totfact> 0.42968336E+00</totfact>
</mgrwt>
</event>
<event>
12    3  0.1201947E-007  0.7066981E+03  0.7818608E-02  0.9705846E-01
         -2   -1    0    0    0  501 -0.00000000000E+00  0.00000000000E+00  0.97618798826E+03  0.97618798826E+03  0.00000000000E+00 0.  1.
          1   -1    0    0  501    0  0.00000000000E+00 -0.00000000000E+00 -0.79107683026E+03  0.79107683026E+03  0.00000000000E+00 0. -1.
        -24    2    1    2    0    0  0.13416691827E+03 -0.67880138115E+03  0.43079511348E+03  0.81905503268E+03  0.80589327767E+02 0.  0.
    5000000    2    1    2    0    0 -0.13416691827E+03  0.67880138115E+03 -0.24568395547E+03  0.94820978584E+03  0.59997426193E+03 0.  0.
        -24    2    4    4    0    0 -0.12629131098E+03  0.30817986985E+03  0.17298782030E+03  0.38333338226E+03  0.78072841488E+02 0.  0.
         24    2    4    4    0    0 -0.78756072919E+01  0.37062151131E+03 -0.41867177578E+03  0.56487640358E+03  0.79855905568E+02 0.  0.
         13    1    3    3    0    0  0.32770194266E+02 -0.36376183070E+03  0.24020827906E+03  0.43714593952E+03  0.00000000000E+00 0. -1.
        -14    1    3    3    0    0  0.10139672400E+03 -0.31503955045E+03  0.19058683441E+03  0.38190909316E+03  0.00000000000E+00 0.  1.
         15    1    5    5    0    0 -0.40788925934E+02  0.18315699437E+03  0.70525227944E+02  0.20046742022E+03  0.17770000000E+01 0. -1.
        -16    1    5    5    0    0 -0.85502385041E+02  0.12502287548E+03  0.10246259236E+03  0.18286596204E+03  0.00000000000E+00 0.  1.
          4    1    6    6  502    0  0.20120320425E+02  0.31665713747E+03 -0.36648413591E+03  0.48475477499E+03  0.00000000000E+00 0. -1.
         -3    1    6    6    0  502 -0.27995927717E+02  0.53964373841E+02 -0.52187639866E+02  0.80121628588E+02  0.00000000000E+00 0.  1.
<mgrwt>
<rscale>  0 0.70669808E+03</rscale>
<asrwt>0</asrwt>
<pdfrwt beam="1">  1        1 0.12170413E+00 0.70669808E+03</pdfrwt>
<pdfrwt beam="2">  1       -2 0.15018277E+00 0.70669808E+03</pdfrwt>
<totfact> 0.60594288E+00</totfact>
</mgrwt>
</event>
<event>
12    3  0.1201947E-007  0.4368380E+03  0.7818608E-02  0.1031721E+00
          1   -1    0    0  501    0  0.00000000000E+00  0.00000000000E+00  0.30608019950E+03  0.30608019950E+03  0.00000000000E+00 0. -1.
         -2   -1    0    0    0  501 -0.00000000000E+00 -0.00000000000E+00 -0.11609126617E+04  0.11609126617E+04  0.00000000000E+00 0.  1.
        -24    2    1    2    0    0  0.21162994467E+03  0.32004434377E+03 -0.58675127115E+03  0.70594065549E+03  0.82822336511E+02 0.  0.
    5000000    2    1    2    0    0 -0.21162994467E+03 -0.32004434377E+03 -0.26808119102E+03  0.76105220567E+03  0.60009775814E+03 0.  0.
        -24    2    4    4    0    0 -0.26601885672E+03 -0.29322232434E+03 -0.41703591581E+03  0.58045740313E+03  0.79161089871E+02 0.  0.
         24    2    4    4    0    0  0.54388912052E+02 -0.26822019427E+02  0.14895472479E+03  0.18059480254E+03  0.82154721027E+02 0.  0.
         11    1    3    3    0    0  0.11139518412E+02  0.36264468304E+02 -0.25056015395E+02  0.45464320508E+02  0.00000000000E+00 0. -1.
        -12    1    3    3    0    0  0.20049042626E+03  0.28377987547E+03 -0.56169525575E+03  0.66047633499E+03  0.00000000000E+00 0.  1.
         15    1    5    5    0    0 -0.25560468110E+03 -0.24911349192E+03 -0.38475312597E+03  0.52481369125E+03  0.17770000000E+01 0. -1.
        -16    1    5    5    0    0 -0.10414175628E+02 -0.44108832425E+02 -0.32282789845E+02  0.55643711883E+02  0.00000000000E+00 0.  1.
          2    1    6    6  502    0  0.38978170519E+02  0.14768106795E+02  0.12145404833E+03  0.12840747880E+03  0.00000000000E+00 0. -1.
         -1    1    6    6    0  502  0.15410741532E+02 -0.41590126222E+02  0.27500676461E+02  0.52187323744E+02  0.00000000000E+00 0.  1.
<mgrwt>
<rscale>  0 0.43683800E+03</rscale>
<asrwt>0</asrwt>
<pdfrwt beam="1">  1        1 0.47089262E-01 0.43683800E+03</pdfrwt>
<pdfrwt beam="2">  1       -2 0.17860195E+00 0.43683800E+03</pdfrwt>
<totfact> 0.14616118E+01</totfact>
</mgrwt>
</event>
<event>
12    3  0.1201947E-007  0.6205839E+03  0.7818608E-02  0.9863598E-01
          1   -1    0    0  501    0  0.00000000000E+00  0.00000000000E+00  0.13341580278E+04  0.13341580278E+04  0.00000000000E+00 0. -1.
         -2   -1    0    0    0  501 -0.00000000000E+00 -0.00000000000E+00 -0.53471700079E+03  0.53471700079E+03  0.00000000000E+00 0.  1.
        -24    2    1    2    0    0 -0.73530216749E+02 -0.59868917233E+03 -0.11562117192E+03  0.61933907648E+03  0.79857488120E+02 0.  0.
    5000000    2    1    2    0    0  0.73530216749E+02  0.59868917233E+03  0.91506219893E+03  0.12495359521E+04  0.60013819232E+03 0.  0.
        -24    2    4    4    0    0  0.14305293084E+03  0.41747805377E+03  0.93770571033E+03  0.10395095149E+04  0.80845321117E+02 0.  0.
         24    2    4    4    0    0 -0.69522714095E+02  0.18121111856E+03 -0.22643511397E+02  0.21002643723E+03  0.76990249146E+02 0.  0.
         13    1    3    3    0    0 -0.38928245906E+02 -0.13595599444E+03 -0.53379427336E+02  0.15115820856E+03  0.00000000000E+00 0. -1.
        -14    1    3    3    0    0 -0.34601970843E+02 -0.46273317790E+03 -0.62241744583E+02  0.46818086791E+03  0.00000000000E+00 0.  1.
         15    1    5    5    0    0  0.77895498169E+02  0.25272187012E+03  0.64846970293E+03  0.70032290096E+03  0.17770000000E+01 0. -1.
        -16    1    5    5    0    0  0.65157432675E+02  0.16475618365E+03  0.28923600740E+03  0.33918661392E+03  0.00000000000E+00 0.  1.
          2    1    6    6  502    0 -0.20639774158E+02  0.54474374873E+02 -0.43359189694E+02  0.72618710578E+02  0.00000000000E+00 0. -1.
         -1    1    6    6    0  502 -0.48882939937E+02  0.12673674369E+03  0.20715678297E+02  0.13740772666E+03  0.00000000000E+00 0.  1.
<mgrwt>
<rscale>  0 0.62058389E+03</rscale>
<asrwt>0</asrwt>
<pdfrwt beam="1">  1        1 0.20525508E+00 0.62058389E+03</pdfrwt>
<pdfrwt beam="2">  1       -2 0.82264154E-01 0.62058389E+03</pdfrwt>
<totfact> 0.10209667E+01</totfact>
</mgrwt>
</event>
<event>
12    3  0.1201947E-007  0.8874398E+03  0.7818608E-02  0.9441420E-01
         -2   -1    0    0    0  501 -0.00000000000E+00  0.00000000000E+00  0.10927797368E+04  0.10927797368E+04  0.00000000000E+00 0.  1.
          1   -1    0    0  501    0  0.00000000000E+00 -0.00000000000E+00 -0.75726105341E+03  0.75726105341E+03  0.00000000000E+00 0. -1.
        -24    2    1    2    0    0  0.15739314486E+03  0.77374541317E+03 -0.26850111998E+02  0.79413945306E+03  0.80510719337E+02 0.  0.
    5000000    2    1    2    0    0 -0.15739314486E+03 -0.77374541317E+03  0.36236879538E+03  0.10559013371E+04  0.60013492104E+03 0.  0.
        -24    2    4    4    0    0 -0.37620478209E+03 -0.43944851596E+03  0.20096461926E+03  0.61750019678E+03  0.79212868767E+02 0.  0.
         24    2    4    4    0    0  0.21881163724E+03 -0.33429689721E+03  0.16140417613E+03  0.43840114036E+03  0.80692649748E+02 0.  0.
         13    1    3    3    0    0  0.10311370193E+03  0.34179688837E+03 -0.34949055092E+02  0.35871853155E+03  0.00000000000E+00 0. -1.
        -14    1    3    3    0    0  0.54279442922E+02  0.43194852480E+03  0.80989430939E+01  0.43542092150E+03  0.00000000000E+00 0.  1.
         15    1    5    5    0    0 -0.20570277995E+03 -0.21753690751E+03  0.65011561246E+02  0.30637493473E+03  0.17770000000E+01 0. -1.
        -16    1    5    5    0    0 -0.17050200214E+03 -0.22191160845E+03  0.13595305801E+03  0.31112526204E+03  0.00000000000E+00 0.  1.
          2    1    6    6  502    0  0.13958241144E+03 -0.16337570460E+03  0.54081631100E+02  0.22158450591E+03  0.00000000000E+00 0. -1.
         -1    1    6    6    0  502  0.79229225802E+02 -0.17092119261E+03  0.10732254503E+03  0.21681663445E+03  0.00000000000E+00 0.  1.
<mgrwt>
<rscale>  0 0.88743984E+03</rscale>
<asrwt>0</asrwt>
<pdfrwt beam="1">  1        1 0.11650170E+00 0.88743984E+03</pdfrwt>
<pdfrwt beam="2">  1       -2 0.16811996E+00 0.88743984E+03</pdfrwt>
<totfact> 0.46820527E+00</totfact>
</mgrwt>
</event>
<event>
12    3  0.1629531E-007  0.6940292E+03  0.7818608E-02  0.9727498E-01
          1   -1    0    0  501    0  0.00000000000E+00  0.00000000000E+00  0.14429415016E+04  0.14429415016E+04  0.00000000000E+00 0. -1.
         -2   -1    0    0    0  501 -0.00000000000E+00 -0.00000000000E+00 -0.37104575881E+03  0.37104575881E+03  0.00000000000E+00 0.  1.
        -24    2    1    2    0    0  0.30899830568E+03 -0.51555549809E+03  0.54065483157E+03  0.81227590259E+03  0.78784963692E+02 0.  0.
    5000000    2    1    2    0    0 -0.30899830568E+03  0.51555549809E+03  0.53124091125E+03  0.10017113578E+04  0.59994275904E+03 0.  0.
        -24    2    4    4    0    0 -0.27123963077E+03  0.61533063110E+03  0.54295220386E+03  0.86798702123E+03  0.80010314865E+02 0.  0.
         24    2    4    4    0    0 -0.37758674916E+02 -0.99775133014E+02 -0.11711292604E+02  0.13372433661E+03  0.79776244135E+02 0.  0.
         11    1    3    3    0    0  0.14491987791E+03 -0.18758974761E+03  0.24827735817E+03  0.34326859892E+03  0.00000000000E+00 0. -1.
        -12    1    3    3    0    0  0.16407842777E+03 -0.32796575048E+03  0.29237747339E+03  0.46900730367E+03  0.00000000000E+00 0.  1.
         15    1    5    5    0    0 -0.16831359178E+03  0.35067875905E+03  0.26530983023E+03  0.47084766217E+03  0.17770000000E+01 0. -1.
        -16    1    5    5    0    0 -0.10292603898E+03  0.26465187205E+03  0.27764237363E+03  0.39713935906E+03  0.00000000000E+00 0.  1.
          2    1    6    6  502    0 -0.47891987852E+01  0.13545935420E+01 -0.25935923898E+02  0.26409155555E+02  0.00000000000E+00 0. -1.
         -1    1    6    6    0  502 -0.32969476131E+02 -0.10112972656E+03  0.14224631294E+02  0.10731518106E+03  0.00000000000E+00 0.  1.
<mgrwt>
<rscale>  0 0.69402915E+03</rscale>
<asrwt>0</asrwt>
<pdfrwt beam="1">  1        1 0.22199100E+00 0.69402915E+03</pdfrwt>
<pdfrwt beam="2">  1       -2 0.57083963E-01 0.69402915E+03</pdfrwt>
<totfact> 0.18766213E+01</totfact>
</mgrwt>
</event>
<event>
12    3  0.1201947E-007  0.4569148E+03  0.7818608E-02  0.1025680E+00
         -2   -1    0    0    0  501 -0.00000000000E+00  0.00000000000E+00  0.69167756704E+03  0.69167756704E+03  0.00000000000E+00 0.  1.
          1   -1    0    0  501    0  0.00000000000E+00 -0.00000000000E+00 -0.96484087166E+03  0.96484087166E+03  0.00000000000E+00 0. -1.
        -24    2    1    2    0    0 -0.38424390161E+03 -0.13229599492E+02 -0.71664738414E+03  0.81716272499E+03  0.79706007887E+02 0.  0.
    5000000    2    1    2    0    0  0.38424390161E+03  0.13229599492E+02  0.44348407953E+03  0.83935571371E+03  0.60001790567E+03 0.  0.
        -24    2    4    4    0    0  0.39758772892E+03  0.10381981602E+03  0.42895985345E+02  0.42075707544E+03  0.79636013162E+02 0.  0.
         24    2    4    4    0    0 -0.13343827311E+02 -0.90590216527E+02  0.40058809418E+03  0.41859863827E+03  0.79808230779E+02 0.  0.
         13    1    3    3    0    0 -0.27311484324E+03 -0.41789152770E+02 -0.53887016957E+03  0.60557337337E+03  0.00000000000E+00 0. -1.
        -14    1    3    3    0    0 -0.11112905837E+03  0.28559553278E+02 -0.17777721458E+03  0.21158935162E+03  0.00000000000E+00 0.  1.
         15    1    5    5    0    0  0.17376612510E+03  0.15415052953E+02 -0.85668333098E+01  0.17466779454E+03  0.17770000000E+01 0. -1.
        -16    1    5    5    0    0  0.22382160382E+03  0.88404763066E+02  0.51462818655E+02  0.24608928090E+03  0.00000000000E+00 0.  1.
          4    1    6    6  502    0 -0.19644318733E+02 -0.29980607096E+01  0.20709402375E+02  0.28701340966E+02  0.00000000000E+00 0. -1.
         -3    1    6    6    0  502  0.63004914218E+01 -0.87592155818E+02  0.37987869181E+03  0.38989729730E+03  0.00000000000E+00 0.  1.
<mgrwt>
<rscale>  0 0.45691478E+03</rscale>
<asrwt>0</asrwt>
<pdfrwt beam="1">  1        1 0.14843706E+00 0.45691478E+03</pdfrwt>
<pdfrwt beam="2">  1       -2 0.10641193E+00 0.45691478E+03</pdfrwt>
<totfact> 0.10763773E+01</totfact>
</mgrwt>
</event>
<event>
12    3  0.1201947E-007  0.6184505E+03  0.7818608E-02  0.9867850E-01
         -2   -1    0    0    0  501 -0.00000000000E+00  0.00000000000E+00  0.20222693328E+04  0.20222693328E+04  0.00000000000E+00 0.  1.
          1   -1    0    0  501    0  0.00000000000E+00 -0.00000000000E+00 -0.25337253085E+03  0.25337253085E+03  0.00000000000E+00 0. -1.
        -24    2    1    2    0    0  0.13747539117E+03 -0.56948707393E+03  0.79004156154E+03  0.98669820456E+03  0.78693502785E+02 0.  0.
    5000000    2    1    2    0    0 -0.13747539117E+03  0.56948707393E+03  0.97885524037E+03  0.12889436590E+04  0.60000263668E+03 0.  0.
        -24    2    4    4    0    0 -0.16232414345E+03  0.55108365336E+03  0.10381652013E+04  0.11891827817E+04  0.79538561038E+02 0.  0.
         24    2    4    4    0    0  0.24848752276E+02  0.18403420569E+02 -0.59309960893E+02  0.99760877314E+02  0.74016314438E+02 0.  0.
         13    1    3    3    0    0  0.35610571356E+02 -0.23649574641E+03  0.26827063394E+03  0.35939878115E+03  0.00000000000E+00 0. -1.
        -14    1    3    3    0    0  0.10186481982E+03 -0.33299132752E+03  0.52177092760E+03  0.62729942341E+03  0.00000000000E+00 0.  1.
         15    1    5    5    0    0 -0.78660390771E+02  0.23255661101E+03  0.36659855683E+03  0.44121162043E+03  0.17770000000E+01 0. -1.
        -16    1    5    5    0    0 -0.83663752677E+02  0.31852704235E+03  0.67156664443E+03  0.74797116130E+03  0.00000000000E+00 0.  1.
          4    1    6    6  502    0 -0.22985487751E+02 -0.11212272338E+01 -0.36803430552E+02  0.43406016842E+02  0.00000000000E+00 0. -1.
         -3    1    6    6    0  502  0.47834240028E+02  0.19524647803E+02 -0.22506530341E+02  0.56354860472E+02  0.00000000000E+00 0.  1.
<mgrwt>
<rscale>  0 0.61845049E+03</rscale>
<asrwt>0</asrwt>
<pdfrwt beam="1">  1        1 0.38980391E-01 0.61845049E+03</pdfrwt>
<pdfrwt beam="2">  1       -2 0.31111835E+00 0.61845049E+03</pdfrwt>
<totfact> 0.27676790E+00</totfact>
</mgrwt>
</event>
<event>
12    3  0.1201947E-007  0.1755093E+03  0.7818608E-02  0.1172221E+00
          1   -1    0    0  501    0  0.00000000000E+00  0.00000000000E+00  0.18972061894E+04  0.18972061894E+04  0.00000000000E+00 0. -1.
         -2   -1    0    0    0  501 -0.00000000000E+00 -0.00000000000E+00 -0.72031945158E+02  0.72031945158E+02  0.00000000000E+00 0.  1.
        -24    2    1    2    0    0  0.36425804450E+01  0.94157977145E+02  0.21068011792E+03  0.24428618968E+03  0.80066455696E+02 0.  0.
    5000000    2    1    2    0    0 -0.36425804450E+01 -0.94157977145E+02  0.16144941263E+04  0.17249519449E+04  0.59999077923E+03 0.  0.
        -24    2    4    4    0    0  0.14455800097E+02  0.44132381194E+02 -0.95677651763E+01  0.92961176473E+02  0.79959996088E+02 0.  0.
         24    2    4    4    0    0 -0.18098380542E+02 -0.13829035834E+03  0.16240618915E+04  0.16319907684E+04  0.79781364782E+02 0.  0.
         11    1    3    3    0    0  0.30750071194E+02  0.11995378496E+02  0.89479398355E+02  0.95373050248E+02  0.00000000000E+00 0. -1.
        -12    1    3    3    0    0 -0.27107490749E+02  0.82162598649E+02  0.12120071957E+03  0.14891313943E+03  0.00000000000E+00 0.  1.
         15    1    5    5    0    0  0.35608913855E+02  0.42134524896E+02  0.18090508864E+02  0.58083880501E+02  0.17770000000E+01 0. -1.
        -16    1    5    5    0    0 -0.21153113758E+02  0.19978562984E+01 -0.27658274040E+02  0.34877295972E+02  0.00000000000E+00 0.  1.
          4    1    6    6  502    0  0.24725586038E+02 -0.31866358549E+02  0.63898590041E+03  0.64025760467E+03  0.00000000000E+00 0. -1.
         -3    1    6    6    0  502 -0.42823966580E+02 -0.10642399979E+03  0.98507599107E+03  0.99173316372E+03  0.00000000000E+00 0.  1.
<mgrwt>
<rscale>  0 0.17550928E+03</rscale>
<asrwt>0</asrwt>
<pdfrwt beam="1">  1        1 0.29187784E+00 0.17550928E+03</pdfrwt>
<pdfrwt beam="2">  1       -2 0.11081839E-01 0.17550928E+03</pdfrwt>
<totfact> 0.19999908E+02</totfact>
</mgrwt>
</event>
<event>
12    3  0.1201947E-007  0.3677750E+03  0.7818608E-02  0.1055547E+00
          3   -1    0    0  501    0  0.00000000000E+00  0.00000000000E+00  0.14674858775E+04  0.14674858775E+04  0.00000000000E+00 0. -1.
         -4   -1    0    0    0  501 -0.00000000000E+00 -0.00000000000E+00 -0.11355847295E+03  0.11355847295E+03  0.00000000000E+00 0.  1.
        -24    2    1    2    0    0  0.76558641097E+02  0.15703908503E+03  0.36013233513E+03  0.40714612831E+03  0.74499471352E+02 0.  0.
    5000000    2    1    2    0    0 -0.76558641097E+02 -0.15703908503E+03  0.99379506942E+03  0.11738982221E+04  0.59990490597E+03 0.  0.
        -24    2    4    4    0    0 -0.10808790644E+02 -0.34148339764E+03  0.84612885297E+03  0.91603049768E+03  0.80312489840E+02 0.  0.
         24    2    4    4    0    0 -0.65749850453E+02  0.18444431261E+03  0.14766621645E+03  0.25786772447E+03  0.79672483037E+02 0.  0.
         11    1    3    3    0    0 -0.74373672905E+01  0.46154444632E+02  0.57747717140E+02  0.74299031127E+02  0.00000000000E+00 0. -1.
        -12    1    3    3    0    0  0.83996008387E+02  0.11088464040E+03  0.30238461799E+03  0.33284709718E+03  0.00000000000E+00 0.  1.
         15    1    5    5    0    0 -0.11010719435E+02 -0.48258616663E+02  0.20706337986E+03  0.21290498123E+03  0.17770000000E+01 0. -1.
        -16    1    5    5    0    0  0.20192879158E+00 -0.29322478098E+03  0.63906547311E+03  0.70312551645E+03  0.00000000000E+00 0.  1.
          4    1    6    6  502    0 -0.74721053995E+02  0.11649754966E+03  0.12259249634E+03  0.18488871016E+03  0.00000000000E+00 0. -1.
         -3    1    6    6    0  502  0.89712035415E+01  0.67946762956E+02  0.25073720103E+02  0.72979014305E+02  0.00000000000E+00 0.  1.
<mgrwt>
<rscale>  0 0.36777500E+03</rscale>
<asrwt>0</asrwt>
<pdfrwt beam="1">  1        3 0.22576704E+00 0.36777500E+03</pdfrwt>
<pdfrwt beam="2">  1       -4 0.17470535E-01 0.36777500E+03</pdfrwt>
<totfact> 0.69631702E+00</totfact>
</mgrwt>
</event>
<event>
12    3  0.1201947E-007  0.1011992E+04  0.7818608E-02  0.9295490E-01
          1   -1    0    0  501    0  0.00000000000E+00  0.00000000000E+00  0.73453240476E+03  0.73453240476E+03  0.00000000000E+00 0. -1.
         -2   -1    0    0    0  501 -0.00000000000E+00 -0.00000000000E+00 -0.26934757258E+04  0.26934757258E+04  0.00000000000E+00 0.  1.
        -24    2    1    2    0    0  0.48863918754E+03  0.88162757105E+03 -0.20142842752E+04  0.22536519035E+04  0.74634650120E+02 0.  0.
    5000000    2    1    2    0    0 -0.48863918754E+03 -0.88162757105E+03  0.55340954131E+02  0.11743562271E+04  0.60001208103E+03 0.  0.
        -24    2    4    4    0    0 -0.25940720109E+03 -0.52509319371E+03 -0.25500248687E+03  0.64376687124E+03  0.79965981105E+02 0.  0.
         24    2    4    4    0    0 -0.22923198645E+03 -0.35653437734E+03  0.31034344100E+03  0.53058935590E+03  0.74484544634E+02 0.  0.
         11    1    3    3    0    0  0.17990439389E+03  0.31153440778E+03 -0.64187336736E+03  0.73581295035E+03  0.00000000000E+00 0. -1.
        -12    1    3    3    0    0  0.30873479365E+03  0.57009316326E+03 -0.13724109078E+04  0.15178389531E+04  0.00000000000E+00 0.  1.
         15    1    5    5    0    0 -0.19844317297E+03 -0.34332864547E+03 -0.14193211793E+03  0.42119132888E+03  0.17770000000E+01 0. -1.
        -16    1    5    5    0    0 -0.60964028121E+02 -0.18176454824E+03 -0.11307036894E+03  0.22257554235E+03  0.00000000000E+00 0.  1.
          4    1    6    6  502    0 -0.52043794804E+02 -0.13005634720E+03  0.13033646649E+03  0.19133950068E+03  0.00000000000E+00 0. -1.
         -1    1    6    6    0  502 -0.17718819165E+03 -0.22647803014E+03  0.18000697451E+03  0.33924985522E+03  0.00000000000E+00 0.  1.
<mgrwt>
<rscale>  0 0.10119916E+04</rscale>
<asrwt>0</asrwt>
<pdfrwt beam="1">  1        1 0.11300499E+00 0.10119916E+04</pdfrwt>
<pdfrwt beam="2">  1       -2 0.41438088E+00 0.10119916E+04</pdfrwt>
<totfact> 0.13513693E-01</totfact>
</mgrwt>
</event>
<event>
12    3  0.1201947E-007  0.1096286E+04  0.7818608E-02  0.9208820E-01
          1   -1    0    0  501    0  0.00000000000E+00  0.00000000000E+00  0.20826559489E+04  0.20826559489E+04  0.00000000000E+00 0. -1.
         -2   -1    0    0    0  501 -0.00000000000E+00 -0.00000000000E+00 -0.10215596669E+04  0.10215596669E+04  0.00000000000E+00 0.  1.
        -24    2    1    2    0    0  0.10788589919E+04  0.16991957870E+03 -0.41641371237E+03  0.11714066234E+04  0.77354444016E+02 0.  0.
    5000000    2    1    2    0    0 -0.10788589919E+04 -0.16991957870E+03  0.14775099943E+04  0.19328089923E+04  0.59992118634E+03 0.  0.
        -24    2    4    4    0    0 -0.66721475166E+03 -0.12412999635E+03  0.43815946902E+03  0.81103993832E+03  0.72237666215E+02 0.  0.
         24    2    4    4    0    0 -0.41164424019E+03 -0.45789582343E+02  0.10393505253E+04  0.11217690540E+04  0.81047082970E+02 0.  0.
         13    1    3    3    0    0  0.37135887533E+03  0.90473312692E+02 -0.16588945879E+03  0.41666790989E+03  0.00000000000E+00 0. -1.
        -14    1    3    3    0    0  0.70750011652E+03  0.79446266003E+02 -0.25052425358E+03  0.75473871352E+03  0.00000000000E+00 0.  1.
         15    1    5    5    0    0 -0.47806307434E+03 -0.88330471944E+02  0.35153392096E+03  0.59993818901E+03  0.17770000000E+01 0. -1.
        -16    1    5    5    0    0 -0.18915167732E+03 -0.35799524409E+02  0.86625548058E+02  0.21110174930E+03  0.00000000000E+00 0.  1.
          2    1    6    6  502    0 -0.25164626461E+03 -0.61248117031E+02  0.58309186721E+03  0.63802296192E+03  0.00000000000E+00 0. -1.
         -1    1    6    6    0  502 -0.15999797558E+03  0.15458534688E+02  0.45625865812E+03  0.48374609207E+03  0.00000000000E+00 0.  1.
<mgrwt>
<rscale>  0 0.10962855E+04</rscale>
<asrwt>0</asrwt>
<pdfrwt beam="1">  1        1 0.32040861E+00 0.10962855E+04</pdfrwt>
<pdfrwt beam="2">  1       -2 0.15716303E+00 0.10962855E+04</pdfrwt>
<totfact> 0.60188447E-01</totfact>
</mgrwt>
</event>
<event>
12    3  0.1201947E-007  0.9917309E+03  0.7818608E-02  0.9317661E-01
         -2   -1    0    0    0  501 -0.00000000000E+00  0.00000000000E+00  0.70008260793E+03  0.70008260793E+03  0.00000000000E+00 0.  1.
          1   -1    0    0  501    0  0.00000000000E+00 -0.00000000000E+00 -0.19980323230E+04  0.19980323230E+04  0.00000000000E+00 0. -1.
        -24    2    1    2    0    0 -0.57876446524E+03 -0.76678558716E+03 -0.12289464680E+04  0.15633834907E+04  0.10454699789E+03 0.  0.
    5000000    2    1    2    0    0  0.57876446524E+03  0.76678558716E+03 -0.69003247103E+02  0.11347314403E+04  0.59993795560E+03 0.  0.
        -24    2    4    4    0    0  0.39752396619E+03  0.71540553129E+03  0.14953928073E+03  0.83538890115E+03  0.75380645923E+02 0.  0.
         24    2    4    4    0    0  0.18124049905E+03  0.51380055871E+02 -0.21854252784E+03  0.29934253915E+03  0.79731365420E+02 0.  0.
         13    1    3    3    0    0 -0.18950798304E+03 -0.18805015937E+03 -0.38542980437E+03  0.46886274342E+03  0.00000000000E+00 0. -1.
        -14    1    3    3    0    0 -0.38925648221E+03 -0.57873542779E+03 -0.84351666364E+03  0.10945207472E+04  0.00000000000E+00 0.  1.
         15    1    5    5    0    0  0.10026152187E+03  0.24446338518E+03  0.31468902109E+02  0.26609804394E+03  0.17770000000E+01 0. -1.
        -16    1    5    5    0    0  0.29726244433E+03  0.47094214611E+03  0.11807037863E+03  0.56929085721E+03  0.00000000000E+00 0.  1.
          2    1    6    6  502    0  0.56649139820E+01  0.18375047231E+02 -0.31197275220E+01  0.19479895046E+02  0.00000000000E+00 0. -1.
         -1    1    6    6    0  502  0.17557558507E+03  0.33005008640E+02 -0.21542280032E+03  0.27986264410E+03  0.00000000000E+00 0.  1.
<mgrwt>
<rscale>  0 0.99173092E+03</rscale>
<asrwt>0</asrwt>
<pdfrwt beam="1">  1        1 0.30738958E+00 0.99173092E+03</pdfrwt>
<pdfrwt beam="2">  1       -2 0.10770502E+00 0.99173092E+03</pdfrwt>
<totfact> 0.18256981E+00</totfact>
</mgrwt>
</event>
<event>
12    3  0.1201947E-007  0.5613712E+03  0.7818608E-02  0.9988957E-01
          1   -1    0    0  501    0  0.00000000000E+00  0.00000000000E+00  0.81719336232E+03  0.81719336232E+03  0.00000000000E+00 0. -1.
         -2   -1    0    0    0  501 -0.00000000000E+00 -0.00000000000E+00 -0.55751185639E+03  0.55751185639E+03  0.00000000000E+00 0.  1.
        -24    2    1    2    0    0 -0.19778611993E+03  0.43509625322E+03  0.35614990057E+03  0.60157538703E+03  0.81376260691E+02 0.  0.
    5000000    2    1    2    0    0  0.19778611993E+03 -0.43509625322E+03 -0.96468394639E+02  0.77312983168E+03  0.59999623888E+03 0.  0.
        -24    2    4    4    0    0 -0.14125760701E+02 -0.41503600837E+03  0.14349002491E+03  0.44777950473E+03  0.86386759703E+02 0.  0.
         24    2    4    4    0    0  0.21191188063E+03 -0.20060244849E+02 -0.23995841955E+03  0.32535032695E+03  0.54440183301E+02 0.  0.
         13    1    3    3    0    0 -0.20027805204E+02  0.13144162285E+03  0.98605107741E+02  0.16553241517E+03  0.00000000000E+00 0. -1.
        -14    1    3    3    0    0 -0.17775831472E+03  0.30365463037E+03  0.25754479283E+03  0.43604297186E+03  0.00000000000E+00 0.  1.
         15    1    5    5    0    0  0.34436224158E+02 -0.22548116327E+03  0.86761974762E+02  0.24404591068E+03  0.17770000000E+01 0. -1.
        -16    1    5    5    0    0 -0.48561984859E+02 -0.18955484510E+03  0.56728050147E+02  0.20373359406E+03  0.00000000000E+00 0.  1.
          2    1    6    6  502    0  0.13073297106E+03 -0.89538886475E+00 -0.10964365417E+03  0.17062720282E+03  0.00000000000E+00 0. -1.
         -1    1    6    6    0  502  0.81178909571E+02 -0.19164855984E+02 -0.13031476538E+03  0.15472312413E+03  0.00000000000E+00 0.  1.
<mgrwt>
<rscale>  0 0.56137121E+03</rscale>
<asrwt>0</asrwt>
<pdfrwt beam="1">  1        1 0.12572206E+00 0.56137121E+03</pdfrwt>
<pdfrwt beam="2">  1       -2 0.85771054E-01 0.56137121E+03</pdfrwt>
<totfact> 0.23036314E+01</totfact>
</mgrwt>
</event>
<event>
12    3  0.1201947E-007  0.5963671E+03  0.7818608E-02  0.9912972E-01
          1   -1    0    0  501    0  0.00000000000E+00  0.00000000000E+00  0.16276761421E+04  0.16276761421E+04  0.00000000000E+00 0. -1.
         -2   -1    0    0    0  501 -0.00000000000E+00 -0.00000000000E+00 -0.23548624079E+03  0.23548624079E+03  0.00000000000E+00 0.  1.
        -24    2    1    2    0    0  0.10771738839E+03 -0.45324238692E+03  0.62209758400E+03  0.78147739682E+03  0.81668969955E+02 0.  0.
    5000000    2    1    2    0    0 -0.10771738839E+03  0.45324238692E+03  0.77009231726E+03  0.10816849860E+04  0.59997377847E+03 0.  0.
        -24    2    4    4    0    0  0.16593484023E+03 -0.13160298255E+02  0.88065643539E+02  0.20625971336E+03  0.84142421698E+02 0.  0.
         24    2    4    4    0    0 -0.27365222862E+03  0.46640268517E+03  0.68202667372E+03  0.87542527267E+03  0.93765758190E+02 0.  0.
         11    1    3    3    0    0  0.34567143120E+02 -0.27635242787E+03  0.41147406792E+03  0.49686664242E+03  0.00000000000E+00 0. -1.
        -12    1    3    3    0    0  0.73150245267E+02 -0.17688995904E+03  0.21062351608E+03  0.28461075440E+03  0.00000000000E+00 0.  1.
         15    1    5    5    0    0  0.76003676092E+02  0.19305898950E+02  0.77159952722E+02  0.11002768991E+03  0.17770000000E+01 0. -1.
        -16    1    5    5    0    0  0.89931164140E+02 -0.32466197205E+02  0.10905690817E+02  0.96232023447E+02  0.00000000000E+00 0.  1.
          2    1    6    6  502    0 -0.19721113534E+03  0.24486778037E+03  0.39740523679E+03  0.50673798357E+03  0.00000000000E+00 0. -1.
         -1    1    6    6    0  502 -0.76441093280E+02  0.22153490480E+03  0.28462143693E+03  0.36868728910E+03  0.00000000000E+00 0.  1.
<mgrwt>
<rscale>  0 0.59636710E+03</rscale>
<asrwt>0</asrwt>
<pdfrwt beam="1">  1        1 0.25041171E+00 0.59636710E+03</pdfrwt>
<pdfrwt beam="2">  1       -2 0.36228654E-01 0.59636710E+03</pdfrwt>
<totfact> 0.35287114E+01</totfact>
</mgrwt>
</event>
<event>
12    3  0.1201947E-007  0.1109818E+04  0.7818608E-02  0.9195675E-01
         -2   -1    0    0    0  501 -0.00000000000E+00  0.00000000000E+00  0.55288996511E+03  0.55288996511E+03  0.00000000000E+00 0.  1.
          1   -1    0    0  501    0  0.00000000000E+00 -0.00000000000E+00 -0.23579332964E+04  0.23579332964E+04  0.00000000000E+00 0. -1.
        -24    2    1    2    0    0  0.31654319486E+03  0.10120953680E+04 -0.78366347022E+03  0.13209171283E+04  0.78466535202E+02 0.  0.
    5000000    2    1    2    0    0 -0.31654319486E+03 -0.10120953680E+04 -0.10213798611E+04  0.15899061332E+04  0.60004005155E+03 0.  0.
        -24    2    4    4    0    0 -0.39745659558E+03 -0.52063089192E+03 -0.80437067488E+03  0.10405485938E+04  0.81859162621E+02 0.  0.
         24    2    4    4    0    0  0.80913400714E+02 -0.49146447613E+03 -0.21700918622E+03  0.54935753937E+03  0.81341314552E+02 0.  0.
         11    1    3    3    0    0  0.10904953207E+03  0.42905807736E+03 -0.28932638795E+03  0.52885952100E+03  0.00000000000E+00 0. -1.
        -12    1    3    3    0    0  0.20749366279E+03  0.58303729069E+03 -0.49433708227E+03  0.79205760734E+03  0.00000000000E+00 0.  1.
         15    1    5    5    0    0 -0.32673045923E+03 -0.47241439876E+03 -0.70614297555E+03  0.91025777492E+03  0.17770000000E+01 0. -1.
        -16    1    5    5    0    0 -0.70726136351E+02 -0.48216493159E+02 -0.98227699323E+02  0.13029081890E+03  0.00000000000E+00 0.  1.
          4    1    6    6  502    0  0.78499373580E+02 -0.47826864875E+03 -0.22433963478E+03  0.53407052321E+03  0.00000000000E+00 0. -1.
         -3    1    6    6    0  502  0.24140271344E+01 -0.13195827380E+02  0.73304485566E+01  0.15287016167E+02  0.00000000000E+00 0.  1.
<mgrwt>
<rscale>  0 0.11098176E+04</rscale>
<asrwt>0</asrwt>
<pdfrwt beam="1">  1        1 0.36275896E+00 0.11098176E+04</pdfrwt>
<pdfrwt beam="2">  1       -2 0.85059996E-01 0.11098176E+04</pdfrwt>
<totfact> 0.17895164E+00</totfact>
</mgrwt>
</event>
<event>
12    3  0.1201947E-007  0.5422315E+03  0.7818608E-02  0.1003308E+00
          3   -1    0    0  501    0  0.00000000000E+00  0.00000000000E+00  0.12136697496E+04  0.12136697496E+04  0.00000000000E+00 0. -1.
         -4   -1    0    0    0  501 -0.00000000000E+00 -0.00000000000E+00 -0.30556140865E+03  0.30556140865E+03  0.00000000000E+00 0.  1.
        -24    2    1    2    0    0  0.11026118046E+03 -0.43478271762E+03  0.45319475854E+03  0.64264639624E+03  0.80095954761E+02 0.  0.
    5000000    2    1    2    0    0 -0.11026118046E+03  0.43478271762E+03  0.45491358242E+03  0.87658476202E+03  0.60021740901E+03 0.  0.
        -24    2    4    4    0    0 -0.24668705133E+03  0.40453150864E+03  0.51573487298E+03  0.70498768764E+03  0.80777086750E+02 0.  0.
         24    2    4    4    0    0  0.13642587087E+03  0.30251208985E+02 -0.60821290560E+02  0.17159707438E+03  0.78861731284E+02 0.  0.
         13    1    3    3    0    0  0.82664698579E+02 -0.36239643165E+03  0.41204032421E+03  0.55492508939E+03  0.00000000000E+00 0. -1.
        -14    1    3    3    0    0  0.27596481877E+02 -0.72386285974E+02  0.41154434325E+02  0.87721306841E+02  0.00000000000E+00 0.  1.
         15    1    5    5    0    0 -0.20488248569E+03  0.26845164243E+03  0.37845661345E+03  0.50722350424E+03  0.17770000000E+01 0. -1.
        -16    1    5    5    0    0 -0.41804565643E+02  0.13607986620E+03  0.13727825953E+03  0.19776418339E+03  0.00000000000E+00 0.  1.
          4    1    6    6  502    0  0.90821952794E+02 -0.13748220438E+02 -0.14250529762E+02  0.92955463922E+02  0.00000000000E+00 0. -1.
         -3    1    6    6    0  502  0.45603918079E+02  0.43999429423E+02 -0.46570760798E+02  0.78641610455E+02  0.00000000000E+00 0.  1.
<mgrwt>
<rscale>  0 0.54223154E+03</rscale>
<asrwt>0</asrwt>
<pdfrwt beam="1">  1        3 0.18671842E+00 0.54223154E+03</pdfrwt>
<pdfrwt beam="2">  1       -4 0.47009448E-01 0.54223154E+03</pdfrwt>
<totfact> 0.17949807E+00</totfact>
</mgrwt>
</event>
<event>
12    3  0.1201947E-007  0.5846028E+03  0.7818608E-02  0.9937876E-01
         -2   -1    0    0    0  501 -0.00000000000E+00  0.00000000000E+00  0.26771962032E+03  0.26771962032E+03  0.00000000000E+00 0.  1.
          1   -1    0    0  501    0  0.00000000000E+00 -0.00000000000E+00 -0.13663754315E+04  0.13663754315E+04  0.00000000000E+00 0. -1.
        -24    2    1    2    0    0 -0.41186476546E+03  0.13467847640E+03 -0.24594552263E+03  0.50501214650E+03  0.82323696350E+02 0.  0.
    5000000    2    1    2    0    0  0.41186476546E+03 -0.13467847640E+03 -0.85271028857E+03  0.11290829053E+04  0.59995207632E+03 0.  0.
        -24    2    4    4    0    0  0.36645689086E+01  0.19367037191E+03 -0.22165699594E+03  0.30508205583E+03  0.80134854564E+02 0.  0.
         24    2    4    4    0    0  0.40820019655E+03 -0.32834884831E+03 -0.63105329263E+03  0.82400084952E+03  0.79427798785E+02 0.  0.
         11    1    3    3    0    0 -0.43473077712E+02  0.10712013977E+02 -0.57989215509E+02  0.73262574652E+02  0.00000000000E+00 0. -1.
        -12    1    3    3    0    0 -0.36839168774E+03  0.12396646242E+03 -0.18795630712E+03  0.43174957185E+03  0.00000000000E+00 0.  1.
         15    1    5    5    0    0  0.38526172954E+02  0.14261364816E+03 -0.15974341056E+03  0.21758684149E+03  0.17770000000E+01 0. -1.
        -16    1    5    5    0    0 -0.34861604045E+02  0.51056723755E+02 -0.61913585387E+02  0.87495214341E+02  0.00000000000E+00 0.  1.
          4    1    6    6  502    0  0.34498791478E+03 -0.29883253586E+03 -0.51105659166E+03  0.68519806313E+03  0.00000000000E+00 0. -1.
         -3    1    6    6    0  502  0.63212281770E+02 -0.29516312451E+02 -0.11999670096E+03  0.13880278639E+03  0.00000000000E+00 0.  1.
<mgrwt>
<rscale>  0 0.58460277E+03</rscale>
<asrwt>0</asrwt>
<pdfrwt beam="1">  1        1 0.21021160E+00 0.58460277E+03</pdfrwt>
<pdfrwt beam="2">  1       -2 0.41187635E-01 0.58460277E+03</pdfrwt>
<totfact> 0.41566206E+01</totfact>
</mgrwt>
</event>
<event>
12    3  0.1201947E-007  0.7047462E+03  0.7818608E-02  0.9709150E-01
          1   -1    0    0  501    0  0.00000000000E+00  0.00000000000E+00  0.13858576814E+04  0.13858576814E+04  0.00000000000E+00 0. -1.
         -2   -1    0    0    0  501 -0.00000000000E+00 -0.00000000000E+00 -0.47959388050E+03  0.47959388050E+03  0.00000000000E+00 0.  1.
        -24    2    1    2    0    0 -0.22014057516E+03 -0.63292533564E+03  0.15228316123E+03  0.69178817843E+03  0.79525903305E+02 0.  0.
    5000000    2    1    2    0    0  0.22014057516E+03  0.63292533564E+03  0.75398063966E+03  0.11736633835E+04  0.59995214757E+03 0.  0.
        -24    2    4    4    0    0 -0.49064146143E+02  0.29908217972E+03  0.65319861784E+03  0.72441102814E+03  0.79028239738E+02 0.  0.
         24    2    4    4    0    0  0.26920472131E+03  0.33384315592E+03  0.10078202182E+03  0.44925235533E+03  0.88024020128E+02 0.  0.
         13    1    3    3    0    0 -0.13560981424E+03 -0.45200695688E+03  0.75849109866E+02  0.47796798873E+03  0.00000000000E+00 0. -1.
        -14    1    3    3    0    0 -0.84530760920E+02 -0.18091837876E+03  0.76434051363E+02  0.21382018970E+03  0.00000000000E+00 0.  1.
         15    1    5    5    0    0 -0.70001260847E+01  0.17127341185E+03  0.28729492752E+03  0.33455211326E+03  0.17770000000E+01 0. -1.
        -16    1    5    5    0    0 -0.42064020058E+02  0.12780876787E+03  0.36590369031E+03  0.38985891488E+03  0.00000000000E+00 0.  1.
          2    1    6    6  502    0  0.78380406969E+02  0.13645217932E+03  0.16975701788E+01  0.15737079521E+03  0.00000000000E+00 0. -1.
         -1    1    6    6    0  502  0.19082431434E+03  0.19739097659E+03  0.99084451646E+02  0.29188156012E+03  0.00000000000E+00 0.  1.
<mgrwt>
<rscale>  0 0.70474619E+03</rscale>
<asrwt>0</asrwt>
<pdfrwt beam="1">  1        1 0.21320887E+00 0.70474619E+03</pdfrwt>
<pdfrwt beam="2">  1       -2 0.73783675E-01 0.70474619E+03</pdfrwt>
<totfact> 0.11832358E+01</totfact>
</mgrwt>
</event>
<event>
12    3  0.1201947E-007  0.9940799E+03  0.7818608E-02  0.9315062E-01
         -2   -1    0    0    0  501 -0.00000000000E+00  0.00000000000E+00  0.75113474930E+03  0.75113474930E+03  0.00000000000E+00 0.  1.
          1   -1    0    0  501    0  0.00000000000E+00 -0.00000000000E+00 -0.14560195777E+04  0.14560195777E+04  0.00000000000E+00 0. -1.
        -24    2    1    2    0    0  0.77069121743E+03  0.53413905018E+03 -0.11703182854E+03  0.94831415622E+03  0.79585252636E+02 0.  0.
    5000000    2    1    2    0    0 -0.77069121743E+03 -0.53413905018E+03 -0.58785299984E+03  0.12588401708E+04  0.59986494191E+03 0.  0.
        -24    2    4    4    0    0 -0.28533906834E+03 -0.47639631430E+03 -0.11133964316E+03  0.57187739750E+03  0.79217481887E+02 0.  0.
         24    2    4    4    0    0 -0.48535214909E+03 -0.57742735881E+02 -0.47651335668E+03  0.68696277325E+03  0.77148820860E+02 0.  0.
         11    1    3    3    0    0  0.56476179202E+03  0.38873055282E+03 -0.49855265103E+02  0.68742481180E+03  0.00000000000E+00 0. -1.
        -12    1    3    3    0    0  0.20592942541E+03  0.14540849736E+03 -0.67176563434E+02  0.26088934442E+03  0.00000000000E+00 0.  1.
         15    1    5    5    0    0 -0.15281279473E+03 -0.23126719399E+03 -0.93901859946E+02  0.29267214128E+03  0.17770000000E+01 0. -1.
        -16    1    5    5    0    0 -0.13252627361E+03 -0.24512912031E+03 -0.17437783209E+02  0.27920525623E+03  0.00000000000E+00 0.  1.
          4    1    6    6  502    0 -0.27609244739E+03 -0.70480169786E+02 -0.26408762179E+03  0.38850581183E+03  0.00000000000E+00 0. -1.
         -3    1    6    6    0  502 -0.20925970170E+03  0.12737433905E+02 -0.21242573489E+03  0.29845696142E+03  0.00000000000E+00 0.  1.
<mgrwt>
<rscale>  0 0.99407992E+03</rscale>
<asrwt>0</asrwt>
<pdfrwt beam="1">  1        1 0.22400301E+00 0.99407992E+03</pdfrwt>
<pdfrwt beam="2">  1       -2 0.11555919E+00 0.99407992E+03</pdfrwt>
<totfact> 0.35884763E+00</totfact>
</mgrwt>
</event>
<event>
12    3  0.1201947E-007  0.8617871E+03  0.7818608E-02  0.9474652E-01
         -2   -1    0    0    0  501 -0.00000000000E+00  0.00000000000E+00  0.39424071768E+04  0.39424071768E+04  0.00000000000E+00 0.  1.
          1   -1    0    0  501    0  0.00000000000E+00 -0.00000000000E+00 -0.46753875577E+03  0.46753875577E+03  0.00000000000E+00 0. -1.
        -24    2    1    2    0    0  0.44752889709E+03  0.61191245285E+03 -0.41091488352E+02  0.76350175571E+03  0.80792678333E+02 0.  0.
    5000000    2    1    2    0    0 -0.44752889709E+03 -0.61191245285E+03  0.35159599094E+04  0.36464441769E+04  0.59988506144E+03 0.  0.
        -24    2    4    4    0    0 -0.42751274492E+03 -0.70818376130E+03  0.29165755470E+04  0.30326619959E+04  0.79589401624E+02 0.  0.
         24    2    4    4    0    0 -0.20016152164E+02  0.96271308451E+02  0.59938436237E+03  0.61378218101E+03  0.88307081772E+02 0.  0.
         13    1    3    3    0    0  0.25647674434E+03  0.28619283350E+03 -0.34248399525E+02  0.38582329012E+03  0.00000000000E+00 0. -1.
        -14    1    3    3    0    0  0.19105215275E+03  0.32571961936E+03 -0.68430888272E+01  0.37767846559E+03  0.00000000000E+00 0.  1.
         15    1    5    5    0    0 -0.19417592018E+03 -0.25182581973E+03  0.11676276586E+04  0.12101562041E+04  0.17770000000E+01 0. -1.
        -16    1    5    5    0    0 -0.23333682474E+03 -0.45635794158E+03  0.17489478884E+04  0.18225057917E+04  0.00000000000E+00 0.  1.
          4    1    6    6  502    0 -0.48131956534E+02  0.90355045708E+02  0.49749808685E+03  0.50792230306E+03  0.00000000000E+00 0. -1.
         -3    1    6    6    0  502  0.28115804370E+02  0.59162627424E+01  0.10188627552E+03  0.10585987795E+03  0.00000000000E+00 0.  1.
<mgrwt>
<rscale>  0 0.86178711E+03</rscale>
<asrwt>0</asrwt>
<pdfrwt beam="1">  1        1 0.71929042E-01 0.86178711E+03</pdfrwt>
<pdfrwt beam="2">  1       -2 0.60652416E+00 0.86178711E+03</pdfrwt>
<totfact> 0.20514107E-02</totfact>
</mgrwt>
</event>
<event>
12    3  0.1201947E-007  0.1169413E+04  0.7818608E-02  0.9140059E-01
          1   -1    0    0  501    0  0.00000000000E+00  0.00000000000E+00  0.30026596409E+04  0.30026596409E+04  0.00000000000E+00 0. -1.
         -2   -1    0    0    0  501 -0.00000000000E+00 -0.00000000000E+00 -0.47541824801E+03  0.47541824801E+03  0.00000000000E+00 0.  1.
        -24    2    1    2    0    0 -0.90280331880E+03  0.64962019536E+03  0.13478614051E+04  0.17494706789E+04  0.82807356519E+02 0.  0.
    5000000    2    1    2    0    0  0.90280331880E+03 -0.64962019536E+03  0.11793799877E+04  0.17286072100E+04  0.60007124594E+03 0.  0.
        -24    2    4    4    0    0  0.93977976252E+03 -0.51805903845E+03  0.88058483103E+03  0.13903949643E+04  0.78723203833E+02 0.  0.
         24    2    4    4    0    0 -0.36976443724E+02 -0.13156115692E+03  0.29879515670E+03  0.33821224563E+03  0.80208366320E+02 0.  0.
         13    1    3    3    0    0 -0.37673656565E+03  0.27907297877E+03  0.63202842875E+03  0.78693843605E+03  0.00000000000E+00 0. -1.
        -14    1    3    3    0    0 -0.52606675315E+03  0.37054721660E+03  0.71583297636E+03  0.96253224286E+03  0.00000000000E+00 0.  1.
         15    1    5    5    0    0  0.45003519456E+03 -0.29200050300E+03  0.42838999521E+03  0.68652539343E+03  0.17770000000E+01 0. -1.
        -16    1    5    5    0    0  0.48974456796E+03 -0.22605853545E+03  0.45219483582E+03  0.70386957090E+03  0.00000000000E+00 0.  1.
          4    1    6    6  502    0 -0.27773282495E+02 -0.11218959913E+02  0.25074016336E+02  0.39063110185E+02  0.00000000000E+00 0. -1.
         -3    1    6    6    0  502 -0.92031612291E+01 -0.12034219700E+03  0.27372114037E+03  0.29914913545E+03  0.00000000000E+00 0.  1.
<mgrwt>
<rscale>  0 0.11694129E+04</rscale>
<asrwt>0</asrwt>
<pdfrwt beam="1">  1        1 0.46194763E+00 0.11694129E+04</pdfrwt>
<pdfrwt beam="2">  1       -2 0.73141271E-01 0.11694129E+04</pdfrwt>
<totfact> 0.88211374E-01</totfact>
</mgrwt>
</event>
<event>
12    3  0.1201947E-007  0.5424569E+03  0.7818608E-02  0.1003255E+00
         -2   -1    0    0    0  501 -0.00000000000E+00  0.00000000000E+00  0.22465566937E+03  0.22465566937E+03  0.00000000000E+00 0.  1.
          1   -1    0    0  501    0  0.00000000000E+00 -0.00000000000E+00 -0.16334449222E+04  0.16334449222E+04  0.00000000000E+00 0. -1.
        -24    2    1    2    0    0 -0.54426966140E+02  0.37882132834E+03 -0.90604148483E+03  0.98674003559E+03  0.79226461179E+02 0.  0.
    5000000    2    1    2    0    0  0.54426966140E+02 -0.37882132834E+03 -0.50274776802E+03  0.87136055601E+03  0.60003833784E+03 0.  0.
        -24    2    4    4    0    0  0.30891142734E+03 -0.24455256131E+03 -0.36299321153E+03  0.54172346299E+03  0.80423961277E+02 0.  0.
         24    2    4    4    0    0 -0.25448446120E+03 -0.13426876703E+03 -0.13975455648E+03  0.32963709302E+03  0.79616796244E+02 0.  0.
         11    1    3    3    0    0 -0.70724013795E+02  0.23678301475E+03 -0.60268544644E+03  0.65138147775E+03  0.00000000000E+00 0. -1.
        -12    1    3    3    0    0  0.16297047655E+02  0.14203831359E+03 -0.30335603840E+03  0.33535855784E+03  0.00000000000E+00 0.  1.
         15    1    5    5    0    0  0.21367163709E+03 -0.12433581724E+03 -0.24663222738E+03  0.34920706932E+03  0.17770000000E+01 0. -1.
        -16    1    5    5    0    0  0.95239790248E+02 -0.12021674406E+03 -0.11636098416E+03  0.19251639367E+03  0.00000000000E+00 0.  1.
          2    1    6    6  502    0 -0.66984596907E+02 -0.64173857616E+01 -0.56637806093E+02  0.87954307125E+02  0.00000000000E+00 0. -1.
         -1    1    6    6    0  502 -0.18749986430E+03 -0.12785138127E+03 -0.83116750391E+02  0.24168278590E+03  0.00000000000E+00 0.  1.
<mgrwt>
<rscale>  0 0.54245691E+03</rscale>
<asrwt>0</asrwt>
<pdfrwt beam="1">  1        1 0.25129922E+00 0.54245691E+03</pdfrwt>
<pdfrwt beam="2">  1       -2 0.34562410E-01 0.54245691E+03</pdfrwt>
<totfact> 0.38556856E+01</totfact>
</mgrwt>
</event>
<event>
12    3  0.1201947E-007  0.1299490E+04  0.7818608E-02  0.9029970E-01
         -2   -1    0    0    0  501 -0.00000000000E+00  0.00000000000E+00  0.16984823194E+04  0.16984823194E+04  0.00000000000E+00 0.  1.
          1   -1    0    0  501    0  0.00000000000E+00 -0.00000000000E+00 -0.11272611177E+04  0.11272611177E+04  0.00000000000E+00 0. -1.
        -24    2    1    2    0    0 -0.84083490199E+03  0.98192792657E+03  0.12209990292E+02  0.12948602141E+04  0.72993867804E+02 0.  0.
    5000000    2    1    2    0    0  0.84083490199E+03 -0.98192792657E+03  0.55901121140E+03  0.15308832230E+04  0.59993676560E+03 0.  0.
        -24    2    4    4    0    0  0.28593227323E+03 -0.26571413508E+03 -0.94376729446E+02  0.41099280008E+03  0.87446258974E+02 0.  0.
         24    2    4    4    0    0  0.55490262877E+03 -0.71621379150E+03  0.65338794084E+03  0.11198904230E+04  0.79747323740E+02 0.  0.
         11    1    3    3    0    0 -0.49523169300E+03  0.52298871040E+03  0.23959664286E+01  0.72026200900E+03  0.00000000000E+00 0. -1.
        -12    1    3    3    0    0 -0.34560320899E+03  0.45893921617E+03  0.98140238639E+01  0.57459820507E+03  0.00000000000E+00 0.  1.
         15    1    5    5    0    0  0.20084437578E+03 -0.23043473772E+03 -0.53979804848E+02  0.31041199830E+03  0.17770000000E+01 0. -1.
        -16    1    5    5    0    0  0.85087897447E+02 -0.35279397354E+02 -0.40396924598E+02  0.10058080178E+03  0.00000000000E+00 0.  1.
          2    1    6    6  502    0  0.37519776927E+03 -0.46370091654E+03  0.38533276694E+03  0.71012199470E+03  0.00000000000E+00 0. -1.
         -1    1    6    6    0  502  0.17970485949E+03 -0.25251287495E+03  0.26805517390E+03  0.40976842826E+03  0.00000000000E+00 0.  1.
<mgrwt>
<rscale>  0 0.12994898E+04</rscale>
<asrwt>0</asrwt>
<pdfrwt beam="1">  1        1 0.17342479E+00 0.12994898E+04</pdfrwt>
<pdfrwt beam="2">  1       -2 0.26130497E+00 0.12994898E+04</pdfrwt>
<totfact> 0.56111818E-01</totfact>
</mgrwt>
</event>
<event>
12    3  0.1201947E-007  0.1093012E+04  0.7818608E-02  0.9212029E-01
          1   -1    0    0  501    0  0.00000000000E+00  0.00000000000E+00  0.82802354418E+03  0.82802354418E+03  0.00000000000E+00 0. -1.
         -4   -1    0    0    0  501 -0.00000000000E+00 -0.00000000000E+00 -0.15745014819E+04  0.15745014819E+04  0.00000000000E+00 0.  1.
        -24    2    1    2    0    0 -0.86057669425E+03  0.61490814780E+03 -0.25556376805E+03  0.10911782786E+04  0.81565428881E+02 0.  0.
    5000000    2    1    2    0    0  0.86057669425E+03 -0.61490814780E+03 -0.49091416963E+03  0.13113467474E+04  0.59994107476E+03 0.  0.
        -24    2    4    4    0    0  0.33337842739E+03 -0.45680550797E+03 -0.23652108843E+01  0.57103491326E+03  0.79138043796E+02 0.  0.
         24    2    4    4    0    0  0.52719826686E+03 -0.15810263983E+03 -0.48854895874E+03  0.74031183419E+03  0.80293645166E+02 0.  0.
         13    1    3    3    0    0 -0.31277383760E+03  0.17788694961E+03 -0.75741871912E+02  0.36770650183E+03  0.00000000000E+00 0. -1.
        -14    1    3    3    0    0 -0.54780285665E+03  0.43702119819E+03 -0.17982189613E+03  0.72347177675E+03  0.00000000000E+00 0.  1.
         15    1    5    5    0    0  0.27169004273E+02 -0.76123171096E+02  0.14762334066E+02  0.82182578489E+02  0.17770000000E+01 0. -1.
        -16    1    5    5    0    0  0.30620942311E+03 -0.38068233687E+03 -0.17127544950E+02  0.48885233477E+03  0.00000000000E+00 0.  1.
          4    1    6    6  502    0  0.10445450485E+03  0.68376006148E+00 -0.99297241346E+02  0.14412200821E+03  0.00000000000E+00 0. -1.
         -3    1    6    6    0  502  0.42274376202E+03 -0.15878639989E+03 -0.38925171740E+03  0.59618982599E+03  0.00000000000E+00 0.  1.
<mgrwt>
<rscale>  0 0.10930124E+04</rscale>
<asrwt>0</asrwt>
<pdfrwt beam="1">  1        1 0.12738824E+00 0.10930124E+04</pdfrwt>
<pdfrwt beam="2">  1       -4 0.24223099E+00 0.10930124E+04</pdfrwt>
<totfact> 0.69299326E-01</totfact>
</mgrwt>
</event>
<event>
12    3  0.1201947E-007  0.5080857E+03  0.7818608E-02  0.1011690E+00
          1   -1    0    0  501    0  0.00000000000E+00  0.00000000000E+00  0.28092688775E+03  0.28092688775E+03  0.00000000000E+00 0. -1.
         -2   -1    0    0    0  501 -0.00000000000E+00 -0.00000000000E+00 -0.11098320344E+04  0.11098320344E+04  0.00000000000E+00 0.  1.
        -24    2    1    2    0    0 -0.13737921389E+03 -0.36670115409E+03 -0.26928735497E+03  0.48161881996E+03  0.78091122249E+02 0.  0.
    5000000    2    1    2    0    0  0.13737921389E+03  0.36670115409E+03 -0.55961779167E+03  0.90914010219E+03  0.60001738961E+03 0.  0.
        -24    2    4    4    0    0  0.28610223019E+03  0.36897638268E+03 -0.20247613370E+03  0.51421996722E+03  0.73671791590E+02 0.  0.
         24    2    4    4    0    0 -0.14872301631E+03 -0.22752285958E+01 -0.35714165797E+03  0.39492013496E+03  0.79297143039E+02 0.  0.
         13    1    3    3    0    0 -0.67827324841E+02 -0.15707497499E+03 -0.72557513100E+02  0.18584317709E+03  0.00000000000E+00 0. -1.
        -14    1    3    3    0    0 -0.69551889047E+02 -0.20962617910E+03 -0.19672984187E+03  0.29577564287E+03  0.00000000000E+00 0.  1.
         15    1    5    5    0    0  0.67015207563E+02  0.86654397737E+02 -0.14729248385E+02  0.11054470217E+03  0.17770000000E+01 0. -1.
        -16    1    5    5    0    0  0.21908702263E+03  0.28232198495E+03 -0.18774688531E+03  0.40367526505E+03  0.00000000000E+00 0.  1.
          2    1    6    6  502    0 -0.62688025995E+02 -0.26283608028E+02 -0.87076086647E+02  0.11046656290E+03  0.00000000000E+00 0. -1.
         -1    1    6    6    0  502 -0.86034990311E+02  0.24008379432E+02 -0.27006557133E+03  0.28445357206E+03  0.00000000000E+00 0.  1.
<mgrwt>
<rscale>  0 0.50808570E+03</rscale>
<asrwt>0</asrwt>
<pdfrwt beam="1">  1        1 0.43219522E-01 0.50808570E+03</pdfrwt>
<pdfrwt beam="2">  1       -2 0.17074339E+00 0.50808570E+03</pdfrwt>
<totfact> 0.18311222E+01</totfact>
</mgrwt>
</event>
<event>
12    3  0.1201947E-007  0.7071840E+03  0.7818608E-02  0.9705025E-01
          1   -1    0    0  501    0  0.00000000000E+00  0.00000000000E+00  0.66307941870E+03  0.66307941870E+03  0.00000000000E+00 0. -1.
         -2   -1    0    0    0  501 -0.00000000000E+00 -0.00000000000E+00 -0.90049220621E+03  0.90049220621E+03  0.00000000000E+00 0.  1.
        -24    2    1    2    0    0  0.16312615437E+03 -0.62623432873E+03 -0.95948486343E+01  0.65210679306E+03  0.79822501310E+02 0.  0.
    5000000    2    1    2    0    0 -0.16312615437E+03  0.62623432873E+03 -0.22781793888E+03  0.91146483185E+03  0.60007295365E+03 0.  0.
        -24    2    4    4    0    0 -0.14102085993E+03  0.16170943485E+02 -0.24717687945E+03  0.29550495782E+03  0.77964017419E+02 0.  0.
         24    2    4    4    0    0 -0.22105294437E+02  0.61006338525E+03  0.19358940576E+02  0.61595987403E+03  0.79786087576E+02 0.  0.
         13    1    3    3    0    0  0.39815582241E+02 -0.17296997753E+03 -0.37981082866E+02  0.18151158743E+03  0.00000000000E+00 0. -1.
        -14    1    3    3    0    0  0.12331057213E+03 -0.45326435120E+03  0.28386234232E+02  0.47059520563E+03  0.00000000000E+00 0.  1.
         15    1    5    5    0    0 -0.86607612409E+02 -0.18857754579E+02 -0.18782123944E+03  0.20769320920E+03  0.17770000000E+01 0. -1.
        -16    1    5    5    0    0 -0.54413247525E+02  0.35028698065E+02 -0.59355640009E+02  0.87811748617E+02  0.00000000000E+00 0.  1.
          2    1    6    6  502    0  0.22558377782E+02  0.18807908493E+03  0.28269891187E+02  0.19152495750E+03  0.00000000000E+00 0. -1.
         -1    1    6    6    0  502 -0.44663672219E+02  0.42198430031E+03 -0.89109506115E+01  0.42443491653E+03  0.00000000000E+00 0.  1.
<mgrwt>
<rscale>  0 0.70718404E+03</rscale>
<asrwt>0</asrwt>
<pdfrwt beam="1">  1        1 0.10201222E+00 0.70718404E+03</pdfrwt>
<pdfrwt beam="2">  1       -2 0.13853726E+00 0.70718404E+03</pdfrwt>
<totfact> 0.98006509E+00</totfact>
</mgrwt>
</event>
<event>
12    3  0.1201947E-007  0.6393894E+03  0.7818608E-02  0.9826895E-01
         -2   -1    0    0    0  501 -0.00000000000E+00  0.00000000000E+00  0.14250353159E+03  0.14250353159E+03  0.00000000000E+00 0.  1.
          1   -1    0    0  501    0  0.00000000000E+00 -0.00000000000E+00 -0.34515183535E+04  0.34515183535E+04  0.00000000000E+00 0. -1.
        -24    2    1    2    0    0 -0.45884829453E+03  0.33154629967E+03 -0.11840788249E+04  0.13146787676E+04  0.76634797933E+02 0.  0.
    5000000    2    1    2    0    0  0.45884829453E+03 -0.33154629967E+03 -0.21249359970E+04  0.22793431174E+04  0.59965602598E+03 0.  0.
        -24    2    4    4    0    0  0.53855511498E+03 -0.28080536687E+03 -0.20393366852E+04  0.21293923397E+04  0.80773479883E+02 0.  0.
         24    2    4    4    0    0 -0.79706820451E+02 -0.50740932795E+02 -0.85599311823E+02  0.14995077772E+03  0.78931451693E+02 0.  0.
         13    1    3    3    0    0 -0.18145956206E+03  0.88107340307E+02 -0.44447250545E+03  0.48810478811E+03  0.00000000000E+00 0. -1.
        -14    1    3    3    0    0 -0.27738873247E+03  0.24343895936E+03 -0.73960631945E+03  0.82657397951E+03  0.00000000000E+00 0.  1.
         15    1    5    5    0    0  0.45529247998E+03 -0.20214924385E+03 -0.16517217791E+04  0.17252082635E+04  0.17770000000E+01 0. -1.
        -16    1    5    5    0    0  0.83262634995E+02 -0.78656123018E+02 -0.38761490603E+03  0.40418407620E+03  0.00000000000E+00 0.  1.
          2    1    6    6  502    0 -0.21808002666E+02 -0.20725847723E+02 -0.78839562626E+02  0.84384989063E+02  0.00000000000E+00 0. -1.
         -1    1    6    6    0  502 -0.57898817785E+02 -0.30015085072E+02 -0.67597491973E+01  0.65565788655E+02  0.00000000000E+00 0.  1.
<mgrwt>
<rscale>  0 0.63938939E+03</rscale>
<asrwt>0</asrwt>
<pdfrwt beam="1">  1        1 0.53100283E+00 0.63938939E+03</pdfrwt>
<pdfrwt beam="2">  1       -2 0.21923620E-01 0.63938939E+03</pdfrwt>
<totfact> 0.47882630E+00</totfact>
</mgrwt>
</event>
<event>
12    3  0.1201947E-007  0.6044642E+03  0.7818608E-02  0.9896187E-01
          1   -1    0    0  501    0  0.00000000000E+00  0.00000000000E+00  0.16216853630E+04  0.16216853630E+04  0.00000000000E+00 0. -1.
         -2   -1    0    0    0  501 -0.00000000000E+00 -0.00000000000E+00 -0.42885542670E+03  0.42885542670E+03  0.00000000000E+00 0.  1.
        -24    2    1    2    0    0  0.52728917362E+03 -0.22070336512E+03 -0.24710424984E+02  0.57770570186E+03  0.79933878108E+02 0.  0.
    5000000    2    1    2    0    0 -0.52728917362E+03  0.22070336512E+03  0.12175403613E+04  0.14728350878E+04  0.60007900864E+03 0.  0.
        -24    2    4    4    0    0 -0.23451264245E+03  0.24192752693E+03  0.10789267352E+04  0.11321298540E+04  0.64109270819E+02 0.  0.
         24    2    4    4    0    0 -0.29277653116E+03 -0.21224161813E+02  0.13861362606E+03  0.34070523383E+03  0.10342996076E+03 0.  0.
         13    1    3    3    0    0  0.47644657576E+03 -0.20827420485E+03 -0.44199006934E+02  0.52185537860E+03  0.00000000000E+00 0. -1.
        -14    1    3    3    0    0  0.50842597862E+02 -0.12429160270E+02  0.19488581950E+02  0.55850323265E+02  0.00000000000E+00 0.  1.
         15    1    5    5    0    0 -0.12780346664E+02  0.42528158104E+02  0.12392291234E+03  0.13165115808E+03  0.17770000000E+01 0. -1.
        -16    1    5    5    0    0 -0.22173229579E+03  0.19939936883E+03  0.95500382286E+03  0.10004786959E+04  0.00000000000E+00 0.  1.
          2    1    6    6  502    0 -0.24533120970E+03 -0.11971420004E+02  0.15408176778E+03  0.28995156236E+03  0.00000000000E+00 0. -1.
         -1    1    6    6    0  502 -0.47445321460E+02 -0.92527418091E+01 -0.15468141718E+02  0.50753671470E+02  0.00000000000E+00 0.  1.
<mgrwt>
<rscale>  0 0.60446417E+03</rscale>
<asrwt>0</asrwt>
<pdfrwt beam="1">  1        1 0.24949005E+00 0.60446417E+03</pdfrwt>
<pdfrwt beam="2">  1       -2 0.65977759E-01 0.60446417E+03</pdfrwt>
<totfact> 0.10581250E+01</totfact>
</mgrwt>
</event>
<event>
12    3  0.1201947E-007  0.7165352E+03  0.7818608E-02  0.9689365E-01
          1   -1    0    0  501    0  0.00000000000E+00  0.00000000000E+00  0.18808163060E+04  0.18808163060E+04  0.00000000000E+00 0. -1.
         -2   -1    0    0    0  501 -0.00000000000E+00 -0.00000000000E+00 -0.34209748171E+03  0.34209748171E+03  0.00000000000E+00 0.  1.
        -24    2    1    2    0    0  0.53861898062E+03 -0.42088736425E+03  0.77159146371E+03  0.10330538257E+04  0.67751311726E+02 0.  0.
    5000000    2    1    2    0    0 -0.53861898062E+03  0.42088736425E+03  0.76712736056E+03  0.11898599620E+04  0.60002146809E+03 0.  0.
        -24    2    4    4    0    0 -0.39509141266E+02  0.19050696665E+03 -0.35923394312E+02  0.21247265109E+03  0.77461349188E+02 0.  0.
         24    2    4    4    0    0 -0.49910983935E+03  0.23038039760E+03  0.80305075487E+03  0.97738731090E+03  0.90607291507E+02 0.  0.
         11    1    3    3    0    0  0.69052589831E+02 -0.81945980541E+02  0.10483068792E+03  0.14990956280E+03  0.00000000000E+00 0. -1.
        -12    1    3    3    0    0  0.46956639079E+03 -0.33894138371E+03  0.66676077579E+03  0.88314426290E+03  0.00000000000E+00 0.  1.
         15    1    5    5    0    0 -0.11184957731E+02  0.82285600329E+02  0.22794358230E+02  0.86132245978E+02  0.17770000000E+01 0. -1.
        -16    1    5    5    0    0 -0.28324183535E+02  0.10822136632E+03 -0.58717752543E+02  0.12634040512E+03  0.00000000000E+00 0.  1.
          4    1    6    6  502    0 -0.12895892549E+02  0.15835869290E+02  0.63408555430E+02  0.66616242032E+02  0.00000000000E+00 0. -1.
         -3    1    6    6    0  502 -0.48621394680E+03  0.21454452831E+03  0.73964219944E+03  0.91077106887E+03  0.00000000000E+00 0.  1.
<mgrwt>
<rscale>  0 0.71653516E+03</rscale>
<asrwt>0</asrwt>
<pdfrwt beam="1">  1        1 0.28935635E+00 0.71653516E+03</pdfrwt>
<pdfrwt beam="2">  1       -2 0.52630383E-01 0.71653516E+03</pdfrwt>
<totfact> 0.11207022E+01</totfact>
</mgrwt>
</event>
<event>
12    3  0.1201947E-007  0.7380065E+03  0.7818608E-02  0.9654356E-01
          1   -1    0    0  501    0  0.00000000000E+00  0.00000000000E+00  0.13877282508E+04  0.13877282508E+04  0.00000000000E+00 0. -1.
         -2   -1    0    0    0  501 -0.00000000000E+00 -0.00000000000E+00 -0.40427216446E+03  0.40427216446E+03  0.00000000000E+00 0.  1.
        -24    2    1    2    0    0  0.24377237101E+03 -0.57586778899E+03  0.43359936937E+03  0.76568849935E+03  0.84981089996E+02 0.  0.
    5000000    2    1    2    0    0 -0.24377237101E+03  0.57586778899E+03  0.54985671699E+03  0.10263119159E+04  0.59993754700E+03 0.  0.
        -24    2    4    4    0    0 -0.41404333634E+03  0.29494398209E+03  0.23961132546E+03  0.56754352965E+03  0.79172178345E+02 0.  0.
         24    2    4    4    0    0  0.17027096533E+03  0.28092380690E+03  0.31024539154E+03  0.45876838628E+03  0.79409334235E+02 0.  0.
         11    1    3    3    0    0  0.21190769457E+03 -0.48132134211E+03  0.32503605448E+03  0.61824230048E+03  0.00000000000E+00 0. -1.
        -12    1    3    3    0    0  0.31864676438E+02 -0.94546446879E+02  0.10856331489E+03  0.14744619887E+03  0.00000000000E+00 0.  1.
         15    1    5    5    0    0 -0.13054023944E+03  0.13527735573E+03  0.10583842177E+03  0.21574440048E+03  0.17770000000E+01 0. -1.
        -16    1    5    5    0    0 -0.28350309690E+03  0.15966662635E+03  0.13377290369E+03  0.35179912917E+03  0.00000000000E+00 0.  1.
          2    1    6    6  502    0  0.70804065612E+02  0.18781957242E+03  0.16737420115E+03  0.26134944175E+03  0.00000000000E+00 0. -1.
         -1    1    6    6    0  502  0.99466899721E+02  0.93104234474E+02  0.14287119038E+03  0.19741894453E+03  0.00000000000E+00 0.  1.
<mgrwt>
<rscale>  0 0.73800654E+03</rscale>
<asrwt>0</asrwt>
<pdfrwt beam="1">  1        1 0.21349665E+00 0.73800654E+03</pdfrwt>
<pdfrwt beam="2">  1       -2 0.62195718E-01 0.73800654E+03</pdfrwt>
<totfact> 0.17007950E+01</totfact>
</mgrwt>
</event>
<event>
12    3  0.1201947E-007  0.1401819E+04  0.7818608E-02  0.8952503E-01
          1   -1    0    0  501    0  0.00000000000E+00  0.00000000000E+00  0.17852081629E+04  0.17852081629E+04  0.00000000000E+00 0. -1.
         -2   -1    0    0    0  501 -0.00000000000E+00 -0.00000000000E+00 -0.13836566502E+04  0.13836566502E+04  0.00000000000E+00 0.  1.
        -24    2    1    2    0    0  0.10892593822E+04 -0.83830252421E+03 -0.44463977381E+03  0.14467772069E+04  0.78883674212E+02 0.  0.
    5000000    2    1    2    0    0 -0.10892593822E+04  0.83830252421E+03  0.84619128644E+03  0.17220876062E+04  0.60025736668E+03 0.  0.
        -24    2    4    4    0    0 -0.17788978463E+02  0.65458063286E+02 -0.56697087982E+02  0.11990636232E+03  0.81004753787E+02 0.  0.
         24    2    4    4    0    0 -0.10714704038E+04  0.77284446093E+03  0.90288837442E+03  0.16021812439E+04  0.80249202975E+02 0.  0.
         13    1    3    3    0    0  0.79926759288E+03 -0.63605334518E+03 -0.36181078287E+03  0.10836510442E+04  0.00000000000E+00 0. -1.
        -14    1    3    3    0    0  0.28999178936E+03 -0.20224917903E+03 -0.82828990939E+02  0.36312616273E+03  0.00000000000E+00 0.  1.
         15    1    5    5    0    0 -0.43538020691E+02  0.66892207788E+02 -0.44135660465E+02  0.91220836228E+02  0.17770000000E+01 0. -1.
        -16    1    5    5    0    0  0.25749042228E+02 -0.14341445020E+01 -0.12561427516E+02  0.28685526095E+02  0.00000000000E+00 0.  1.
          4    1    6    6  502    0 -0.80214580797E+03  0.61550125209E+03  0.67019209385E+03  0.12130280834E+04  0.00000000000E+00 0. -1.
         -3    1    6    6    0  502 -0.26932459581E+03  0.15734320883E+03  0.23269628058E+03  0.38915316043E+03  0.00000000000E+00 0.  1.
<mgrwt>
<rscale>  0 0.14018186E+04</rscale>
<asrwt>0</asrwt>
<pdfrwt beam="1">  1        1 0.27464741E+00 0.14018186E+04</pdfrwt>
<pdfrwt beam="2">  1       -2 0.21287025E+00 0.14018186E+04</pdfrwt>
<totfact> 0.38185803E-01</totfact>
</mgrwt>
</event>
<event>
12    3  0.1201947E-007  0.7175600E+03  0.7818608E-02  0.9687665E-01
         -2   -1    0    0    0  501 -0.00000000000E+00  0.00000000000E+00  0.18709244986E+03  0.18709244986E+03  0.00000000000E+00 0.  1.
          1   -1    0    0  501    0  0.00000000000E+00 -0.00000000000E+00 -0.28389476199E+04  0.28389476199E+04  0.00000000000E+00 0. -1.
        -24    2    1    2    0    0  0.13402243297E+03 -0.58210302744E+03 -0.94525119313E+03  0.11209964137E+04  0.79543663021E+02 0.  0.
    5000000    2    1    2    0    0 -0.13402243297E+03  0.58210302744E+03 -0.17066039769E+04  0.19050436561E+04  0.59990686812E+03 0.  0.
        -24    2    4    4    0    0 -0.26653140165E+03  0.62432858147E+03 -0.13228850376E+04  0.14891055650E+04  0.81150448996E+02 0.  0.
         24    2    4    4    0    0  0.13250896868E+03 -0.42225554034E+02 -0.38371893931E+03  0.41593809104E+03  0.80141418753E+02 0.  0.
         11    1    3    3    0    0  0.11392423669E+03 -0.56078691920E+03 -0.88324543480E+03  0.10524177871E+04  0.00000000000E+00 0. -1.
        -12    1    3    3    0    0  0.20098196284E+02 -0.21316108237E+02 -0.62005758334E+02  0.68578626632E+02  0.00000000000E+00 0.  1.
         15    1    5    5    0    0 -0.13461931292E+03  0.28521317682E+03 -0.69910410622E+03  0.76695412164E+03  0.17770000000E+01 0. -1.
        -16    1    5    5    0    0 -0.13191208873E+03  0.33911540465E+03 -0.62378093140E+03  0.72215144340E+03  0.00000000000E+00 0.  1.
          4    1    6    6  502    0  0.76747458211E+02  0.10641732794E+02 -0.24980083364E+03  0.26154134531E+03  0.00000000000E+00 0. -1.
         -3    1    6    6    0  502  0.55761510471E+02 -0.52867286829E+02 -0.13391810567E+03  0.15439674573E+03  0.00000000000E+00 0.  1.
<mgrwt>
<rscale>  0 0.71756004E+03</rscale>
<asrwt>0</asrwt>
<pdfrwt beam="1">  1        1 0.43676119E+00 0.71756004E+03</pdfrwt>
<pdfrwt beam="2">  1       -2 0.28783453E-01 0.71756004E+03</pdfrwt>
<totfact> 0.80906693E+00</totfact>
</mgrwt>
</event>
<event>
12    3  0.1201947E-007  0.1877575E+04  0.7818608E-02  0.8666100E-01
         -2   -1    0    0    0  501 -0.00000000000E+00  0.00000000000E+00  0.17218945083E+04  0.17218945083E+04  0.00000000000E+00 0.  1.
          1   -1    0    0  501    0  0.00000000000E+00 -0.00000000000E+00 -0.23893054988E+04  0.23893054988E+04  0.00000000000E+00 0. -1.
        -24    2    1    2    0    0  0.15308179994E+04 -0.10172237844E+04  0.42839678729E+03  0.18888312317E+04  0.77534764426E+02 0.  0.
    5000000    2    1    2    0    0 -0.15308179994E+04  0.10172237844E+04 -0.10958077778E+04  0.22223687754E+04  0.59998359406E+03 0.  0.
        -24    2    4    4    0    0 -0.15933759244E+01  0.15824129307E+03 -0.10340287859E+03  0.20555861739E+03  0.80742456012E+02 0.  0.
         24    2    4    4    0    0 -0.15292246235E+04  0.85898249129E+03 -0.99240489921E+03  0.20168101580E+04  0.79226637021E+02 0.  0.
         11    1    3    3    0    0  0.11954049843E+04 -0.78568039174E+03  0.36544572821E+03  0.14764272195E+04  0.00000000000E+00 0. -1.
        -12    1    3    3    0    0  0.33541301516E+03 -0.23154339261E+03  0.62951059081E+02  0.41240401215E+03  0.00000000000E+00 0.  1.
         15    1    5    5    0    0  0.16074182954E+02  0.95018272488E+02 -0.10137552234E+03  0.13988211366E+03  0.17770000000E+01 0. -1.
        -16    1    5    5    0    0 -0.17667558879E+02  0.63223020580E+02 -0.20273562505E+01  0.65676503724E+02  0.00000000000E+00 0.  1.
          4    1    6    6  502    0 -0.47976858339E+03  0.23664589334E+03 -0.32858185570E+03  0.62780985046E+03  0.00000000000E+00 0. -1.
         -3    1    6    6    0  502 -0.10494560401E+04  0.62233659795E+03 -0.66382304351E+03  0.13890003075E+04  0.00000000000E+00 0.  1.
<mgrwt>
<rscale>  0 0.18775749E+04</rscale>
<asrwt>0</asrwt>
<pdfrwt beam="1">  1        1 0.36758546E+00 0.18775749E+04</pdfrwt>
<pdfrwt beam="2">  1       -2 0.26490685E+00 0.18775749E+04</pdfrwt>
<totfact> 0.66432901E-02</totfact>
</mgrwt>
</event>
<event>
12    3  0.1201947E-007  0.4983847E+03  0.7818608E-02  0.1014201E+00
         -2   -1    0    0    0  501 -0.00000000000E+00  0.00000000000E+00  0.12920240575E+04  0.12920240575E+04  0.00000000000E+00 0.  1.
          1   -1    0    0  501    0  0.00000000000E+00 -0.00000000000E+00 -0.33221115920E+03  0.33221115920E+03  0.00000000000E+00 0. -1.
        -24    2    1    2    0    0  0.38830413591E+03 -0.18634184291E+03  0.33556497648E+02  0.43953055361E+03  0.80979532211E+02 0.  0.
    5000000    2    1    2    0    0 -0.38830413591E+03  0.18634184291E+03  0.92625640070E+03  0.11847046631E+04  0.60005902599E+03 0.  0.
        -24    2    4    4    0    0 -0.16609102665E+03  0.27534389556E+03  0.86292188872E+03  0.92433886065E+03  0.79797577074E+02 0.  0.
         24    2    4    4    0    0 -0.22221310925E+03 -0.89002052650E+02  0.63334511973E+02  0.26036580250E+03  0.80492604655E+02 0.  0.
         13    1    3    3    0    0  0.98564924625E+02 -0.37575219038E+02 -0.25493292142E+02  0.10852119330E+03  0.00000000000E+00 0. -1.
        -14    1    3    3    0    0  0.28973921128E+03 -0.14876662387E+03  0.59049789790E+02  0.33100936030E+03  0.00000000000E+00 0.  1.
         15    1    5    5    0    0 -0.14168621297E+03  0.24765223648E+03  0.81719496920E+03  0.86557344494E+03  0.17770000000E+01 0. -1.
        -16    1    5    5    0    0 -0.24404813685E+02  0.27691659080E+02  0.45726919528E+02  0.58765415706E+02  0.00000000000E+00 0.  1.
          2    1    6    6  502    0 -0.17397536253E+03 -0.88315245564E+02  0.77729744959E+02  0.21002124326E+03  0.00000000000E+00 0. -1.
         -1    1    6    6    0  502 -0.48237746721E+02 -0.68680708595E+00 -0.14395232986E+02  0.50344559244E+02  0.00000000000E+00 0.  1.
<mgrwt>
<rscale>  0 0.49838468E+03</rscale>
<asrwt>0</asrwt>
<pdfrwt beam="1">  1        1 0.51109410E-01 0.49838468E+03</pdfrwt>
<pdfrwt beam="2">  1       -2 0.19877293E+00 0.49838468E+03</pdfrwt>
<totfact> 0.95808433E+00</totfact>
</mgrwt>
</event>
<event>
12    3  0.1201947E-007  0.1093880E+04  0.7818608E-02  0.9211178E-01
          1   -1    0    0  501    0  0.00000000000E+00  0.00000000000E+00  0.24422395398E+04  0.24422395398E+04  0.00000000000E+00 0. -1.
         -2   -1    0    0    0  501 -0.00000000000E+00 -0.00000000000E+00 -0.56953624994E+03  0.56953624994E+03  0.00000000000E+00 0.  1.
        -24    2    1    2    0    0  0.82210377714E+02  0.10883478394E+04  0.68802418995E+03  0.12928717236E+04  0.82948429894E+02 0.  0.
    5000000    2    1    2    0    0 -0.82210377714E+02 -0.10883478394E+04  0.11846790999E+04  0.17189040661E+04  0.59992253923E+03 0.  0.
        -24    2    4    4    0    0 -0.72470766866E+01 -0.18616389899E+03  0.60724069686E+03  0.64204539293E+03  0.93656314554E+02 0.  0.
         24    2    4    4    0    0 -0.74963301027E+02 -0.90218394040E+03  0.57743840307E+03  0.10768586732E+04  0.81450192800E+02 0.  0.
         13    1    3    3    0    0  0.52281683175E+02  0.28659352140E+03  0.20749370456E+03  0.35766305140E+03  0.00000000000E+00 0. -1.
        -14    1    3    3    0    0  0.29928694538E+02  0.80175431799E+03  0.48053048539E+03  0.93520867220E+03  0.00000000000E+00 0.  1.
         15    1    5    5    0    0  0.50945363529E+01 -0.12960492177E+03  0.26616461745E+03  0.29609145776E+03  0.17770000000E+01 0. -1.
        -16    1    5    5    0    0 -0.12341613040E+02 -0.56558977226E+02  0.34107607940E+03  0.34595393517E+03  0.00000000000E+00 0.  1.
          4    1    6    6  502    0 -0.28047914476E+02 -0.13413470267E+03  0.11664367584E+03  0.17995708122E+03  0.00000000000E+00 0. -1.
         -3    1    6    6    0  502 -0.46915386552E+02 -0.76804923773E+03  0.46079472723E+03  0.89690159200E+03  0.00000000000E+00 0.  1.
<mgrwt>
<rscale>  0 0.10938798E+04</rscale>
<asrwt>0</asrwt>
<pdfrwt beam="1">  1        1 0.37572915E+00 0.10938798E+04</pdfrwt>
<pdfrwt beam="2">  1       -2 0.87620963E-01 0.10938798E+04</pdfrwt>
<totfact> 0.14666172E+00</totfact>
</mgrwt>
</event>
<event>
12    3  0.1201947E-007  0.6717351E+03  0.7818608E-02  0.9766828E-01
         -2   -1    0    0    0  501 -0.00000000000E+00  0.00000000000E+00  0.27113658282E+03  0.27113658282E+03  0.00000000000E+00 0.  1.
          1   -1    0    0  501    0  0.00000000000E+00 -0.00000000000E+00 -0.22265583393E+04  0.22265583393E+04  0.00000000000E+00 0. -1.
        -24    2    1    2    0    0 -0.46747354928E+02  0.61767801411E+03 -0.47585810244E+03  0.78516913362E+03  0.79612752916E+02 0.  0.
    5000000    2    1    2    0    0  0.46747354928E+02 -0.61767801411E+03 -0.14795636540E+04  0.17125257885E+04  0.59993710138E+03 0.  0.
        -24    2    4    4    0    0 -0.13706160970E+03 -0.12357513216E+03 -0.82969644136E+02  0.21764252103E+03  0.80172357905E+02 0.  0.
         24    2    4    4    0    0  0.18380896463E+03 -0.49410288195E+03 -0.13965940099E+04  0.14948832674E+04  0.79232325658E+02 0.  0.
         13    1    3    3    0    0  0.15199563015E+02  0.32608451390E+03 -0.24872785041E+03  0.41039941580E+03  0.00000000000E+00 0. -1.
        -14    1    3    3    0    0 -0.61946917943E+02  0.29159350021E+03 -0.22713025202E+03  0.37476971782E+03  0.00000000000E+00 0.  1.
         15    1    5    5    0    0 -0.53548178333E+02 -0.29318197661E+02  0.89568152523E+01  0.61728003250E+02  0.17770000000E+01 0. -1.
        -16    1    5    5    0    0 -0.83513431366E+02 -0.94256934501E+02 -0.91926459389E+02  0.15591451778E+03  0.00000000000E+00 0.  1.
          2    1    6    6  502    0  0.13072451301E+03 -0.24999212380E+03 -0.79013817129E+03  0.83898944570E+03  0.00000000000E+00 0. -1.
         -1    1    6    6    0  502  0.53084451621E+02 -0.24411075814E+03 -0.60645583860E+03  0.65589382175E+03  0.00000000000E+00 0.  1.
<mgrwt>
<rscale>  0 0.67173514E+03</rscale>
<asrwt>0</asrwt>
<pdfrwt beam="1">  1        1 0.34254743E+00 0.67173514E+03</pdfrwt>
<pdfrwt beam="2">  1       -2 0.41713321E-01 0.67173514E+03</pdfrwt>
<totfact> 0.10576820E+01</totfact>
</mgrwt>
</event>
<event>
12    3  0.1201947E-007  0.7342745E+03  0.7818608E-02  0.9660349E-01
          1   -1    0    0  501    0  0.00000000000E+00  0.00000000000E+00  0.89562409105E+03  0.89562409105E+03  0.00000000000E+00 0. -1.
         -2   -1    0    0    0  501 -0.00000000000E+00 -0.00000000000E+00 -0.76297435924E+03  0.76297435924E+03  0.00000000000E+00 0.  1.
        -24    2    1    2    0    0 -0.53782895920E+02  0.65545431314E+03  0.33977901911E+03  0.74448770748E+03  0.79367551653E+02 0.  0.
    5000000    2    1    2    0    0  0.53782895920E+02 -0.65545431314E+03 -0.20712928730E+03  0.91411074282E+03  0.60015244061E+03 0.  0.
        -24    2    4    4    0    0 -0.93159217267E+02  0.12038286853E+02  0.10134273536E+03  0.16045148135E+03  0.81552239355E+02 0.  0.
         24    2    4    4    0    0  0.14694211319E+03 -0.66749259999E+03 -0.30847202266E+03  0.75365926147E+03  0.75557514292E+02 0.  0.
         13    1    3    3    0    0 -0.60588793387E+02  0.36683727800E+03  0.21927258117E+03  0.43164922711E+03  0.00000000000E+00 0. -1.
        -14    1    3    3    0    0  0.68058974667E+01  0.28861703514E+03  0.12050643794E+03  0.31283848037E+03  0.00000000000E+00 0.  1.
         15    1    5    5    0    0  0.14930345460E+02 -0.22730310717E+01  0.15140916708E+02  0.21458960216E+02  0.17770000000E+01 0. -1.
        -16    1    5    5    0    0 -0.10808956273E+03  0.14311317925E+02  0.86201818651E+02  0.13899252113E+03  0.00000000000E+00 0.  1.
          4    1    6    6  502    0  0.78018672947E+02 -0.30517201378E+03 -0.18184426731E+03  0.36370896177E+03  0.00000000000E+00 0. -1.
         -3    1    6    6    0  502  0.68923440240E+02 -0.36232058622E+03 -0.12662775535E+03  0.38995029970E+03  0.00000000000E+00 0.  1.
<mgrwt>
<rscale>  0 0.73427445E+03</rscale>
<asrwt>0</asrwt>
<pdfrwt beam="1">  1        1 0.13778832E+00 0.73427445E+03</pdfrwt>
<pdfrwt beam="2">  1       -2 0.11738067E+00 0.73427445E+03</pdfrwt>
<totfact> 0.92414835E+00</totfact>
</mgrwt>
</event>
<event>
12    3  0.1201947E-007  0.3581094E+03  0.7818608E-02  0.1059335E+00
          1   -1    0    0  501    0  0.00000000000E+00  0.00000000000E+00  0.47475917208E+03  0.47475917208E+03  0.00000000000E+00 0. -1.
         -2   -1    0    0    0  501 -0.00000000000E+00 -0.00000000000E+00 -0.41602405687E+03  0.41602405687E+03  0.00000000000E+00 0.  1.
        -24    2    1    2    0    0  0.48699240082E+02  0.22578167241E+03 -0.13540400220E+02  0.24385406674E+03  0.77022619062E+02 0.  0.
    5000000    2    1    2    0    0 -0.48699240082E+02 -0.22578167241E+03  0.72275515433E+02  0.64692916220E+03  0.59995384089E+03 0.  0.
        -24    2    4    4    0    0 -0.10706617029E+03 -0.32176415072E+03 -0.15632816801E+03  0.38091392564E+03  0.75243532106E+02 0.  0.
         24    2    4    4    0    0  0.58366930211E+02  0.95982478309E+02  0.22860368344E+03  0.26601523657E+03  0.76714583484E+02 0.  0.
         11    1    3    3    0    0  0.40525312730E+02  0.10520483265E+03  0.27814582576E+02  0.11612066478E+03  0.00000000000E+00 0. -1.
        -12    1    3    3    0    0  0.81739273520E+01  0.12057683976E+03 -0.41354982796E+02  0.12773340196E+03  0.00000000000E+00 0.  1.
         15    1    5    5    0    0 -0.97710331490E+01  0.12104830426E+01 -0.35421297196E+01  0.10613329824E+02  0.17770000000E+01 0. -1.
        -16    1    5    5    0    0 -0.97295137145E+02 -0.32297463376E+03 -0.15278603829E+03  0.37030059582E+03  0.00000000000E+00 0.  1.
          2    1    6    6  502    0  0.11629084701E+02  0.86927589501E+02  0.13473396428E+03  0.16076343663E+03  0.00000000000E+00 0. -1.
         -1    1    6    6    0  502  0.46737845510E+02  0.90548888077E+01  0.93869719157E+02  0.10525179993E+03  0.00000000000E+00 0.  1.
<mgrwt>
<rscale>  0 0.35810944E+03</rscale>
<asrwt>0</asrwt>
<pdfrwt beam="1">  1        1 0.73039873E-01 0.35810944E+03</pdfrwt>
<pdfrwt beam="2">  1       -2 0.64003701E-01 0.35810944E+03</pdfrwt>
<totfact> 0.98281791E+01</totfact>
</mgrwt>
</event>
<event>
12    3  0.1201947E-007  0.9413185E+03  0.7818608E-02  0.9375356E-01
         -2   -1    0    0    0  501 -0.00000000000E+00  0.00000000000E+00  0.13438468036E+04  0.13438468036E+04  0.00000000000E+00 0.  1.
          1   -1    0    0  501    0  0.00000000000E+00 -0.00000000000E+00 -0.12040844084E+04  0.12040844084E+04  0.00000000000E+00 0. -1.
        -24    2    1    2    0    0  0.26167175866E+03 -0.83078261520E+03  0.89279950827E+03  0.12498773311E+04  0.80190509867E+02 0.  0.
    5000000    2    1    2    0    0 -0.26167175866E+03  0.83078261520E+03 -0.75303711305E+03  0.12980538808E+04  0.59933890321E+03 0.  0.
        -24    2    4    4    0    0 -0.39492255039E+03  0.46678904463E+03 -0.63490853964E+03  0.88504757806E+03  0.79652550051E+02 0.  0.
         24    2    4    4    0    0  0.13325079173E+03  0.36399357057E+03 -0.11812857340E+03  0.41300630276E+03  0.79829526820E+02 0.  0.
         11    1    3    3    0    0  0.14403524492E+03 -0.36591437152E+03  0.44383541291E+03  0.59298343385E+03  0.00000000000E+00 0. -1.
        -12    1    3    3    0    0  0.11763651373E+03 -0.46486824368E+03  0.44896409536E+03  0.65689389727E+03  0.00000000000E+00 0.  1.
         15    1    5    5    0    0 -0.23550565935E+03  0.32138839367E+03 -0.44835409687E+03  0.59981494569E+03  0.17770000000E+01 0. -1.
        -16    1    5    5    0    0 -0.15941689104E+03  0.14540065096E+03 -0.18655444278E+03  0.28523263237E+03  0.00000000000E+00 0.  1.
          2    1    6    6  502    0  0.13633388007E+03  0.27814718242E+03 -0.96059268686E+02  0.32431491647E+03  0.00000000000E+00 0. -1.
         -1    1    6    6    0  502 -0.30830883341E+01  0.85846388152E+02 -0.22069304714E+02  0.88691386295E+02  0.00000000000E+00 0.  1.
<mgrwt>
<rscale>  0 0.94131845E+03</rscale>
<asrwt>0</asrwt>
<pdfrwt beam="1">  1        1 0.18524375E+00 0.94131845E+03</pdfrwt>
<pdfrwt beam="2">  1       -2 0.20674566E+00 0.94131845E+03</pdfrwt>
<totfact> 0.11249457E+00</totfact>
</mgrwt>
</event>
<event>
12    3  0.1201947E-007  0.6287503E+03  0.7818608E-02  0.9847491E-01
          1   -1    0    0  501    0  0.00000000000E+00  0.00000000000E+00  0.88131031712E+03  0.88131031712E+03  0.00000000000E+00 0. -1.
         -2   -1    0    0    0  501 -0.00000000000E+00 -0.00000000000E+00 -0.11188240430E+04  0.11188240430E+04  0.00000000000E+00 0.  1.
        -24    2    1    2    0    0  0.77269659450E+02  0.53029265458E+03  0.62073931415E+03  0.82380186673E+03  0.78430349475E+02 0.  0.
    5000000    2    1    2    0    0 -0.77269659450E+02 -0.53029265458E+03 -0.85825304006E+03  0.11763324934E+04  0.59998246186E+03 0.  0.
        -24    2    4    4    0    0  0.13824562104E+03 -0.59580746048E+01 -0.43860075844E+03  0.46609364081E+03  0.75665753870E+02 0.  0.
         24    2    4    4    0    0 -0.21551528050E+03 -0.52433457998E+03 -0.41965228162E+03  0.71023885262E+03  0.83412243772E+02 0.  0.
         13    1    3    3    0    0  0.52485361847E+01  0.24378444614E+03  0.31900320168E+03  0.40152390464E+03  0.00000000000E+00 0. -1.
        -14    1    3    3    0    0  0.72021123266E+02  0.28650820844E+03  0.30173611247E+03  0.42227796209E+03  0.00000000000E+00 0.  1.
         15    1    5    5    0    0  0.80807534583E+02  0.21461131011E+02 -0.32793932182E+03  0.33843432792E+03  0.17770000000E+01 0. -1.
        -16    1    5    5    0    0  0.57438086462E+02 -0.27419205615E+02 -0.11066143662E+03  0.12765931289E+03  0.00000000000E+00 0.  1.
          2    1    6    6  502    0 -0.88655341043E+02 -0.13522588711E+03 -0.14648440173E+03  0.21818224032E+03  0.00000000000E+00 0. -1.
         -1    1    6    6    0  502 -0.12685993945E+03 -0.38910869287E+03 -0.27316787989E+03  0.49205661230E+03  0.00000000000E+00 0.  1.
<mgrwt>
<rscale>  0 0.62875027E+03</rscale>
<asrwt>0</asrwt>
<pdfrwt beam="1">  1        1 0.13558620E+00 0.62875027E+03</pdfrwt>
<pdfrwt beam="2">  1       -2 0.17212678E+00 0.62875027E+03</pdfrwt>
<totfact> 0.35564964E+00</totfact>
</mgrwt>
</event>
<event>
12    3  0.1201947E-007  0.5903988E+03  0.7818608E-02  0.9925528E-01
         -2   -1    0    0    0  501 -0.00000000000E+00  0.00000000000E+00  0.10063469638E+04  0.10063469638E+04  0.00000000000E+00 0.  1.
          1   -1    0    0  501    0  0.00000000000E+00 -0.00000000000E+00 -0.61016310425E+03  0.61016310425E+03  0.00000000000E+00 0. -1.
        -24    2    1    2    0    0  0.55184658014E+03 -0.94151747114E+02 -0.20192903339E+03  0.60102929566E+03  0.84033804071E+02 0.  0.
    5000000    2    1    2    0    0 -0.55184658014E+03  0.94151747114E+02  0.59811289289E+03  0.10154807723E+04  0.60005247009E+03 0.  0.
        -24    2    4    4    0    0 -0.58720803843E+02  0.90961371676E+02 -0.92603983123E+02  0.16300208200E+03  0.79196446296E+02 0.  0.
         24    2    4    4    0    0 -0.49312577630E+03  0.31903754382E+01  0.69071687601E+03  0.85247869034E+03  0.80292620640E+02 0.  0.
         11    1    3    3    0    0  0.14894344736E+03 -0.63409778240E+02 -0.51760916211E+02  0.16995335517E+03  0.00000000000E+00 0. -1.
        -12    1    3    3    0    0  0.40290313278E+03 -0.30741968873E+02 -0.15016811717E+03  0.43107594049E+03  0.00000000000E+00 0.  1.
         15    1    5    5    0    0 -0.27120440290E+02  0.11153146232E+02  0.82993909295E+01  0.30527832730E+02  0.17770000000E+01 0. -1.
        -16    1    5    5    0    0 -0.31600363553E+02  0.79808225444E+02 -0.10090337405E+03  0.13247424927E+03  0.00000000000E+00 0.  1.
          4    1    6    6  502    0 -0.39449008333E+03 -0.29822154999E+02  0.54749325542E+03  0.67547068885E+03  0.00000000000E+00 0. -1.
         -3    1    6    6    0  502 -0.98635692963E+02  0.33012530437E+02  0.14322362060E+03  0.17700800148E+03  0.00000000000E+00 0.  1.
<mgrwt>
<rscale>  0 0.59039885E+03</rscale>
<asrwt>0</asrwt>
<pdfrwt beam="1">  1        1 0.93871247E-01 0.59039885E+03</pdfrwt>
<pdfrwt beam="2">  1       -2 0.15482261E+00 0.59039885E+03</pdfrwt>
<totfact> 0.83935993E+00</totfact>
</mgrwt>
</event>
<event>
12    3  0.1201947E-007  0.1220615E+04  0.7818608E-02  0.9095001E-01
         -2   -1    0    0    0  501 -0.00000000000E+00  0.00000000000E+00  0.22341567069E+04  0.22341567069E+04  0.00000000000E+00 0.  1.
          1   -1    0    0  501    0  0.00000000000E+00 -0.00000000000E+00 -0.78076048692E+03  0.78076048692E+03  0.00000000000E+00 0. -1.
        -24    2    1    2    0    0  0.11686442789E+04 -0.30517291231E+03  0.31725902614E+03  0.12513617597E+04  0.79956280367E+02 0.  0.
    5000000    2    1    2    0    0 -0.11686442789E+04  0.30517291231E+03  0.11361371939E+04  0.17635554342E+04  0.60038328516E+03 0.  0.
        -24    2    4    4    0    0 -0.23827478360E+03  0.14443319768E+03  0.62176522652E+03  0.68510636286E+03  0.71714088024E+02 0.  0.
         24    2    4    4    0    0 -0.93036949534E+03  0.16073971463E+03  0.51437196735E+03  0.10784490713E+04  0.83959662780E+02 0.  0.
         11    1    3    3    0    0  0.61397277225E+03 -0.17297381571E+03  0.12820159479E+03  0.65062904553E+03  0.00000000000E+00 0. -1.
        -12    1    3    3    0    0  0.55467150669E+03 -0.13219909660E+03  0.18905743135E+03  0.60073271412E+03  0.00000000000E+00 0.  1.
         15    1    5    5    0    0 -0.35212287811E+02  0.53040114892E+02  0.16743240122E+03  0.17913661186E+03  0.17770000000E+01 0. -1.
        -16    1    5    5    0    0 -0.20306249579E+03  0.91393082790E+02  0.45433282531E+03  0.50596975100E+03  0.00000000000E+00 0.  1.
          2    1    6    6  502    0 -0.58459717279E+03  0.13543731003E+03  0.35089112402E+03  0.69514149661E+03  0.00000000000E+00 0. -1.
         -1    1    6    6    0  502 -0.34577232254E+03  0.25302404594E+02  0.16348084333E+03  0.38330757474E+03  0.00000000000E+00 0.  1.
<mgrwt>
<rscale>  0 0.12206150E+04</rscale>
<asrwt>0</asrwt>
<pdfrwt beam="1">  1        1 0.12011700E+00 0.12206150E+04</pdfrwt>
<pdfrwt beam="2">  1       -2 0.34371641E+00 0.12206150E+04</pdfrwt>
<totfact> 0.33808342E-01</totfact>
</mgrwt>
</event>
<event>
12    3  0.1201947E-007  0.4281896E+03  0.7818608E-02  0.1034433E+00
         -2   -1    0    0    0  501 -0.00000000000E+00  0.00000000000E+00  0.29482373680E+03  0.29482373680E+03  0.00000000000E+00 0.  1.
          1   -1    0    0  501    0  0.00000000000E+00 -0.00000000000E+00 -0.11375432175E+04  0.11375432175E+04  0.00000000000E+00 0. -1.
        -24    2    1    2    0    0 -0.22829711907E+03 -0.31898084626E+03 -0.13014270847E+03  0.42172193564E+03  0.83928014266E+02 0.  0.
    5000000    2    1    2    0    0  0.22829711907E+03  0.31898084626E+03 -0.71257677220E+03  0.10106450186E+04  0.59980775464E+03 0.  0.
        -24    2    4    4    0    0 -0.25366150623E+02  0.59475484988E+02  0.83652291065E+02  0.13215189898E+03  0.79282051509E+02 0.  0.
         24    2    4    4    0    0  0.25366326969E+03  0.25950536127E+03 -0.79622906326E+03  0.87849311964E+03  0.77983031162E+02 0.  0.
         13    1    3    3    0    0 -0.12698252764E+03 -0.15311412853E+03 -0.10732753179E+03  0.22602587852E+03  0.00000000000E+00 0. -1.
        -14    1    3    3    0    0 -0.10131459143E+03 -0.16586671772E+03 -0.22815176685E+02  0.19569605712E+03  0.00000000000E+00 0.  1.
         15    1    5    5    0    0  0.18027196664E+02  0.43037105929E+02  0.69332055849E+02  0.83589855865E+02  0.17770000000E+01 0. -1.
        -16    1    5    5    0    0 -0.43393347286E+02  0.16438379060E+02  0.14320235216E+02  0.48562043114E+02  0.00000000000E+00 0.  1.
          2    1    6    6  502    0  0.82400455783E+02  0.13539409212E+03 -0.30694226356E+03  0.34544890860E+03  0.00000000000E+00 0. -1.
         -1    1    6    6    0  502  0.17126281391E+03  0.12411126915E+03 -0.48928679970E+03  0.53304421104E+03  0.00000000000E+00 0.  1.
<mgrwt>
<rscale>  0 0.42818963E+03</rscale>
<asrwt>0</asrwt>
<pdfrwt beam="1">  1        1 0.17500666E+00 0.42818963E+03</pdfrwt>
<pdfrwt beam="2">  1       -2 0.45357496E-01 0.42818963E+03</pdfrwt>
<totfact> 0.51069626E+01</totfact>
</mgrwt>
</event>
<event>
12    3  0.1201947E-007  0.4188058E+03  0.7818608E-02  0.1037456E+00
         -2   -1    0    0    0  501 -0.00000000000E+00  0.00000000000E+00  0.23760881979E+03  0.23760881979E+03  0.00000000000E+00 0.  1.
          1   -1    0    0  501    0  0.00000000000E+00 -0.00000000000E+00 -0.16776939291E+04  0.16776939291E+04  0.00000000000E+00 0. -1.
        -24    2    1    2    0    0 -0.36729547090E+03 -0.73006190042E+02 -0.93401200825E+02  0.39417749513E+03  0.80101477019E+02 0.  0.
    5000000    2    1    2    0    0  0.36729547090E+03  0.73006190042E+02 -0.13466839084E+04  0.15211252537E+04  0.60002385080E+03 0.  0.
        -24    2    4    4    0    0  0.24714766063E+03 -0.60304536609E+02 -0.12887397732E+04  0.13161643254E+04  0.81973930637E+02 0.  0.
         24    2    4    4    0    0  0.12014781027E+03  0.13331072665E+03 -0.57944135277E+02  0.20496092829E+03  0.80275856650E+02 0.  0.
         11    1    3    3    0    0 -0.23510805674E+03 -0.90143570283E+01 -0.45002485613E+02  0.23954598867E+03  0.00000000000E+00 0. -1.
        -12    1    3    3    0    0 -0.13218741416E+03 -0.63991833014E+02 -0.48398715212E+02  0.15463150646E+03  0.00000000000E+00 0.  1.
         15    1    5    5    0    0  0.63665402332E+01 -0.11392050552E+02 -0.18217599866E+03  0.18265148197E+03  0.17770000000E+01 0. -1.
        -16    1    5    5    0    0  0.24078112040E+03 -0.48912486056E+02 -0.11065637745E+04  0.11335128435E+04  0.00000000000E+00 0.  1.
          4    1    6    6  502    0  0.13046058318E+03  0.10833302172E+03 -0.50186362354E+02  0.17684648236E+03  0.00000000000E+00 0. -1.
         -3    1    6    6    0  502 -0.10312772915E+02  0.24977704936E+02 -0.77577729225E+01  0.28114445927E+02  0.00000000000E+00 0.  1.
<mgrwt>
<rscale>  0 0.41880575E+03</rscale>
<asrwt>0</asrwt>
<pdfrwt beam="1">  1        1 0.25810675E+00 0.41880575E+03</pdfrwt>
<pdfrwt beam="2">  1       -2 0.36555204E-01 0.41880575E+03</pdfrwt>
<totfact> 0.33127398E+01</totfact>
</mgrwt>
</event>
<event>
12    3  0.1201947E-007  0.6446137E+03  0.7818608E-02  0.9816939E-01
          1   -1    0    0  501    0  0.00000000000E+00  0.00000000000E+00  0.26829433134E+04  0.26829433134E+04  0.00000000000E+00 0. -1.
         -2   -1    0    0    0  501 -0.00000000000E+00 -0.00000000000E+00 -0.18658176701E+03  0.18658176701E+03  0.00000000000E+00 0.  1.
        -24    2    1    2    0    0 -0.34255276439E+03 -0.46234367647E+03  0.11187938228E+04  0.12605175296E+04  0.78107316996E+02 0.  0.
    5000000    2    1    2    0    0  0.34255276439E+03  0.46234367647E+03  0.13775677237E+04  0.16090075509E+04  0.60009032143E+03 0.  0.
        -24    2    4    4    0    0  0.50056831988E+02  0.40766240249E+03  0.11580409439E+04  0.12312705000E+04  0.79207925656E+02 0.  0.
         24    2    4    4    0    0  0.29249593240E+03  0.54681273981E+02  0.21952677977E+03  0.37773705090E+03  0.77132097043E+02 0.  0.
         11    1    3    3    0    0 -0.24807200178E+03 -0.31470733819E+03  0.70116207429E+03  0.80759437912E+03  0.00000000000E+00 0. -1.
        -12    1    3    3    0    0 -0.94480762608E+02 -0.14763633828E+03  0.41763174847E+03  0.45292315045E+03  0.00000000000E+00 0.  1.
         15    1    5    5    0    0 -0.12989831960E+02  0.84914792153E+02  0.31049206946E+03  0.32216104759E+03  0.17770000000E+01 0. -1.
        -16    1    5    5    0    0  0.63046663948E+02  0.32274761034E+03  0.84754887445E+03  0.90910945237E+03  0.00000000000E+00 0.  1.
          4    1    6    6  502    0  0.27702404347E+02 -0.15864737095E+01 -0.21741138094E+01  0.27832838092E+02  0.00000000000E+00 0. -1.
         -3    1    6    6    0  502  0.26479352805E+03  0.56267747691E+02  0.22170089358E+03  0.34990421281E+03  0.00000000000E+00 0.  1.
<mgrwt>
<rscale>  0 0.64461372E+03</rscale>
<asrwt>0</asrwt>
<pdfrwt beam="1">  1        1 0.41276048E+00 0.64461372E+03</pdfrwt>
<pdfrwt beam="2">  1       -2 0.28704889E-01 0.64461372E+03</pdfrwt>
<totfact> 0.10582875E+01</totfact>
</mgrwt>
</event>
<event>
12    3  0.1201947E-007  0.4665227E+03  0.7818608E-02  0.1022906E+00
          1   -1    0    0  501    0  0.00000000000E+00  0.00000000000E+00  0.13505309540E+04  0.13505309540E+04  0.00000000000E+00 0. -1.
         -2   -1    0    0    0  501 -0.00000000000E+00 -0.00000000000E+00 -0.48779252204E+03  0.48779252204E+03  0.00000000000E+00 0.  1.
        -24    2    1    2    0    0 -0.24254324725E+03  0.16042833371E+03 -0.34512838221E+03  0.45862775674E+03  0.81617044800E+02 0.  0.
    5000000    2    1    2    0    0  0.24254324725E+03 -0.16042833371E+03  0.12078668141E+04  0.13796957193E+04  0.60004463169E+03 0.  0.
        -24    2    4    4    0    0  0.29571275066E+03  0.13446502552E+03  0.44884476689E+03  0.55977804763E+03  0.79768188232E+02 0.  0.
         24    2    4    4    0    0 -0.53169503414E+02 -0.29489335923E+03  0.75902204725E+03  0.81991767164E+03  0.79758577203E+02 0.  0.
         13    1    3    3    0    0 -0.15862561084E+03  0.14294288506E+03 -0.21675292630E+03  0.30426400356E+03  0.00000000000E+00 0. -1.
        -14    1    3    3    0    0 -0.83917636407E+02  0.17485448651E+02 -0.12837545591E+03  0.15436375318E+03  0.00000000000E+00 0.  1.
         15    1    5    5    0    0  0.14359117992E+03  0.61015076483E+02  0.28235718207E+03  0.32259882595E+03  0.17770000000E+01 0. -1.
        -16    1    5    5    0    0  0.15212157075E+03  0.73449949034E+02  0.16648758483E+03  0.23717922169E+03  0.00000000000E+00 0.  1.
          4    1    6    6  502    0  0.18263455596E+02 -0.37334087700E+02  0.12944669790E+03  0.13595527026E+03  0.00000000000E+00 0. -1.
         -3    1    6    6    0  502 -0.71432959011E+02 -0.25755927153E+03  0.62957534935E+03  0.68396240137E+03  0.00000000000E+00 0.  1.
<mgrwt>
<rscale>  0 0.46652265E+03</rscale>
<asrwt>0</asrwt>
<pdfrwt beam="1">  1        1 0.20777399E+00 0.46652265E+03</pdfrwt>
<pdfrwt beam="2">  1       -2 0.75045004E-01 0.46652265E+03</pdfrwt>
<totfact> 0.12548657E+01</totfact>
</mgrwt>
</event>
<event>
12    3  0.1201947E-007  0.5718423E+03  0.7818608E-02  0.9965610E-01
         -2   -1    0    0    0  501 -0.00000000000E+00  0.00000000000E+00  0.32397444939E+03  0.32397444939E+03  0.00000000000E+00 0.  1.
          1   -1    0    0  501    0  0.00000000000E+00 -0.00000000000E+00 -0.13883477379E+04  0.13883477379E+04  0.00000000000E+00 0. -1.
        -24    2    1    2    0    0 -0.43685537016E+03  0.45107615838E+02 -0.81315147272E+03  0.92745979358E+03  0.78032298900E+02 0.  0.
    5000000    2    1    2    0    0  0.43685537016E+03 -0.45107615838E+02 -0.25122181576E+03  0.78486239368E+03  0.60001605383E+03 0.  0.
        -24    2    4    4    0    0 -0.10670848997E+03 -0.84860875024E+02 -0.16303822136E+03  0.22706165874E+03  0.79921619765E+02 0.  0.
         24    2    4    4    0    0  0.54356386013E+03  0.39753259185E+02 -0.88183594403E+02  0.55780073494E+03  0.79519317900E+02 0.  0.
         13    1    3    3    0    0 -0.22526913924E+03  0.26902860101E+02 -0.50032243405E+03  0.54935642982E+03  0.00000000000E+00 0. -1.
        -14    1    3    3    0    0 -0.21158623092E+03  0.18204755737E+02 -0.31282903868E+03  0.37810336376E+03  0.00000000000E+00 0.  1.
         15    1    5    5    0    0  0.13032668376E+02 -0.95372497429E+01 -0.21517828383E+02  0.26962645363E+02  0.17770000000E+01 0. -1.
        -16    1    5    5    0    0 -0.11974115835E+03 -0.75323625281E+02 -0.14152039297E+03  0.20009901338E+03  0.00000000000E+00 0.  1.
          4    1    6    6  502    0  0.21357536289E+03 -0.55880940389E+01 -0.67551721492E+02  0.22407341989E+03  0.00000000000E+00 0. -1.
         -3    1    6    6    0  502  0.32998849725E+03  0.45341353224E+02 -0.20631872912E+02  0.33372731505E+03  0.00000000000E+00 0.  1.
<mgrwt>
<rscale>  0 0.57184233E+03</rscale>
<asrwt>0</asrwt>
<pdfrwt beam="1">  1        1 0.21359196E+00 0.57184233E+03</pdfrwt>
<pdfrwt beam="2">  1       -2 0.49842223E-01 0.57184233E+03</pdfrwt>
<totfact> 0.27515774E+01</totfact>
</mgrwt>
</event>
<event>
12    3  0.1201947E-007  0.9106515E+03  0.7818608E-02  0.9412364E-01
          1   -1    0    0  501    0  0.00000000000E+00  0.00000000000E+00  0.87186294176E+03  0.87186294176E+03  0.00000000000E+00 0. -1.
         -2   -1    0    0    0  501 -0.00000000000E+00 -0.00000000000E+00 -0.11051748690E+04  0.11051748690E+04  0.00000000000E+00 0.  1.
        -24    2    1    2    0    0  0.10808863569E+03 -0.80492194038E+03 -0.46747428312E+03  0.94047081880E+03  0.79816491823E+02 0.  0.
    5000000    2    1    2    0    0 -0.10808863569E+03  0.80492194038E+03  0.23416235593E+03  0.10365669919E+04  0.60004719524E+03 0.  0.
        -24    2    4    4    0    0 -0.18846688184E+03  0.86037893148E+03  0.20421109312E+03  0.90769672048E+03  0.80246461182E+02 0.  0.
         24    2    4    4    0    0  0.80378246155E+02 -0.55456991099E+02  0.29951262812E+02  0.12887027143E+03  0.78576894813E+02 0.  0.
         13    1    3    3    0    0  0.74999342414E+02 -0.68710679453E+03 -0.36979688423E+03  0.78389437046E+03  0.00000000000E+00 0. -1.
        -14    1    3    3    0    0  0.33089293277E+02 -0.11781514585E+03 -0.97677398892E+02  0.15657644834E+03  0.00000000000E+00 0.  1.
         15    1    5    5    0    0 -0.33323872440E+02  0.31943517042E+03  0.88935341438E+02  0.33325960040E+03  0.17770000000E+01 0. -1.
        -16    1    5    5    0    0 -0.15514300941E+03  0.54094376106E+03  0.11527575168E+03  0.57443712008E+03  0.00000000000E+00 0.  1.
          4    1    6    6  502    0 -0.13802542747E+02  0.12865292902E+01  0.10068971817E+02  0.17133287406E+02  0.00000000000E+00 0. -1.
         -3    1    6    6    0  502  0.94180788901E+02 -0.56743520389E+02  0.19882290995E+02  0.11173698403E+03  0.00000000000E+00 0.  1.
<mgrwt>
<rscale>  0 0.91065151E+03</rscale>
<asrwt>0</asrwt>
<pdfrwt beam="1">  1        1 0.13413276E+00 0.91065151E+03</pdfrwt>
<pdfrwt beam="2">  1       -2 0.17002690E+00 0.91065151E+03</pdfrwt>
<totfact> 0.36044380E+00</totfact>
</mgrwt>
</event>
<event>
12    3  0.1201947E-007  0.9336354E+03  0.7818608E-02  0.9384486E-01
          1   -1    0    0  501    0  0.00000000000E+00  0.00000000000E+00  0.25677100787E+04  0.25677100787E+04  0.00000000000E+00 0. -1.
         -2   -1    0    0    0  501 -0.00000000000E+00 -0.00000000000E+00 -0.41705437226E+03  0.41705437226E+03  0.00000000000E+00 0.  1.
        -24    2    1    2    0    0 -0.67036078878E+03 -0.51310851069E+03  0.16023648537E+04  0.18129347251E+04  0.80593189961E+02 0.  0.
    5000000    2    1    2    0    0  0.67036078878E+03  0.51310851069E+03  0.54829085269E+03  0.11718297258E+04  0.59991509088E+03 0.  0.
        -24    2    4    4    0    0 -0.44416828482E+02  0.24861138361E+03  0.95391601106E+02  0.28160610005E+03  0.80137153113E+02 0.  0.
         24    2    4    4    0    0  0.71477761727E+03  0.26449712708E+03  0.45289925159E+03  0.89022362576E+03  0.80713068345E+02 0.  0.
         11    1    3    3    0    0 -0.21783786932E+03 -0.20284253743E+03  0.61938200135E+03  0.68719174609E+03  0.00000000000E+00 0. -1.
        -12    1    3    3    0    0 -0.45252291946E+03 -0.31026597327E+03  0.98298285239E+03  0.11257429791E+04  0.00000000000E+00 0.  1.
         15    1    5    5    0    0  0.45252049692E+01  0.13444900949E+03  0.79792697234E+02  0.15641945497E+03  0.17770000000E+01 0. -1.
        -16    1    5    5    0    0 -0.48942033452E+02  0.11416237412E+03  0.15598903872E+02  0.12518664507E+03  0.00000000000E+00 0.  1.
          2    1    6    6  502    0  0.47881221760E+03  0.17281648201E+03  0.34557236688E+03  0.61526168167E+03  0.00000000000E+00 0. -1.
         -1    1    6    6    0  502  0.23596539966E+03  0.91680645070E+02  0.10732688470E+03  0.27496194409E+03  0.00000000000E+00 0.  1.
<mgrwt>
<rscale>  0 0.93363536E+03</rscale>
<asrwt>0</asrwt>
<pdfrwt beam="1">  1        1 0.39503231E+00 0.93363536E+03</pdfrwt>
<pdfrwt beam="2">  1       -2 0.64162213E-01 0.93363536E+03</pdfrwt>
<totfact> 0.24595904E+00</totfact>
</mgrwt>
</event>
<event>
12    3  0.1201947E-007  0.6052010E+03  0.7818608E-02  0.9894674E-01
         -2   -1    0    0    0  501 -0.00000000000E+00  0.00000000000E+00  0.47828813185E+03  0.47828813185E+03  0.00000000000E+00 0.  1.
          1   -1    0    0  501    0  0.00000000000E+00 -0.00000000000E+00 -0.97609507280E+03  0.97609507280E+03  0.00000000000E+00 0. -1.
        -24    2    1    2    0    0  0.42700796615E+03  0.29507717469E+03 -0.38890382029E+03  0.65353884949E+03  0.80377261571E+02 0.  0.
    5000000    2    1    2    0    0 -0.42700796615E+03 -0.29507717469E+03 -0.10890312066E+03  0.80084435517E+03  0.60007120356E+03 0.  0.
        -24    2    4    4    0    0 -0.38993160346E+03 -0.36109802117E+01  0.12471495004E+03  0.41719327082E+03  0.80229121297E+02 0.  0.
         24    2    4    4    0    0 -0.37076362692E+02 -0.29146619448E+03 -0.23361807070E+03  0.38365108435E+03  0.79268861299E+02 0.  0.
         13    1    3    3    0    0  0.18730953058E+03  0.94699376078E+02 -0.19046172746E+03  0.28342283201E+03  0.00000000000E+00 0. -1.
        -14    1    3    3    0    0  0.23969843556E+03  0.20037779861E+03 -0.19844209283E+03  0.37011601748E+03  0.00000000000E+00 0.  1.
         15    1    5    5    0    0 -0.35178136940E+03 -0.19257658662E+02  0.13018904178E+03  0.37559730244E+03  0.17770000000E+01 0. -1.
        -16    1    5    5    0    0 -0.38150234060E+02  0.15646678451E+02 -0.54740917390E+01  0.41595968384E+02  0.00000000000E+00 0.  1.
          4    1    6    6  502    0 -0.28541124417E+02 -0.26906996380E+03 -0.18017259232E+03  0.32507753571E+03  0.00000000000E+00 0. -1.
         -3    1    6    6    0  502 -0.85352382756E+01 -0.22396230681E+02 -0.53445478374E+02  0.58573548636E+02  0.00000000000E+00 0.  1.
<mgrwt>
<rscale>  0 0.60520097E+03</rscale>
<asrwt>0</asrwt>
<pdfrwt beam="1">  1        1 0.15016847E+00 0.60520097E+03</pdfrwt>
<pdfrwt beam="2">  1       -2 0.73582791E-01 0.60520097E+03</pdfrwt>
<totfact> 0.23989543E+01</totfact>
</mgrwt>
</event>
<event>
12    3  0.1201947E-007  0.1673012E+04  0.7818608E-02  0.8776908E-01
          1   -1    0    0  501    0  0.00000000000E+00  0.00000000000E+00  0.20163701009E+04  0.20163701009E+04  0.00000000000E+00 0. -1.
         -2   -1    0    0    0  501 -0.00000000000E+00 -0.00000000000E+00 -0.13992140079E+04  0.13992140079E+04  0.00000000000E+00 0.  1.
        -24    2    1    2    0    0  0.25874001494E+03  0.15996278821E+04  0.42414901528E+03  0.16768580275E+04  0.78706421126E+02 0.  0.
    5000000    2    1    2    0    0 -0.25874001494E+03 -0.15996278821E+04  0.19300707774E+03  0.17387260813E+04  0.60013406594E+03 0.  0.
        -24    2    4    4    0    0  0.25745676412E+02 -0.13135480027E+04  0.14514868900E+03  0.13241651835E+04  0.79209191687E+02 0.  0.
         24    2    4    4    0    0 -0.28448569135E+03 -0.28607987942E+03  0.47858388741E+02  0.41456089778E+03  0.82440927974E+02 0.  0.
         13    1    3    3    0    0  0.15695866198E+03  0.10402345648E+04  0.23812559257E+03  0.10786230895E+04  0.00000000000E+00 0. -1.
        -14    1    3    3    0    0  0.10178135296E+03  0.55939331731E+03  0.18602342270E+03  0.59823493801E+03  0.00000000000E+00 0.  1.
         15    1    5    5    0    0  0.28082898476E+01 -0.12109089887E+03 -0.94737808274E+01  0.12150638886E+03  0.17770000000E+01 0. -1.
        -16    1    5    5    0    0  0.22937386564E+02 -0.11924571038E+04  0.15462246983E+03  0.12026587946E+04  0.00000000000E+00 0.  1.
          4    1    6    6  502    0 -0.19188012612E+03 -0.24262285927E+03  0.30868791309E+02  0.31086446712E+03  0.00000000000E+00 0. -1.
         -3    1    6    6    0  502 -0.92605565225E+02 -0.43457020153E+02  0.16989597433E+02  0.10369643066E+03  0.00000000000E+00 0.  1.
<mgrwt>
<rscale>  0 0.16730122E+04</rscale>
<asrwt>0</asrwt>
<pdfrwt beam="1">  1        1 0.31021078E+00 0.16730122E+04</pdfrwt>
<pdfrwt beam="2">  1       -2 0.21526370E+00 0.16730122E+04</pdfrwt>
<totfact> 0.24944502E-01</totfact>
</mgrwt>
</event>
<event>
12    3  0.1201947E-007  0.3704066E+03  0.7818608E-02  0.1054538E+00
          1   -1    0    0  501    0  0.00000000000E+00  0.00000000000E+00  0.18043702327E+04  0.18043702327E+04  0.00000000000E+00 0. -1.
         -2   -1    0    0    0  501 -0.00000000000E+00 -0.00000000000E+00 -0.15728576821E+03  0.15728576821E+03  0.00000000000E+00 0.  1.
        -24    2    1    2    0    0 -0.26331683773E+03 -0.12224470771E+03  0.18163775259E+03  0.35181420011E+03  0.80631461825E+02 0.  0.
    5000000    2    1    2    0    0  0.26331683773E+03  0.12224470771E+03  0.14654467119E+04  0.16098418008E+04  0.59981416505E+03 0.  0.
        -24    2    4    4    0    0  0.99146098086E+02  0.21841614656E+03  0.13507003776E+04  0.13741426583E+04  0.79630228734E+02 0.  0.
         24    2    4    4    0    0  0.16417073965E+03 -0.96171438857E+02  0.11474633430E+03  0.23569914255E+03  0.78653589598E+02 0.  0.
         13    1    3    3    0    0 -0.55480347392E+02 -0.45140170824E+02  0.11657761912E+02  0.72467974868E+02  0.00000000000E+00 0. -1.
        -14    1    3    3    0    0 -0.20783649034E+03 -0.77104536882E+02  0.16997999067E+03  0.27934622524E+03  0.00000000000E+00 0.  1.
         15    1    5    5    0    0  0.58702630563E+02  0.78272405718E+02  0.73024945590E+03  0.73677675988E+03  0.17770000000E+01 0. -1.
        -16    1    5    5    0    0  0.40443467524E+02  0.14014374084E+03  0.62045092171E+03  0.63736589837E+03  0.00000000000E+00 0.  1.
          2    1    6    6  502    0  0.12089569392E+03 -0.10452795505E+03  0.10283142622E+03  0.19004253317E+03  0.00000000000E+00 0. -1.
         -1    1    6    6    0  502  0.43275045733E+02  0.83565161945E+01  0.11914908084E+02  0.45656609387E+02  0.00000000000E+00 0.  1.
<mgrwt>
<rscale>  0 0.37040660E+03</rscale>
<asrwt>0</asrwt>
<pdfrwt beam="1">  1        1 0.27759541E+00 0.37040660E+03</pdfrwt>
<pdfrwt beam="2">  1       -2 0.24197812E-01 0.37040660E+03</pdfrwt>
<totfact> 0.58866631E+01</totfact>
</mgrwt>
</event>
<event>
12    3  0.1201947E-007  0.4262658E+03  0.7818608E-02  0.1035046E+00
         -2   -1    0    0    0  501 -0.00000000000E+00  0.00000000000E+00  0.22511493258E+03  0.22511493258E+03  0.00000000000E+00 0.  1.
          1   -1    0    0  501    0  0.00000000000E+00 -0.00000000000E+00 -0.93836450860E+03  0.93836450860E+03  0.00000000000E+00 0. -1.
        -24    2    1    2    0    0  0.20156548066E+03 -0.12108007991E+03 -0.32877949080E+03  0.41312277775E+03  0.85354831046E+02 0.  0.
    5000000    2    1    2    0    0 -0.20156548066E+03  0.12108007991E+03 -0.38447008522E+03  0.75035666343E+03  0.59994070306E+03 0.  0.
        -24    2    4    4    0    0  0.93169546904E+02 -0.17374748260E+03 -0.73348901383E+02  0.22330601974E+03  0.74945079468E+02 0.  0.
         24    2    4    4    0    0 -0.29473502756E+03  0.29482756251E+03 -0.31112118384E+03  0.52705064369E+03  0.84817226403E+02 0.  0.
         13    1    3    3    0    0  0.11123880672E+03 -0.55919500408E+02 -0.10385249977E+03  0.16213082482E+03  0.00000000000E+00 0. -1.
        -14    1    3    3    0    0  0.90326673933E+02 -0.65160579501E+02 -0.22492699102E+03  0.25099195293E+03  0.00000000000E+00 0.  1.
         15    1    5    5    0    0  0.72730924236E+02 -0.10651750922E+03 -0.81476941797E+02  0.15256938383E+03  0.17770000000E+01 0. -1.
        -16    1    5    5    0    0  0.20438622668E+02 -0.67229973388E+02  0.81280404145E+01  0.70736635906E+02  0.00000000000E+00 0.  1.
          4    1    6    6  502    0 -0.16390026375E+03  0.17831623782E+03 -0.22993223347E+03  0.33395929260E+03  0.00000000000E+00 0. -1.
         -3    1    6    6    0  502 -0.13083476381E+03  0.11651132470E+03 -0.81188950367E+02  0.19309135109E+03  0.00000000000E+00 0.  1.
<mgrwt>
<rscale>  0 0.42626576E+03</rscale>
<asrwt>0</asrwt>
<pdfrwt beam="1">  1        1 0.14436377E+00 0.42626576E+03</pdfrwt>
<pdfrwt beam="2">  1       -2 0.34633066E-01 0.42626576E+03</pdfrwt>
<totfact> 0.12137253E+02</totfact>
</mgrwt>
</event>
<event>
12    3  0.1201947E-007  0.4914067E+03  0.7818608E-02  0.1016047E+00
         -2   -1    0    0    0  501 -0.00000000000E+00  0.00000000000E+00  0.96408025554E+03  0.96408025554E+03  0.00000000000E+00 0.  1.
          1   -1    0    0  501    0  0.00000000000E+00 -0.00000000000E+00 -0.32947035450E+03  0.32947035450E+03  0.00000000000E+00 0. -1.
        -24    2    1    2    0    0 -0.14024709305E+03 -0.28631631249E+03 -0.46398087992E+02  0.33161093935E+03  0.78528686606E+02 0.  0.
    5000000    2    1    2    0    0  0.14024709305E+03  0.28631631249E+03  0.68100798903E+03  0.96193967069E+03  0.59992480447E+03 0.  0.
        -24    2    4    4    0    0 -0.21831359039E+03  0.67267333538E+02  0.23559725126E+03  0.34453396831E+03  0.10493746997E+03 0.  0.
         24    2    4    4    0    0  0.35856068344E+03  0.21904897895E+03  0.44541073777E+03  0.61740570238E+03  0.79062362312E+02 0.  0.
         13    1    3    3    0    0 -0.14636004200E+03 -0.24104047419E+03 -0.47191040701E+02  0.28591741188E+03  0.00000000000E+00 0. -1.
        -14    1    3    3    0    0  0.61129489551E+01 -0.45275838299E+02  0.79295270859E+00  0.45693527469E+02  0.00000000000E+00 0.  1.
         15    1    5    5    0    0 -0.11690354670E+03  0.57906801640E+02  0.19559681876E+03  0.23511892767E+03  0.17770000000E+01 0. -1.
        -16    1    5    5    0    0 -0.10141004368E+03  0.93605318978E+01  0.40000432498E+02  0.10941504064E+03  0.00000000000E+00 0.  1.
          4    1    6    6  502    0  0.12116865058E+03  0.10075038748E+03  0.21157734462E+03  0.26381329614E+03  0.00000000000E+00 0. -1.
         -3    1    6    6    0  502  0.23739203286E+03  0.11829859147E+03  0.23383339314E+03  0.35359240625E+03  0.00000000000E+00 0.  1.
<mgrwt>
<rscale>  0 0.49140669E+03</rscale>
<asrwt>0</asrwt>
<pdfrwt beam="1">  1        1 0.50687747E-01 0.49140669E+03</pdfrwt>
<pdfrwt beam="2">  1       -2 0.14832004E+00 0.49140669E+03</pdfrwt>
<totfact> 0.21805126E+01</totfact>
</mgrwt>
</event>
<event>
12    3  0.1201947E-007  0.6595408E+03  0.7818608E-02  0.9789039E-01
         -2   -1    0    0    0  501 -0.00000000000E+00  0.00000000000E+00  0.30243089772E+03  0.30243089772E+03  0.00000000000E+00 0.  1.
          1   -1    0    0  501    0  0.00000000000E+00 -0.00000000000E+00 -0.15629527225E+04  0.15629527225E+04  0.00000000000E+00 0. -1.
        -24    2    1    2    0    0  0.50591207150E+03  0.22213159785E+03 -0.55291788207E+03  0.78559316107E+03  0.78415301781E+02 0.  0.
    5000000    2    1    2    0    0 -0.50591207150E+03 -0.22213159785E+03 -0.70760394275E+03  0.10797904592E+04  0.59996218640E+03 0.  0.
        -24    2    4    4    0    0 -0.54023033397E+03 -0.12094091074E+02 -0.32746048286E+03  0.63700151040E+03  0.80904113810E+02 0.  0.
         24    2    4    4    0    0  0.34318262473E+02 -0.21003750678E+03 -0.38014345989E+03  0.44278894880E+03  0.79117037890E+02 0.  0.
         13    1    3    3    0    0  0.21576216672E+03  0.78602856236E+02 -0.28051979214E+03  0.36252320667E+03  0.00000000000E+00 0. -1.
        -14    1    3    3    0    0  0.29014990478E+03  0.14352874161E+03 -0.27239808993E+03  0.42306995440E+03  0.00000000000E+00 0.  1.
         15    1    5    5    0    0 -0.12959129339E+03  0.11625926965E+01 -0.12047861431E+03  0.17695623521E+03  0.17770000000E+01 0. -1.
        -16    1    5    5    0    0 -0.41063904058E+03 -0.13256683771E+02 -0.20698186855E+03  0.46004527519E+03  0.00000000000E+00 0.  1.
          2    1    6    6  502    0 -0.17055285834E+02 -0.12324874608E+03 -0.23713263915E+03  0.26779287656E+03  0.00000000000E+00 0. -1.
         -1    1    6    6    0  502  0.51373548307E+02 -0.86788760695E+02 -0.14301082074E+03  0.17499607223E+03  0.00000000000E+00 0.  1.
<mgrwt>
<rscale>  0 0.65954084E+03</rscale>
<asrwt>0</asrwt>
<pdfrwt beam="1">  1        1 0.24045427E+00 0.65954084E+03</pdfrwt>
<pdfrwt beam="2">  1       -2 0.46527830E-01 0.65954084E+03</pdfrwt>
<totfact> 0.23717249E+01</totfact>
</mgrwt>
</event>
<event>
12    3  0.1201947E-007  0.9165860E+03  0.7818608E-02  0.9405082E-01
         -2   -1    0    0    0  501 -0.00000000000E+00  0.00000000000E+00  0.13107589483E+04  0.13107589483E+04  0.00000000000E+00 0.  1.
          1   -1    0    0  501    0  0.00000000000E+00 -0.00000000000E+00 -0.75582749297E+03  0.75582749297E+03  0.00000000000E+00 0. -1.
        -24    2    1    2    0    0  0.78497773724E+03  0.26112031383E+03  0.62768826312E+03  0.10420006977E+04  0.86017626863E+02 0.  0.
    5000000    2    1    2    0    0 -0.78497773724E+03 -0.26112031383E+03 -0.72756807753E+02  0.10245857436E+04  0.60009043203E+03 0.  0.
        -24    2    4    4    0    0  0.12681749532E+02 -0.20345316277E+03 -0.72414420213E+01  0.21807100653E+03  0.77126579020E+02 0.  0.
         24    2    4    4    0    0 -0.79765948678E+03 -0.57667151063E+02 -0.65515365732E+02  0.80651473706E+03  0.81164036313E+02 0.  0.
         11    1    3    3    0    0  0.74466244541E+03  0.23440786637E+03  0.60910632691E+03  0.99019176067E+03  0.00000000000E+00 0. -1.
        -12    1    3    3    0    0  0.40315291836E+02  0.26712447462E+02  0.18581936212E+02  0.51808937054E+02  0.00000000000E+00 0.  1.
         15    1    5    5    0    0  0.11548348806E+02 -0.12788621338E+03  0.32802722349E+02  0.13254216029E+03  0.17770000000E+01 0. -1.
        -16    1    5    5    0    0  0.11334007253E+01 -0.75566949392E+02 -0.40044164370E+02  0.85528846232E+02  0.00000000000E+00 0.  1.
          2    1    6    6  502    0 -0.70226557860E+03 -0.58874388932E+02 -0.32203343762E+02  0.70546452207E+03  0.00000000000E+00 0. -1.
         -1    1    6    6    0  502 -0.95393908179E+02  0.12072378693E+01 -0.33312021970E+02  0.10105021499E+03  0.00000000000E+00 0.  1.
<mgrwt>
<rscale>  0 0.91658601E+03</rscale>
<asrwt>0</asrwt>
<pdfrwt beam="1">  1        1 0.11628115E+00 0.91658601E+03</pdfrwt>
<pdfrwt beam="2">  1       -2 0.20165522E+00 0.91658601E+03</pdfrwt>
<totfact> 0.27682335E+00</totfact>
</mgrwt>
</event>
<event>
12    3  0.1201947E-007  0.1091552E+04  0.7818608E-02  0.9213465E-01
         -2   -1    0    0    0  501 -0.00000000000E+00  0.00000000000E+00  0.16335938884E+04  0.16335938884E+04  0.00000000000E+00 0.  1.
          1   -1    0    0  501    0  0.00000000000E+00 -0.00000000000E+00 -0.11365837606E+04  0.11365837606E+04  0.00000000000E+00 0. -1.
        -24    2    1    2    0    0  0.60369871548E+03  0.88056661130E+03 -0.50884820043E+03  0.11854137874E+04  0.80185162412E+02 0.  0.
    5000000    2    1    2    0    0 -0.60369871548E+03 -0.88056661130E+03  0.10058583282E+04  0.15847638617E+04  0.59989651174E+03 0.  0.
        -24    2    4    4    0    0 -0.37083616386E+03 -0.76994404568E+03  0.45344442515E+03  0.97068635582E+03  0.79289726881E+02 0.  0.
         24    2    4    4    0    0 -0.23286255162E+03 -0.11062256563E+03  0.55241390305E+03  0.61407750584E+03  0.73944187829E+02 0.  0.
         13    1    3    3    0    0  0.43227348579E+03  0.58322145395E+03 -0.31625019130E+03  0.79184709027E+03  0.00000000000E+00 0. -1.
        -14    1    3    3    0    0  0.17142522969E+03  0.29734515735E+03 -0.19259800913E+03  0.39356669714E+03  0.00000000000E+00 0.  1.
         15    1    5    5    0    0 -0.27720439278E+03 -0.62056201259E+03  0.38810529675E+03  0.78266746830E+03  0.17770000000E+01 0. -1.
        -16    1    5    5    0    0 -0.93631771084E+02 -0.14938203309E+03  0.65339128392E+02  0.18801888752E+03  0.00000000000E+00 0.  1.
          4    1    6    6  502    0 -0.86087012763E+02 -0.45812558847E+02  0.29552682075E+03  0.31120068460E+03  0.00000000000E+00 0. -1.
         -3    1    6    6    0  502 -0.14677553886E+03 -0.64810006780E+02  0.25688708230E+03  0.30287682123E+03  0.00000000000E+00 0.  1.
<mgrwt>
<rscale>  0 0.10915519E+04</rscale>
<asrwt>0</asrwt>
<pdfrwt beam="1">  1        1 0.17485904E+00 0.10915519E+04</pdfrwt>
<pdfrwt beam="2">  1       -2 0.25132214E+00 0.10915519E+04</pdfrwt>
<totfact> 0.65135950E-01</totfact>
</mgrwt>
</event>
<event>
12    3  0.1347472E-007  0.6258056E+03  0.7818608E-02  0.9853268E-01
         -2   -1    0    0    0  501 -0.00000000000E+00  0.00000000000E+00  0.35592531267E+03  0.35592531267E+03  0.00000000000E+00 0.  1.
          1   -1    0    0  501    0  0.00000000000E+00 -0.00000000000E+00 -0.12728944417E+04  0.12728944417E+04  0.00000000000E+00 0. -1.
        -24    2    1    2    0    0 -0.43428916826E+03  0.23355618171E+03 -0.62471153072E+03  0.79908736457E+03  0.71558003890E+02 0.  0.
    5000000    2    1    2    0    0  0.43428916826E+03 -0.23355618171E+03 -0.29225759829E+03  0.82973238978E+03  0.59990479513E+03 0.  0.
        -24    2    4    4    0    0  0.52372616007E+03 -0.32185088927E+03 -0.18850330348E+03  0.64806243258E+03  0.81082275708E+02 0.  0.
         24    2    4    4    0    0 -0.89436991811E+02  0.88294707558E+02 -0.10375429481E+03  0.18166995721E+03  0.80275081891E+02 0.  0.
         13    1    3    3    0    0 -0.27205788207E+03  0.17102270489E+03 -0.36201368051E+03  0.48406421234E+03  0.00000000000E+00 0. -1.
        -14    1    3    3    0    0 -0.16223128619E+03  0.62533476820E+02 -0.26269785021E+03  0.31502315224E+03  0.00000000000E+00 0.  1.
         15    1    5    5    0    0  0.19451176107E+03 -0.16555597206E+03 -0.85279892677E+02  0.26929430537E+03  0.17770000000E+01 0. -1.
        -16    1    5    5    0    0  0.32921439900E+03 -0.15629491721E+03 -0.10322341080E+03  0.37876812721E+03  0.00000000000E+00 0.  1.
          2    1    6    6  502    0 -0.66989968366E+02  0.28754000016E+02 -0.18362854018E+02  0.75177408749E+02  0.00000000000E+00 0. -1.
         -1    1    6    6    0  502 -0.22447023445E+02  0.59540707542E+02 -0.85391440792E+02  0.10649254846E+03  0.00000000000E+00 0.  1.
<mgrwt>
<rscale>  0 0.62580562E+03</rscale>
<asrwt>0</asrwt>
<pdfrwt beam="1">  1        1 0.19582992E+00 0.62580562E+03</pdfrwt>
<pdfrwt beam="2">  1       -2 0.54757740E-01 0.62580562E+03</pdfrwt>
<totfact> 0.27124162E+01</totfact>
</mgrwt>
</event>
<event>
12    3  0.1201947E-007  0.5420099E+03  0.7818608E-02  0.1003360E+00
          1   -1    0    0  501    0  0.00000000000E+00  0.00000000000E+00  0.18357374492E+03  0.18357374492E+03  0.00000000000E+00 0. -1.
         -2   -1    0    0    0  501 -0.00000000000E+00 -0.00000000000E+00 -0.20385972255E+04  0.20385972255E+04  0.00000000000E+00 0.  1.
        -24    2    1    2    0    0  0.36436044962E+03 -0.23871776597E+03 -0.97543273839E+03  0.10717418582E+04  0.86121277895E+02 0.  0.
    5000000    2    1    2    0    0 -0.36436044962E+03  0.23871776597E+03 -0.87959074218E+03  0.11504291122E+04  0.60005213055E+03 0.  0.
        -24    2    4    4    0    0 -0.17623495466E+03  0.37227550080E+03 -0.28628722271E+03  0.50898113676E+03  0.86334326649E+02 0.  0.
         24    2    4    4    0    0 -0.18812549497E+03 -0.13355773483E+03 -0.59330351947E+03  0.64144797541E+03  0.78851560281E+02 0.  0.
         11    1    3    3    0    0  0.19177872597E+03 -0.10197726624E+03 -0.57678421570E+03  0.61632659690E+03  0.00000000000E+00 0. -1.
        -12    1    3    3    0    0  0.17258172365E+03 -0.13674049972E+03 -0.39864852270E+03  0.45541526133E+03  0.00000000000E+00 0.  1.
         15    1    5    5    0    0 -0.10128717656E+03  0.17652518212E+03 -0.18956547119E+03  0.27813388440E+03  0.17770000000E+01 0. -1.
        -16    1    5    5    0    0 -0.74947778100E+02  0.19575031868E+03 -0.96721751518E+02  0.23084725236E+03  0.00000000000E+00 0.  1.
          2    1    6    6  502    0 -0.11683266425E+03 -0.61114361220E+02 -0.42348556897E+03  0.44353676704E+03  0.00000000000E+00 0. -1.
         -1    1    6    6    0  502 -0.71292830716E+02 -0.72443373609E+02 -0.16981795050E+03  0.19791120838E+03  0.00000000000E+00 0.  1.
<mgrwt>
<rscale>  0 0.54200994E+03</rscale>
<asrwt>0</asrwt>
<pdfrwt beam="1">  1        1 0.28242114E-01 0.54200994E+03</pdfrwt>
<pdfrwt beam="2">  1       -2 0.31363034E+00 0.54200994E+03</pdfrwt>
<totfact> 0.41056447E+00</totfact>
</mgrwt>
</event>
<event>
12    3  0.1201947E-007  0.1335696E+04  0.7818608E-02  0.9001727E-01
          1   -1    0    0  501    0  0.00000000000E+00  0.00000000000E+00  0.23764499748E+04  0.23764499748E+04  0.00000000000E+00 0. -1.
         -2   -1    0    0    0  501 -0.00000000000E+00 -0.00000000000E+00 -0.10700283047E+04  0.10700283047E+04  0.00000000000E+00 0.  1.
        -24    2    1    2    0    0  0.12147116630E+04 -0.47958955970E+03  0.15060942286E+04  0.19952982650E+04  0.85818242680E+02 0.  0.
    5000000    2    1    2    0    0 -0.12147116630E+04  0.47958955970E+03 -0.19967255859E+03  0.14511800145E+04  0.60043628634E+03 0.  0.
        -24    2    4    4    0    0 -0.91738437750E+03  0.17656130154E+03  0.72433206116E+02  0.94037947871E+03  0.79366273391E+02 0.  0.
         24    2    4    4    0    0 -0.29732728550E+03  0.30302825816E+03 -0.27210576470E+03  0.51080053584E+03  0.81523004585E+02 0.  0.
         13    1    3    3    0    0  0.73292945592E+03 -0.24906258030E+03  0.86162145425E+03  0.11582785877E+04  0.00000000000E+00 0. -1.
        -14    1    3    3    0    0  0.48178220708E+03 -0.23052697940E+03  0.64447277440E+03  0.83701967733E+03  0.00000000000E+00 0.  1.
         15    1    5    5    0    0 -0.62511630671E+03  0.98647589985E+02  0.18439914964E+02  0.63312315715E+03  0.17770000000E+01 0. -1.
        -16    1    5    5    0    0 -0.29226807079E+03  0.77913711553E+02  0.53993291151E+02  0.30725632156E+03  0.00000000000E+00 0.  1.
          4    1    6    6  502    0 -0.10201518482E+03  0.14141134721E+03 -0.14718823901E+03  0.22818554897E+03  0.00000000000E+00 0. -1.
         -3    1    6    6    0  502 -0.19531210068E+03  0.16161691095E+03 -0.12491752569E+03  0.28261498687E+03  0.00000000000E+00 0.  1.
<mgrwt>
<rscale>  0 0.13356964E+04</rscale>
<asrwt>0</asrwt>
<pdfrwt beam="1">  1        1 0.36560769E+00 0.13356964E+04</pdfrwt>
<pdfrwt beam="2">  1       -2 0.16461974E+00 0.13356964E+04</pdfrwt>
<totfact> 0.32443089E-01</totfact>
</mgrwt>
</event>
<event>
12    3  0.1201947E-007  0.1053097E+04  0.7818608E-02  0.9252152E-01
         -2   -1    0    0    0  501 -0.00000000000E+00  0.00000000000E+00  0.80694723663E+03  0.80694723663E+03  0.00000000000E+00 0.  1.
          1   -1    0    0  501    0  0.00000000000E+00 -0.00000000000E+00 -0.21209946562E+04  0.21209946562E+04  0.00000000000E+00 0. -1.
        -24    2    1    2    0    0  0.18260556771E+03 -0.96811583898E+03 -0.14621658187E+04  0.17648580290E+04  0.78752207703E+02 0.  0.
    5000000    2    1    2    0    0 -0.18260556771E+03  0.96811583898E+03  0.14811839914E+03  0.11630838638E+04  0.60019325469E+03 0.  0.
        -24    2    4    4    0    0  0.17890491216E+03  0.29058285522E+03 -0.76572802543E+02  0.35890047781E+03  0.80627511041E+02 0.  0.
         24    2    4    4    0    0 -0.36151047987E+03  0.67753298376E+03  0.22469120168E+03  0.80418338597E+03  0.80523356989E+02 0.  0.
         11    1    3    3    0    0  0.42114590514E+02 -0.33830157649E+03 -0.45141360960E+03  0.56568175003E+03  0.00000000000E+00 0. -1.
        -12    1    3    3    0    0  0.14049097720E+03 -0.62981426249E+03 -0.10107522091E+04  0.11991762790E+04  0.00000000000E+00 0.  1.
         15    1    5    5    0    0 -0.27616396457E+01  0.40115325016E+02 -0.17542777314E+02  0.43906408639E+02  0.17770000000E+01 0. -1.
        -16    1    5    5    0    0  0.18166655181E+03  0.25046753021E+03 -0.59030025229E+02  0.31499406917E+03  0.00000000000E+00 0.  1.
          2    1    6    6  502    0 -0.41138487354E+02  0.43048237628E+02  0.29491483680E+01  0.59617307728E+02  0.00000000000E+00 0. -1.
         -1    1    6    6    0  502 -0.32037199252E+03  0.63448474613E+03  0.22174205331E+03  0.74456607824E+03  0.00000000000E+00 0.  1.
<mgrwt>
<rscale>  0 0.10530972E+04</rscale>
<asrwt>0</asrwt>
<pdfrwt beam="1">  1        1 0.32630687E+00 0.10530972E+04</pdfrwt>
<pdfrwt beam="2">  1       -2 0.12414573E+00 0.10530972E+04</pdfrwt>
<totfact> 0.10541800E+00</totfact>
</mgrwt>
</event>
<event>
12    3  0.1201947E-007  0.4639731E+03  0.7818608E-02  0.1023635E+00
          1   -1    0    0  501    0  0.00000000000E+00  0.00000000000E+00  0.85363474321E+03  0.85363474321E+03  0.00000000000E+00 0. -1.
         -2   -1    0    0    0  501 -0.00000000000E+00 -0.00000000000E+00 -0.26255508194E+03  0.26255508194E+03  0.00000000000E+00 0.  1.
        -24    2    1    2    0    0 -0.94060331334E+02 -0.25886483662E+03  0.17031165890E+03  0.33356503137E+03  0.80007621084E+02 0.  0.
    5000000    2    1    2    0    0  0.94060331334E+02  0.25886483662E+03  0.42076800237E+03  0.78262479378E+03  0.59966449491E+03 0.  0.
        -24    2    4    4    0    0  0.32928097482E+03  0.21395895085E+03  0.22464502416E+03  0.46114896309E+03  0.89378891519E+02 0.  0.
         24    2    4    4    0    0 -0.23522064349E+03  0.44905885767E+02  0.19612297821E+03  0.32147583070E+03  0.86817034288E+02 0.  0.
         13    1    3    3    0    0  0.83030746084E+01 -0.67283919633E+02  0.57003962033E+02  0.88574931987E+02  0.00000000000E+00 0. -1.
        -14    1    3    3    0    0 -0.10236340594E+03 -0.19158091698E+03  0.11330769686E+03  0.24499009938E+03  0.00000000000E+00 0.  1.
         15    1    5    5    0    0  0.16175266217E+02  0.42163509440E+02  0.31883349045E+02  0.55309189479E+02  0.17770000000E+01 0. -1.
        -16    1    5    5    0    0  0.31310570860E+03  0.17179544141E+03  0.19276167512E+03  0.40583977361E+03  0.00000000000E+00 0.  1.
          2    1    6    6  502    0 -0.82925533512E+02  0.27255276746E+02  0.12501510517E+03  0.15247383624E+03  0.00000000000E+00 0. -1.
         -1    1    6    6    0  502 -0.15229510997E+03  0.17650609021E+02  0.71107873040E+02  0.16900199445E+03  0.00000000000E+00 0.  1.
<mgrwt>
<rscale>  0 0.46397305E+03</rscale>
<asrwt>0</asrwt>
<pdfrwt beam="1">  1        1 0.13132842E+00 0.46397305E+03</pdfrwt>
<pdfrwt beam="2">  1       -2 0.40393090E-01 0.46397305E+03</pdfrwt>
<totfact> 0.10536408E+02</totfact>
</mgrwt>
</event>
<event>
12    3  0.2022283E-007  0.1084565E+04  0.7818608E-02  0.9220367E-01
          1   -1    0    0  501    0  0.00000000000E+00  0.00000000000E+00  0.92683863173E+03  0.92683863173E+03  0.00000000000E+00 0. -1.
         -2   -1    0    0    0  501 -0.00000000000E+00 -0.00000000000E+00 -0.14973359953E+04  0.14973359953E+04  0.00000000000E+00 0.  1.
        -24    2    1    2    0    0 -0.10310563019E+04 -0.64990931839E+02  0.12186708319E+03  0.10433836703E+04  0.80603838353E+02 0.  0.
    5000000    2    1    2    0    0  0.10310563019E+04  0.64990931839E+02 -0.69236444672E+03  0.13807909567E+04  0.59992851248E+03 0.  0.
        -24    2    4    4    0    0  0.77131671596E+03 -0.15839236799E+03 -0.65495560145E+03  0.10268574492E+04  0.73836051773E+02 0.  0.
         24    2    4    4    0    0  0.25973958589E+03  0.22338329983E+03 -0.37408845265E+02  0.35393350746E+03  0.80652060556E+02 0.  0.
         13    1    3    3    0    0 -0.44670152940E+03 -0.66229426192E+02  0.40646845541E+02  0.45341014470E+03  0.00000000000E+00 0. -1.
        -14    1    3    3    0    0 -0.58435477245E+03  0.12384943534E+01  0.81220237647E+02  0.58997352564E+03  0.00000000000E+00 0.  1.
         15    1    5    5    0    0  0.39252979727E+03 -0.45170008052E+02 -0.31114927563E+03  0.50292842515E+03  0.17770000000E+01 0. -1.
        -16    1    5    5    0    0  0.37878691869E+03 -0.11322235994E+03 -0.34380632583E+03  0.52392902405E+03  0.00000000000E+00 0.  1.
          2    1    6    6  502    0  0.72265710409E+02  0.56552079444E+02 -0.46377233650E+02  0.10281691685E+03  0.00000000000E+00 0. -1.
         -1    1    6    6    0  502  0.18747387548E+03  0.16683122039E+03  0.89683883841E+01  0.25111659060E+03  0.00000000000E+00 0.  1.
<mgrwt>
<rscale>  0 0.10845654E+04</rscale>
<asrwt>0</asrwt>
<pdfrwt beam="1">  1        1 0.14259056E+00 0.10845654E+04</pdfrwt>
<pdfrwt beam="2">  1       -2 0.23035938E+00 0.10845654E+04</pdfrwt>
<totfact> 0.12760147E+00</totfact>
</mgrwt>
</event>
<event>
12    3  0.1201947E-007  0.9674390E+03  0.7818608E-02  0.9344996E-01
          1   -1    0    0  501    0  0.00000000000E+00  0.00000000000E+00  0.34352077345E+04  0.34352077345E+04  0.00000000000E+00 0. -1.
         -2   -1    0    0    0  501 -0.00000000000E+00 -0.00000000000E+00 -0.52775773283E+03  0.52775773283E+03  0.00000000000E+00 0.  1.
        -24    2    1    2    0    0 -0.29378758563E+03  0.90705125806E+03  0.12981781552E+03  0.96558628765E+03  0.80318637082E+02 0.  0.
    5000000    2    1    2    0    0  0.29378758563E+03 -0.90705125806E+03  0.27776321862E+04  0.29973791797E+04  0.59999021244E+03 0.  0.
        -24    2    4    4    0    0  0.26419234518E+03 -0.48809372042E+03  0.22466896301E+04  0.23156269418E+04  0.80503195555E+02 0.  0.
         24    2    4    4    0    0  0.29595240447E+02 -0.41895753764E+03  0.53094255613E+03  0.68175223794E+03  0.80528376535E+02 0.  0.
         13    1    3    3    0    0 -0.13140136924E+03  0.34091131420E+03  0.15914917276E+02  0.36570497478E+03  0.00000000000E+00 0. -1.
        -14    1    3    3    0    0 -0.16238621639E+03  0.56613994386E+03  0.11390289824E+03  0.59988131287E+03  0.00000000000E+00 0.  1.
         15    1    5    5    0    0  0.17918816153E+03 -0.26031412932E+03  0.11806498823E+04  0.12222148524E+04  0.17770000000E+01 0. -1.
        -16    1    5    5    0    0  0.85004183652E+02 -0.22777959110E+03  0.10660397478E+04  0.10934120894E+04  0.00000000000E+00 0.  1.
          2    1    6    6  502    0  0.29174597580E+02 -0.17324713763E+03  0.16533599053E+03  0.24125032147E+03  0.00000000000E+00 0. -1.
         -1    1    6    6    0  502  0.42064286676E+00 -0.24571040000E+03  0.36560656559E+03  0.44050191647E+03  0.00000000000E+00 0.  1.
<mgrwt>
<rscale>  0 0.96743904E+03</rscale>
<asrwt>0</asrwt>
<pdfrwt beam="1">  1        1 0.52849349E+00 0.96743904E+03</pdfrwt>
<pdfrwt beam="2">  1       -2 0.81193499E-01 0.96743904E+03</pdfrwt>
<totfact> 0.34291656E-01</totfact>
</mgrwt>
</event>
<event>
12    3  0.1201947E-007  0.1165295E+04  0.7818608E-02  0.9143788E-01
         -2   -1    0    0    0  501 -0.00000000000E+00  0.00000000000E+00  0.11985393947E+04  0.11985393947E+04  0.00000000000E+00 0.  1.
          1   -1    0    0  501    0  0.00000000000E+00 -0.00000000000E+00 -0.13901527165E+04  0.13901527165E+04  0.00000000000E+00 0. -1.
        -24    2    1    2    0    0 -0.11189589864E+04  0.29523498367E+03 -0.47730633810E+03  0.12542040120E+04  0.77288125483E+02 0.  0.
    5000000    2    1    2    0    0  0.11189589864E+04 -0.29523498367E+03  0.28569301625E+03  0.13344880992E+04  0.60000423199E+03 0.  0.
        -24    2    4    4    0    0  0.43536914653E+03 -0.38789248739E+02  0.39220658458E+03  0.59241279536E+03  0.77948800802E+02 0.  0.
         24    2    4    4    0    0  0.68358983991E+03 -0.25644573493E+03 -0.10651356833E+03  0.74207530383E+03  0.79190479969E+02 0.  0.
         13    1    3    3    0    0 -0.10740280058E+04  0.28898140449E+03 -0.47303554730E+03  0.12086393335E+04  0.00000000000E+00 0. -1.
        -14    1    3    3    0    0 -0.44930980617E+02  0.62535791741E+01 -0.42707908006E+01  0.45564678489E+02  0.00000000000E+00 0.  1.
         15    1    5    5    0    0  0.34369566171E+03 -0.73528554298E+01  0.27438162041E+03  0.43985134274E+03  0.17770000000E+01 0. -1.
        -16    1    5    5    0    0  0.91673484818E+02 -0.31436393309E+02  0.11782496417E+03  0.15256145261E+03  0.00000000000E+00 0.  1.
          4    1    6    6  502    0  0.23599031657E+03 -0.60012363800E+02 -0.61845495701E+02  0.25123251911E+03  0.00000000000E+00 0. -1.
         -3    1    6    6    0  502  0.44759952335E+03 -0.19643337113E+03 -0.44668072626E+02  0.49084278471E+03  0.00000000000E+00 0.  1.
<mgrwt>
<rscale>  0 0.11652950E+04</rscale>
<asrwt>0</asrwt>
<pdfrwt beam="1">  1        1 0.21386965E+00 0.11652950E+04</pdfrwt>
<pdfrwt beam="2">  1       -2 0.18439068E+00 0.11652950E+04</pdfrwt>
<totfact> 0.11325480E+00</totfact>
</mgrwt>
</event>
<event>
12    3  0.1201947E-007  0.3549351E+03  0.7818608E-02  0.1060607E+00
         -2   -1    0    0    0  501 -0.00000000000E+00  0.00000000000E+00  0.66174020757E+03  0.66174020757E+03  0.00000000000E+00 0.  1.
          1   -1    0    0  501    0  0.00000000000E+00 -0.00000000000E+00 -0.26922948910E+03  0.26922948910E+03  0.00000000000E+00 0. -1.
        -24    2    1    2    0    0 -0.36376584719E+01 -0.17685955939E+03  0.20176439560E+03  0.27705094500E+03  0.68962442556E+02 0.  0.
    5000000    2    1    2    0    0  0.36376584719E+01  0.17685955939E+03  0.19074632287E+03  0.65391875167E+03  0.59994419556E+03 0.  0.
        -24    2    4    4    0    0 -0.21167609006E+03  0.20270478964E+03 -0.62002714164E+02  0.31148807555E+03  0.85349199184E+02 0.  0.
         24    2    4    4    0    0  0.21531374854E+03 -0.25845230243E+02  0.25274903703E+03  0.34243067612E+03  0.79678767503E+02 0.  0.
         13    1    3    3    0    0 -0.28287553218E+02 -0.59613224885E+02  0.45536756772E+02  0.80171805927E+02  0.00000000000E+00 0. -1.
        -14    1    3    3    0    0  0.24649894747E+02 -0.11724633451E+03  0.15622763883E+03  0.19687913907E+03  0.00000000000E+00 0.  1.
         15    1    5    5    0    0 -0.15895685310E+03  0.14534676892E+03 -0.82946548949E+02  0.23081649009E+03  0.17770000000E+01 0. -1.
        -16    1    5    5    0    0 -0.52719236963E+02  0.57358020714E+02  0.20943834785E+02  0.80671585466E+02  0.00000000000E+00 0.  1.
          4    1    6    6  502    0  0.12195221644E+03 -0.53835441466E+02  0.13792646605E+03  0.19181842427E+03  0.00000000000E+00 0. -1.
         -3    1    6    6    0  502  0.93361532095E+02  0.27990211223E+02  0.11482257098E+03  0.15061225185E+03  0.00000000000E+00 0.  1.
<mgrwt>
<rscale>  0 0.35493514E+03</rscale>
<asrwt>0</asrwt>
<pdfrwt beam="1">  1        1 0.41419921E-01 0.35493514E+03</pdfrwt>
<pdfrwt beam="2">  1       -2 0.10180619E+00 0.35493514E+03</pdfrwt>
<totfact> 0.72667231E+01</totfact>
</mgrwt>
</event>
<event>
12    3  0.1201947E-007  0.1055308E+04  0.7818608E-02  0.9249881E-01
         -2   -1    0    0    0  501 -0.00000000000E+00  0.00000000000E+00  0.80612093053E+03  0.80612093053E+03  0.00000000000E+00 0.  1.
          1   -1    0    0  501    0  0.00000000000E+00 -0.00000000000E+00 -0.18190832698E+04  0.18190832698E+04  0.00000000000E+00 0. -1.
        -24    2    1    2    0    0  0.99710925156E+03 -0.27026767316E+03  0.33755314461E+02  0.10368330968E+04  0.81314049497E+02 0.  0.
    5000000    2    1    2    0    0 -0.99710925156E+03  0.27026767316E+03 -0.10467176538E+04  0.15883711036E+04  0.60002786709E+03 0.  0.
        -24    2    4    4    0    0 -0.52686935029E+03 -0.72233583495E+00 -0.18041673777E+03  0.56268207529E+03  0.80430619385E+02 0.  0.
         24    2    4    4    0    0 -0.47023990127E+03  0.27099000900E+03 -0.86630091600E+03  0.10256890283E+04  0.83663349113E+02 0.  0.
         13    1    3    3    0    0  0.17884269571E+03 -0.81412205754E+02  0.76337973837E+01  0.19664926116E+03  0.00000000000E+00 0. -1.
        -14    1    3    3    0    0  0.81826655585E+03 -0.18885546741E+03  0.26121517077E+02  0.84018383563E+03  0.00000000000E+00 0.  1.
         15    1    5    5    0    0 -0.10821610531E+03 -0.28834409183E+02 -0.54755305154E+02  0.12467337235E+03  0.17770000000E+01 0. -1.
        -16    1    5    5    0    0 -0.41865324498E+03  0.28112073348E+02 -0.12566143261E+03  0.43800870293E+03  0.00000000000E+00 0.  1.
          2    1    6    6  502    0 -0.33532030458E+03  0.19341502537E+03 -0.68444967904E+03  0.78633354364E+03  0.00000000000E+00 0. -1.
         -1    1    6    6    0  502 -0.13491959669E+03  0.77574983624E+02 -0.18185123695E+03  0.23935548466E+03  0.00000000000E+00 0.  1.
<mgrwt>
<rscale>  0 0.10553078E+04</rscale>
<asrwt>0</asrwt>
<pdfrwt beam="1">  1        1 0.27985896E+00 0.10553078E+04</pdfrwt>
<pdfrwt beam="2">  1       -2 0.12401861E+00 0.10553078E+04</pdfrwt>
<totfact> 0.16887459E+00</totfact>
</mgrwt>
</event>
<event>
12    3  0.1201947E-007  0.4226042E+03  0.7818608E-02  0.1036222E+00
          1   -1    0    0  501    0  0.00000000000E+00  0.00000000000E+00  0.13847101163E+04  0.13847101163E+04  0.00000000000E+00 0. -1.
         -2   -1    0    0    0  501 -0.00000000000E+00 -0.00000000000E+00 -0.23758399886E+03  0.23758399886E+03  0.00000000000E+00 0.  1.
        -24    2    1    2    0    0  0.28448093372E+03 -0.79414627454E+02  0.82940917823E+03  0.88201291541E+03  0.52830988193E+02 0.  0.
    5000000    2    1    2    0    0 -0.28448093372E+03  0.79414627454E+02  0.31771693924E+03  0.74028119978E+03  0.59986341492E+03 0.  0.
        -24    2    4    4    0    0  0.11769298125E+03  0.69086084507E+02  0.28870384873E+03  0.32931777350E+03  0.80472099280E+02 0.  0.
         24    2    4    4    0    0 -0.40217391497E+03  0.10328542947E+02  0.29013090511E+02  0.41096342628E+03  0.78731452643E+02 0.  0.
         13    1    3    3    0    0  0.11514005478E+03 -0.34668694051E+02  0.41599447229E+03  0.43302488559E+03  0.00000000000E+00 0. -1.
        -14    1    3    3    0    0  0.16934087894E+03 -0.44745933403E+02  0.41341470595E+03  0.44898802983E+03  0.00000000000E+00 0.  1.
         15    1    5    5    0    0  0.10147840147E+03  0.32988626650E+02  0.14359554056E+03  0.17891045931E+03  0.17770000000E+01 0. -1.
        -16    1    5    5    0    0  0.16214579781E+02  0.36097457857E+02  0.14510830817E+03  0.15040731419E+03  0.00000000000E+00 0.  1.
          4    1    6    6  502    0 -0.70378336569E+02  0.13723197013E+02 -0.22554198627E+02  0.75167335128E+02  0.00000000000E+00 0. -1.
         -3    1    6    6    0  502 -0.33179557840E+03 -0.33946540660E+01  0.51567289138E+02  0.33579609115E+03  0.00000000000E+00 0.  1.
<mgrwt>
<rscale>  0 0.42260416E+03</rscale>
<asrwt>0</asrwt>
<pdfrwt beam="1">  1        1 0.21303232E+00 0.42260416E+03</pdfrwt>
<pdfrwt beam="2">  1       -2 0.36551385E-01 0.42260416E+03</pdfrwt>
<totfact> 0.52095710E+01</totfact>
</mgrwt>
</event>
<event>
12    3  0.1201947E-007  0.6281936E+03  0.7818608E-02  0.9848580E-01
         -4   -1    0    0    0  501 -0.00000000000E+00  0.00000000000E+00  0.28868468757E+04  0.28868468757E+04  0.00000000000E+00 0.  1.
          3   -1    0    0  501    0  0.00000000000E+00 -0.00000000000E+00 -0.17198262400E+03  0.17198262400E+03  0.00000000000E+00 0. -1.
        -24    2    1    2    0    0  0.49713626912E+03  0.12020312937E+03  0.16799781442E+04  0.17579338121E+04  0.80071595727E+02 0.  0.
    5000000    2    1    2    0    0 -0.49713626912E+03 -0.12020312937E+03  0.10348861075E+04  0.13008956876E+04  0.59978918971E+03 0.  0.
        -24    2    4    4    0    0 -0.31328040736E+02  0.17460066041E+03  0.46710456136E+03  0.50606219418E+03  0.80283475149E+02 0.  0.
         24    2    4    4    0    0 -0.46580822838E+03 -0.29480378978E+03  0.56778154617E+03  0.79483349343E+03  0.74147272416E+02 0.  0.
         13    1    3    3    0    0  0.30039186074E+03  0.88764502136E+02  0.90164398951E+03  0.95450316430E+03  0.00000000000E+00 0. -1.
        -14    1    3    3    0    0  0.19674440838E+03  0.31438627237E+02  0.77833415465E+03  0.80343064779E+03  0.00000000000E+00 0.  1.
         15    1    5    5    0    0  0.39968460868E+01  0.13932871674E+03  0.28537662037E+03  0.31760264368E+03  0.17770000000E+01 0. -1.
        -16    1    5    5    0    0 -0.35324886823E+02  0.35271943668E+02  0.18172794099E+03  0.18845955050E+03  0.00000000000E+00 0.  1.
          4    1    6    6  502    0 -0.13650723711E+03 -0.12012271698E+03  0.15821030824E+03  0.24102737304E+03  0.00000000000E+00 0. -1.
         -3    1    6    6    0  502 -0.32930099127E+03 -0.17468107280E+03  0.40957123792E+03  0.55380612039E+03  0.00000000000E+00 0.  1.
<mgrwt>
<rscale>  0 0.62819362E+03</rscale>
<asrwt>0</asrwt>
<pdfrwt beam="1">  1        3 0.26458867E-01 0.62819362E+03</pdfrwt>
<pdfrwt beam="2">  1       -4 0.44413025E+00 0.62819362E+03</pdfrwt>
<totfact> 0.11110506E-01</totfact>
</mgrwt>
</event>
<event>
12    3  0.1201947E-007  0.4744752E+03  0.7818608E-02  0.1020665E+00
         -2   -1    0    0    0  501 -0.00000000000E+00  0.00000000000E+00  0.67759314309E+03  0.67759314309E+03  0.00000000000E+00 0.  1.
          1   -1    0    0  501    0  0.00000000000E+00 -0.00000000000E+00 -0.54905592149E+03  0.54905592149E+03  0.00000000000E+00 0. -1.
        -24    2    1    2    0    0  0.44121469651E+03  0.91884844944E+02 -0.33985769453E+02  0.45883400184E+03  0.79122535219E+02 0.  0.
    5000000    2    1    2    0    0 -0.44121469651E+03 -0.91884844944E+02  0.16252299105E+03  0.76781506273E+03  0.60001084557E+03 0.  0.
        -24    2    4    4    0    0 -0.30447031819E+03 -0.13366750328E+03 -0.18093293070E+03  0.38682187882E+03  0.79531531049E+02 0.  0.
         24    2    4    4    0    0 -0.13674437831E+03  0.41782658337E+02  0.34345592175E+03  0.38099318391E+03  0.82152422124E+02 0.  0.
         11    1    3    3    0    0  0.38987403399E+02  0.18287360863E+02 -0.25075192159E+02  0.49831821690E+02  0.00000000000E+00 0. -1.
        -12    1    3    3    0    0  0.40222729311E+03  0.73597484081E+02 -0.89105772946E+01  0.40900218015E+03  0.00000000000E+00 0.  1.
         15    1    5    5    0    0 -0.22368138371E+03 -0.96736909863E+02 -0.17039307829E+03  0.29736904682E+03  0.17770000000E+01 0. -1.
        -16    1    5    5    0    0 -0.80788934479E+02 -0.36930593418E+02 -0.10539852415E+02  0.89452832003E+02  0.00000000000E+00 0.  1.
          2    1    6    6  502    0 -0.49955958473E+02  0.57577362078E+02  0.17351329156E+03  0.18951942581E+03  0.00000000000E+00 0. -1.
         -1    1    6    6    0  502 -0.86788419842E+02 -0.15794703741E+02  0.16994263019E+03  0.19147375810E+03  0.00000000000E+00 0.  1.
<mgrwt>
<rscale>  0 0.47447515E+03</rscale>
<asrwt>0</asrwt>
<pdfrwt beam="1">  1        1 0.84470142E-01 0.47447515E+03</pdfrwt>
<pdfrwt beam="2">  1       -2 0.10424510E+00 0.47447515E+03</pdfrwt>
<totfact> 0.26661487E+01</totfact>
</mgrwt>
</event>
<event>
12    3  0.1201947E-007  0.6168754E+03  0.7818608E-02  0.9871001E-01
          1   -1    0    0  501    0  0.00000000000E+00  0.00000000000E+00  0.12653092909E+04  0.12653092909E+04  0.00000000000E+00 0. -1.
         -2   -1    0    0    0  501 -0.00000000000E+00 -0.00000000000E+00 -0.47735220919E+03  0.47735220919E+03  0.00000000000E+00 0.  1.
        -24    2    1    2    0    0  0.28244579278E+03  0.38670411620E+03 -0.17056085750E+03  0.51460142659E+03  0.80049502147E+02 0.  0.
    5000000    2    1    2    0    0 -0.28244579278E+03 -0.38670411620E+03  0.95851793924E+03  0.12280600735E+04  0.60004933548E+03 0.  0.
        -24    2    4    4    0    0  0.16894875097E+03 -0.17212880757E+03  0.21725969381E+03  0.33053394074E+03  0.62280852362E+02 0.  0.
         24    2    4    4    0    0 -0.45139454375E+03 -0.21457530863E+03  0.74125824543E+03  0.89752613279E+03  0.79308104431E+02 0.  0.
         11    1    3    3    0    0  0.17250956978E+03  0.21510027102E+03 -0.57931465318E+02  0.28175118976E+03  0.00000000000E+00 0. -1.
        -12    1    3    3    0    0  0.10993622300E+03  0.17160384518E+03 -0.11262939218E+03  0.23285023683E+03  0.00000000000E+00 0.  1.
         15    1    5    5    0    0  0.90201963889E+02 -0.13180192256E+03  0.12609772454E+03  0.20349922590E+03  0.17770000000E+01 0. -1.
        -16    1    5    5    0    0  0.78746787086E+02 -0.40326885014E+02  0.91161969278E+02  0.12703471484E+03  0.00000000000E+00 0.  1.
          2    1    6    6  502    0 -0.12405675944E+03 -0.21253748432E+02  0.18043131807E+03  0.21999377701E+03  0.00000000000E+00 0. -1.
         -1    1    6    6    0  502 -0.32733778432E+03 -0.19332156019E+03  0.56082692736E+03  0.67753235578E+03  0.00000000000E+00 0.  1.
<mgrwt>
<rscale>  0 0.61687538E+03</rscale>
<asrwt>0</asrwt>
<pdfrwt beam="1">  1        1 0.19466297E+00 0.61687538E+03</pdfrwt>
<pdfrwt beam="2">  1       -2 0.73438802E-01 0.61687538E+03</pdfrwt>
<totfact> 0.14705859E+01</totfact>
</mgrwt>
</event>
<event>
12    3  0.1201947E-007  0.6485823E+03  0.7818608E-02  0.9809443E-01
          1   -1    0    0  501    0  0.00000000000E+00  0.00000000000E+00  0.90181327513E+03  0.90181327513E+03  0.00000000000E+00 0. -1.
         -2   -1    0    0    0  501 -0.00000000000E+00 -0.00000000000E+00 -0.81666111195E+03  0.81666111195E+03  0.00000000000E+00 0.  1.
        -24    2    1    2    0    0 -0.59264833617E+03  0.11160505994E+03  0.48584505625E+03  0.77849769407E+03  0.79533019655E+02 0.  0.
    5000000    2    1    2    0    0  0.59264833617E+03 -0.11160505994E+03 -0.40069289307E+03  0.93997669300E+03  0.59942776801E+03 0.  0.
        -24    2    4    4    0    0  0.60327516711E+03 -0.93740463387E+02 -0.51331650753E+03  0.80175736432E+03  0.81196259785E+02 0.  0.
         24    2    4    4    0    0 -0.10626830941E+02 -0.17864596552E+02  0.11262361446E+03  0.13821932869E+03  0.77384952945E+02 0.  0.
         13    1    3    3    0    0 -0.44531279775E+03  0.10799661672E+03  0.33510151030E+03  0.56767929262E+03  0.00000000000E+00 0. -1.
        -14    1    3    3    0    0 -0.14733553843E+03  0.36084432185E+01  0.15074354594E+03  0.21081840145E+03  0.00000000000E+00 0.  1.
         15    1    5    5    0    0  0.46929044739E+03 -0.87186396099E+02 -0.35882763249E+03  0.59715610961E+03  0.17770000000E+01 0. -1.
        -16    1    5    5    0    0  0.13398471973E+03 -0.65540672877E+01 -0.15448887504E+03  0.20460125471E+03  0.00000000000E+00 0.  1.
          2    1    6    6  502    0  0.16187121545E+02 -0.41377886516E+02  0.64455394433E+02  0.78285696446E+02  0.00000000000E+00 0. -1.
         -1    1    6    6    0  502 -0.26813952486E+02  0.23513289964E+02  0.48168220028E+02  0.59933632240E+02  0.00000000000E+00 0.  1.
<mgrwt>
<rscale>  0 0.64858225E+03</rscale>
<asrwt>0</asrwt>
<pdfrwt beam="1">  1        1 0.13874050E+00 0.64858225E+03</pdfrwt>
<pdfrwt beam="2">  1       -2 0.12564017E+00 0.64858225E+03</pdfrwt>
<totfact> 0.78011150E+00</totfact>
</mgrwt>
</event>
<event>
12    3  0.1201947E-007  0.9225113E+03  0.7818608E-02  0.9397871E-01
         -2   -1    0    0    0  501 -0.00000000000E+00  0.00000000000E+00  0.24943946739E+03  0.24943946739E+03  0.00000000000E+00 0.  1.
          1   -1    0    0  501    0  0.00000000000E+00 -0.00000000000E+00 -0.35929431788E+04  0.35929431788E+04  0.00000000000E+00 0. -1.
        -24    2    1    2    0    0 -0.30703296511E+03 -0.77788842820E+03 -0.18116160304E+04  0.19968501380E+04  0.77962707486E+02 0.  0.
    5000000    2    1    2    0    0  0.30703296511E+03  0.77788842820E+03 -0.15318876810E+04  0.18455325082E+04  0.59994226641E+03 0.  0.
        -24    2    4    4    0    0 -0.32437124985E+02  0.63057753244E+03 -0.11051990007E+04  0.12751643397E+04  0.76805407926E+02 0.  0.
         24    2    4    4    0    0  0.33947009010E+03  0.14731089576E+03 -0.42668868036E+03  0.57036816846E+03  0.79474370497E+02 0.  0.
         11    1    3    3    0    0 -0.18095426711E+03 -0.36317997519E+03 -0.83519381512E+03  0.92854340231E+03  0.00000000000E+00 0. -1.
        -12    1    3    3    0    0 -0.12607869800E+03 -0.41470845301E+03 -0.97642221527E+03  0.10683067357E+04  0.00000000000E+00 0.  1.
         15    1    5    5    0    0  0.62232896227E+01  0.10798224487E+03 -0.24662816673E+03  0.26930931082E+03  0.17770000000E+01 0. -1.
        -16    1    5    5    0    0 -0.38660414608E+02  0.52259528756E+03 -0.85857083392E+03  0.10058550289E+04  0.00000000000E+00 0.  1.
          2    1    6    6  502    0  0.56828352697E+02  0.46862852349E+01 -0.10215462135E+03  0.11699140824E+03  0.00000000000E+00 0. -1.
         -1    1    6    6    0  502  0.28264173740E+03  0.14262461052E+03 -0.32453405901E+03  0.45337676021E+03  0.00000000000E+00 0.  1.
<mgrwt>
<rscale>  0 0.92251129E+03</rscale>
<asrwt>0</asrwt>
<pdfrwt beam="1">  1        1 0.55276050E+00 0.92251129E+03</pdfrwt>
<pdfrwt beam="2">  1       -2 0.38375302E-01 0.92251129E+03</pdfrwt>
<totfact> 0.12499257E+00</totfact>
</mgrwt>
</event>
<event>
12    3  0.1201947E-007  0.8152662E+03  0.7818608E-02  0.9538179E-01
          1   -1    0    0  501    0  0.00000000000E+00  0.00000000000E+00  0.20925327268E+04  0.20925327268E+04  0.00000000000E+00 0. -1.
         -2   -1    0    0    0  501 -0.00000000000E+00 -0.00000000000E+00 -0.32661923640E+03  0.32661923640E+03  0.00000000000E+00 0.  1.
        -24    2    1    2    0    0  0.39111732323E+03  0.59741814536E+03  0.83198467597E+03  0.10992165671E+04  0.78723309074E+02 0.  0.
    5000000    2    1    2    0    0 -0.39111732323E+03 -0.59741814536E+03  0.93392881441E+03  0.13199353961E+04  0.60010433971E+03 0.  0.
        -24    2    4    4    0    0 -0.17736176283E+03  0.79777867764E+02  0.28448075057E+03  0.35383675364E+03  0.80308453369E+02 0.  0.
         24    2    4    4    0    0 -0.21375556040E+03 -0.67719601312E+03  0.64944806384E+03  0.96609864245E+03  0.85310723409E+02 0.  0.
         13    1    3    3    0    0  0.31212440037E+03  0.46885454368E+03  0.60449189607E+03  0.82623040179E+03  0.00000000000E+00 0. -1.
        -14    1    3    3    0    0  0.78992922867E+02  0.12856360168E+03  0.22749277991E+03  0.27298616531E+03  0.00000000000E+00 0.  1.
         15    1    5    5    0    0 -0.14674777743E+03  0.88114489182E+02  0.19809718948E+03  0.26181048030E+03  0.17770000000E+01 0. -1.
        -16    1    5    5    0    0 -0.30613985397E+02 -0.83366214181E+01  0.86383561089E+02  0.92026273341E+02  0.00000000000E+00 0.  1.
          4    1    6    6  502    0 -0.99185656325E+02 -0.20704002488E+03  0.17796488405E+03  0.29047352079E+03  0.00000000000E+00 0. -1.
         -3    1    6    6    0  502 -0.11456990408E+03 -0.47015598825E+03  0.47148317979E+03  0.67562512166E+03  0.00000000000E+00 0.  1.
<mgrwt>
<rscale>  0 0.81526623E+03</rscale>
<asrwt>0</asrwt>
<pdfrwt beam="1">  1        1 0.32192810E+00 0.81526623E+03</pdfrwt>
<pdfrwt beam="2">  1       -2 0.50249115E-01 0.81526623E+03</pdfrwt>
<totfact> 0.87679977E+00</totfact>
</mgrwt>
</event>
<event>
12    3  0.1201947E-007  0.8991112E+03  0.7818608E-02  0.9426693E-01
          1   -1    0    0  501    0  0.00000000000E+00  0.00000000000E+00  0.60346023686E+03  0.60346023686E+03  0.00000000000E+00 0. -1.
         -2   -1    0    0    0  501 -0.00000000000E+00 -0.00000000000E+00 -0.13982469223E+04  0.13982469223E+04  0.00000000000E+00 0.  1.
        -24    2    1    2    0    0 -0.79286007619E+03 -0.15326026863E+03 -0.50145771076E+03  0.95381611777E+03  0.78673632664E+02 0.  0.
    5000000    2    1    2    0    0  0.79286007619E+03  0.15326026863E+03 -0.29332897470E+03  0.10478910414E+04  0.59993161018E+03 0.  0.
        -24    2    4    4    0    0  0.82604718721E+03  0.37833191980E+01 -0.21535617956E+03  0.85736614976E+03  0.79562313173E+02 0.  0.
         24    2    4    4    0    0 -0.33187111015E+02  0.14947694943E+03 -0.77972795136E+02  0.19052489164E+03  0.82311814493E+02 0.  0.
         13    1    3    3    0    0 -0.50380735218E+03 -0.63142418447E+02 -0.33495203882E+03  0.60827763516E+03  0.00000000000E+00 0. -1.
        -14    1    3    3    0    0 -0.28905272401E+03 -0.90117850182E+02 -0.16650567193E+03  0.34553848261E+03  0.00000000000E+00 0.  1.
         15    1    5    5    0    0  0.12239278702E+03 -0.22740652498E+02 -0.49235579256E+02  0.13388215559E+03  0.17770000000E+01 0. -1.
        -16    1    5    5    0    0  0.70365440018E+03  0.26523971696E+02 -0.16612060030E+03  0.72348399417E+03  0.00000000000E+00 0.  1.
          4    1    6    6  502    0 -0.43747789345E+02  0.12214369167E+03 -0.90982950649E+02  0.15846402682E+03  0.00000000000E+00 0. -1.
         -3    1    6    6    0  502  0.10560678330E+02  0.27333257757E+02  0.13010155514E+02  0.32060864818E+02  0.00000000000E+00 0.  1.
<mgrwt>
<rscale>  0 0.89911120E+03</rscale>
<asrwt>0</asrwt>
<pdfrwt beam="1">  1        1 0.92840038E-01 0.89911120E+03</pdfrwt>
<pdfrwt beam="2">  1       -2 0.21511491E+00 0.89911120E+03</pdfrwt>
<totfact> 0.31889877E+00</totfact>
</mgrwt>
</event>
<event>
12    3  0.1201947E-007  0.6290113E+03  0.7818608E-02  0.9846980E-01
         -2   -1    0    0    0  501 -0.00000000000E+00  0.00000000000E+00  0.43200365081E+03  0.43200365081E+03  0.00000000000E+00 0.  1.
          1   -1    0    0  501    0  0.00000000000E+00 -0.00000000000E+00 -0.12649557510E+04  0.12649557510E+04  0.00000000000E+00 0. -1.
        -24    2    1    2    0    0  0.56741113417E+03 -0.10638813741E+03 -0.10837014664E+03  0.59296267495E+03  0.81159190727E+02 0.  0.
    5000000    2    1    2    0    0 -0.56741113417E+03  0.10638813741E+03 -0.72458195353E+03  0.11039967268E+04  0.60042979150E+03 0.  0.
        -24    2    4    4    0    0 -0.42811701276E+02 -0.78242490597E+02  0.64249647048E+02  0.13522378438E+03  0.78757384506E+02 0.  0.
         24    2    4    4    0    0 -0.52459943289E+03  0.18463062800E+03 -0.78883160058E+03  0.96877294246E+03  0.83502611824E+02 0.  0.
         11    1    3    3    0    0  0.80409219399E+02 -0.36734219432E+02 -0.37087997492E+02  0.95867434510E+02  0.00000000000E+00 0. -1.
        -12    1    3    3    0    0  0.48700191477E+03 -0.69653917973E+02 -0.71282149145E+02  0.49709524044E+03  0.00000000000E+00 0.  1.
         15    1    5    5    0    0  0.32201637691E+01 -0.72301518530E+02  0.42720990514E+02  0.84060215298E+02  0.17770000000E+01 0. -1.
        -16    1    5    5    0    0 -0.46031865045E+02 -0.59409720667E+01  0.21528656534E+02  0.51163569078E+02  0.00000000000E+00 0.  1.
          4    1    6    6  502    0 -0.25762167885E+03  0.61560325297E+02 -0.32007997064E+03  0.41546334456E+03  0.00000000000E+00 0. -1.
         -3    1    6    6    0  502 -0.26697775404E+03  0.12307030270E+03 -0.46875162994E+03  0.55330959790E+03  0.00000000000E+00 0.  1.
<mgrwt>
<rscale>  0 0.62901128E+03</rscale>
<asrwt>0</asrwt>
<pdfrwt beam="1">  1        1 0.19460857E+00 0.62901128E+03</pdfrwt>
<pdfrwt beam="2">  1       -2 0.66462102E-01 0.62901128E+03</pdfrwt>
<totfact> 0.18253053E+01</totfact>
</mgrwt>
</event>
<event>
12    3  0.1201947E-007  0.1353985E+04  0.7818608E-02  0.8987817E-01
          1   -1    0    0  501    0  0.00000000000E+00  0.00000000000E+00  0.28941250237E+04  0.28941250237E+04  0.00000000000E+00 0. -1.
         -2   -1    0    0    0  501 -0.00000000000E+00 -0.00000000000E+00 -0.65520834159E+03  0.65520834159E+03  0.00000000000E+00 0.  1.
        -24    2    1    2    0    0  0.28204521323E+03  0.12572770046E+04  0.76020262156E+03  0.14982532705E+04  0.80993013219E+02 0.  0.
    5000000    2    1    2    0    0 -0.28204521323E+03 -0.12572770046E+04  0.14787140605E+04  0.20510800948E+04  0.60003276068E+03 0.  0.
        -24    2    4    4    0    0 -0.26393406577E+03 -0.15702025504E+03  0.35984242043E+03  0.48068806995E+03  0.85193318322E+02 0.  0.
         24    2    4    4    0    0 -0.18111147460E+02 -0.11002567495E+04  0.11188716401E+04  0.15703920248E+04  0.58003759354E+02 0.  0.
         13    1    3    3    0    0  0.59723160838E+02  0.28330106988E+03  0.13260267454E+03  0.31844908766E+03  0.00000000000E+00 0. -1.
        -14    1    3    3    0    0  0.22232205239E+03  0.97397593469E+03  0.62759994701E+03  0.11798041828E+04  0.00000000000E+00 0.  1.
         15    1    5    5    0    0 -0.11514179372E+03 -0.23344918779E+02  0.11347496841E+03  0.16334731120E+03  0.17770000000E+01 0. -1.
        -16    1    5    5    0    0 -0.14879227205E+03 -0.13367533627E+03  0.24636745202E+03  0.31734075875E+03  0.00000000000E+00 0.  1.
          2    1    6    6  502    0  0.20398757136E+02 -0.49172778932E+03  0.49338324186E+03  0.69687829025E+03  0.00000000000E+00 0. -1.
         -1    1    6    6    0  502 -0.38509904596E+02 -0.60852896021E+03  0.62548839823E+03  0.87351373457E+03  0.00000000000E+00 0.  1.
<mgrwt>
<rscale>  0 0.13539855E+04</rscale>
<asrwt>0</asrwt>
<pdfrwt beam="1">  1        1 0.44524999E+00 0.13539855E+04</pdfrwt>
<pdfrwt beam="2">  1       -2 0.10080129E+00 0.13539855E+04</pdfrwt>
<totfact> 0.49331702E-01</totfact>
</mgrwt>
</event>
<event>
12    3  0.1201947E-007  0.6600012E+03  0.7818608E-02  0.9788191E-01
         -2   -1    0    0    0  501 -0.00000000000E+00  0.00000000000E+00  0.49327337744E+03  0.49327337744E+03  0.00000000000E+00 0.  1.
          1   -1    0    0  501    0  0.00000000000E+00 -0.00000000000E+00 -0.12342741161E+04  0.12342741161E+04  0.00000000000E+00 0. -1.
        -24    2    1    2    0    0 -0.64464871667E+03 -0.70221645153E+02 -0.46619949032E+03  0.80229993883E+03  0.76421068587E+02 0.  0.
    5000000    2    1    2    0    0  0.64464871667E+03  0.70221645153E+02 -0.27480124831E+03  0.92524755467E+03  0.60005355094E+03 0.  0.
        -24    2    4    4    0    0  0.10109496828E+03  0.51863154335E+02 -0.34453605913E+03  0.37125705459E+03  0.78846212046E+02 0.  0.
         24    2    4    4    0    0  0.54355374839E+03  0.18358490818E+02  0.69734810818E+02  0.55399050008E+03  0.79087412161E+02 0.  0.
         13    1    3    3    0    0 -0.12214940343E+03 -0.27054979976E+02 -0.58267823426E+02  0.13801299920E+03  0.00000000000E+00 0. -1.
        -14    1    3    3    0    0 -0.52249931324E+03 -0.43166665177E+02 -0.40793166689E+03  0.66428693963E+03  0.00000000000E+00 0.  1.
         15    1    5    5    0    0  0.49300326979E+02 -0.74363182054E+00 -0.22820839367E+03  0.23348084268E+03  0.17770000000E+01 0. -1.
        -16    1    5    5    0    0  0.51794641302E+02  0.52606786156E+02 -0.11632766546E+03  0.13777621191E+03  0.00000000000E+00 0.  1.
          4    1    6    6  502    0  0.11657267007E+03 -0.21768372009E+02 -0.48681481370E+01  0.11868760801E+03  0.00000000000E+00 0. -1.
         -3    1    6    6    0  502  0.42698107832E+03  0.40126862827E+02  0.74602958955E+02  0.43530289207E+03  0.00000000000E+00 0.  1.
<mgrwt>
<rscale>  0 0.66000124E+03</rscale>
<asrwt>0</asrwt>
<pdfrwt beam="1">  1        1 0.18988832E+00 0.66000124E+03</pdfrwt>
<pdfrwt beam="2">  1       -2 0.75888213E-01 0.66000124E+03</pdfrwt>
<totfact> 0.14303788E+01</totfact>
</mgrwt>
</event>
<event>
12    3  0.1201947E-007  0.5133079E+03  0.7818608E-02  0.1010363E+00
         -2   -1    0    0    0  501 -0.00000000000E+00  0.00000000000E+00  0.80179490657E+03  0.80179490657E+03  0.00000000000E+00 0.  1.
          1   -1    0    0  501    0  0.00000000000E+00 -0.00000000000E+00 -0.10781960194E+04  0.10781960194E+04  0.00000000000E+00 0. -1.
        -24    2    1    2    0    0  0.31642192587E+03 -0.13855137385E+03 -0.88854423928E+03  0.95601461644E+03  0.71650284854E+02 0.  0.
    5000000    2    1    2    0    0 -0.31642192587E+03  0.13855137385E+03  0.61214312644E+03  0.92397630955E+03  0.59974469151E+03 0.  0.
        -24    2    4    4    0    0 -0.18483199568E+03  0.36049948029E+03  0.44132278788E+03  0.60458906587E+03  0.81482473852E+02 0.  0.
         24    2    4    4    0    0 -0.13158993019E+03 -0.22194810645E+03  0.17082033856E+03  0.31938724369E+03  0.79068019326E+02 0.  0.
         13    1    3    3    0    0  0.56082606927E+02 -0.54564379382E+02 -0.16933227218E+03  0.18653672212E+03  0.00000000000E+00 0. -1.
        -14    1    3    3    0    0  0.26033931894E+03 -0.83986994464E+02 -0.71921196709E+03  0.76947789431E+03  0.00000000000E+00 0.  1.
         15    1    5    5    0    0 -0.29137941829E+02  0.13331245501E+03  0.16966254642E+03  0.21773784169E+03  0.17770000000E+01 0. -1.
        -16    1    5    5    0    0 -0.15569405385E+03  0.22718702528E+03  0.27166024146E+03  0.38685122418E+03  0.00000000000E+00 0.  1.
          4    1    6    6  502    0 -0.16809821363E+02 -0.72871380261E+02  0.83105919050E+02  0.11180072422E+03  0.00000000000E+00 0. -1.
         -3    1    6    6    0  502 -0.11478010883E+03 -0.14907672619E+03  0.87714419509E+02  0.20758651946E+03  0.00000000000E+00 0.  1.
<mgrwt>
<rscale>  0 0.51330794E+03</rscale>
<asrwt>0</asrwt>
<pdfrwt beam="1">  1        1 0.16587631E+00 0.51330794E+03</pdfrwt>
<pdfrwt beam="2">  1       -2 0.12335306E+00 0.51330794E+03</pdfrwt>
<totfact> 0.60993728E+00</totfact>
</mgrwt>
</event>
<event>
12    3  0.1201947E-007  0.8934986E+03  0.7818608E-02  0.9433745E-01
         -2   -1    0    0    0  501 -0.00000000000E+00  0.00000000000E+00  0.66651068624E+03  0.66651068624E+03  0.00000000000E+00 0.  1.
          1   -1    0    0  501    0  0.00000000000E+00 -0.00000000000E+00 -0.15961879598E+04  0.15961879598E+04  0.00000000000E+00 0. -1.
        -24    2    1    2    0    0  0.55634649151E+03 -0.58602056326E+03  0.10588479248E+03  0.81854202615E+03  0.76537181245E+02 0.  0.
    5000000    2    1    2    0    0 -0.55634649151E+03  0.58602056326E+03 -0.10355620661E+04  0.14441566199E+04  0.60021498734E+03 0.  0.
        -24    2    4    4    0    0 -0.56043849532E+03  0.22079250144E+03 -0.78933238225E+03  0.99578946383E+03  0.75567260631E+02 0.  0.
         24    2    4    4    0    0  0.40920038130E+01  0.36522806182E+03 -0.24622968384E+03  0.44836715611E+03  0.83640706832E+02 0.  0.
         13    1    3    3    0    0  0.35542760855E+03 -0.34146163383E+03  0.34476135113E+02  0.49407837049E+03  0.00000000000E+00 0. -1.
        -14    1    3    3    0    0  0.20091888296E+03 -0.24455892943E+03  0.71408657370E+02  0.32446365566E+03  0.00000000000E+00 0.  1.
         15    1    5    5    0    0 -0.42821821918E+03  0.18128236900E+03 -0.65434685668E+03  0.80274971637E+03  0.17770000000E+01 0. -1.
        -16    1    5    5    0    0 -0.13222027614E+03  0.39510132439E+02 -0.13498552556E+03  0.19303974746E+03  0.00000000000E+00 0.  1.
          2    1    6    6  502    0  0.42034923725E+02  0.24344742341E+03 -0.16729610898E+03  0.29836482846E+03  0.00000000000E+00 0. -1.
         -1    1    6    6    0  502 -0.37942919912E+02  0.12178063841E+03 -0.78933574860E+02  0.15000232766E+03  0.00000000000E+00 0.  1.
<mgrwt>
<rscale>  0 0.89349861E+03</rscale>
<asrwt>0</asrwt>
<pdfrwt beam="1">  1        1 0.24556737E+00 0.89349861E+03</pdfrwt>
<pdfrwt beam="2">  1       -2 0.10254011E+00 0.89349861E+03</pdfrwt>
<totfact> 0.38881675E+00</totfact>
</mgrwt>
</event>
<event>
12    3  0.1201947E-007  0.8144964E+03  0.7818608E-02  0.9539268E-01
         -2   -1    0    0    0  501 -0.00000000000E+00  0.00000000000E+00  0.77551535558E+03  0.77551535558E+03  0.00000000000E+00 0.  1.
          1   -1    0    0  501    0  0.00000000000E+00 -0.00000000000E+00 -0.20457095348E+04  0.20457095348E+04  0.00000000000E+00 0. -1.
        -24    2    1    2    0    0 -0.68945824988E+03 -0.17885363791E+03 -0.16626777394E+04  0.18106378270E+04  0.81060305687E+02 0.  0.
    5000000    2    1    2    0    0  0.68945824988E+03  0.17885363791E+03  0.39248356024E+03  0.10105870634E+04  0.59991796562E+03 0.  0.
        -24    2    4    4    0    0  0.31331751830E+03 -0.20543992706E+03  0.21426165182E+03  0.43848859920E+03  0.77400034148E+02 0.  0.
         24    2    4    4    0    0  0.37614073158E+03  0.38429356497E+03  0.17822190842E+03  0.57209846417E+03  0.79813595510E+02 0.  0.
         13    1    3    3    0    0 -0.51338304248E+03 -0.14402224692E+03 -0.11541515176E+04  0.12713655185E+04  0.00000000000E+00 0. -1.
        -14    1    3    3    0    0 -0.17607520739E+03 -0.34831390991E+02 -0.50852622181E+03  0.53927230851E+03  0.00000000000E+00 0.  1.
         15    1    5    5    0    0  0.21184215690E+03 -0.11766787555E+03  0.99617834520E+02  0.26201087584E+03  0.17770000000E+01 0. -1.
        -16    1    5    5    0    0  0.10147536140E+03 -0.87772051508E+02  0.11464381730E+03  0.17647772336E+03  0.00000000000E+00 0.  1.
          4    1    6    6  502    0  0.28524440681E+03  0.26108409982E+03  0.15773506779E+03  0.41762379052E+03  0.00000000000E+00 0. -1.
         -3    1    6    6    0  502  0.90896324764E+02  0.12320946515E+03  0.20486840628E+02  0.15447467364E+03  0.00000000000E+00 0.  1.
<mgrwt>
<rscale>  0 0.81449637E+03</rscale>
<asrwt>0</asrwt>
<pdfrwt beam="1">  1        1 0.31472454E+00 0.81449637E+03</pdfrwt>
<pdfrwt beam="2">  1       -2 0.11931006E+00 0.81449637E+03</pdfrwt>
<totfact> 0.13565779E+00</totfact>
</mgrwt>
</event>
<event>
12    3  0.1201947E-007  0.6978745E+03  0.7818608E-02  0.9720874E-01
          1   -1    0    0  501    0  0.00000000000E+00  0.00000000000E+00  0.94507877551E+03  0.94507877551E+03  0.00000000000E+00 0. -1.
         -4   -1    0    0    0  501 -0.00000000000E+00 -0.00000000000E+00 -0.59247275891E+03  0.59247275891E+03  0.00000000000E+00 0.  1.
        -24    2    1    2    0    0 -0.29551757347E+02  0.58655946747E+03  0.36863342345E+03  0.69797510146E+03  0.79707754529E+02 0.  0.
    5000000    2    1    2    0    0  0.29551757347E+02 -0.58655946747E+03 -0.16027406849E+02  0.83957643297E+03  0.59975527825E+03 0.  0.
        -24    2    4    4    0    0  0.50046204386E+02  0.90175913993E+02 -0.82193546451E+02  0.15460666801E+03  0.80691540300E+02 0.  0.
         24    2    4    4    0    0 -0.20494447039E+02 -0.67673538146E+03  0.66166139602E+02  0.68496976497E+03  0.80092583984E+02 0.  0.
         13    1    3    3    0    0 -0.73783450128E+01  0.31502513696E+03  0.24320598484E+03  0.39805078564E+03  0.00000000000E+00 0. -1.
        -14    1    3    3    0    0 -0.22173412334E+02  0.27153433051E+03  0.12542743861E+03  0.29992431581E+03  0.00000000000E+00 0.  1.
         15    1    5    5    0    0  0.52943255071E+01  0.85376638811E+02 -0.48185624935E+02  0.98194768275E+02  0.17770000000E+01 0. -1.
        -16    1    5    5    0    0  0.44751878879E+02  0.47992751818E+01 -0.34007921516E+02  0.56411899731E+02  0.00000000000E+00 0.  1.
          4    1    6    6  502    0  0.64709068459E+01 -0.22441046302E+03  0.57537868924E+02  0.23175964901E+03  0.00000000000E+00 0. -1.
         -3    1    6    6    0  502 -0.26965353885E+02 -0.45232491844E+03  0.86282706779E+01  0.45321011595E+03  0.00000000000E+00 0.  1.
<mgrwt>
<rscale>  0 0.69787449E+03</rscale>
<asrwt>0</asrwt>
<pdfrwt beam="1">  1        1 0.14539673E+00 0.69787449E+03</pdfrwt>
<pdfrwt beam="2">  1       -4 0.91149655E-01 0.69787449E+03</pdfrwt>
<totfact> 0.83812200E+00</totfact>
</mgrwt>
</event>
<event>
12    3  0.1201947E-007  0.8196029E+03  0.7818608E-02  0.9532068E-01
          1   -1    0    0  501    0  0.00000000000E+00  0.00000000000E+00  0.77340957383E+03  0.77340957383E+03  0.00000000000E+00 0. -1.
         -2   -1    0    0    0  501 -0.00000000000E+00 -0.00000000000E+00 -0.89058746516E+03  0.89058746516E+03  0.00000000000E+00 0.  1.
        -24    2    1    2    0    0  0.94988573557E+01 -0.71434706494E+03 -0.13247659626E+03  0.73093210093E+03  0.79559601137E+02 0.  0.
    5000000    2    1    2    0    0 -0.94988573557E+01  0.71434706494E+03  0.15298704925E+02  0.93306493806E+03  0.59999514230E+03 0.  0.
        -24    2    4    4    0    0  0.25650451343E+03  0.15862387952E+03  0.29143437650E+02  0.31206581777E+03  0.74696948416E+02 0.  0.
         24    2    4    4    0    0 -0.26600337078E+03  0.55572318543E+03 -0.13844732724E+02  0.62099912029E+03  0.76564865895E+02 0.  0.
         13    1    3    3    0    0  0.24788931266E+02 -0.57515693977E+03 -0.13321431345E+03  0.59090274139E+03  0.00000000000E+00 0. -1.
        -14    1    3    3    0    0 -0.15290073910E+02 -0.13919012517E+03  0.73771719466E+00  0.14002935954E+03  0.00000000000E+00 0.  1.
         15    1    5    5    0    0  0.13897868034E+03  0.62223203706E+02 -0.16958259641E+02  0.15322382637E+03  0.17770000000E+01 0. -1.
        -16    1    5    5    0    0  0.11752583309E+03  0.96400675810E+02  0.46101697291E+02  0.15884199140E+03  0.00000000000E+00 0.  1.
          2    1    6    6  502    0 -0.62453050259E+02  0.78013511213E+02 -0.18912853068E+02  0.10170637851E+03  0.00000000000E+00 0. -1.
         -1    1    6    6    0  502 -0.20355032052E+03  0.47770967421E+03  0.50681203438E+01  0.51929274178E+03  0.00000000000E+00 0.  1.
<mgrwt>
<rscale>  0 0.81960294E+03</rscale>
<asrwt>0</asrwt>
<pdfrwt beam="1">  1        1 0.11898609E+00 0.81960294E+03</pdfrwt>
<pdfrwt beam="2">  1       -2 0.13701346E+00 0.81960294E+03</pdfrwt>
<totfact> 0.78747924E+00</totfact>
</mgrwt>
</event>
<event>
12    3  0.1201947E-007  0.5371340E+03  0.7818608E-02  0.1004517E+00
          1   -1    0    0  501    0  0.00000000000E+00  0.00000000000E+00  0.23846308844E+04  0.23846308844E+04  0.00000000000E+00 0. -1.
         -2   -1    0    0    0  501 -0.00000000000E+00 -0.00000000000E+00 -0.12236633898E+03  0.12236633898E+03  0.00000000000E+00 0.  1.
        -24    2    1    2    0    0  0.36103160054E+03 -0.69041688055E+02  0.85991066818E+03  0.93815954646E+03  0.74742264448E+02 0.  0.
    5000000    2    1    2    0    0 -0.36103160054E+03  0.69041688055E+02  0.14023538772E+04  0.15688376769E+04  0.59962045345E+03 0.  0.
        -24    2    4    4    0    0  0.15265959500E+03  0.53970420088E+02  0.37127693831E+03  0.41289827186E+03  0.80129019693E+02 0.  0.
         24    2    4    4    0    0 -0.51369119554E+03  0.15071267967E+02  0.10310769389E+04  0.11559394050E+04  0.94712547518E+02 0.  0.
         11    1    3    3    0    0  0.11932955715E+03 -0.58413485507E+02  0.32299516172E+03  0.34925284966E+03  0.00000000000E+00 0. -1.
        -12    1    3    3    0    0  0.24170204339E+03 -0.10628202548E+02  0.53691550646E+03  0.58890669681E+03  0.00000000000E+00 0.  1.
         15    1    5    5    0    0  0.11867127467E+03  0.72633279829E+02  0.25742845969E+03  0.29262780858E+03  0.17770000000E+01 0. -1.
        -16    1    5    5    0    0  0.33988320321E+02 -0.18662859741E+02  0.11384847862E+03  0.12027046327E+03  0.00000000000E+00 0.  1.
          2    1    6    6  502    0 -0.36310845765E+03  0.51186718428E+02  0.69120912226E+03  0.78245631371E+03  0.00000000000E+00 0. -1.
         -1    1    6    6    0  502 -0.15058273789E+03 -0.36115450461E+02  0.33986781663E+03  0.37348309130E+03  0.00000000000E+00 0.  1.
<mgrwt>
<rscale>  0 0.53713402E+03</rscale>
<asrwt>0</asrwt>
<pdfrwt beam="1">  1        1 0.36686626E+00 0.53713402E+03</pdfrwt>
<pdfrwt beam="2">  1       -2 0.18825592E-01 0.53713402E+03</pdfrwt>
<totfact> 0.36501999E+01</totfact>
</mgrwt>
</event>
<event>
12    3  0.1201947E-007  0.5149200E+03  0.7818608E-02  0.1009956E+00
          1   -1    0    0  501    0  0.00000000000E+00  0.00000000000E+00  0.13234420782E+04  0.13234420782E+04  0.00000000000E+00 0. -1.
         -2   -1    0    0    0  501 -0.00000000000E+00 -0.00000000000E+00 -0.24909128485E+03  0.24909128485E+03  0.00000000000E+00 0.  1.
        -24    2    1    2    0    0  0.40849936301E+03 -0.57492647113E+02  0.38575636994E+03  0.57031452219E+03  0.79205701968E+02 0.  0.
    5000000    2    1    2    0    0 -0.40849936301E+03  0.57492647113E+02  0.68859442340E+03  0.10022188408E+04  0.60008598630E+03 0.  0.
        -24    2    4    4    0    0 -0.47281013375E+02 -0.17418491622E+03  0.12953280160E+02  0.19803661644E+03  0.80466357685E+02 0.  0.
         24    2    4    4    0    0 -0.36121834963E+03  0.23167756333E+03  0.67564114324E+03  0.80418222441E+03  0.77877507324E+02 0.  0.
         11    1    3    3    0    0  0.31364935703E+03 -0.38483521993E+02  0.24658505982E+03  0.40082551360E+03  0.00000000000E+00 0. -1.
        -12    1    3    3    0    0  0.94850005983E+02 -0.19009125121E+02  0.13917131012E+03  0.16948900859E+03  0.00000000000E+00 0.  1.
         15    1    5    5    0    0  0.10028323551E+01 -0.17193469621E+02  0.28190139324E+02  0.33082665468E+02  0.17770000000E+01 0. -1.
        -16    1    5    5    0    0 -0.48283845731E+02 -0.15699144660E+03 -0.15236859163E+02  0.16495395097E+03  0.00000000000E+00 0.  1.
          2    1    6    6  502    0 -0.29342440882E+03  0.15047791563E+03  0.52916526701E+03  0.62350410311E+03  0.00000000000E+00 0. -1.
         -1    1    6    6    0  502 -0.67793940811E+02  0.81199647700E+02  0.14647587623E+03  0.18067812130E+03  0.00000000000E+00 0.  1.
<mgrwt>
<rscale>  0 0.51492003E+03</rscale>
<asrwt>0</asrwt>
<pdfrwt beam="1">  1        1 0.20360647E+00 0.51492003E+03</pdfrwt>
<pdfrwt beam="2">  1       -2 0.38321737E-01 0.51492003E+03</pdfrwt>
<totfact> 0.51693827E+01</totfact>
</mgrwt>
</event>
<event>
12    3  0.1201947E-007  0.7357106E+03  0.7818608E-02  0.9658039E-01
         -2   -1    0    0    0  501 -0.00000000000E+00  0.00000000000E+00  0.61050349714E+03  0.61050349714E+03  0.00000000000E+00 0.  1.
          1   -1    0    0  501    0  0.00000000000E+00 -0.00000000000E+00 -0.12969837628E+04  0.12969837628E+04  0.00000000000E+00 0. -1.
        -24    2    1    2    0    0 -0.57694640716E+03 -0.27012546161E+03  0.18879551657E+03  0.66980379932E+03  0.84607687384E+02 0.  0.
    5000000    2    1    2    0    0  0.57694640716E+03  0.27012546161E+03 -0.87527578219E+03  0.12376834606E+04  0.59993143937E+03 0.  0.
        -24    2    4    4    0    0  0.58817964462E+03  0.38580085059E+03 -0.59609678594E+03  0.92548865884E+03  0.80001804832E+02 0.  0.
         24    2    4    4    0    0 -0.11233237459E+02 -0.11567538898E+03 -0.27917899625E+03  0.31219480173E+03  0.77573842510E+02 0.  0.
         11    1    3    3    0    0 -0.42383805483E+03 -0.16732282568E+03  0.10703391235E+03  0.46807251907E+03  0.00000000000E+00 0. -1.
        -12    1    3    3    0    0 -0.15310835233E+03 -0.10280263593E+03  0.81761604221E+02  0.20173128025E+03  0.00000000000E+00 0.  1.
         15    1    5    5    0    0  0.37219278741E+03  0.23345821889E+03 -0.32201144884E+03  0.54472446418E+03  0.17770000000E+01 0. -1.
        -16    1    5    5    0    0  0.21598685721E+03  0.15234263170E+03 -0.27408533710E+03  0.38076419466E+03  0.00000000000E+00 0.  1.
          4    1    6    6  502    0  0.19107063376E+02 -0.71971984361E+02 -0.96288488925E+02  0.12172312641E+03  0.00000000000E+00 0. -1.
         -3    1    6    6    0  502 -0.30340300835E+02 -0.43703404620E+02 -0.18289050733E+03  0.19047167532E+03  0.00000000000E+00 0.  1.
<mgrwt>
<rscale>  0 0.73571057E+03</rscale>
<asrwt>0</asrwt>
<pdfrwt beam="1">  1        1 0.19953596E+00 0.73571057E+03</pdfrwt>
<pdfrwt beam="2">  1       -2 0.93923616E-01 0.73571057E+03</pdfrwt>
<totfact> 0.78687261E+00</totfact>
</mgrwt>
</event>
<event>
12    3  0.1201947E-007  0.3834043E+03  0.7818608E-02  0.1049683E+00
         -2   -1    0    0    0  501 -0.00000000000E+00  0.00000000000E+00  0.10337831258E+04  0.10337831258E+04  0.00000000000E+00 0.  1.
          1   -1    0    0  501    0  0.00000000000E+00 -0.00000000000E+00 -0.26994813556E+03  0.26994813556E+03  0.00000000000E+00 0. -1.
        -24    2    1    2    0    0  0.15720345865E+03  0.21663114050E+03 -0.21249203298E+02  0.27999680361E+03  0.79402159577E+02 0.  0.
    5000000    2    1    2    0    0 -0.15720345865E+03 -0.21663114050E+03  0.78508419358E+03  0.10237344578E+04  0.60002755821E+03 0.  0.
        -24    2    4    4    0    0  0.13323910749E+03 -0.46803249588E+02 -0.45335794256E+01  0.16195405373E+03  0.79154015956E+02 0.  0.
         24    2    4    4    0    0 -0.29044256614E+03 -0.16982789092E+03  0.78961777300E+03  0.86178040405E+03  0.77271214634E+02 0.  0.
         11    1    3    3    0    0  0.52790636125E+02  0.73042884490E+02  0.30378147362E+02  0.95104921399E+02  0.00000000000E+00 0. -1.
        -12    1    3    3    0    0  0.10441282253E+03  0.14358825601E+03 -0.51627350660E+02  0.18489188221E+03  0.00000000000E+00 0.  1.
         15    1    5    5    0    0  0.12871002827E+03 -0.20767864408E+02  0.11747382252E+02  0.13091498878E+03  0.17770000000E+01 0. -1.
        -16    1    5    5    0    0  0.45290792227E+01 -0.26035385180E+02 -0.16280961678E+02  0.31039064954E+02  0.00000000000E+00 0.  1.
          2    1    6    6  502    0 -0.25764028353E+02 -0.39876572685E+02  0.15293537611E+03  0.16013480406E+03  0.00000000000E+00 0. -1.
         -1    1    6    6    0  502 -0.26467853779E+03 -0.12995131823E+03  0.63668239689E+03  0.70164559999E+03  0.00000000000E+00 0.  1.
<mgrwt>
<rscale>  0 0.38340432E+03</rscale>
<asrwt>0</asrwt>
<pdfrwt beam="1">  1        1 0.41530483E-01 0.38340432E+03</pdfrwt>
<pdfrwt beam="2">  1       -2 0.15904356E+00 0.38340432E+03</pdfrwt>
<totfact> 0.23736675E+01</totfact>
</mgrwt>
</event>
<event>
12    3  0.1201947E-007  0.5592086E+03  0.7818608E-02  0.9993847E-01
          1   -1    0    0  501    0  0.00000000000E+00  0.00000000000E+00  0.26337532397E+04  0.26337532397E+04  0.00000000000E+00 0. -1.
         -2   -1    0    0    0  501 -0.00000000000E+00 -0.00000000000E+00 -0.13120335362E+03  0.13120335362E+03  0.00000000000E+00 0.  1.
        -24    2    1    2    0    0  0.39678229831E+03 -0.16243406237E+03  0.85057684532E+03  0.95586433370E+03  0.79841328781E+02 0.  0.
    5000000    2    1    2    0    0 -0.39678229831E+03  0.16243406237E+03  0.16519730408E+04  0.18090922597E+04  0.59998238272E+03 0.  0.
        -24    2    4    4    0    0  0.84823761144E+02  0.16939456807E+03  0.24313964183E+03  0.31829785929E+03  0.79416948134E+02 0.  0.
         24    2    4    4    0    0 -0.48160605945E+03 -0.69605056970E+01  0.14088333990E+04  0.14907944004E+04  0.75256581159E+02 0.  0.
         13    1    3    3    0    0  0.10389165572E+03 -0.67761801067E+02  0.30830534199E+03  0.33232111234E+03  0.00000000000E+00 0. -1.
        -14    1    3    3    0    0  0.29289064258E+03 -0.94672261302E+02  0.54227150333E+03  0.62354322135E+03  0.00000000000E+00 0.  1.
         15    1    5    5    0    0  0.28687284604E+02  0.10272943859E+02  0.70849126313E+02  0.77144345884E+02  0.17770000000E+01 0. -1.
        -16    1    5    5    0    0  0.56136476539E+02  0.15912162421E+03  0.17229051552E+03  0.24115351340E+03  0.00000000000E+00 0.  1.
          2    1    6    6  502    0 -0.40233244146E+03 -0.33474481681E+02  0.11512266311E+04  0.12199650366E+04  0.00000000000E+00 0. -1.
         -1    1    6    6    0  502 -0.79273617985E+02  0.26513975984E+02  0.25760676783E+03  0.27082936374E+03  0.00000000000E+00 0.  1.
<mgrwt>
<rscale>  0 0.55920861E+03</rscale>
<asrwt>0</asrwt>
<pdfrwt beam="1">  1        1 0.40519277E+00 0.55920861E+03</pdfrwt>
<pdfrwt beam="2">  1       -2 0.20185133E-01 0.55920861E+03</pdfrwt>
<totfact> 0.21828473E+01</totfact>
</mgrwt>
</event>
<event>
12    3  0.1201947E-007  0.5406143E+03  0.7818608E-02  0.1003690E+00
         -2   -1    0    0    0  501 -0.00000000000E+00  0.00000000000E+00  0.27845893871E+03  0.27845893871E+03  0.00000000000E+00 0.  1.
          1   -1    0    0  501    0  0.00000000000E+00 -0.00000000000E+00 -0.12962642613E+04  0.12962642613E+04  0.00000000000E+00 0. -1.
        -24    2    1    2    0    0 -0.25448225382E+03  0.35583426682E+03 -0.50158718895E+03  0.67051679827E+03  0.81386888861E+02 0.  0.
    5000000    2    1    2    0    0  0.25448225382E+03 -0.35583426682E+03 -0.51621813368E+03  0.90420640179E+03  0.59977396787E+03 0.  0.
        -24    2    4    4    0    0  0.18050774280E+03 -0.46684749581E+03 -0.18747409000E+03  0.54039084304E+03  0.79662408111E+02 0.  0.
         24    2    4    4    0    0  0.73974511028E+02  0.11101322899E+03 -0.32874404368E+03  0.36381555875E+03  0.80578838653E+02 0.  0.
         11    1    3    3    0    0 -0.97315681006E+02  0.10926909045E+03 -0.11670197986E+03  0.18716150245E+03  0.00000000000E+00 0. -1.
        -12    1    3    3    0    0 -0.15716657282E+03  0.24656517637E+03 -0.38488520910E+03  0.48335529582E+03  0.00000000000E+00 0.  1.
         15    1    5    5    0    0  0.61310761525E+02 -0.26570156470E+03 -0.91222261285E+02  0.28754302225E+03  0.17770000000E+01 0. -1.
        -16    1    5    5    0    0  0.11919698127E+03 -0.20114593112E+03 -0.96251828719E+02  0.25284782080E+03  0.00000000000E+00 0.  1.
          4    1    6    6  502    0 -0.18214208392E+01  0.74711159514E+01  0.28950147162E+01  0.82168277114E+01  0.00000000000E+00 0. -1.
         -3    1    6    6    0  502  0.75795931867E+02  0.10354211304E+03 -0.33163905840E+03  0.35559873104E+03  0.00000000000E+00 0.  1.
<mgrwt>
<rscale>  0 0.54061428E+03</rscale>
<asrwt>0</asrwt>
<pdfrwt beam="1">  1        1 0.19942527E+00 0.54061428E+03</pdfrwt>
<pdfrwt beam="2">  1       -2 0.42839837E-01 0.54061428E+03</pdfrwt>
<totfact> 0.43325835E+01</totfact>
</mgrwt>
</event>
<event>
12    3  0.1201947E-007  0.9455768E+03  0.7818608E-02  0.9370336E-01
          1   -1    0    0  501    0  0.00000000000E+00  0.00000000000E+00  0.10091737372E+04  0.10091737372E+04  0.00000000000E+00 0. -1.
         -2   -1    0    0    0  501 -0.00000000000E+00 -0.00000000000E+00 -0.96627881680E+03  0.96627881680E+03  0.00000000000E+00 0.  1.
        -24    2    1    2    0    0 -0.44418754374E+03  0.75416895236E+03 -0.16237354765E+03  0.89462153082E+03  0.88933299282E+02 0.  0.
    5000000    2    1    2    0    0  0.44418754374E+03 -0.75416895236E+03  0.20526846806E+03  0.10808310232E+04  0.59998931157E+03 0.  0.
        -24    2    4    4    0    0 -0.36392988150E+02  0.30718355886E+02  0.12132530204E+03  0.15300270640E+03  0.80136959488E+02 0.  0.
         24    2    4    4    0    0  0.48058053189E+03 -0.78488730825E+03  0.83943166016E+02  0.92782831679E+03  0.82542086468E+02 0.  0.
         11    1    3    3    0    0 -0.10881153391E+03  0.25866456333E+03 -0.69799130961E+02  0.28916988937E+03  0.00000000000E+00 0. -1.
        -12    1    3    3    0    0 -0.33537600983E+03  0.49550438903E+03 -0.92574416691E+02  0.60545164146E+03  0.00000000000E+00 0.  1.
         15    1    5    5    0    0  0.10037787696E+02  0.41680359813E+02  0.39695429764E+02  0.58454208139E+02  0.17770000000E+01 0. -1.
        -16    1    5    5    0    0 -0.46430775846E+02 -0.10962003927E+02  0.81629872276E+02  0.94548498262E+02  0.00000000000E+00 0.  1.
          4    1    6    6  502    0  0.22375880403E+03 -0.31992395090E+03  0.23120800640E+01  0.39041603765E+03  0.00000000000E+00 0. -1.
         -3    1    6    6    0  502  0.25682172785E+03 -0.46496335735E+03  0.81631085952E+02  0.53741227914E+03  0.00000000000E+00 0.  1.
<mgrwt>
<rscale>  0 0.94557677E+03</rscale>
<asrwt>0</asrwt>
<pdfrwt beam="1">  1        1 0.15525750E+00 0.94557677E+03</pdfrwt>
<pdfrwt beam="2">  1       -2 0.14865828E+00 0.94557677E+03</pdfrwt>
<totfact> 0.40106876E+00</totfact>
</mgrwt>
</event>
<event>
12    3  0.1201947E-007  0.7296974E+03  0.7818608E-02  0.9667752E-01
          1   -1    0    0  501    0  0.00000000000E+00  0.00000000000E+00  0.20716760112E+04  0.20716760112E+04  0.00000000000E+00 0. -1.
         -2   -1    0    0    0  501 -0.00000000000E+00 -0.00000000000E+00 -0.37167324402E+03  0.37167324402E+03  0.00000000000E+00 0.  1.
        -24    2    1    2    0    0 -0.14166539131E+03 -0.68033743136E+03  0.12221960168E+04  0.14081734219E+04  0.79127611616E+02 0.  0.
    5000000    2    1    2    0    0  0.14166539131E+03  0.68033743136E+03  0.47780675036E+03  0.10351758334E+04  0.60030126743E+03 0.  0.
        -24    2    4    4    0    0  0.50115133352E+02  0.61688861900E+03  0.98089330400E+02  0.63101161826E+03  0.74101624728E+02 0.  0.
         24    2    4    4    0    0  0.91550257956E+02  0.63448812359E+02  0.37971741996E+03  0.40416421511E+03  0.82196059679E+02 0.  0.
         13    1    3    3    0    0 -0.10532257355E+03 -0.31210770779E+03  0.57741066860E+03  0.66476096905E+03  0.00000000000E+00 0. -1.
        -14    1    3    3    0    0 -0.36342817756E+02 -0.36822972357E+03  0.64478534825E+03  0.74341245284E+03  0.00000000000E+00 0.  1.
         15    1    5    5    0    0  0.63068381830E+02  0.49592657214E+03  0.59872662858E+02  0.50349645403E+03  0.17770000000E+01 0. -1.
        -16    1    5    5    0    0 -0.12953248478E+02  0.12096204687E+03  0.38216667541E+02  0.12751516422E+03  0.00000000000E+00 0.  1.
          4    1    6    6  502    0 -0.15397316223E+02  0.34808896844E+01  0.46190557250E+02  0.48813538275E+02  0.00000000000E+00 0. -1.
         -3    1    6    6    0  502  0.10694757418E+03  0.59967922674E+02  0.33352686271E+03  0.35535067683E+03  0.00000000000E+00 0.  1.
<mgrwt>
<rscale>  0 0.72969738E+03</rscale>
<asrwt>0</asrwt>
<pdfrwt beam="1">  1        1 0.31871938E+00 0.72969738E+03</pdfrwt>
<pdfrwt beam="2">  1       -2 0.57180500E-01 0.72969738E+03</pdfrwt>
<totfact> 0.70223211E+00</totfact>
</mgrwt>
</event>
<event>
12    3  0.1201947E-007  0.1474415E+04  0.7818608E-02  0.8901647E-01
         -2   -1    0    0    0  501 -0.00000000000E+00  0.00000000000E+00  0.24083533165E+04  0.24083533165E+04  0.00000000000E+00 0.  1.
          1   -1    0    0  501    0  0.00000000000E+00 -0.00000000000E+00 -0.10449340103E+04  0.10449340103E+04  0.00000000000E+00 0. -1.
        -24    2    1    2    0    0 -0.14553952469E+04 -0.10916023506E+03  0.11522376083E+04  0.18612342845E+04  0.80313599606E+02 0.  0.
    5000000    2    1    2    0    0  0.14553952469E+04  0.10916023506E+03  0.21118169783E+03  0.15920530423E+04  0.59995324680E+03 0.  0.
        -24    2    4    4    0    0  0.33655017408E+02 -0.14022829441E+02  0.13538159559E+03  0.16084053346E+03  0.78817516059E+02 0.  0.
         24    2    4    4    0    0  0.14217402295E+04  0.12318306450E+03  0.75800102236E+02  0.14312125088E+04  0.78129651122E+02 0.  0.
         13    1    3    3    0    0 -0.33056890184E+03 -0.51228494252E+02  0.29103664221E+03  0.44339878732E+03  0.00000000000E+00 0. -1.
        -14    1    3    3    0    0 -0.11248263451E+04 -0.57931740805E+02  0.86120096610E+03  0.14178354972E+04  0.00000000000E+00 0.  1.
         15    1    5    5    0    0  0.31188337922E+02 -0.30745216998E+02  0.13701834148E+03  0.14385813992E+03  0.17770000000E+01 0. -1.
        -16    1    5    5    0    0  0.24666794866E+01  0.16722387557E+02 -0.16367458896E+01  0.16982393542E+02  0.00000000000E+00 0.  1.
          2    1    6    6  502    0  0.13117120102E+04  0.10727782407E+03  0.89856841722E+02  0.13191554803E+04  0.00000000000E+00 0. -1.
         -1    1    6    6    0  502  0.11002821929E+03  0.15905240430E+02 -0.14056739486E+02  0.11205702851E+03  0.00000000000E+00 0.  1.
<mgrwt>
<rscale>  0 0.14744148E+04</rscale>
<asrwt>0</asrwt>
<pdfrwt beam="1">  1        1 0.16075908E+00 0.14744148E+04</pdfrwt>
<pdfrwt beam="2">  1       -2 0.37051589E+00 0.14744148E+04</pdfrwt>
<totfact> 0.13437714E-01</totfact>
</mgrwt>
</event>
<event>
12    3  0.1201947E-007  0.4128006E+03  0.7818608E-02  0.1039435E+00
         -2   -1    0    0    0  501 -0.00000000000E+00  0.00000000000E+00  0.13093780152E+03  0.13093780152E+03  0.00000000000E+00 0.  1.
          1   -1    0    0  501    0  0.00000000000E+00 -0.00000000000E+00 -0.31184569026E+04  0.31184569026E+04  0.00000000000E+00 0. -1.
        -24    2    1    2    0    0 -0.24226947791E+03  0.22661109811E+03 -0.24288091945E+03  0.42044186832E+03  0.87938239103E+02 0.  0.
    5000000    2    1    2    0    0  0.24226947791E+03 -0.22661109811E+03 -0.27446381816E+04  0.28289528358E+04  0.59990691724E+03 0.  0.
        -24    2    4    4    0    0  0.20383580818E+03  0.35590365865E+02 -0.32293913284E+03  0.39148946820E+03  0.78476807714E+02 0.  0.
         24    2    4    4    0    0  0.38433669725E+02 -0.26220146398E+03 -0.24216990488E+04  0.24374633676E+04  0.79841284938E+02 0.  0.
         13    1    3    3    0    0 -0.13838619139E+03  0.84161051236E+02 -0.81013657398E+02  0.18109951187E+03  0.00000000000E+00 0. -1.
        -14    1    3    3    0    0 -0.10388328651E+03  0.14245004688E+03 -0.16186726205E+03  0.23934235646E+03  0.00000000000E+00 0.  1.
         15    1    5    5    0    0  0.12125724307E+03 -0.16409710004E+02 -0.15808220185E+03  0.19991432627E+03  0.17770000000E+01 0. -1.
        -16    1    5    5    0    0  0.82578565112E+02  0.52000075870E+02 -0.16485693099E+03  0.19157514192E+03  0.00000000000E+00 0.  1.
          2    1    6    6  502    0  0.44297092395E+02 -0.24913663857E+03 -0.20603654793E+04  0.20758461420E+04  0.00000000000E+00 0. -1.
         -1    1    6    6    0  502 -0.58634226699E+01 -0.13064825403E+02 -0.36133356946E+03  0.36161722554E+03  0.00000000000E+00 0.  1.
<mgrwt>
<rscale>  0 0.41280061E+03</rscale>
<asrwt>0</asrwt>
<pdfrwt beam="1">  1        1 0.47976257E+00 0.41280061E+03</pdfrwt>
<pdfrwt beam="2">  1       -2 0.20144279E-01 0.41280061E+03</pdfrwt>
<totfact> 0.10388798E+01</totfact>
</mgrwt>
</event>
<event>
12    3  0.1201947E-007  0.6117112E+03  0.7818608E-02  0.9881402E-01
         -2   -1    0    0    0  501 -0.00000000000E+00  0.00000000000E+00  0.52296761168E+03  0.52296761168E+03  0.00000000000E+00 0.  1.
          1   -1    0    0  501    0  0.00000000000E+00 -0.00000000000E+00 -0.82995452817E+03  0.82995452817E+03  0.00000000000E+00 0. -1.
        -24    2    1    2    0    0 -0.14585431787E+03 -0.44553441403E+03  0.10572374957E+03  0.48684404131E+03  0.77879478732E+02 0.  0.
    5000000    2    1    2    0    0  0.14585431787E+03  0.44553441403E+03 -0.41271066606E+03  0.86607809855E+03  0.59998898554E+03 0.  0.
        -24    2    4    4    0    0  0.83783455563E+01 -0.13364074400E+03 -0.12466281099E+03  0.19998467433E+03  0.80765143422E+02 0.  0.
         24    2    4    4    0    0  0.13747597232E+03  0.57917515803E+03 -0.28804785507E+03  0.66609342421E+03  0.79783308513E+02 0.  0.
         13    1    3    3    0    0 -0.20946109253E+02 -0.14097517317E+03  0.59467447250E+02  0.15443159076E+03  0.00000000000E+00 0. -1.
        -14    1    3    3    0    0 -0.12490820862E+03 -0.30455924086E+03  0.46256302324E+02  0.33241245055E+03  0.00000000000E+00 0.  1.
         15    1    5    5    0    0 -0.35847044470E+02 -0.69343716219E+02 -0.68054674255E+02  0.10357682170E+03  0.17770000000E+01 0. -1.
        -16    1    5    5    0    0  0.44225390026E+02 -0.64297027786E+02 -0.56608136737E+02  0.96407852636E+02  0.00000000000E+00 0.  1.
          2    1    6    6  502    0  0.27596537524E+02  0.85393118769E+02 -0.75956142594E+02  0.11757078385E+03  0.00000000000E+00 0. -1.
         -1    1    6    6    0  502  0.10987943479E+03  0.49378203927E+03 -0.21209171248E+03  0.54852264036E+03  0.00000000000E+00 0.  1.
<mgrwt>
<rscale>  0 0.61171124E+03</rscale>
<asrwt>0</asrwt>
<pdfrwt beam="1">  1        1 0.12768531E+00 0.61171124E+03</pdfrwt>
<pdfrwt beam="2">  1       -2 0.80456556E-01 0.61171124E+03</pdfrwt>
<totfact> 0.25803492E+01</totfact>
</mgrwt>
</event>
<event>
12    3  0.1201947E-007  0.1407071E+04  0.7818608E-02  0.8948716E-01
         -2   -1    0    0    0  501 -0.00000000000E+00  0.00000000000E+00  0.88536503264E+03  0.88536503264E+03  0.00000000000E+00 0.  1.
          1   -1    0    0  501    0  0.00000000000E+00 -0.00000000000E+00 -0.28374901269E+04  0.28374901269E+04  0.00000000000E+00 0. -1.
        -24    2    1    2    0    0  0.13054176956E+04 -0.44053432535E+03 -0.16816167088E+03  0.13903441801E+04  0.81195688280E+02 0.  0.
    5000000    2    1    2    0    0 -0.13054176956E+04  0.44053432535E+03 -0.17839634233E+04  0.23325109794E+04  0.59991342800E+03 0.  0.
        -24    2    4    4    0    0 -0.59857224136E+03 -0.75257414486E+01 -0.10685926721E+04  0.12276760807E+04  0.83384023553E+02 0.  0.
         24    2    4    4    0    0 -0.70684545429E+03  0.44806006680E+03 -0.71537075127E+03  0.11048348987E+04  0.92285003308E+02 0.  0.
         11    1    3    3    0    0  0.34037491885E+03 -0.11991301146E+03 -0.79839998793E+02  0.36960606205E+03  0.00000000000E+00 0. -1.
        -12    1    3    3    0    0  0.96504277680E+03 -0.32062131389E+03 -0.88321672091E+02  0.10207381181E+04  0.00000000000E+00 0.  1.
         15    1    5    5    0    0 -0.23067886824E+02 -0.52446569999E+01 -0.17997123702E+02  0.29777307133E+02  0.17770000000E+01 0. -1.
        -16    1    5    5    0    0 -0.57550435454E+03 -0.22810844487E+01 -0.10505955484E+04  0.11978987736E+04  0.00000000000E+00 0.  1.
          2    1    6    6  502    0 -0.16402727927E+03  0.11383387310E+03 -0.12221962224E+03  0.23409556824E+03  0.00000000000E+00 0. -1.
         -1    1    6    6    0  502 -0.54281817502E+03  0.33422619371E+03 -0.59315112903E+03  0.87073933043E+03  0.00000000000E+00 0.  1.
<mgrwt>
<rscale>  0 0.14070709E+04</rscale>
<asrwt>0</asrwt>
<pdfrwt beam="1">  1        1 0.43653694E+00 0.14070709E+04</pdfrwt>
<pdfrwt beam="2">  1       -2 0.13621001E+00 0.14070709E+04</pdfrwt>
<totfact> 0.25451954E-01</totfact>
</mgrwt>
</event>
<event>
12    3  0.1201947E-007  0.1996790E+04  0.7818608E-02  0.8608123E-01
         -2   -1    0    0    0  501 -0.00000000000E+00  0.00000000000E+00  0.12879066938E+04  0.12879066938E+04  0.00000000000E+00 0.  1.
          1   -1    0    0  501    0  0.00000000000E+00 -0.00000000000E+00 -0.36099648166E+04  0.36099648166E+04  0.00000000000E+00 0. -1.
        -24    2    1    2    0    0  0.15392614183E+04 -0.12168795199E+04 -0.20316070708E+04  0.28255741563E+04  0.79501841811E+02 0.  0.
    5000000    2    1    2    0    0 -0.15392614183E+04  0.12168795199E+04 -0.29045105198E+03  0.20722973541E+04  0.59994418938E+03 0.  0.
        -24    2    4    4    0    0 -0.65815019106E+03  0.21696959061E+03  0.33541256495E+02  0.69846333094E+03  0.80551421684E+02 0.  0.
         24    2    4    4    0    0 -0.88111122724E+03  0.99990992925E+03 -0.32399230847E+03  0.13738340231E+04  0.79196248570E+02 0.  0.
         13    1    3    3    0    0  0.57364838297E+03 -0.48464698495E+03 -0.82059692162E+03  0.11123553727E+04  0.00000000000E+00 0. -1.
        -14    1    3    3    0    0  0.96561303533E+03 -0.73223253491E+03 -0.12110101492E+04  0.17132187836E+04  0.00000000000E+00 0.  1.
         15    1    5    5    0    0 -0.41713305824E+03  0.17318202491E+03  0.39909965790E+02  0.45341809087E+03  0.17770000000E+01 0. -1.
        -16    1    5    5    0    0 -0.24101713282E+03  0.43787565703E+02 -0.63687092949E+01  0.24504524007E+03  0.00000000000E+00 0.  1.
          4    1    6    6  502    0 -0.33457675990E+03  0.42524165020E+03 -0.10613336370E+03  0.55139492219E+03  0.00000000000E+00 0. -1.
         -3    1    6    6    0  502 -0.54653446734E+03  0.57466827905E+03 -0.21785894477E+03  0.82243910094E+03  0.00000000000E+00 0.  1.
<mgrwt>
<rscale>  0 0.19967905E+04</rscale>
<asrwt>0</asrwt>
<pdfrwt beam="1">  1        1 0.55537919E+00 0.19967905E+04</pdfrwt>
<pdfrwt beam="2">  1       -2 0.19813950E+00 0.19967905E+04</pdfrwt>
<totfact> 0.21903518E-02</totfact>
</mgrwt>
</event>
<event>
12    3  0.1201947E-007  0.4151684E+03  0.7818608E-02  0.1038650E+00
         -2   -1    0    0    0  501 -0.00000000000E+00  0.00000000000E+00  0.28703448615E+03  0.28703448615E+03  0.00000000000E+00 0.  1.
          1   -1    0    0  501    0  0.00000000000E+00 -0.00000000000E+00 -0.63413320347E+03  0.63413320347E+03  0.00000000000E+00 0. -1.
        -24    2    1    2    0    0 -0.93306250762E+02  0.17006438830E+03 -0.15817259117E+03  0.26286681856E+03  0.80327100680E+02 0.  0.
    5000000    2    1    2    0    0  0.93306250762E+02 -0.17006438830E+03 -0.18892612615E+03  0.65830087105E+03  0.60003250169E+03 0.  0.
        -24    2    4    4    0    0  0.78896665551E+02 -0.38434623759E+03 -0.12677315715E+03  0.42117168198E+03  0.85833782053E+02 0.  0.
         24    2    4    4    0    0  0.14409585211E+02  0.21428184929E+03 -0.62152969001E+02  0.23712918907E+03  0.79012110926E+02 0.  0.
         13    1    3    3    0    0 -0.46173151132E+02  0.15292679848E+03 -0.11776895868E+03  0.19846433737E+03  0.00000000000E+00 0. -1.
        -14    1    3    3    0    0 -0.47133099630E+02  0.17137589826E+02 -0.40403632488E+02  0.64402481194E+02  0.00000000000E+00 0.  1.
         15    1    5    5    0    0  0.24458028406E+02 -0.25519574488E+02 -0.27746027290E+02  0.44971586529E+02  0.17770000000E+01 0. -1.
        -16    1    5    5    0    0  0.54438637145E+02 -0.35882666310E+03 -0.99027129863E+02  0.37620009545E+03  0.00000000000E+00 0.  1.
          4    1    6    6  502    0  0.33655573707E+02  0.17685968764E+03 -0.26496250503E+02  0.18197279479E+03  0.00000000000E+00 0. -1.
         -3    1    6    6    0  502 -0.19245988496E+02  0.37422161646E+02 -0.35656718498E+02  0.55156394276E+02  0.00000000000E+00 0.  1.
<mgrwt>
<rscale>  0 0.41516840E+03</rscale>
<asrwt>0</asrwt>
<pdfrwt beam="1">  1        1 0.97558953E-01 0.41516840E+03</pdfrwt>
<pdfrwt beam="2">  1       -2 0.44159152E-01 0.41516840E+03</pdfrwt>
<totfact> 0.13978442E+02</totfact>
</mgrwt>
</event>
<event>
12    3  0.1201947E-007  0.9709568E+03  0.7818608E-02  0.9340985E-01
          1   -1    0    0  501    0  0.00000000000E+00  0.00000000000E+00  0.10159545630E+04  0.10159545630E+04  0.00000000000E+00 0. -1.
         -2   -1    0    0    0  501 -0.00000000000E+00 -0.00000000000E+00 -0.14417843223E+04  0.14417843223E+04  0.00000000000E+00 0.  1.
        -24    2    1    2    0    0 -0.65183927453E+03 -0.66006241373E+03 -0.86296779286E+03  0.12696514426E+04  0.82003319430E+02 0.  0.
    5000000    2    1    2    0    0  0.65183927453E+03  0.66006241373E+03  0.43713803353E+03  0.11880874426E+04  0.59990439329E+03 0.  0.
        -24    2    4    4    0    0  0.33979262560E+03  0.79259096808E+02  0.37853052351E+03  0.52152606441E+03  0.83444866755E+02 0.  0.
         24    2    4    4    0    0  0.31204664892E+03  0.58080331693E+03  0.58607510012E+02  0.66656137820E+03  0.78508767781E+02 0.  0.
         11    1    3    3    0    0 -0.28814584684E+03 -0.24337160107E+03 -0.37942937517E+03  0.53499945420E+03  0.00000000000E+00 0. -1.
        -12    1    3    3    0    0 -0.36369342769E+03 -0.41669081267E+03 -0.48353841769E+03  0.73465198842E+03  0.00000000000E+00 0.  1.
         15    1    5    5    0    0  0.15279390761E+03  0.26153174502E+02  0.22777543450E+03  0.27552635632E+03  0.17770000000E+01 0. -1.
        -16    1    5    5    0    0  0.18699871800E+03  0.53105922306E+02  0.15075508902E+03  0.24599970809E+03  0.00000000000E+00 0.  1.
          2    1    6    6  502    0  0.12153398538E+03  0.29171157773E+03  0.38690101616E+01  0.31603974975E+03  0.00000000000E+00 0. -1.
         -1    1    6    6    0  502  0.19051266355E+03  0.28909173920E+03  0.54738499851E+02  0.35052162845E+03  0.00000000000E+00 0.  1.
<mgrwt>
<rscale>  0 0.97095676E+03</rscale>
<asrwt>0</asrwt>
<pdfrwt beam="1">  1        1 0.15630070E+00 0.97095676E+03</pdfrwt>
<pdfrwt beam="2">  1       -2 0.22181297E+00 0.97095676E+03</pdfrwt>
<totfact> 0.12436026E+00</totfact>
</mgrwt>
</event>
<event>
12    3  0.1268886E-007  0.6553757E+03  0.7818608E-02  0.9796744E-01
          1   -1    0    0  501    0  0.00000000000E+00  0.00000000000E+00  0.19739220286E+04  0.19739220286E+04  0.00000000000E+00 0. -1.
         -2   -1    0    0    0  501 -0.00000000000E+00 -0.00000000000E+00 -0.31051054974E+03  0.31051054974E+03  0.00000000000E+00 0.  1.
        -24    2    1    2    0    0 -0.10376591292E+03  0.51636797027E+03  0.13044202487E+04  0.14090407022E+04  0.80500122797E+02 0.  0.
    5000000    2    1    2    0    0  0.10376591292E+03 -0.51636797027E+03  0.35899123010E+03  0.87539187611E+03  0.60002748942E+03 0.  0.
        -24    2    4    4    0    0 -0.12840740024E+03  0.52330901315E+02  0.13785429385E+03  0.21738295830E+03  0.94997687119E+02 0.  0.
         24    2    4    4    0    0  0.23217331316E+03 -0.56869887158E+03  0.22113693624E+03  0.65800891780E+03  0.82166522701E+02 0.  0.
         11    1    3    3    0    0 -0.84172552630E+02  0.25844069510E+03  0.73407011643E+03  0.78277426333E+03  0.00000000000E+00 0. -1.
        -12    1    3    3    0    0 -0.19593360286E+02  0.25792727517E+03  0.57035013228E+03  0.62626643886E+03  0.00000000000E+00 0.  1.
         15    1    5    5    0    0 -0.25756131927E+02  0.53914073031E+02  0.24930590848E+02  0.64767257867E+02  0.17770000000E+01 0. -1.
        -16    1    5    5    0    0 -0.10265126832E+03 -0.15831717162E+01  0.11292370300E+03  0.15261570044E+03  0.00000000000E+00 0.  1.
          2    1    6    6  502    0  0.10918915120E+03 -0.18399393352E+03  0.52288831735E+02  0.22025022188E+03  0.00000000000E+00 0. -1.
         -1    1    6    6    0  502  0.12298416196E+03 -0.38470493806E+03  0.16884810451E+03  0.43775869593E+03  0.00000000000E+00 0.  1.
<mgrwt>
<rscale>  0 0.65537571E+03</rscale>
<asrwt>0</asrwt>
<pdfrwt beam="1">  1        1 0.30368031E+00 0.65537571E+03</pdfrwt>
<pdfrwt beam="2">  1       -2 0.47770855E-01 0.65537571E+03</pdfrwt>
<totfact> 0.11944546E+01</totfact>
</mgrwt>
</event>
<event>
12    3  0.1201947E-007  0.6733942E+03  0.7818608E-02  0.9763846E-01
          1   -1    0    0  501    0  0.00000000000E+00  0.00000000000E+00  0.17815005261E+04  0.17815005261E+04  0.00000000000E+00 0. -1.
         -2   -1    0    0    0  501 -0.00000000000E+00 -0.00000000000E+00 -0.32140229925E+03  0.32140229925E+03  0.00000000000E+00 0.  1.
        -24    2    1    2    0    0  0.23406841995E+03  0.58102121128E+03  0.76089378094E+03  0.98886558369E+03  0.80759665367E+02 0.  0.
    5000000    2    1    2    0    0 -0.23406841995E+03 -0.58102121128E+03  0.69920444591E+03  0.11140372416E+04  0.59984868544E+03 0.  0.
        -24    2    4    4    0    0 -0.32414425923E+03 -0.45784100036E+03  0.74475449257E+03  0.93582027095E+03  0.80077730475E+02 0.  0.
         24    2    4    4    0    0  0.90075839271E+02 -0.12318021093E+03 -0.45550046662E+02  0.17821697070E+03  0.79996629372E+02 0.  0.
         11    1    3    3    0    0  0.66447974125E+02  0.19068597759E+03  0.19002435310E+03  0.27728276197E+03  0.00000000000E+00 0. -1.
        -12    1    3    3    0    0  0.16762044583E+03  0.39033523369E+03  0.57086942784E+03  0.71158282172E+03  0.00000000000E+00 0.  1.
         15    1    5    5    0    0 -0.16131739839E+03 -0.20524155389E+03  0.40896435409E+03  0.48518285122E+03  0.17770000000E+01 0. -1.
        -16    1    5    5    0    0 -0.16282686084E+03 -0.25259944647E+03  0.33579013848E+03  0.45063741973E+03  0.00000000000E+00 0.  1.
          2    1    6    6  502    0  0.28816746306E+02 -0.11381478902E+02  0.17937744402E+02  0.35800916244E+02  0.00000000000E+00 0. -1.
         -1    1    6    6    0  502  0.61259092965E+02 -0.11179873202E+03 -0.63487791064E+02  0.14241605446E+03  0.00000000000E+00 0.  1.
<mgrwt>
<rscale>  0 0.67339417E+03</rscale>
<asrwt>0</asrwt>
<pdfrwt beam="1">  1        1 0.27407700E+00 0.67339417E+03</pdfrwt>
<pdfrwt beam="2">  1       -2 0.49446509E-01 0.67339417E+03</pdfrwt>
<totfact> 0.14927977E+01</totfact>
</mgrwt>
</event>
<event>
12    3  0.1201947E-007  0.1166679E+04  0.7818608E-02  0.9142533E-01
         -2   -1    0    0    0  501 -0.00000000000E+00  0.00000000000E+00  0.98610052152E+03  0.98610052152E+03  0.00000000000E+00 0.  1.
          1   -1    0    0  501    0  0.00000000000E+00 -0.00000000000E+00 -0.14938349518E+04  0.14938349518E+04  0.00000000000E+00 0. -1.
        -24    2    1    2    0    0  0.93131871741E+03 -0.58440824475E+03 -0.54197094974E+03  0.12268958199E+04  0.51510121167E+02 0.  0.
    5000000    2    1    2    0    0 -0.93131871741E+03  0.58440824475E+03  0.34236519444E+02  0.12530396534E+04  0.60004056856E+03 0.  0.
        -24    2    4    4    0    0 -0.96846685336E+03  0.43444838835E+03 -0.37742410032E+02  0.10669479439E+04  0.10139022260E+03 0.  0.
         24    2    4    4    0    0  0.37148135957E+02  0.14995985640E+03  0.71978929475E+02  0.18609170956E+03  0.74707533373E+02 0.  0.
         13    1    3    3    0    0  0.49355559229E+03 -0.27990084120E+03 -0.27379839437E+03  0.63000568597E+03  0.00000000000E+00 0. -1.
        -14    1    3    3    0    0  0.43776312511E+03 -0.30450740355E+03 -0.26817255536E+03  0.59689013392E+03  0.00000000000E+00 0.  1.
         15    1    5    5    0    0 -0.13454232178E+03  0.55390840539E+02 -0.40022566981E+02  0.15091303841E+03  0.17770000000E+01 0. -1.
        -16    1    5    5    0    0 -0.83392453159E+03  0.37905754781E+03  0.22801569491E+01  0.91603490547E+03  0.00000000000E+00 0.  1.
          2    1    6    6  502    0  0.44009065911E+02  0.35621488078E+02  0.30174462065E+02  0.64157512858E+02  0.00000000000E+00 0. -1.
         -1    1    6    6    0  502 -0.68609299540E+01  0.11433836832E+03  0.41804467410E+02  0.12193419670E+03  0.00000000000E+00 0.  1.
<mgrwt>
<rscale>  0 0.11666793E+04</rscale>
<asrwt>0</asrwt>
<pdfrwt beam="1">  1        1 0.22982076E+00 0.11666793E+04</pdfrwt>
<pdfrwt beam="2">  1       -2 0.15170777E+00 0.11666793E+04</pdfrwt>
<totfact> 0.16495412E+00</totfact>
</mgrwt>
</event>
<event>
12    3  0.1201947E-007  0.8206963E+03  0.7818608E-02  0.9530534E-01
         -2   -1    0    0    0  501 -0.00000000000E+00  0.00000000000E+00  0.88735805883E+03  0.88735805883E+03  0.00000000000E+00 0.  1.
          1   -1    0    0  501    0  0.00000000000E+00 -0.00000000000E+00 -0.82086747775E+03  0.82086747775E+03  0.00000000000E+00 0. -1.
        -24    2    1    2    0    0  0.63168300807E+03 -0.35179168261E+03 -0.15328796607E+03  0.74333320125E+03  0.79159566128E+02 0.  0.
    5000000    2    1    2    0    0 -0.63168300807E+03  0.35179168261E+03  0.21977854715E+03  0.96489233533E+03  0.59994482944E+03 0.  0.
        -24    2    4    4    0    0 -0.71242021050E+03  0.19879015646E+03  0.13408542364E+03  0.75567363476E+03  0.77483280830E+02 0.  0.
         24    2    4    4    0    0  0.80737202432E+02  0.15300152615E+03  0.85693123505E+02  0.20921870057E+03  0.80629959652E+02 0.  0.
         11    1    3    3    0    0  0.33383890544E+03 -0.14370151427E+03 -0.91330861272E+02  0.37475307365E+03  0.00000000000E+00 0. -1.
        -12    1    3    3    0    0  0.29784410263E+03 -0.20809016834E+03 -0.61957104796E+02  0.36858012760E+03  0.00000000000E+00 0.  1.
         15    1    5    5    0    0 -0.25933536967E+03  0.79568674046E+02  0.86622856462E+02  0.28476777353E+03  0.17770000000E+01 0. -1.
        -16    1    5    5    0    0 -0.45308484083E+03  0.11922148242E+03  0.47462567179E+02  0.47090586123E+03  0.00000000000E+00 0.  1.
          2    1    6    6  502    0  0.66508064642E+02  0.10116929098E+03  0.95969892755E+02  0.15449520515E+03  0.00000000000E+00 0. -1.
         -1    1    6    6    0  502  0.14229137790E+02  0.51832235170E+02 -0.10276769250E+02  0.54723495421E+02  0.00000000000E+00 0.  1.
<mgrwt>
<rscale>  0 0.82069626E+03</rscale>
<asrwt>0</asrwt>
<pdfrwt beam="1">  1        1 0.12628730E+00 0.82069626E+03</pdfrwt>
<pdfrwt beam="2">  1       -2 0.13651662E+00 0.82069626E+03</pdfrwt>
<totfact> 0.72266204E+00</totfact>
</mgrwt>
</event>
<event>
12    3  0.1201947E-007  0.1003037E+04  0.7818608E-02  0.9305220E-01
         -2   -1    0    0    0  501 -0.00000000000E+00  0.00000000000E+00  0.29718202229E+03  0.29718202229E+03  0.00000000000E+00 0.  1.
          1   -1    0    0  501    0  0.00000000000E+00 -0.00000000000E+00 -0.36617544946E+04  0.36617544946E+04  0.00000000000E+00 0. -1.
        -24    2    1    2    0    0  0.83324271462E+03  0.45564893506E+03 -0.17371787605E+04  0.19814677719E+04  0.80716239674E+02 0.  0.
    5000000    2    1    2    0    0 -0.83324271462E+03 -0.45564893506E+03 -0.16273937118E+04  0.19774687450E+04  0.60005247356E+03 0.  0.
        -24    2    4    4    0    0 -0.51955613432E+03 -0.39924882246E+02 -0.11561307877E+04  0.12706041199E+04  0.79144540503E+02 0.  0.
         24    2    4    4    0    0 -0.31368658030E+03 -0.41572405282E+03 -0.47126292408E+03  0.70686462516E+03  0.79643555539E+02 0.  0.
         11    1    3    3    0    0  0.78821036647E+02  0.20248615367E+02 -0.17048392820E+03  0.18891143961E+03  0.00000000000E+00 0. -1.
        -12    1    3    3    0    0  0.75442167797E+03  0.43540031970E+03 -0.15666948323E+04  0.17925563322E+04  0.00000000000E+00 0.  1.
         15    1    5    5    0    0 -0.28746284661E+03 -0.61477874988E+02 -0.64710805000E+03  0.71075059156E+03  0.17770000000E+01 0. -1.
        -16    1    5    5    0    0 -0.23209328770E+03  0.21552992742E+02 -0.50902273769E+03  0.55985352832E+03  0.00000000000E+00 0.  1.
          4    1    6    6  502    0 -0.12451805685E+03 -0.22967516176E+03 -0.22265252789E+03  0.34326312733E+03  0.00000000000E+00 0. -1.
         -3    1    6    6    0  502 -0.18916852345E+03 -0.18604889106E+03 -0.24861039620E+03  0.36360149783E+03  0.00000000000E+00 0.  1.
<mgrwt>
<rscale>  0 0.10030374E+04</rscale>
<asrwt>0</asrwt>
<pdfrwt beam="1">  1        1 0.56334685E+00 0.10030374E+04</pdfrwt>
<pdfrwt beam="2">  1       -2 0.45720311E-01 0.10030374E+04</pdfrwt>
<totfact> 0.76912626E-01</totfact>
</mgrwt>
</event>
<event>
12    3  0.1201947E-007  0.7313056E+03  0.7818608E-02  0.9665144E-01
         -2   -1    0    0    0  501 -0.00000000000E+00  0.00000000000E+00  0.56664934988E+03  0.56664934988E+03  0.00000000000E+00 0.  1.
          1   -1    0    0  501    0  0.00000000000E+00 -0.00000000000E+00 -0.12077696355E+04  0.12077696355E+04  0.00000000000E+00 0. -1.
        -24    2    1    2    0    0  0.66390549182E+03  0.25623980973E+03 -0.36603929621E+03  0.80378080738E+03  0.75163008056E+02 0.  0.
    5000000    2    1    2    0    0 -0.66390549182E+03 -0.25623980973E+03 -0.27508098936E+03  0.97063817796E+03  0.60003298213E+03 0.  0.
        -24    2    4    4    0    0 -0.88181983107E+02  0.28399240754E+02  0.15248129013E+03  0.19489880224E+03  0.78437365182E+02 0.  0.
         24    2    4    4    0    0 -0.57572350871E+03 -0.28463905049E+03 -0.42756227949E+03  0.77573937571E+03  0.80530296465E+02 0.  0.
         13    1    3    3    0    0  0.23714548435E+03  0.13008677113E+03 -0.14488277902E+03  0.30684127562E+03  0.00000000000E+00 0. -1.
        -14    1    3    3    0    0  0.42676000747E+03  0.12615303861E+03 -0.22115651719E+03  0.49693953175E+03  0.00000000000E+00 0.  1.
         15    1    5    5    0    0 -0.43781847815E+02 -0.11262833958E+02  0.19629627521E+02  0.49317153532E+02  0.17770000000E+01 0. -1.
        -16    1    5    5    0    0 -0.44400135293E+02  0.39662074711E+02  0.13285166260E+03  0.14558164871E+03  0.00000000000E+00 0.  1.
          2    1    6    6  502    0 -0.24202587107E+03 -0.12566892727E+03 -0.13474047988E+03  0.30417790595E+03  0.00000000000E+00 0. -1.
         -1    1    6    6    0  502 -0.33369763764E+03 -0.15897012321E+03 -0.29282179961E+03  0.47156146976E+03  0.00000000000E+00 0.  1.
<mgrwt>
<rscale>  0 0.73130559E+03</rscale>
<asrwt>0</asrwt>
<pdfrwt beam="1">  1        1 0.18581071E+00 0.73130559E+03</pdfrwt>
<pdfrwt beam="2">  1       -2 0.87176824E-01 0.73130559E+03</pdfrwt>
<totfact> 0.10830729E+01</totfact>
</mgrwt>
</event>
<event>
12    3  0.1201947E-007  0.4121583E+03  0.7818608E-02  0.1039649E+00
          1   -1    0    0  501    0  0.00000000000E+00  0.00000000000E+00  0.26965519707E+04  0.26965519707E+04  0.00000000000E+00 0. -1.
         -2   -1    0    0    0  501 -0.00000000000E+00 -0.00000000000E+00 -0.76781721624E+02  0.76781721624E+02  0.00000000000E+00 0.  1.
        -24    2    1    2    0    0  0.91632799474E+02  0.18748265647E+03  0.11604619641E+04  0.11817944475E+04  0.80123838636E+02 0.  0.
    5000000    2    1    2    0    0 -0.91632799474E+02 -0.18748265647E+03  0.14593082850E+04  0.15915392449E+04  0.59989180767E+03 0.  0.
        -24    2    4    4    0    0 -0.15574432789E+03  0.17725955573E+03  0.69934410206E+03  0.74237062615E+03  0.79716546092E+02 0.  0.
         24    2    4    4    0    0  0.64111528411E+02 -0.36474221221E+03  0.75996418292E+03  0.84916861871E+03  0.79966331923E+02 0.  0.
         11    1    3    3    0    0  0.75004685423E+02  0.15830540960E+03  0.10869436322E+04  0.11009690119E+04  0.00000000000E+00 0. -1.
        -12    1    3    3    0    0  0.16628114051E+02  0.29177246878E+02  0.73518331930E+02  0.80825435613E+02  0.00000000000E+00 0.  1.
         15    1    5    5    0    0 -0.86813959282E+02  0.13698924703E+03  0.54472977611E+03  0.56836291579E+03  0.17770000000E+01 0. -1.
        -16    1    5    5    0    0 -0.68930368604E+02  0.40270308701E+02  0.15461432595E+03  0.17400771037E+03  0.00000000000E+00 0.  1.
          2    1    6    6  502    0  0.32551398088E+02 -0.29727833722E+03  0.65921828121E+03  0.72388033927E+03  0.00000000000E+00 0. -1.
         -1    1    6    6    0  502  0.31560130324E+02 -0.67463874987E+02  0.10074590171E+03  0.12528827944E+03  0.00000000000E+00 0.  1.
<mgrwt>
<rscale>  0 0.41215829E+03</rscale>
<asrwt>0</asrwt>
<pdfrwt beam="1">  1        1 0.41485408E+00 0.41215829E+03</pdfrwt>
<pdfrwt beam="2">  1       -2 0.11812575E-01 0.41215829E+03</pdfrwt>
<totfact> 0.50288723E+01</totfact>
</mgrwt>
</event>
<event>
12    3  0.1201947E-007  0.2729758E+03  0.7818608E-02  0.1099588E+00
          1   -1    0    0  501    0  0.00000000000E+00  0.00000000000E+00  0.11646483566E+04  0.11646483566E+04  0.00000000000E+00 0. -1.
         -2   -1    0    0    0  501 -0.00000000000E+00 -0.00000000000E+00 -0.16469692671E+03  0.16469692671E+03  0.00000000000E+00 0.  1.
        -24    2    1    2    0    0  0.82999287341E+02  0.14283194485E+03  0.49394954547E+03  0.52727813155E+03  0.82135427046E+02 0.  0.
    5000000    2    1    2    0    0 -0.82999287341E+02 -0.14283194485E+03  0.50600188440E+03  0.80206715172E+03  0.59998663543E+03 0.  0.
        -24    2    4    4    0    0  0.40723518372E+02  0.69999256165E+02 -0.95107127132E+02  0.14781045448E+03  0.79020655598E+02 0.  0.
         24    2    4    4    0    0 -0.12372280571E+03 -0.21283120102E+03  0.60110901153E+03  0.65425669724E+03  0.78200571378E+02 0.  0.
         13    1    3    3    0    0  0.25446806344E+02  0.39339274210E+01  0.14572438536E+03  0.14798179695E+03  0.00000000000E+00 0. -1.
        -14    1    3    3    0    0  0.57552480997E+02  0.13889801743E+03  0.34822516010E+03  0.37929633460E+03  0.00000000000E+00 0.  1.
         15    1    5    5    0    0 -0.23457804365E+02  0.17520925439E+02 -0.16976654752E+02  0.33891237060E+02  0.17770000000E+01 0. -1.
        -16    1    5    5    0    0  0.64181322737E+02  0.52478330725E+02 -0.78130472381E+02  0.11391921742E+03  0.00000000000E+00 0.  1.
          2    1    6    6  502    0 -0.10622148968E+03 -0.10854809775E+03  0.33064305528E+03  0.36385508709E+03  0.00000000000E+00 0. -1.
         -1    1    6    6    0  502 -0.17501316032E+02 -0.10428310326E+03  0.27046595625E+03  0.29040161015E+03  0.00000000000E+00 0.  1.
<mgrwt>
<rscale>  0 0.27297577E+03</rscale>
<asrwt>0</asrwt>
<pdfrwt beam="1">  1        1 0.17917666E+00 0.27297577E+03</pdfrwt>
<pdfrwt beam="2">  1       -2 0.25337989E-01 0.27297577E+03</pdfrwt>
<totfact> 0.14923954E+02</totfact>
</mgrwt>
</event>
<event>
12    3  0.1201947E-007  0.1698055E+04  0.7818608E-02  0.8762474E-01
          1   -1    0    0  501    0  0.00000000000E+00  0.00000000000E+00  0.12887476642E+04  0.12887476642E+04  0.00000000000E+00 0. -1.
         -2   -1    0    0    0  501 -0.00000000000E+00 -0.00000000000E+00 -0.23745343818E+04  0.23745343818E+04  0.00000000000E+00 0.  1.
        -24    2    1    2    0    0 -0.17279366419E+03 -0.16848741620E+04 -0.41958498804E+03  0.17468199380E+04  0.81668484310E+02 0.  0.
    5000000    2    1    2    0    0  0.17279366419E+03  0.16848741620E+04 -0.66620172960E+03  0.19164621080E+04  0.60028632721E+03 0.  0.
        -24    2    4    4    0    0  0.17814067259E+02  0.37591166978E+03  0.90016397293E+02  0.39479346609E+03  0.78307117285E+02 0.  0.
         24    2    4    4    0    0  0.15497959693E+03  0.13089624922E+04 -0.75621812689E+03  0.15216686419E+04  0.78791616051E+02 0.  0.
         13    1    3    3    0    0 -0.75716984950E+02 -0.10099128582E+04 -0.28048632479E+03  0.10508708871E+04  0.00000000000E+00 0. -1.
        -14    1    3    3    0    0 -0.97076679237E+02 -0.67496130378E+03 -0.13909866325E+03  0.69594905084E+03  0.00000000000E+00 0.  1.
         15    1    5    5    0    0 -0.16377295294E+02  0.29487986906E+03  0.81812127434E+02  0.30646163692E+03  0.17770000000E+01 0. -1.
        -16    1    5    5    0    0  0.34191362553E+02  0.81031800713E+02  0.82042698592E+01  0.88331829167E+02  0.00000000000E+00 0.  1.
          4    1    6    6  502    0  0.55265299053E+02  0.41621373957E+03 -0.19959318765E+03  0.46489307464E+03  0.00000000000E+00 0. -1.
         -3    1    6    6    0  502  0.99714297875E+02  0.89274875267E+03 -0.55662493924E+03  0.10567755673E+04  0.00000000000E+00 0.  1.
<mgrwt>
<rscale>  0 0.16980553E+04</rscale>
<asrwt>0</asrwt>
<pdfrwt beam="1">  1        1 0.19826887E+00 0.16980553E+04</pdfrwt>
<pdfrwt beam="2">  1       -2 0.36531298E+00 0.16980553E+04</pdfrwt>
<totfact> 0.93043004E-02</totfact>
</mgrwt>
</event>
<event>
12    3  0.1201947E-007  0.6819687E+03  0.7818608E-02  0.9748575E-01
          1   -1    0    0  501    0  0.00000000000E+00  0.00000000000E+00  0.76397502532E+03  0.76397502532E+03  0.00000000000E+00 0. -1.
         -2   -1    0    0    0  501 -0.00000000000E+00 -0.00000000000E+00 -0.76093737485E+03  0.76093737485E+03  0.00000000000E+00 0.  1.
        -24    2    1    2    0    0  0.90798284396E+02 -0.57788085959E+03  0.26460920623E+03  0.64710255065E+03  0.80827363593E+02 0.  0.
    5000000    2    1    2    0    0 -0.90798284396E+02  0.57788085959E+03 -0.26157155576E+03  0.87780984952E+03  0.59994986191E+03 0.  0.
        -24    2    4    4    0    0 -0.26635327036E+03  0.15156784433E+03 -0.26022338913E+03  0.40982679376E+03  0.79529318922E+02 0.  0.
         24    2    4    4    0    0  0.17555498596E+03  0.42631301526E+03 -0.13481666304E+01  0.46798305576E+03  0.80274422103E+02 0.  0.
         11    1    3    3    0    0  0.93898626227E+02 -0.52493340037E+03  0.26161005604E+03  0.59397966990E+03  0.00000000000E+00 0. -1.
        -12    1    3    3    0    0 -0.31003418310E+01 -0.52947459217E+02  0.29991501866E+01  0.53122880747E+02  0.00000000000E+00 0.  1.
         15    1    5    5    0    0 -0.16307956382E+03  0.13550379201E+03 -0.17797723499E+03  0.27683077085E+03  0.17770000000E+01 0. -1.
        -16    1    5    5    0    0 -0.10327370654E+03  0.16064052316E+02 -0.82246154146E+02  0.13299602292E+03  0.00000000000E+00 0.  1.
          4    1    6    6  502    0  0.55421823863E+02  0.14180192370E+03  0.37271662155E+02  0.15674355147E+03  0.00000000000E+00 0. -1.
         -3    1    6    6    0  502  0.12013316210E+03  0.28451109156E+03 -0.38619828785E+02  0.31123950429E+03  0.00000000000E+00 0.  1.
<mgrwt>
<rscale>  0 0.68196867E+03</rscale>
<asrwt>0</asrwt>
<pdfrwt beam="1">  1        1 0.11753462E+00 0.68196867E+03</pdfrwt>
<pdfrwt beam="2">  1       -2 0.11706729E+00 0.68196867E+03</pdfrwt>
<totfact> 0.12106422E+01</totfact>
</mgrwt>
</event>
<event>
12    3  0.1411607E-007  0.7401032E+03  0.7818608E-02  0.9651006E-01
          1   -1    0    0  501    0  0.00000000000E+00  0.00000000000E+00  0.17781669264E+04  0.17781669264E+04  0.00000000000E+00 0. -1.
         -2   -1    0    0    0  501 -0.00000000000E+00 -0.00000000000E+00 -0.36434105715E+03  0.36434105715E+03  0.00000000000E+00 0.  1.
        -24    2    1    2    0    0 -0.67568396260E+03 -0.39096854988E+02  0.42817515506E+03  0.80473742815E+03  0.78682802896E+02 0.  0.
    5000000    2    1    2    0    0  0.67568396260E+03  0.39096854988E+02  0.98565071423E+03  0.13377705555E+04  0.60003778814E+03 0.  0.
        -24    2    4    4    0    0  0.78491275163E+02 -0.15025972493E+03  0.52120791952E+03  0.55388305619E+03  0.79936720918E+02 0.  0.
         24    2    4    4    0    0  0.59719268743E+03  0.18935657992E+03  0.46444279471E+03  0.78388749926E+03  0.79230560127E+02 0.  0.
         11    1    3    3    0    0 -0.53610980604E+03 -0.19669151700E+02  0.37301269287E+03  0.65340574585E+03  0.00000000000E+00 0. -1.
        -12    1    3    3    0    0 -0.13957415656E+03 -0.19427703288E+02  0.55162462183E+02  0.15133168230E+03  0.00000000000E+00 0.  1.
         15    1    5    5    0    0  0.22361693015E+02 -0.69816166486E+02  0.34011663440E+03  0.34793221343E+03  0.17770000000E+01 0. -1.
        -16    1    5    5    0    0  0.56129582147E+02 -0.80443558444E+02  0.18109128512E+03  0.20595084276E+03  0.00000000000E+00 0.  1.
          2    1    6    6  502    0  0.15772565625E+03  0.87140917535E+02  0.13854887716E+03  0.22730313133E+03  0.00000000000E+00 0. -1.
         -1    1    6    6    0  502  0.43946703119E+03  0.10221566238E+03  0.32589391755E+03  0.55658436794E+03  0.00000000000E+00 0.  1.
<mgrwt>
<rscale>  0 0.74010325E+03</rscale>
<asrwt>0</asrwt>
<pdfrwt beam="1">  1        1 0.27356414E+00 0.74010325E+03</pdfrwt>
<pdfrwt beam="2">  1       -2 0.56052472E-01 0.74010325E+03</pdfrwt>
<totfact> 0.11483808E+01</totfact>
</mgrwt>
</event>
<event>
12    3  0.1201947E-007  0.4987662E+03  0.7818608E-02  0.1014101E+00
         -2   -1    0    0    0  501 -0.00000000000E+00  0.00000000000E+00  0.36178321906E+03  0.36178321906E+03  0.00000000000E+00 0.  1.
          1   -1    0    0  501    0  0.00000000000E+00 -0.00000000000E+00 -0.84052531257E+03  0.84052531257E+03  0.00000000000E+00 0. -1.
        -24    2    1    2    0    0  0.18513841937E+03  0.28856021444E+03 -0.35540037523E+03  0.50039489746E+03  0.80885072822E+02 0.  0.
    5000000    2    1    2    0    0 -0.18513841937E+03 -0.28856021444E+03 -0.12334171829E+03  0.70191363417E+03  0.59993861243E+03 0.  0.
        -24    2    4    4    0    0 -0.14414717720E+03  0.14935170748E+03 -0.12501623437E+03  0.25498787198E+03  0.79406641917E+02 0.  0.
         24    2    4    4    0    0 -0.40991242174E+02 -0.43791192192E+03  0.16745160820E+01  0.44692576219E+03  0.79326537859E+02 0.  0.
         11    1    3    3    0    0  0.14163075897E+03  0.18214541406E+03 -0.28041142825E+03  0.36313467590E+03  0.00000000000E+00 0. -1.
        -12    1    3    3    0    0  0.43507660401E+02  0.10641480037E+03 -0.74988946983E+02  0.13726022156E+03  0.00000000000E+00 0.  1.
         15    1    5    5    0    0 -0.45327304983E+02  0.45632262259E+02 -0.84311003030E+02  0.10605833723E+03  0.17770000000E+01 0. -1.
        -16    1    5    5    0    0 -0.98819872217E+02  0.10371944523E+03 -0.40705231337E+02  0.14892953475E+03  0.00000000000E+00 0.  1.
          2    1    6    6  502    0 -0.53280539274E+02 -0.23554859045E+03 -0.23465972686E+02  0.24263677834E+03  0.00000000000E+00 0. -1.
         -1    1    6    6    0  502  0.12289297100E+02 -0.20236333147E+03  0.25140488768E+02  0.20428898385E+03  0.00000000000E+00 0.  1.
<mgrwt>
<rscale>  0 0.49876624E+03</rscale>
<asrwt>0</asrwt>
<pdfrwt beam="1">  1        1 0.12931158E+00 0.49876624E+03</pdfrwt>
<pdfrwt beam="2">  1       -2 0.55658958E-01 0.49876624E+03</pdfrwt>
<totfact> 0.56647950E+01</totfact>
</mgrwt>
</event>
<event>
12    3  0.1201947E-007  0.4717531E+03  0.7818608E-02  0.1021427E+00
         -2   -1    0    0    0  501 -0.00000000000E+00  0.00000000000E+00  0.61895757759E+03  0.61895757759E+03  0.00000000000E+00 0.  1.
          1   -1    0    0  501    0  0.00000000000E+00 -0.00000000000E+00 -0.40105385043E+03  0.40105385043E+03  0.00000000000E+00 0. -1.
        -24    2    1    2    0    0 -0.95631744573E+02 -0.26784938422E+03 -0.59167735239E+02  0.30056040857E+03  0.77116892524E+02 0.  0.
    5000000    2    1    2    0    0  0.95631744573E+02  0.26784938422E+03  0.27707146239E+03  0.71945101944E+03  0.59996037445E+03 0.  0.
        -24    2    4    4    0    0  0.31998694203E+03  0.26445262079E+03  0.15958101628E+03  0.45186910756E+03  0.79954724063E+02 0.  0.
         24    2    4    4    0    0 -0.22435519746E+03  0.33967634258E+01  0.11749044611E+03  0.26758191188E+03  0.86309223209E+02 0.  0.
         11    1    3    3    0    0  0.65990229938E+01 -0.82989581333E+02 -0.11973380049E+02  0.84108141960E+02  0.00000000000E+00 0. -1.
        -12    1    3    3    0    0 -0.10223076757E+03 -0.18485980288E+03 -0.47194355189E+02  0.21645226661E+03  0.00000000000E+00 0.  1.
         15    1    5    5    0    0  0.64044612311E+02  0.74644347460E+02  0.71130669339E+01  0.98626793642E+02  0.17770000000E+01 0. -1.
        -16    1    5    5    0    0  0.25594232972E+03  0.18980827333E+03  0.15246794935E+03  0.35324231392E+03  0.00000000000E+00 0.  1.
          4    1    6    6  502    0 -0.50131245497E+02 -0.24088008003E+02 -0.64818220921E-01  0.55618145474E+02  0.00000000000E+00 0. -1.
         -3    1    6    6    0  502 -0.17422395196E+03  0.27484771429E+02  0.11755526433E+03  0.21196376641E+03  0.00000000000E+00 0.  1.
<mgrwt>
<rscale>  0 0.47175311E+03</rscale>
<asrwt>0</asrwt>
<pdfrwt beam="1">  1        1 0.61700592E-01 0.47175311E+03</pdfrwt>
<pdfrwt beam="2">  1       -2 0.95224243E-01 0.47175311E+03</pdfrwt>
<totfact> 0.50315322E+01</totfact>
</mgrwt>
</event>
<event>
12    3  0.1201947E-007  0.1037491E+04  0.7818608E-02  0.9268354E-01
          1   -1    0    0  501    0  0.00000000000E+00  0.00000000000E+00  0.16981514315E+04  0.16981514315E+04  0.00000000000E+00 0. -1.
         -2   -1    0    0    0  501 -0.00000000000E+00 -0.00000000000E+00 -0.72956132535E+03  0.72956132535E+03  0.00000000000E+00 0.  1.
        -24    2    1    2    0    0  0.95405738415E+03 -0.58581525729E+02  0.29492754857E+02  0.95951362503E+03  0.78353599900E+02 0.  0.
    5000000    2    1    2    0    0 -0.95405738415E+03  0.58581525729E+02  0.93909735126E+03  0.14681991318E+04  0.60003963874E+03 0.  0.
        -24    2    4    4    0    0 -0.57512624487E+03  0.31424940675E+03  0.48945666755E+03  0.82191316163E+03  0.80315183247E+02 0.  0.
         24    2    4    4    0    0 -0.37893113928E+03 -0.25566788102E+03  0.44964068370E+03  0.64628597016E+03  0.80956390055E+02 0.  0.
         11    1    3    3    0    0  0.64632944030E+03 -0.59918406376E+02 -0.10562808367E+02  0.64918682499E+03  0.00000000000E+00 0. -1.
        -12    1    3    3    0    0  0.30772794384E+03  0.13368806467E+01  0.40055563224E+02  0.31032680003E+03  0.00000000000E+00 0.  1.
         15    1    5    5    0    0 -0.42487708781E+03  0.24187422883E+03  0.32098835138E+03  0.58485926663E+03  0.17770000000E+01 0. -1.
        -16    1    5    5    0    0 -0.15024915707E+03  0.72375177924E+02  0.16846831618E+03  0.23705389500E+03  0.00000000000E+00 0.  1.
          4    1    6    6  502    0 -0.29821403687E+03 -0.16399833170E+03  0.30531816425E+03  0.45721575433E+03  0.00000000000E+00 0. -1.
         -3    1    6    6    0  502 -0.80717102403E+02 -0.91669549325E+02  0.14432251946E+03  0.18907021584E+03  0.00000000000E+00 0.  1.
<mgrwt>
<rscale>  0 0.10374915E+04</rscale>
<asrwt>0</asrwt>
<pdfrwt beam="1">  1        1 0.26125407E+00 0.10374915E+04</pdfrwt>
<pdfrwt beam="2">  1       -2 0.11224020E+00 0.10374915E+04</pdfrwt>
<totfact> 0.26166747E+00</totfact>
</mgrwt>
</event>
<event>
12    3  0.1201947E-007  0.8447013E+03  0.7818608E-02  0.9497476E-01
          1   -1    0    0  501    0  0.00000000000E+00  0.00000000000E+00  0.67148680228E+03  0.67148680228E+03  0.00000000000E+00 0. -1.
         -2   -1    0    0    0  501 -0.00000000000E+00 -0.00000000000E+00 -0.11434520784E+04  0.11434520784E+04  0.00000000000E+00 0.  1.
        -24    2    1    2    0    0  0.58036884154E+03  0.45599015704E+03  0.19900324743E+02  0.74408623074E+03  0.92267439006E+02 0.  0.
    5000000    2    1    2    0    0 -0.58036884154E+03 -0.45599015704E+03 -0.49186560087E+03  0.10708526500E+04  0.60003217667E+03 0.  0.
        -24    2    4    4    0    0 -0.50563365249E+03 -0.58780211180E+03 -0.40061325450E+03  0.87637694365E+03  0.79805103218E+02 0.  0.
         24    2    4    4    0    0 -0.74735189045E+02  0.13181195476E+03 -0.91252346361E+02  0.19447570630E+03  0.80833592810E+02 0.  0.
         13    1    3    3    0    0  0.27307400795E+03  0.24528908921E+03  0.49184779910E+02  0.37034483077E+03  0.00000000000E+00 0. -1.
        -14    1    3    3    0    0  0.30729483359E+03  0.21070106784E+03 -0.29284455167E+02  0.37374139997E+03  0.00000000000E+00 0.  1.
         15    1    5    5    0    0 -0.43881307379E+02 -0.84835973748E+02 -0.34025718857E+02  0.10140817941E+03  0.17770000000E+01 0. -1.
        -16    1    5    5    0    0 -0.46175234511E+03 -0.50296613806E+03 -0.36658753565E+03  0.77496876423E+03  0.00000000000E+00 0.  1.
          4    1    6    6  502    0 -0.39945700324E+02  0.13065679450E+03 -0.67985217037E+02  0.15260683687E+03  0.00000000000E+00 0. -1.
         -3    1    6    6    0  502 -0.34789488721E+02  0.11551602584E+01 -0.23267129324E+02  0.41868869434E+02  0.00000000000E+00 0.  1.
<mgrwt>
<rscale>  0 0.84470128E+03</rscale>
<asrwt>0</asrwt>
<pdfrwt beam="1">  1        1 0.10330566E+00 0.84470128E+03</pdfrwt>
<pdfrwt beam="2">  1       -2 0.17591570E+00 0.84470128E+03</pdfrwt>
<totfact> 0.49809509E+00</totfact>
</mgrwt>
</event>
<event>
12    3  0.1201947E-007  0.7339305E+03  0.7818608E-02  0.9660904E-01
          1   -1    0    0  501    0  0.00000000000E+00  0.00000000000E+00  0.57916155575E+03  0.57916155575E+03  0.00000000000E+00 0. -1.
         -2   -1    0    0    0  501 -0.00000000000E+00 -0.00000000000E+00 -0.11059792238E+04  0.11059792238E+04  0.00000000000E+00 0.  1.
        -24    2    1    2    0    0  0.62010784771E+03  0.86918397590E+02  0.66233616992E+02  0.63459473029E+03  0.78962200260E+02 0.  0.
    5000000    2    1    2    0    0 -0.62010784771E+03 -0.86918397590E+02 -0.59305128500E+03  0.10505460492E+04  0.59987384028E+03 0.  0.
        -24    2    4    4    0    0 -0.47178425542E+03  0.19787337089E+03 -0.46518084657E+03  0.69565285655E+03  0.76193321501E+02 0.  0.
         24    2    4    4    0    0 -0.14832359228E+03 -0.28479176847E+03 -0.12787043843E+03  0.35489319267E+03  0.80573505304E+02 0.  0.
         13    1    3    3    0    0  0.49448319441E+03  0.90267191916E+02  0.76774553250E+02  0.50848414677E+03  0.00000000000E+00 0. -1.
        -14    1    3    3    0    0  0.12562465330E+03 -0.33487943262E+01 -0.10540936258E+02  0.12611058353E+03  0.00000000000E+00 0.  1.
         15    1    5    5    0    0 -0.43611605444E+03  0.18858987434E+03 -0.45389992851E+03  0.65710855760E+03  0.17770000000E+01 0. -1.
        -16    1    5    5    0    0 -0.35668200976E+02  0.92834965458E+01 -0.11280918066E+02  0.38544298948E+02  0.00000000000E+00 0.  1.
          2    1    6    6  502    0 -0.56024638556E+02 -0.17683287600E+03 -0.97840407792E+02  0.20971736113E+03  0.00000000000E+00 0. -1.
         -1    1    6    6    0  502 -0.92298953729E+02 -0.10795889247E+03 -0.30030030639E+02  0.14517583154E+03  0.00000000000E+00 0.  1.
<mgrwt>
<rscale>  0 0.73393055E+03</rscale>
<asrwt>0</asrwt>
<pdfrwt beam="1">  1        1 0.89101777E-01 0.73393055E+03</pdfrwt>
<pdfrwt beam="2">  1       -2 0.17015065E+00 0.73393055E+03</pdfrwt>
<totfact> 0.68689926E+00</totfact>
</mgrwt>
</event>
<event>
12    3  0.1201947E-007  0.6408920E+03  0.7818608E-02  0.9824021E-01
          1   -1    0    0  501    0  0.00000000000E+00  0.00000000000E+00  0.26973832827E+03  0.26973832827E+03  0.00000000000E+00 0. -1.
         -2   -1    0    0    0  501 -0.00000000000E+00 -0.00000000000E+00 -0.18075256135E+04  0.18075256135E+04  0.00000000000E+00 0.  1.
        -24    2    1    2    0    0  0.53676756991E+02 -0.49921723589E+03 -0.10188227619E+04  0.11384819168E+04  0.77731665482E+02 0.  0.
    5000000    2    1    2    0    0 -0.53676756991E+02  0.49921723589E+03 -0.51896452330E+03  0.93878202496E+03  0.59990705204E+03 0.  0.
        -24    2    4    4    0    0  0.11170605695E+02 -0.12336908646E+03 -0.13948439625E+03  0.20286580657E+03  0.79711509536E+02 0.  0.
         24    2    4    4    0    0 -0.64847362686E+02  0.62258632234E+03 -0.37948012705E+03  0.73591621839E+03  0.75819551881E+02 0.  0.
         11    1    3    3    0    0 -0.18217889571E+02 -0.17578523145E+03 -0.34925080222E+03  0.39141852530E+03  0.00000000000E+00 0. -1.
        -12    1    3    3    0    0  0.71894646562E+02 -0.32343200443E+03 -0.66957195968E+03  0.74706339148E+03  0.00000000000E+00 0.  1.
         15    1    5    5    0    0  0.40470666813E+02 -0.39615811199E+02 -0.70660128254E+02  0.90572064253E+02  0.17770000000E+01 0. -1.
        -16    1    5    5    0    0 -0.29300061118E+02 -0.83753275257E+02 -0.68824267998E+02  0.11229374232E+03  0.00000000000E+00 0.  1.
          2    1    6    6  502    0 -0.62072940615E+02  0.33276111530E+03 -0.17378348135E+03  0.38050454426E+03  0.00000000000E+00 0. -1.
         -1    1    6    6    0  502 -0.27744220713E+01  0.28982520704E+03 -0.20569664570E+03  0.35541167413E+03  0.00000000000E+00 0.  1.
<mgrwt>
<rscale>  0 0.64089196E+03</rscale>
<asrwt>0</asrwt>
<pdfrwt beam="1">  1        1 0.41498203E-01 0.64089196E+03</pdfrwt>
<pdfrwt beam="2">  1       -2 0.27808087E+00 0.64089196E+03</pdfrwt>
<totfact> 0.40113139E+00</totfact>
</mgrwt>
</event>
<event>
12    3  0.1201947E-007  0.6555843E+03  0.7818608E-02  0.9796357E-01
          1   -1    0    0  501    0  0.00000000000E+00  0.00000000000E+00  0.47906487687E+03  0.47906487687E+03  0.00000000000E+00 0. -1.
         -2   -1    0    0    0  501 -0.00000000000E+00 -0.00000000000E+00 -0.98372345329E+03  0.98372345329E+03  0.00000000000E+00 0.  1.
        -24    2    1    2    0    0 -0.44413189588E+03 -0.27285657398E+03 -0.14460608805E+02  0.52902783064E+03  0.89204739129E+02 0.  0.
    5000000    2    1    2    0    0  0.44413189588E+03  0.27285657398E+03 -0.49019796761E+03  0.93376049953E+03  0.59992563883E+03 0.  0.
        -24    2    4    4    0    0 -0.59631390980E+02  0.26435046193E+03 -0.14105074347E+03  0.31557459139E+03  0.79088184863E+02 0.  0.
         24    2    4    4    0    0  0.50376328686E+03  0.85061120497E+01 -0.34914722414E+03  0.61818590814E+03  0.80001436000E+02 0.  0.
         11    1    3    3    0    0 -0.12154868507E+03 -0.10980360210E+03  0.23947683790E+02  0.16554276014E+03  0.00000000000E+00 0. -1.
        -12    1    3    3    0    0 -0.32258321081E+03 -0.16305297188E+03 -0.38408292595E+02  0.36348507050E+03  0.00000000000E+00 0.  1.
         15    1    5    5    0    0 -0.59877500954E+02  0.14780735745E+03 -0.48331139472E+02  0.16664749265E+03  0.17770000000E+01 0. -1.
        -16    1    5    5    0    0  0.24610997318E+00  0.11654310448E+03 -0.92719604000E+02  0.14892709874E+03  0.00000000000E+00 0.  1.
          2    1    6    6  502    0  0.27732728962E+03 -0.34305259801E+02 -0.20112408288E+03  0.34429373089E+03  0.00000000000E+00 0. -1.
         -1    1    6    6    0  502  0.22643599724E+03  0.42811371851E+02 -0.14802314126E+03  0.27389217725E+03  0.00000000000E+00 0.  1.
<mgrwt>
<rscale>  0 0.65558429E+03</rscale>
<asrwt>0</asrwt>
<pdfrwt beam="1">  1        1 0.73702289E-01 0.65558429E+03</pdfrwt>
<pdfrwt beam="2">  1       -2 0.15134207E+00 0.65558429E+03</pdfrwt>
<totfact> 0.12388067E+01</totfact>
</mgrwt>
</event>
<event>
12    3  0.1201947E-007  0.8371835E+03  0.7818608E-02  0.9507702E-01
         -2   -1    0    0    0  501 -0.00000000000E+00  0.00000000000E+00  0.73507218273E+03  0.73507218273E+03  0.00000000000E+00 0.  1.
          1   -1    0    0  501    0  0.00000000000E+00 -0.00000000000E+00 -0.98456502203E+03  0.98456502203E+03  0.00000000000E+00 0. -1.
        -24    2    1    2    0    0  0.66514443462E+03  0.32133627607E+03 -0.31486259177E+02  0.74337391797E+03  0.77066699530E+02 0.  0.
    5000000    2    1    2    0    0 -0.66514443462E+03 -0.32133627607E+03 -0.21800658012E+03  0.97626328678E+03  0.59990750529E+03 0.  0.
        -24    2    4    4    0    0 -0.50632252587E+03  0.58039502140E+02 -0.21340755423E+03  0.55725889064E+03  0.72550692490E+02 0.  0.
         24    2    4    4    0    0 -0.15882190875E+03 -0.37937577821E+03 -0.45990258882E+01  0.41900439614E+03  0.79957195751E+02 0.  0.
         13    1    3    3    0    0  0.59659409232E+03  0.31274366444E+03 -0.30251745511E+02  0.67427611461E+03  0.00000000000E+00 0. -1.
        -14    1    3    3    0    0  0.68550342307E+02  0.85926116339E+01 -0.12345136658E+01  0.69097803360E+02  0.00000000000E+00 0.  1.
         15    1    5    5    0    0 -0.13914759803E+02 -0.75784669328E+01  0.14796449287E+01  0.16012519462E+02  0.17770000000E+01 0. -1.
        -16    1    5    5    0    0 -0.49240776607E+03  0.65617969073E+02 -0.21488719916E+03  0.54124637118E+03  0.00000000000E+00 0.  1.
          2    1    6    6  502    0 -0.93973602070E+02 -0.12451458979E+03 -0.20613698937E+01  0.15601016058E+03  0.00000000000E+00 0. -1.
         -1    1    6    6    0  502 -0.64848306684E+02 -0.25486118842E+03 -0.25376559945E+01  0.26299423556E+03  0.00000000000E+00 0.  1.
<mgrwt>
<rscale>  0 0.83718355E+03</rscale>
<asrwt>0</asrwt>
<pdfrwt beam="1">  1        1 0.15147154E+00 0.83718355E+03</pdfrwt>
<pdfrwt beam="2">  1       -2 0.11308803E+00 0.83718355E+03</pdfrwt>
<totfact> 0.84952461E+00</totfact>
</mgrwt>
</event>
<event>
12    3  0.1201947E-007  0.6266368E+03  0.7818608E-02  0.9851634E-01
         -2   -1    0    0    0  501 -0.00000000000E+00  0.00000000000E+00  0.10561851512E+03  0.10561851512E+03  0.00000000000E+00 0.  1.
          1   -1    0    0  501    0  0.00000000000E+00 -0.00000000000E+00 -0.46425314923E+04  0.46425314923E+04  0.00000000000E+00 0. -1.
        -24    2    1    2    0    0  0.43413970013E+03 -0.36493955050E+03 -0.19776125837E+04  0.20589475338E+04  0.81579783203E+02 0.  0.
    5000000    2    1    2    0    0 -0.43413970013E+03  0.36493955050E+03 -0.25593003934E+04  0.26892024736E+04  0.60011106073E+03 0.  0.
        -24    2    4    4    0    0 -0.15760841456E+02  0.23546829597E+03 -0.31792046918E+03  0.40408853187E+03  0.80748958754E+02 0.  0.
         24    2    4    4    0    0 -0.41837885868E+03  0.12947125453E+03 -0.22413799243E+04  0.22851139417E+04  0.78473476271E+02 0.  0.
         11    1    3    3    0    0  0.27637619594E+03 -0.27871584007E+03 -0.13087325780E+04  0.13663261989E+04  0.00000000000E+00 0. -1.
        -12    1    3    3    0    0  0.15776350419E+03 -0.86223710438E+02 -0.66888000573E+03  0.69262133491E+03  0.00000000000E+00 0.  1.
         15    1    5    5    0    0 -0.30905044949E+02  0.21570101926E+03 -0.24942483835E+03  0.33120682244E+03  0.17770000000E+01 0. -1.
        -16    1    5    5    0    0  0.15144203493E+02  0.19767276704E+02 -0.68495630825E+02  0.72881709433E+02  0.00000000000E+00 0.  1.
          2    1    6    6  502    0 -0.29417597518E+03  0.97430981178E+02 -0.13899512575E+04  0.14240775256E+04  0.00000000000E+00 0. -1.
         -1    1    6    6    0  502 -0.12420288350E+03  0.32040273356E+02 -0.85142866672E+03  0.86103641613E+03  0.00000000000E+00 0.  1.
<mgrwt>
<rscale>  0 0.62663681E+03</rscale>
<asrwt>0</asrwt>
<pdfrwt beam="1">  1        1 0.71423568E+00 0.62663681E+03</pdfrwt>
<pdfrwt beam="2">  1       -2 0.16249001E-01 0.62663681E+03</pdfrwt>
<totfact> 0.71709132E-01</totfact>
</mgrwt>
</event>
<event>
12    3  0.1201947E-007  0.6219856E+03  0.7818608E-02  0.9860814E-01
          1   -1    0    0  501    0  0.00000000000E+00  0.00000000000E+00  0.24615295535E+04  0.24615295535E+04  0.00000000000E+00 0. -1.
         -2   -1    0    0    0  501 -0.00000000000E+00 -0.00000000000E+00 -0.27803707642E+03  0.27803707642E+03  0.00000000000E+00 0.  1.
        -24    2    1    2    0    0  0.27052375544E+03 -0.45778565496E+03  0.15740616323E+03  0.56068613913E+03  0.82712987131E+02 0.  0.
    5000000    2    1    2    0    0 -0.27052375544E+03  0.45778565496E+03  0.20260863138E+04  0.21788804908E+04  0.59978632347E+03 0.  0.
        -24    2    4    4    0    0  0.12915666752E+03  0.14960001352E+03  0.11076945914E+04  0.11280224744E+04  0.79911113498E+02 0.  0.
         24    2    4    4    0    0 -0.39968042295E+03  0.30818564144E+03  0.91839172242E+03  0.10508580164E+04  0.78335079716E+02 0.  0.
         11    1    3    3    0    0  0.12972542946E+03 -0.15071686974E+03  0.38427405257E+02  0.20253623712E+03  0.00000000000E+00 0. -1.
        -12    1    3    3    0    0  0.14079832597E+03 -0.30706878522E+03  0.11897875797E+03  0.35814990200E+03  0.00000000000E+00 0.  1.
         15    1    5    5    0    0  0.70621185469E+02  0.98857166034E+02  0.85874456978E+03  0.86729780639E+03  0.17770000000E+01 0. -1.
        -16    1    5    5    0    0  0.58535482047E+02  0.50742847489E+02  0.24895002164E+03  0.26072466800E+03  0.00000000000E+00 0.  1.
          2    1    6    6  502    0 -0.33617349193E+03  0.22869563499E+03  0.69106208511E+03  0.80179867524E+03  0.00000000000E+00 0. -1.
         -1    1    6    6    0  502 -0.63506931023E+02  0.79490006451E+02  0.22732963730E+03  0.24905934114E+03  0.00000000000E+00 0.  1.
<mgrwt>
<rscale>  0 0.62198563E+03</rscale>
<asrwt>0</asrwt>
<pdfrwt beam="1">  1        1 0.37869684E+00 0.62198563E+03</pdfrwt>
<pdfrwt beam="2">  1       -2 0.42774937E-01 0.62198563E+03</pdfrwt>
<totfact> 0.70563694E+00</totfact>
</mgrwt>
</event>
<event>
12    3  0.1201947E-007  0.5327348E+03  0.7818608E-02  0.1005571E+00
          1   -1    0    0  501    0  0.00000000000E+00  0.00000000000E+00  0.15585905307E+03  0.15585905307E+03  0.00000000000E+00 0. -1.
         -2   -1    0    0    0  501 -0.00000000000E+00 -0.00000000000E+00 -0.19593287807E+04  0.19593287807E+04  0.00000000000E+00 0.  1.
        -24    2    1    2    0    0 -0.26504667590E+03 -0.26575823727E+03 -0.80048282691E+03  0.88770490067E+03  0.79812614348E+02 0.  0.
    5000000    2    1    2    0    0  0.26504667590E+03  0.26575823727E+03 -0.10029869008E+04  0.12274829331E+04  0.59987869354E+03 0.  0.
        -24    2    4    4    0    0  0.43995732703E+03  0.21547821115E+03 -0.81526874404E+03  0.95388724553E+03  0.72418527312E+02 0.  0.
         24    2    4    4    0    0 -0.17491065113E+03  0.50280026121E+02 -0.18771815673E+03  0.27359568761E+03  0.80589558910E+02 0.  0.
         13    1    3    3    0    0 -0.22455131893E+03 -0.19227840385E+03 -0.56402026353E+03  0.63679913402E+03  0.00000000000E+00 0. -1.
        -14    1    3    3    0    0 -0.40495356972E+02 -0.73479833426E+02 -0.23646256337E+03  0.25090576664E+03  0.00000000000E+00 0.  1.
         15    1    5    5    0    0  0.13478779484E+03  0.45379800606E+02 -0.29057042899E+03  0.32351415405E+03  0.17770000000E+01 0. -1.
        -16    1    5    5    0    0  0.30516953220E+03  0.17009841055E+03 -0.52469831505E+03  0.63037309148E+03  0.00000000000E+00 0.  1.
          2    1    6    6  502    0 -0.55273401999E+02 -0.16033005820E+02 -0.30265137149E+02  0.65024493622E+02  0.00000000000E+00 0. -1.
         -1    1    6    6    0  502 -0.11963724913E+03  0.66313031941E+02 -0.15745301958E+03  0.20857119398E+03  0.00000000000E+00 0.  1.
<mgrwt>
<rscale>  0 0.53273481E+03</rscale>
<asrwt>0</asrwt>
<pdfrwt beam="1">  1        1 0.23978314E-01 0.53273481E+03</pdfrwt>
<pdfrwt beam="2">  1       -2 0.30143522E+00 0.53273481E+03</pdfrwt>
<totfact> 0.60168958E+00</totfact>
</mgrwt>
</event>
<event>
12    3  0.1201947E-007  0.6603468E+03  0.7818608E-02  0.9787556E-01
         -2   -1    0    0    0  501 -0.00000000000E+00  0.00000000000E+00  0.56279839781E+03  0.56279839781E+03  0.00000000000E+00 0.  1.
          1   -1    0    0  501    0  0.00000000000E+00 -0.00000000000E+00 -0.87107433963E+03  0.87107433963E+03  0.00000000000E+00 0. -1.
        -24    2    1    2    0    0 -0.54222213446E+03 -0.16275578428E+03 -0.77859636505E+02  0.57737379797E+03  0.82486915140E+02 0.  0.
    5000000    2    1    2    0    0  0.54222213446E+03  0.16275578428E+03 -0.23041630531E+03  0.85649893947E+03  0.60000372595E+03 0.  0.
        -24    2    4    4    0    0  0.56977665563E+03 -0.10087245388E+02 -0.30213940814E+03  0.65013247189E+03  0.81466675562E+02 0.  0.
         24    2    4    4    0    0 -0.27554521175E+02  0.17284302967E+03  0.71723102835E+02  0.20636646758E+03  0.82516367591E+02 0.  0.
         13    1    3    3    0    0 -0.90452853374E+02 -0.54547916158E+02 -0.33013788262E+02  0.11066663479E+03  0.00000000000E+00 0. -1.
        -14    1    3    3    0    0 -0.45176928108E+03 -0.10820786812E+03 -0.44845848242E+02  0.46670716318E+03  0.00000000000E+00 0.  1.
         15    1    5    5    0    0  0.53377370720E+03 -0.29377427130E+02 -0.27586482805E+03  0.60156625970E+03  0.17770000000E+01 0. -1.
        -16    1    5    5    0    0  0.36002948434E+02  0.19290181742E+02 -0.26274580095E+02  0.48566212193E+02  0.00000000000E+00 0.  1.
          4    1    6    6  502    0 -0.21109288398E+02  0.11857177281E+03  0.88206208799E+02  0.14928229176E+03  0.00000000000E+00 0. -1.
         -3    1    6    6    0  502 -0.64452327768E+01  0.54271256862E+02 -0.16483105964E+02  0.57084175821E+02  0.00000000000E+00 0.  1.
<mgrwt>
<rscale>  0 0.66034677E+03</rscale>
<asrwt>0</asrwt>
<pdfrwt beam="1">  1        1 0.13401144E+00 0.66034677E+03</pdfrwt>
<pdfrwt beam="2">  1       -2 0.86584369E-01 0.66034677E+03</pdfrwt>
<totfact> 0.20082350E+01</totfact>
</mgrwt>
</event>
<event>
12    3  0.1201947E-007  0.4850031E+03  0.7818608E-02  0.1017769E+00
          1   -1    0    0  501    0  0.00000000000E+00  0.00000000000E+00  0.13358365196E+04  0.13358365196E+04  0.00000000000E+00 0. -1.
         -2   -1    0    0    0  501 -0.00000000000E+00 -0.00000000000E+00 -0.64731693404E+03  0.64731693404E+03  0.00000000000E+00 0.  1.
        -24    2    1    2    0    0  0.39063677005E+03  0.22794179131E+03  0.10523862595E+04  0.11482848705E+04  0.80540414227E+02 0.  0.
    5000000    2    1    2    0    0 -0.39063677005E+03 -0.22794179131E+03 -0.36386667396E+03  0.83486858312E+03  0.60004337203E+03 0.  0.
        -24    2    4    4    0    0 -0.53201784392E+02 -0.11773768865E+03 -0.43489648333E+03  0.46406101660E+03  0.97596530272E+02 0.  0.
         24    2    4    4    0    0 -0.33743498566E+03 -0.11020410266E+03  0.71029809375E+02  0.37080756652E+03  0.80285140442E+02 0.  0.
         11    1    3    3    0    0  0.28357375052E+03  0.12768200165E+03  0.66733208021E+03  0.73623968299E+03  0.00000000000E+00 0. -1.
        -12    1    3    3    0    0  0.10706301953E+03  0.10025978966E+03  0.38505417931E+03  0.41204518755E+03  0.00000000000E+00 0.  1.
         15    1    5    5    0    0 -0.16125467878E+02 -0.11584774617E+03 -0.25755431547E+03  0.28287473227E+03  0.17770000000E+01 0. -1.
        -16    1    5    5    0    0 -0.37076316514E+02 -0.18899424761E+01 -0.17734216786E+03  0.18118628433E+03  0.00000000000E+00 0.  1.
          4    1    6    6  502    0 -0.17552022631E+03 -0.31972742195E+02  0.68088731549E+02  0.19095989488E+03  0.00000000000E+00 0. -1.
         -3    1    6    6    0  502 -0.16191475935E+03 -0.78231360465E+02  0.29410778263E+01  0.17984767164E+03  0.00000000000E+00 0.  1.
<mgrwt>
<rscale>  0 0.48500312E+03</rscale>
<asrwt>0</asrwt>
<pdfrwt beam="1">  1        1 0.20551331E+00 0.48500312E+03</pdfrwt>
<pdfrwt beam="2">  1       -2 0.99587221E-01 0.48500312E+03</pdfrwt>
<totfact> 0.67267945E+00</totfact>
</mgrwt>
</event>
<event>
12    3  0.1201947E-007  0.4378256E+03  0.7818608E-02  0.1031416E+00
         -2   -1    0    0    0  501 -0.00000000000E+00  0.00000000000E+00  0.26238817136E+03  0.26238817136E+03  0.00000000000E+00 0.  1.
          1   -1    0    0  501    0  0.00000000000E+00 -0.00000000000E+00 -0.97039886123E+03  0.97039886123E+03  0.00000000000E+00 0. -1.
        -24    2    1    2    0    0  0.18242602297E+03  0.23537644753E+03 -0.90372328102E+02  0.32161245424E+03  0.81154711084E+02 0.  0.
    5000000    2    1    2    0    0 -0.18242602297E+03 -0.23537644753E+03 -0.61763836176E+03  0.91117457835E+03  0.60006719657E+03 0.  0.
        -24    2    4    4    0    0 -0.29802295863E+03  0.25161471833E+01 -0.54540705483E+03  0.62603085429E+03  0.74978398175E+02 0.  0.
         24    2    4    4    0    0  0.11559693566E+03 -0.23789259471E+03 -0.72231306930E+02  0.28514372406E+03  0.78320134827E+02 0.  0.
         13    1    3    3    0    0  0.13746086093E+03  0.13156545573E+03 -0.84876456948E+02  0.20834819503E+03  0.00000000000E+00 0. -1.
        -14    1    3    3    0    0  0.44965162035E+02  0.10381099179E+03 -0.54958711542E+01  0.11326425921E+03  0.00000000000E+00 0.  1.
         15    1    5    5    0    0 -0.10013936279E+03  0.56113608257E+01 -0.26036083015E+03  0.27901666430E+03  0.17770000000E+01 0. -1.
        -16    1    5    5    0    0 -0.19788359583E+03 -0.30952136424E+01 -0.28504622469E+03  0.34701418999E+03  0.00000000000E+00 0.  1.
          2    1    6    6  502    0  0.73177830357E+02 -0.71499017003E+02 -0.11267743546E+02  0.10292748094E+03  0.00000000000E+00 0. -1.
         -1    1    6    6    0  502  0.42419105303E+02 -0.16639357771E+03 -0.60963563384E+02  0.18221624312E+03  0.00000000000E+00 0.  1.
<mgrwt>
<rscale>  0 0.43782559E+03</rscale>
<asrwt>0</asrwt>
<pdfrwt beam="1">  1        1 0.14929214E+00 0.43782559E+03</pdfrwt>
<pdfrwt beam="2">  1       -2 0.40367410E-01 0.43782559E+03</pdfrwt>
<totfact> 0.85409632E+01</totfact>
</mgrwt>
</event>
<event>
12    3  0.1201947E-007  0.2068267E+04  0.7818608E-02  0.8575352E-01
         -2   -1    0    0    0  501 -0.00000000000E+00  0.00000000000E+00  0.14669693865E+04  0.14669693865E+04  0.00000000000E+00 0.  1.
          1   -1    0    0  501    0  0.00000000000E+00 -0.00000000000E+00 -0.30856231120E+04  0.30856231120E+04  0.00000000000E+00 0. -1.
        -24    2    1    2    0    0 -0.13508386034E+04 -0.15606644309E+04 -0.48423654335E+03  0.21220713406E+04  0.90902952588E+02 0.  0.
    5000000    2    1    2    0    0  0.13508386034E+04  0.15606644309E+04 -0.11344171821E+04  0.24305211578E+04  0.60007695959E+03 0.  0.
        -24    2    4    4    0    0  0.22032256810E+03  0.25712693515E+03 -0.45866847778E+03  0.57568988876E+03  0.79911080028E+02 0.  0.
         24    2    4    4    0    0  0.11305160353E+04  0.13035374957E+04 -0.67574870433E+03  0.18548312691E+04  0.80537050928E+02 0.  0.
         11    1    3    3    0    0 -0.62756137541E+03 -0.69064469845E+03 -0.25921389556E+03  0.96851186005E+03  0.00000000000E+00 0. -1.
        -12    1    3    3    0    0 -0.72327722795E+03 -0.87001973241E+03 -0.22502264779E+03  0.11535594806E+04  0.00000000000E+00 0.  1.
         15    1    5    5    0    0  0.14254512630E+03  0.11205834496E+03 -0.20965589670E+03  0.27719115869E+03  0.17770000000E+01 0. -1.
        -16    1    5    5    0    0  0.77777441801E+02  0.14506859019E+03 -0.24901258108E+03  0.29849873006E+03  0.00000000000E+00 0.  1.
          4    1    6    6  502    0  0.10436480960E+04  0.12202500292E+04 -0.64676989315E+03  0.17310467287E+04  0.00000000000E+00 0. -1.
         -3    1    6    6    0  502  0.86867939262E+02  0.83287466467E+02 -0.28978811176E+02  0.12378454039E+03  0.00000000000E+00 0.  1.
<mgrwt>
<rscale>  0 0.20682670E+04</rscale>
<asrwt>0</asrwt>
<pdfrwt beam="1">  1        1 0.47471124E+00 0.20682670E+04</pdfrwt>
<pdfrwt beam="2">  1       -2 0.22568760E+00 0.20682670E+04</pdfrwt>
<totfact> 0.36494575E-02</totfact>
</mgrwt>
</event>
<event>
12    3  0.1201947E-007  0.5531607E+03  0.7818608E-02  0.1000765E+00
         -2   -1    0    0    0  501 -0.00000000000E+00  0.00000000000E+00  0.84827740715E+03  0.84827740715E+03  0.00000000000E+00 0.  1.
          1   -1    0    0  501    0  0.00000000000E+00 -0.00000000000E+00 -0.38899997155E+03  0.38899997155E+03  0.00000000000E+00 0. -1.
        -24    2    1    2    0    0 -0.37227108293E+03 -0.17425438627E+03  0.20909759033E+03  0.46809112485E+03  0.80231842588E+02 0.  0.
    5000000    2    1    2    0    0  0.37227108293E+03  0.17425438627E+03  0.25017984527E+03  0.76918625385E+03  0.60008931654E+03 0.  0.
        -24    2    4    4    0    0 -0.10928467595E+03  0.16469442187E+03 -0.14769983885E+02  0.21387220178E+03  0.80347826823E+02 0.  0.
         24    2    4    4    0    0  0.48155575887E+03  0.95599644008E+01  0.26494982915E+03  0.55531405208E+03  0.78663477187E+02 0.  0.
         13    1    3    3    0    0 -0.26496221255E+03 -0.12911874250E+03  0.10801958048E+03  0.31391854598E+03  0.00000000000E+00 0. -1.
        -14    1    3    3    0    0 -0.10730887038E+03 -0.45135643775E+02  0.10107800985E+03  0.15417257888E+03  0.00000000000E+00 0.  1.
         15    1    5    5    0    0 -0.96683616074E+02  0.78686366373E+02 -0.22194515886E+02  0.12662945998E+03  0.17770000000E+01 0. -1.
        -16    1    5    5    0    0 -0.12601059876E+02  0.86008055500E+02  0.74245320016E+01  0.87242741797E+02  0.00000000000E+00 0.  1.
          2    1    6    6  502    0  0.25727406177E+03 -0.16328803929E+02  0.10367697243E+03  0.27785875424E+03  0.00000000000E+00 0. -1.
         -1    1    6    6    0  502  0.22428169711E+03  0.25888768329E+02  0.16127285672E+03  0.27745529784E+03  0.00000000000E+00 0.  1.
<mgrwt>
<rscale>  0 0.55316071E+03</rscale>
<asrwt>0</asrwt>
<pdfrwt beam="1">  1        1 0.59846150E-01 0.55316071E+03</pdfrwt>
<pdfrwt beam="2">  1       -2 0.13050422E+00 0.55316071E+03</pdfrwt>
<totfact> 0.24234605E+01</totfact>
</mgrwt>
</event>
<event>
12    3  0.1201947E-007  0.1053286E+04  0.7818608E-02  0.9251958E-01
          1   -1    0    0  501    0  0.00000000000E+00  0.00000000000E+00  0.16424603597E+04  0.16424603597E+04  0.00000000000E+00 0. -1.
         -4   -1    0    0    0  501 -0.00000000000E+00 -0.00000000000E+00 -0.72217181985E+03  0.72217181985E+03  0.00000000000E+00 0.  1.
        -24    2    1    2    0    0  0.28847790511E+02  0.99087339676E+03  0.60378845714E+03  0.11633603520E+04  0.78641745891E+02 0.  0.
    5000000    2    1    2    0    0 -0.28847790511E+02 -0.99087339676E+03  0.31650008269E+03  0.12012718275E+04  0.60018282036E+03 0.  0.
        -24    2    4    4    0    0  0.55931961856E+02 -0.99925753976E+03  0.37476506448E+03  0.10715822140E+04  0.78711960822E+02 0.  0.
         24    2    4    4    0    0 -0.84779752367E+02  0.83841429988E+01 -0.58264981788E+02  0.12968961349E+03  0.78528259112E+02 0.  0.
         11    1    3    3    0    0 -0.20762618065E+02  0.55275506037E+03  0.32073720568E+03  0.63940722406E+03  0.00000000000E+00 0. -1.
        -12    1    3    3    0    0  0.49610408576E+02  0.43811833639E+03  0.28305125146E+03  0.52395312793E+03  0.00000000000E+00 0.  1.
         15    1    5    5    0    0  0.39067629321E+01 -0.63219773235E+03  0.21338999938E+03  0.66725383862E+03  0.17770000000E+01 0. -1.
        -16    1    5    5    0    0  0.52025198924E+02 -0.36705980741E+03  0.16137506510E+03  0.40432837542E+03  0.00000000000E+00 0.  1.
          2    1    6    6  502    0 -0.37442734117E+02  0.38306591867E+02 -0.74721399872E+01  0.54084990475E+02  0.00000000000E+00 0. -1.
         -1    1    6    6    0  502 -0.47337018249E+02 -0.29922448869E+02 -0.50792841801E+02  0.75604623015E+02  0.00000000000E+00 0.  1.
<mgrwt>
<rscale>  0 0.10532857E+04</rscale>
<asrwt>0</asrwt>
<pdfrwt beam="1">  1        1 0.25268621E+00 0.10532857E+04</pdfrwt>
<pdfrwt beam="2">  1       -4 0.11110336E+00 0.10532857E+04</pdfrwt>
<totfact> 0.15938580E+00</totfact>
</mgrwt>
</event>
<event>
12    3  0.1201947E-007  0.5681225E+03  0.7818608E-02  0.9973842E-01
          1   -1    0    0  501    0  0.00000000000E+00  0.00000000000E+00  0.61601798803E+03  0.61601798803E+03  0.00000000000E+00 0. -1.
         -2   -1    0    0    0  501 -0.00000000000E+00 -0.00000000000E+00 -0.54988227817E+03  0.54988227817E+03  0.00000000000E+00 0.  1.
        -24    2    1    2    0    0  0.38704444943E+03 -0.15776563742E+03  0.79647206448E+02  0.43417366493E+03  0.86427377846E+02 0.  0.
    5000000    2    1    2    0    0 -0.38704444943E+03  0.15776563742E+03 -0.13511496582E+02  0.73172660127E+03  0.60045637334E+03 0.  0.
        -24    2    4    4    0    0 -0.29109661259E+03 -0.18473671433E+03 -0.74844975249E+02  0.36136972399E+03  0.78239476050E+02 0.  0.
         24    2    4    4    0    0 -0.95947836836E+02  0.34250235175E+03  0.61333478667E+02  0.37035687728E+03  0.82997425269E+02 0.  0.
         11    1    3    3    0    0  0.16267653418E+03 -0.10258116605E+03  0.63599961626E+02  0.20256234971E+03  0.00000000000E+00 0. -1.
        -12    1    3    3    0    0  0.22436791524E+03 -0.55184471372E+02  0.16047244822E+02  0.23161131522E+03  0.00000000000E+00 0.  1.
         15    1    5    5    0    0 -0.64529581434E+02 -0.81796663748E+02 -0.30690355588E+02  0.10862696137E+03  0.17770000000E+01 0. -1.
        -16    1    5    5    0    0 -0.22656703116E+03 -0.10294005058E+03 -0.44154619661E+02  0.25274276262E+03  0.00000000000E+00 0.  1.
          4    1    6    6  502    0 -0.78786052922E+02  0.18101528664E+03  0.65225603780E+02  0.20791381753E+03  0.00000000000E+00 0. -1.
         -3    1    6    6    0  502 -0.17161783914E+02  0.16148706511E+03 -0.38921251130E+01  0.16244305975E+03  0.00000000000E+00 0.  1.
<mgrwt>
<rscale>  0 0.56812253E+03</rscale>
<asrwt>0</asrwt>
<pdfrwt beam="1">  1        1 0.94771998E-01 0.56812253E+03</pdfrwt>
<pdfrwt beam="2">  1       -2 0.84597273E-01 0.56812253E+03</pdfrwt>
<totfact> 0.36394949E+01</totfact>
</mgrwt>
</event>
<event>
12    3  0.1201947E-007  0.6773846E+03  0.7818608E-02  0.9756709E-01
         -4   -1    0    0    0  501 -0.00000000000E+00  0.00000000000E+00  0.22573274819E+03  0.22573274819E+03  0.00000000000E+00 0.  1.
          3   -1    0    0  501    0  0.00000000000E+00 -0.00000000000E+00 -0.20753113710E+04  0.20753113710E+04  0.00000000000E+00 0. -1.
        -24    2    1    2    0    0 -0.54808348446E+03 -0.27945289833E+02 -0.79394168318E+03  0.96856749185E+03  0.81259736734E+02 0.  0.
    5000000    2    1    2    0    0  0.54808348446E+03  0.27945289833E+02 -0.10556369396E+04  0.13324766273E+04  0.59995680590E+03 0.  0.
        -24    2    4    4    0    0  0.93180867293E+02 -0.24480444161E+03 -0.29824769881E+03  0.40477269850E+03  0.79229785722E+02 0.  0.
         24    2    4    4    0    0  0.45490261717E+03  0.27274973144E+03 -0.75738924082E+03  0.92770392884E+03  0.75281540707E+02 0.  0.
         11    1    3    3    0    0 -0.19405267550E+03  0.20218495136E+00 -0.34840895787E+03  0.39880481902E+03  0.00000000000E+00 0. -1.
        -12    1    3    3    0    0 -0.35403080896E+03 -0.28147474784E+02 -0.44553272531E+03  0.56976267283E+03  0.00000000000E+00 0.  1.
         15    1    5    5    0    0  0.46361012814E+02 -0.33669274307E+02 -0.58804231091E+02  0.82122219068E+02  0.17770000000E+01 0. -1.
        -16    1    5    5    0    0  0.46819854479E+02 -0.21113516730E+03 -0.23944346772E+03  0.32265047943E+03  0.00000000000E+00 0.  1.
          4    1    6    6  502    0  0.15506679193E+03  0.70727254606E+02 -0.19342623055E+03  0.25780178658E+03  0.00000000000E+00 0. -1.
         -3    1    6    6    0  502  0.29983582524E+03  0.20202247684E+03 -0.56396301027E+03  0.66990214226E+03  0.00000000000E+00 0.  1.
<mgrwt>
<rscale>  0 0.67738460E+03</rscale>
<asrwt>0</asrwt>
<pdfrwt beam="1">  1        3 0.31927866E+00 0.67738460E+03</pdfrwt>
<pdfrwt beam="2">  1       -4 0.34728116E-01 0.67738460E+03</pdfrwt>
<totfact> 0.57278108E-01</totfact>
</mgrwt>
</event>
<event>
12    3  0.1201947E-007  0.7371673E+03  0.7818608E-02  0.9655701E-01
          1   -1    0    0  501    0  0.00000000000E+00  0.00000000000E+00  0.21754780536E+04  0.21754780536E+04  0.00000000000E+00 0. -1.
         -2   -1    0    0    0  501 -0.00000000000E+00 -0.00000000000E+00 -0.34844310710E+03  0.34844310710E+03  0.00000000000E+00 0.  1.
        -24    2    1    2    0    0  0.58910165619E+03 -0.19870340527E+03  0.16087492044E+03  0.64706313579E+03  0.79285289223E+02 0.  0.
    5000000    2    1    2    0    0 -0.58910165619E+03  0.19870340527E+03  0.16661600261E+04  0.18768580249E+04  0.59998584035E+03 0.  0.
        -24    2    4    4    0    0 -0.66329179701E+03  0.42038475921E+02  0.12755472655E+04  0.14419700241E+04  0.10263275492E+03 0.  0.
         24    2    4    4    0    0  0.74190140826E+02  0.15666492935E+03  0.39061276060E+03  0.43488800085E+03  0.80629817454E+02 0.  0.
         13    1    3    3    0    0  0.39530534226E+03 -0.15849575310E+03  0.13864796548E+03  0.44789560804E+03  0.00000000000E+00 0. -1.
        -14    1    3    3    0    0  0.19379631393E+03 -0.40207652172E+02  0.22226954964E+02  0.19916752775E+03  0.00000000000E+00 0.  1.
         15    1    5    5    0    0 -0.52012716919E+03  0.74096670681E+02  0.97590155632E+03  0.11083364084E+04  0.17770000000E+01 0. -1.
        -16    1    5    5    0    0 -0.14316462783E+03 -0.32058194760E+02  0.29964570915E+03  0.33363361570E+03  0.00000000000E+00 0.  1.
          4    1    6    6  502    0  0.51448036445E+02  0.59617348765E+02  0.97728276374E+02  0.12550675173E+03  0.00000000000E+00 0. -1.
         -3    1    6    6    0  502  0.22742104381E+02  0.97047580582E+02  0.29288448422E+03  0.30938124912E+03  0.00000000000E+00 0.  1.
<mgrwt>
<rscale>  0 0.73716732E+03</rscale>
<asrwt>0</asrwt>
<pdfrwt beam="1">  1        1 0.33468892E+00 0.73716732E+03</pdfrwt>
<pdfrwt beam="2">  1       -2 0.53606633E-01 0.73716732E+03</pdfrwt>
<totfact> 0.68344597E+00</totfact>
</mgrwt>
</event>
<event>
12    3  0.1201947E-007  0.1476383E+04  0.7818608E-02  0.8900312E-01
          1   -1    0    0  501    0  0.00000000000E+00  0.00000000000E+00  0.29624541300E+04  0.29624541300E+04  0.00000000000E+00 0. -1.
         -2   -1    0    0    0  501 -0.00000000000E+00 -0.00000000000E+00 -0.96250553941E+03  0.96250553941E+03  0.00000000000E+00 0.  1.
        -24    2    1    2    0    0 -0.10589391176E+03  0.14169541779E+04  0.19076168604E+04  0.23797398079E+04  0.72019471876E+02 0.  0.
    5000000    2    1    2    0    0  0.10589391176E+03 -0.14169541779E+04  0.92331730228E+02  0.15452198616E+04  0.60017214972E+03 0.  0.
        -24    2    4    4    0    0 -0.21556931594E+03 -0.83249343593E+03 -0.13709619985E+02  0.86399372752E+03  0.82351421855E+02 0.  0.
         24    2    4    4    0    0  0.32146322769E+03 -0.58446074199E+03  0.10604135021E+03  0.68122613404E+03  0.88833057244E+02 0.  0.
         13    1    3    3    0    0 -0.45157042609E+01  0.32292416096E+03  0.47255516813E+03  0.57237120145E+03  0.00000000000E+00 0. -1.
        -14    1    3    3    0    0 -0.10137820749E+03  0.10940300170E+04  0.14350616923E+04  0.18073686064E+04  0.00000000000E+00 0.  1.
         15    1    5    5    0    0 -0.14002358359E+03 -0.66140011465E+03  0.45261904766E+01  0.67607718476E+03  0.17770000000E+01 0. -1.
        -16    1    5    5    0    0 -0.75545732344E+02 -0.17109332127E+03 -0.18235810461E+02  0.18791654276E+03  0.00000000000E+00 0.  1.
          2    1    6    6  502    0  0.18407687665E+03 -0.29740733577E+03  0.14416221156E+02  0.35006177644E+03  0.00000000000E+00 0. -1.
         -1    1    6    6    0  502  0.13738635104E+03 -0.28705340622E+03  0.91625129057E+02  0.33116435761E+03  0.00000000000E+00 0.  1.
<mgrwt>
<rscale>  0 0.14763830E+04</rscale>
<asrwt>0</asrwt>
<pdfrwt beam="1">  1        1 0.45576217E+00 0.14763830E+04</pdfrwt>
<pdfrwt beam="2">  1       -2 0.14807778E+00 0.14763830E+04</pdfrwt>
<totfact> 0.16475115E-01</totfact>
</mgrwt>
</event>
<event>
12    3  0.1201947E-007  0.6284922E+03  0.7818608E-02  0.9847996E-01
          1   -1    0    0  501    0  0.00000000000E+00  0.00000000000E+00  0.11010159099E+04  0.11010159099E+04  0.00000000000E+00 0. -1.
         -2   -1    0    0    0  501 -0.00000000000E+00 -0.00000000000E+00 -0.46275913530E+03  0.46275913530E+03  0.00000000000E+00 0.  1.
        -24    2    1    2    0    0 -0.32586415440E+01 -0.51544189845E+03  0.56571084830E+03  0.76945450326E+03  0.79627252119E+02 0.  0.
    5000000    2    1    2    0    0  0.32586415440E+01  0.51544189845E+03  0.72545926320E+02  0.79432054195E+03  0.59999270205E+03 0.  0.
        -24    2    4    4    0    0 -0.24955384453E+03  0.34006438202E+03 -0.89160266807E+02  0.43795718977E+03  0.77045711469E+02 0.  0.
         24    2    4    4    0    0  0.25281248607E+03  0.17537751643E+03  0.16170619313E+03  0.35636335218E+03  0.78578110807E+02 0.  0.
         11    1    3    3    0    0  0.19967959424E+02 -0.35691147018E+03  0.43235903967E+03  0.56099808924E+03  0.00000000000E+00 0. -1.
        -12    1    3    3    0    0 -0.23226600968E+02 -0.15853042827E+03  0.13335180863E+03  0.20845641402E+03  0.00000000000E+00 0.  1.
         15    1    5    5    0    0 -0.89659622557E+02  0.12846745291E+03 -0.71323721831E+02  0.17214228242E+03  0.17770000000E+01 0. -1.
        -16    1    5    5    0    0 -0.15989422197E+03  0.21159692912E+03 -0.17836544976E+02  0.26581490735E+03  0.00000000000E+00 0.  1.
          4    1    6    6  502    0  0.21985090268E+03  0.11379419032E+03  0.12142138594E+03  0.27572937841E+03  0.00000000000E+00 0. -1.
         -3    1    6    6    0  502  0.32961583396E+02  0.61583326110E+02  0.40284807188E+02  0.80633973764E+02  0.00000000000E+00 0.  1.
<mgrwt>
<rscale>  0 0.62849217E+03</rscale>
<asrwt>0</asrwt>
<pdfrwt beam="1">  1        1 0.16938706E+00 0.62849217E+03</pdfrwt>
<pdfrwt beam="2">  1       -2 0.71193713E-01 0.62849217E+03</pdfrwt>
<totfact> 0.20668835E+01</totfact>
</mgrwt>
</event>
<event>
12    3  0.1201947E-007  0.4978062E+03  0.7818608E-02  0.1014353E+00
          1   -1    0    0  501    0  0.00000000000E+00  0.00000000000E+00  0.65519159756E+03  0.65519159756E+03  0.00000000000E+00 0. -1.
         -4   -1    0    0    0  501 -0.00000000000E+00 -0.00000000000E+00 -0.46091717223E+03  0.46091717223E+03  0.00000000000E+00 0.  1.
        -24    2    1    2    0    0 -0.36005360939E+03 -0.10665193736E+03  0.12943484635E+03  0.40514170491E+03  0.79832225494E+02 0.  0.
    5000000    2    1    2    0    0  0.36005360939E+03  0.10665193736E+03  0.64839578986E+02  0.71096706489E+03  0.60021392767E+03 0.  0.
        -24    2    4    4    0    0  0.30153824652E+03  0.28202872223E+03  0.20340561328E+03  0.46683692855E+03  0.78085594468E+02 0.  0.
         24    2    4    4    0    0  0.58515362871E+02 -0.17537678487E+03 -0.13856603430E+03  0.24413013634E+03  0.78853745911E+02 0.  0.
         11    1    3    3    0    0 -0.75535914033E+02 -0.46455606359E+02  0.57078127991E+02  0.10545952003E+03  0.00000000000E+00 0. -1.
        -12    1    3    3    0    0 -0.28451769536E+03 -0.60196330998E+02  0.72356718354E+02  0.29968218487E+03  0.00000000000E+00 0.  1.
         15    1    5    5    0    0  0.79984812306E+02  0.11444221330E+03  0.93717986675E+02  0.16816898983E+03  0.17770000000E+01 0. -1.
        -16    1    5    5    0    0  0.22155343422E+03  0.16758650893E+03  0.10968762661E+03  0.29866793872E+03  0.00000000000E+00 0.  1.
          2    1    6    6  502    0  0.28514500916E+02 -0.16422275863E+03 -0.12886359080E+03  0.21068463695E+03  0.00000000000E+00 0. -1.
         -1    1    6    6    0  502  0.30000861955E+02 -0.11154026246E+02 -0.97024434975E+01  0.33445499388E+02  0.00000000000E+00 0.  1.
<mgrwt>
<rscale>  0 0.49780624E+03</rscale>
<asrwt>0</asrwt>
<pdfrwt beam="1">  1        1 0.10079871E+00 0.49780624E+03</pdfrwt>
<pdfrwt beam="2">  1       -4 0.70910334E-01 0.49780624E+03</pdfrwt>
<totfact> 0.26762055E+01</totfact>
</mgrwt>
</event>
<event>
12    3  0.1201947E-007  0.6328438E+03  0.7818608E-02  0.9839515E-01
          1   -1    0    0  501    0  0.00000000000E+00  0.00000000000E+00  0.10353707976E+04  0.10353707976E+04  0.00000000000E+00 0. -1.
         -2   -1    0    0    0  501 -0.00000000000E+00 -0.00000000000E+00 -0.48476181094E+03  0.48476181094E+03  0.00000000000E+00 0.  1.
        -24    2    1    2    0    0 -0.39527640159E+03 -0.35335902068E+03 -0.20268781651E+02  0.53673574590E+03  0.81045704812E+02 0.  0.
    5000000    2    1    2    0    0  0.39527640159E+03  0.35335902068E+03  0.57087776835E+03  0.98339686267E+03  0.60005160776E+03 0.  0.
        -24    2    4    4    0    0  0.21408964585E+03  0.46663135902E+03  0.54689000209E+03  0.75426148300E+03  0.79009547980E+02 0.  0.
         24    2    4    4    0    0  0.18118675574E+03 -0.11327233834E+03  0.23987766252E+02  0.22913537967E+03  0.79172888037E+02 0.  0.
         13    1    3    3    0    0 -0.20200092574E+03 -0.14825044909E+03  0.22964358387E+02  0.25161464864E+03  0.00000000000E+00 0. -1.
        -14    1    3    3    0    0 -0.19327547585E+03 -0.20510857159E+03 -0.43233140039E+02  0.28512109726E+03  0.00000000000E+00 0.  1.
         15    1    5    5    0    0  0.60174342052E+02  0.13975421796E+03  0.11241610299E+03  0.18918966890E+03  0.17770000000E+01 0. -1.
        -16    1    5    5    0    0  0.15391530380E+03  0.32687714106E+03  0.43447389910E+03  0.56507181410E+03  0.00000000000E+00 0.  1.
          4    1    6    6  502    0  0.87860328907E+02 -0.24948167184E+02 -0.19666956382E+02  0.93427178138E+02  0.00000000000E+00 0. -1.
         -3    1    6    6    0  502  0.93326426829E+02 -0.88324171156E+02  0.43654722635E+02  0.13570820153E+03  0.00000000000E+00 0.  1.
<mgrwt>
<rscale>  0 0.63284382E+03</rscale>
<asrwt>0</asrwt>
<pdfrwt beam="1">  1        1 0.15928782E+00 0.63284382E+03</pdfrwt>
<pdfrwt beam="2">  1       -2 0.74578740E-01 0.63284382E+03</pdfrwt>
<totfact> 0.20895411E+01</totfact>
</mgrwt>
</event>
<event>
12    3  0.2205936E-007  0.1696119E+04  0.7818608E-02  0.8763581E-01
         -2   -1    0    0    0  501 -0.00000000000E+00  0.00000000000E+00  0.17725151691E+04  0.17725151691E+04  0.00000000000E+00 0.  1.
          1   -1    0    0  501    0  0.00000000000E+00 -0.00000000000E+00 -0.16810747332E+04  0.16810747332E+04  0.00000000000E+00 0. -1.
        -24    2    1    2    0    0  0.92601062940E+03 -0.13778393085E+04 -0.16339690156E+03  0.16701212636E+04  0.81667875484E+02 0.  0.
    5000000    2    1    2    0    0 -0.92601062940E+03  0.13778393085E+04  0.25483733744E+03  0.17834686386E+04  0.59990121717E+03 0.  0.
        -24    2    4    4    0    0 -0.73649657238E+02  0.49073374462E+03 -0.72977724145E+02  0.50782071656E+03  0.79449681070E+02 0.  0.
         24    2    4    4    0    0 -0.85236097216E+03  0.88710556392E+03  0.32781506158E+03  0.12756479220E+04  0.79620336496E+02 0.  0.
         11    1    3    3    0    0  0.25464904569E+03 -0.44638305140E+03 -0.53192689888E+02  0.51665600481E+03  0.00000000000E+00 0. -1.
        -12    1    3    3    0    0  0.67136158371E+03 -0.93145625714E+03 -0.11020421168E+03  0.11534652588E+04  0.00000000000E+00 0.  1.
         15    1    5    5    0    0 -0.94213376921E+01  0.26463696128E+03 -0.12417319515E+02  0.26510154740E+03  0.17770000000E+01 0. -1.
        -16    1    5    5    0    0 -0.64228319546E+02  0.22609678335E+03 -0.60560404629E+02  0.24271916916E+03  0.00000000000E+00 0.  1.
          4    1    6    6  502    0 -0.41322235114E+03  0.42196438424E+03  0.19814338984E+03  0.62295060477E+03  0.00000000000E+00 0. -1.
         -3    1    6    6    0  502 -0.43913862102E+03  0.46514117968E+03  0.12967167174E+03  0.65269731726E+03  0.00000000000E+00 0.  1.
<mgrwt>
<rscale>  0 0.16961188E+04</rscale>
<asrwt>0</asrwt>
<pdfrwt beam="1">  1        1 0.25862688E+00 0.16961188E+04</pdfrwt>
<pdfrwt beam="2">  1       -2 0.27269464E+00 0.16961188E+04</pdfrwt>
<totfact> 0.18523395E-01</totfact>
</mgrwt>
</event>
<event>
12    3  0.1201947E-007  0.4244335E+03  0.7818608E-02  0.1035633E+00
          1   -1    0    0  501    0  0.00000000000E+00  0.00000000000E+00  0.13289394299E+04  0.13289394299E+04  0.00000000000E+00 0. -1.
         -2   -1    0    0    0  501 -0.00000000000E+00 -0.00000000000E+00 -0.18609597446E+03  0.18609597446E+03  0.00000000000E+00 0.  1.
        -24    2    1    2    0    0 -0.28560437468E+02  0.30315329928E+03  0.28371051277E+03  0.42370990195E+03  0.79503487364E+02 0.  0.
    5000000    2    1    2    0    0  0.28560437468E+02 -0.30315329928E+03  0.85913294267E+03  0.10913255024E+04  0.60013691569E+03 0.  0.
        -24    2    4    4    0    0  0.18441253005E+03 -0.31210564808E+03  0.22829266853E+03  0.43582324518E+03  0.80040250694E+02 0.  0.
         24    2    4    4    0    0 -0.15585209258E+03  0.89523487939E+01  0.63084027415E+03  0.65550225724E+03  0.85753941294E+02 0.  0.
         11    1    3    3    0    0  0.26536805495E+01  0.19977298715E+03  0.22459603576E+03  0.30059884846E+03  0.00000000000E+00 0. -1.
        -12    1    3    3    0    0 -0.31214118018E+02  0.10338031213E+03  0.59114477003E+02  0.12311105349E+03  0.00000000000E+00 0.  1.
         15    1    5    5    0    0  0.73642421859E+02 -0.83017599871E+02  0.10609765798E+03  0.15354152189E+03  0.17770000000E+01 0. -1.
        -16    1    5    5    0    0  0.11077010819E+03 -0.22908804821E+03  0.12219501054E+03  0.28228172329E+03  0.00000000000E+00 0.  1.
          2    1    6    6  502    0 -0.12569867475E+03 -0.27150133762E+02  0.50625859402E+03  0.52233614714E+03  0.00000000000E+00 0. -1.
         -1    1    6    6    0  502 -0.30153417836E+02  0.36102482556E+02  0.12458168013E+03  0.13316611010E+03  0.00000000000E+00 0.  1.
<mgrwt>
<rscale>  0 0.42443348E+03</rscale>
<asrwt>0</asrwt>
<pdfrwt beam="1">  1        1 0.20445221E+00 0.42443348E+03</pdfrwt>
<pdfrwt beam="2">  1       -2 0.28630151E-01 0.42443348E+03</pdfrwt>
<totfact> 0.89645319E+01</totfact>
</mgrwt>
</event>
<event>
12    3  0.1201947E-007  0.1544751E+04  0.7818608E-02  0.8855228E-01
         -2   -1    0    0    0  501 -0.00000000000E+00  0.00000000000E+00  0.10417102621E+04  0.10417102621E+04  0.00000000000E+00 0.  1.
          1   -1    0    0  501    0  0.00000000000E+00 -0.00000000000E+00 -0.24709014812E+04  0.24709014812E+04  0.00000000000E+00 0. -1.
        -24    2    1    2    0    0 -0.14909865823E+04  0.18634682015E+03 -0.10942623612E+04  0.18603610747E+04  0.75941340686E+02 0.  0.
    5000000    2    1    2    0    0  0.14909865823E+04 -0.18634682015E+03 -0.33492885790E+03  0.16522506685E+04  0.59999067146E+03 0.  0.
        -24    2    4    4    0    0  0.10533249607E+04  0.10178825716E+03 -0.36212927565E+03  0.11214779399E+04  0.81980699843E+02 0.  0.
         24    2    4    4    0    0  0.43766162156E+03 -0.28813507731E+03  0.27200417748E+02  0.53077272865E+03  0.80064405263E+02 0.  0.
         13    1    3    3    0    0 -0.51285878896E+03  0.52341114794E+02 -0.41795732551E+03  0.66366562037E+03  0.00000000000E+00 0. -1.
        -14    1    3    3    0    0 -0.97812779334E+03  0.13400570536E+03 -0.67630503570E+03  0.11966954544E+04  0.00000000000E+00 0.  1.
         15    1    5    5    0    0  0.31602257785E+03 -0.67241229068E+01 -0.10247178881E+03  0.33229370859E+03  0.17770000000E+01 0. -1.
        -16    1    5    5    0    0  0.73730238289E+03  0.10851238007E+03 -0.25965748684E+03  0.78918423129E+03  0.00000000000E+00 0.  1.
          2    1    6    6  502    0  0.71291066285E+02 -0.30823933477E+02 -0.21070608569E+02  0.80476714350E+02  0.00000000000E+00 0. -1.
         -1    1    6    6    0  502  0.36637055527E+03 -0.25731114384E+03  0.48271026317E+02  0.45029601430E+03  0.00000000000E+00 0.  1.
<mgrwt>
<rscale>  0 0.15447510E+04</rscale>
<asrwt>0</asrwt>
<pdfrwt beam="1">  1        1 0.38013868E+00 0.15447510E+04</pdfrwt>
<pdfrwt beam="2">  1       -2 0.16026312E+00 0.15447510E+04</pdfrwt>
<totfact> 0.29372188E-01</totfact>
</mgrwt>
</event>
<event>
12    3  0.1201947E-007  0.1948927E+04  0.7818608E-02  0.8630878E-01
          1   -1    0    0  501    0  0.00000000000E+00  0.00000000000E+00  0.15443165043E+04  0.15443165043E+04  0.00000000000E+00 0. -1.
         -2   -1    0    0    0  501 -0.00000000000E+00 -0.00000000000E+00 -0.24787010135E+04  0.24787010135E+04  0.00000000000E+00 0.  1.
        -24    2    1    2    0    0  0.10711534016E+04  0.15792989174E+04 -0.38305267942E+03  0.19480044313E+04  0.80232343752E+02 0.  0.
    5000000    2    1    2    0    0 -0.10711534016E+04 -0.15792989174E+04 -0.55133182978E+03  0.20750130864E+04  0.60013152050E+03 0.  0.
        -24    2    4    4    0    0 -0.26724913958E+03 -0.70065371592E+02 -0.62262435245E+02  0.29482164235E+03  0.81926375823E+02 0.  0.
         24    2    4    4    0    0 -0.80390426202E+03 -0.15092335458E+04 -0.48906939454E+03  0.17801914440E+04  0.76450941494E+02 0.  0.
         11    1    3    3    0    0  0.52337532395E+02  0.62482242706E+02 -0.30877923804E+02  0.87159016339E+02  0.00000000000E+00 0. -1.
        -12    1    3    3    0    0  0.10188158692E+04  0.15168166747E+04 -0.35217475562E+03  0.18608454150E+04  0.00000000000E+00 0.  1.
         15    1    5    5    0    0 -0.48393195845E+02  0.21331648069E+01 -0.40816377773E+02  0.63368653290E+02  0.17770000000E+01 0. -1.
        -16    1    5    5    0    0 -0.21885594373E+03 -0.72198536399E+02 -0.21446057472E+02  0.23145298906E+03  0.00000000000E+00 0.  1.
          4    1    6    6  502    0 -0.26556572061E+03 -0.52609869490E+03 -0.20397335355E+03  0.62362658514E+03  0.00000000000E+00 0. -1.
         -3    1    6    6    0  502 -0.53833854142E+03 -0.98313485092E+03 -0.28509604099E+03  0.11565648589E+04  0.00000000000E+00 0.  1.
<mgrwt>
<rscale>  0 0.19489270E+04</rscale>
<asrwt>0</asrwt>
<pdfrwt beam="1">  1        1 0.23758716E+00 0.19489270E+04</pdfrwt>
<pdfrwt beam="2">  1       -2 0.38133862E+00 0.19489270E+04</pdfrwt>
<totfact> 0.47105639E-02</totfact>
</mgrwt>
</event>
<event>
12    3  0.1201947E-007  0.5085730E+03  0.7818608E-02  0.1011565E+00
         -2   -1    0    0    0  501 -0.00000000000E+00  0.00000000000E+00  0.34200264072E+03  0.34200264072E+03  0.00000000000E+00 0.  1.
          1   -1    0    0  501    0  0.00000000000E+00 -0.00000000000E+00 -0.92723016036E+03  0.92723016036E+03  0.00000000000E+00 0. -1.
        -24    2    1    2    0    0 -0.31680724764E+01 -0.39520947334E+03 -0.26491696535E+03  0.48255602690E+03  0.80490720401E+02 0.  0.
    5000000    2    1    2    0    0  0.31680724764E+01  0.39520947334E+03 -0.32031055429E+03  0.78667677418E+03  0.60005077397E+03 0.  0.
        -24    2    4    4    0    0  0.85235970406E+02 -0.84127577808E+02  0.67318061879E+02  0.15969878076E+03  0.81420876462E+02 0.  0.
         24    2    4    4    0    0 -0.82067897929E+02  0.47933705115E+03 -0.38762861617E+03  0.62697799341E+03  0.79663741282E+02 0.  0.
         11    1    3    3    0    0 -0.28481596181E+02 -0.53382990360E+02 -0.42920397607E+02  0.74182919271E+02  0.00000000000E+00 0. -1.
        -12    1    3    3    0    0  0.25313523704E+02 -0.34182648298E+03 -0.22199656774E+03  0.40837310763E+03  0.00000000000E+00 0.  1.
         15    1    5    5    0    0  0.58132495560E+02 -0.42294159122E+02 -0.47537597708E+01  0.72068987067E+02  0.17770000000E+01 0. -1.
        -16    1    5    5    0    0  0.27103474845E+02 -0.41833418687E+02  0.72071821649E+02  0.87629793698E+02  0.00000000000E+00 0.  1.
          2    1    6    6  502    0 -0.21174634668E+02  0.33227651680E+03 -0.27740528122E+03  0.43337020989E+03  0.00000000000E+00 0. -1.
         -1    1    6    6    0  502 -0.60893263262E+02  0.14706053435E+03 -0.11022333495E+03  0.19360778352E+03  0.00000000000E+00 0.  1.
<mgrwt>
<rscale>  0 0.50857297E+03</rscale>
<asrwt>0</asrwt>
<pdfrwt beam="1">  1        1 0.14265079E+00 0.50857297E+03</pdfrwt>
<pdfrwt beam="2">  1       -2 0.52615792E-01 0.50857297E+03</pdfrwt>
<totfact> 0.54009423E+01</totfact>
</mgrwt>
</event>
<event>
12    3  0.1899977E-007  0.8453993E+03  0.7818608E-02  0.9496533E-01
          1   -1    0    0  501    0  0.00000000000E+00  0.00000000000E+00  0.24320590005E+04  0.24320590005E+04  0.00000000000E+00 0. -1.
         -2   -1    0    0    0  501 -0.00000000000E+00 -0.00000000000E+00 -0.31082131564E+03  0.31082131564E+03  0.00000000000E+00 0.  1.
        -24    2    1    2    0    0 -0.66629154518E+03  0.32479412666E+03  0.12260071669E+04  0.14348386205E+04  0.78947105923E+02 0.  0.
    5000000    2    1    2    0    0  0.66629154518E+03 -0.32479412666E+03  0.89523051794E+03  0.13080416957E+04  0.60008311884E+03 0.  0.
        -24    2    4    4    0    0  0.75755142041E+03 -0.23369158523E+03  0.80236828933E+03  0.11308389943E+04  0.80660074994E+02 0.  0.
         24    2    4    4    0    0 -0.91259875230E+02 -0.91102541431E+02  0.92862228613E+02  0.17720270140E+03  0.78417893366E+02 0.  0.
         13    1    3    3    0    0 -0.31888709214E+03  0.19425803272E+03  0.65041991150E+03  0.74998081448E+03  0.00000000000E+00 0. -1.
        -14    1    3    3    0    0 -0.34740445304E+03  0.13053609394E+03  0.57558725542E+03  0.68485780598E+03  0.00000000000E+00 0.  1.
         15    1    5    5    0    0  0.42436382375E+03 -0.17256036436E+03  0.46418616695E+03  0.65217611853E+03  0.17770000000E+01 0. -1.
        -16    1    5    5    0    0  0.33318759666E+03 -0.61131220864E+02  0.33818212238E+03  0.47866287576E+03  0.00000000000E+00 0.  1.
          4    1    6    6  502    0 -0.38780972196E+02 -0.88794245026E+02  0.48039750805E+02  0.10814896861E+03  0.00000000000E+00 0. -1.
         -3    1    6    6    0  502 -0.52478903034E+02 -0.23082964056E+01  0.44822477807E+02  0.69053732794E+02  0.00000000000E+00 0.  1.
<mgrwt>
<rscale>  0 0.84539934E+03</rscale>
<asrwt>0</asrwt>
<pdfrwt beam="1">  1        1 0.37416291E+00 0.84539934E+03</pdfrwt>
<pdfrwt beam="2">  1       -2 0.47818666E-01 0.84539934E+03</pdfrwt>
<totfact> 0.56949944E+00</totfact>
</mgrwt>
</event>
<event>
12    3  0.1201947E-007  0.5455200E+03  0.7818608E-02  0.1002536E+00
          1   -1    0    0  501    0  0.00000000000E+00  0.00000000000E+00  0.20304810982E+04  0.20304810982E+04  0.00000000000E+00 0. -1.
         -2   -1    0    0    0  501 -0.00000000000E+00 -0.00000000000E+00 -0.17034259382E+03  0.17034259382E+03  0.00000000000E+00 0.  1.
        -24    2    1    2    0    0  0.26584026508E+03  0.33003532240E+03  0.54509929710E+03  0.69462646182E+03  0.76015243190E+02 0.  0.
    5000000    2    1    2    0    0 -0.26584026508E+03 -0.33003532240E+03  0.13150392073E+04  0.15061972302E+04  0.59975629970E+03 0.  0.
        -24    2    4    4    0    0  0.58879044813E+02  0.87366180855E+02  0.59129812976E+03  0.60614334862E+03  0.81711011184E+02 0.  0.
         24    2    4    4    0    0 -0.32471930989E+03 -0.41740150325E+03  0.72374107755E+03  0.90005388161E+03  0.81419882900E+02 0.  0.
         13    1    3    3    0    0  0.12769002094E+03  0.21180673297E+03  0.28624593501E+03  0.37829032355E+03  0.00000000000E+00 0. -1.
        -14    1    3    3    0    0  0.13815024414E+03  0.11822858942E+03  0.25885336209E+03  0.31633613827E+03  0.00000000000E+00 0.  1.
         15    1    5    5    0    0 -0.20388338500E+02  0.23993722716E+02  0.15834985269E+03  0.16145964404E+03  0.17770000000E+01 0. -1.
        -16    1    5    5    0    0  0.79267383313E+02  0.63372458139E+02  0.43294827707E+03  0.44468370458E+03  0.00000000000E+00 0.  1.
          4    1    6    6  502    0 -0.17067380559E+03 -0.21483423482E+03  0.30689679825E+03  0.41166605537E+03  0.00000000000E+00 0. -1.
         -3    1    6    6    0  502 -0.15404550430E+03 -0.20256726843E+03  0.41684427930E+03  0.48838782624E+03  0.00000000000E+00 0.  1.
<mgrwt>
<rscale>  0 0.54552000E+03</rscale>
<asrwt>0</asrwt>
<pdfrwt beam="1">  1        1 0.31238169E+00 0.54552000E+03</pdfrwt>
<pdfrwt beam="2">  1       -2 0.26206554E-01 0.54552000E+03</pdfrwt>
<totfact> 0.35003768E+01</totfact>
</mgrwt>
</event>
<event>
12    3  0.1201947E-007  0.7896705E+03  0.7818608E-02  0.9575090E-01
          1   -1    0    0  501    0  0.00000000000E+00  0.00000000000E+00  0.10683785105E+04  0.10683785105E+04  0.00000000000E+00 0. -1.
         -2   -1    0    0    0  501 -0.00000000000E+00 -0.00000000000E+00 -0.82242266591E+03  0.82242266591E+03  0.00000000000E+00 0.  1.
        -24    2    1    2    0    0 -0.15789438653E+03 -0.69516587111E+03 -0.33596410107E+03  0.79217405529E+03  0.80508577252E+02 0.  0.
    5000000    2    1    2    0    0  0.15789438653E+03  0.69516587111E+03  0.58191994562E+03  0.10986271211E+04  0.60013706969E+03 0.  0.
        -24    2    4    4    0    0  0.19797909903E+03  0.44636101988E+02 -0.43099517636E+01  0.21840971702E+03  0.80598533168E+02 0.  0.
         24    2    4    4    0    0 -0.40084712500E+02  0.65052976912E+03  0.58622989739E+03  0.88021740407E+03  0.79507365351E+02 0.  0.
         13    1    3    3    0    0 -0.42093061622E+02 -0.22634477004E+03 -0.14953803528E+03  0.27452760290E+03  0.00000000000E+00 0. -1.
        -14    1    3    3    0    0 -0.11580132491E+03 -0.46882110107E+03 -0.18642606579E+03  0.51764645239E+03  0.00000000000E+00 0.  1.
         15    1    5    5    0    0  0.15852004746E+03  0.51599359237E+01  0.15063032231E+02  0.15932759665E+03  0.17770000000E+01 0. -1.
        -16    1    5    5    0    0  0.39459051572E+02  0.39476166064E+02 -0.19372983995E+02  0.59082120366E+02  0.00000000000E+00 0.  1.
          4    1    6    6  502    0 -0.73995537251E+01  0.97858737296E+02  0.12960480333E+03  0.16256841916E+03  0.00000000000E+00 0. -1.
         -3    1    6    6    0  502 -0.32685158775E+02  0.55267103183E+03  0.45662509405E+03  0.71764898491E+03  0.00000000000E+00 0.  1.
<mgrwt>
<rscale>  0 0.78967051E+03</rscale>
<asrwt>0</asrwt>
<pdfrwt beam="1">  1        1 0.16436593E+00 0.78967051E+03</pdfrwt>
<pdfrwt beam="2">  1       -2 0.12652656E+00 0.78967051E+03</pdfrwt>
<totfact> 0.55759827E+00</totfact>
</mgrwt>
</event>
<event>
12    3  0.1201947E-007  0.8547808E+03  0.7818608E-02  0.9483943E-01
         -2   -1    0    0    0  501 -0.00000000000E+00  0.00000000000E+00  0.68334601909E+03  0.68334601909E+03  0.00000000000E+00 0.  1.
          1   -1    0    0  501    0  0.00000000000E+00 -0.00000000000E+00 -0.12121297748E+04  0.12121297748E+04  0.00000000000E+00 0. -1.
        -24    2    1    2    0    0  0.25807851501E+03  0.76666157045E+03 -0.22699892360E+03  0.84405271742E+03  0.80758869171E+02 0.  0.
    5000000    2    1    2    0    0 -0.25807851501E+03 -0.76666157045E+03 -0.30178483208E+03  0.10514230765E+04  0.60003493008E+03 0.  0.
        -24    2    4    4    0    0 -0.14044564334E+03 -0.32811733892E+02  0.10985053570E+03  0.19809451753E+03  0.79829249439E+02 0.  0.
         24    2    4    4    0    0 -0.11763287167E+03 -0.73384983656E+03 -0.41163536779E+03  0.85332855893E+03  0.79704945607E+02 0.  0.
         11    1    3    3    0    0  0.84591985970E+01  0.10589307617E+03 -0.21063402200E+02  0.10829851584E+03  0.00000000000E+00 0. -1.
        -12    1    3    3    0    0  0.24961931641E+03  0.66076849428E+03 -0.20593552140E+03  0.73575420157E+03  0.00000000000E+00 0.  1.
         15    1    5    5    0    0 -0.38837882996E+01 -0.15432325384E+02  0.41325305911E+02  0.44319060414E+02  0.17770000000E+01 0. -1.
        -16    1    5    5    0    0 -0.13656185504E+03 -0.17379408507E+02  0.68525229791E+02  0.15377545711E+03  0.00000000000E+00 0.  1.
          2    1    6    6  502    0 -0.96779022329E+02 -0.57336997318E+03 -0.28347882241E+03  0.64689995212E+03  0.00000000000E+00 0. -1.
         -1    1    6    6    0  502 -0.20853849339E+02 -0.16047986338E+03 -0.12815654538E+03  0.20642860680E+03  0.00000000000E+00 0.  1.
<mgrwt>
<rscale>  0 0.85478083E+03</rscale>
<asrwt>0</asrwt>
<pdfrwt beam="1">  1        1 0.18648150E+00 0.85478083E+03</pdfrwt>
<pdfrwt beam="2">  1       -2 0.10513016E+00 0.85478083E+03</pdfrwt>
<totfact> 0.68266644E+00</totfact>
</mgrwt>
</event>
<event>
12    3  0.1201947E-007  0.6206179E+03  0.7818608E-02  0.9863530E-01
          1   -1    0    0  501    0  0.00000000000E+00  0.00000000000E+00  0.14373390373E+04  0.14373390373E+04  0.00000000000E+00 0. -1.
         -2   -1    0    0    0  501 -0.00000000000E+00 -0.00000000000E+00 -0.36076165028E+03  0.36076165028E+03  0.00000000000E+00 0.  1.
        -24    2    1    2    0    0 -0.32637356876E+03  0.37578362485E+03  0.84678199784E+03  0.98553161706E+03  0.80621196055E+02 0.  0.
    5000000    2    1    2    0    0  0.32637356876E+03 -0.37578362485E+03  0.22979538916E+03  0.81256907051E+03  0.59977456963E+03 0.  0.
        -24    2    4    4    0    0  0.47560166379E+03 -0.23767150418E+03  0.71907960025E+02  0.54244749448E+03  0.79961509846E+02 0.  0.
         24    2    4    4    0    0 -0.14922809503E+03 -0.13811212067E+03  0.15788742913E+03  0.27012157602E+03  0.81812244393E+02 0.  0.
         11    1    3    3    0    0 -0.31921961199E+03  0.35776172551E+03  0.77632765286E+03  0.91245780040E+03  0.00000000000E+00 0. -1.
        -12    1    3    3    0    0 -0.71539567711E+01  0.18021899341E+02  0.70454344985E+02  0.73073816655E+02  0.00000000000E+00 0.  1.
         15    1    5    5    0    0  0.15764589538E+03 -0.38878595718E+02  0.29999541882E+02  0.16512693232E+03  0.17770000000E+01 0. -1.
        -16    1    5    5    0    0  0.31795576841E+03 -0.19879290846E+03  0.41908418143E+02  0.37732056217E+03  0.00000000000E+00 0.  1.
          2    1    6    6  502    0 -0.56170729945E+02 -0.69659623079E+02  0.11760222104E+03  0.14777650823E+03  0.00000000000E+00 0. -1.
         -1    1    6    6    0  502 -0.93057365082E+02 -0.68452497592E+02  0.40285208092E+02  0.12234506779E+03  0.00000000000E+00 0.  1.
<mgrwt>
<rscale>  0 0.62061788E+03</rscale>
<asrwt>0</asrwt>
<pdfrwt beam="1">  1        1 0.22112908E+00 0.62061788E+03</pdfrwt>
<pdfrwt beam="2">  1       -2 0.55501793E-01 0.62061788E+03</pdfrwt>
<totfact> 0.20278015E+01</totfact>
</mgrwt>
</event>
<event>
12    3  0.1201947E-007  0.2789165E+04  0.7818608E-02  0.8306640E-01
         -2   -1    0    0    0  501 -0.00000000000E+00  0.00000000000E+00  0.27928843334E+04  0.27928843334E+04  0.00000000000E+00 0.  1.
          1   -1    0    0  501    0  0.00000000000E+00 -0.00000000000E+00 -0.27989989528E+04  0.27989989528E+04  0.00000000000E+00 0. -1.
        -24    2    1    2    0    0  0.21505701668E+04  0.17328231857E+04 -0.90417253736E+02  0.27644214249E+04  0.78881553416E+02 0.  0.
    5000000    2    1    2    0    0 -0.21505701668E+04 -0.17328231857E+04  0.84302634372E+02  0.28274618613E+04  0.59983781745E+03 0.  0.
        -24    2    4    4    0    0 -0.96215069269E+03 -0.11235058438E+04  0.14597434746E+03  0.14880244839E+04  0.70064384038E+02 0.  0.
         24    2    4    4    0    0 -0.11884194742E+04 -0.60931734185E+03 -0.61671713087E+02  0.13394373774E+04  0.81735047982E+02 0.  0.
         11    1    3    3    0    0  0.11583259644E+04  0.91696568806E+03 -0.11115245568E+02  0.14773857524E+04  0.00000000000E+00 0. -1.
        -12    1    3    3    0    0  0.99224420247E+03  0.81585749764E+03 -0.79302008167E+02  0.12870356725E+04  0.00000000000E+00 0.  1.
         15    1    5    5    0    0 -0.55279459728E+03 -0.69743998438E+03  0.81835389903E+02  0.89370273994E+03  0.17770000000E+01 0. -1.
        -16    1    5    5    0    0 -0.40935609541E+03 -0.42606585946E+03  0.64138957556E+02  0.59432174395E+03  0.00000000000E+00 0.  1.
          2    1    6    6  502    0 -0.86614001102E+03 -0.43683413538E+03 -0.80663851643E+02  0.97341113487E+03  0.00000000000E+00 0. -1.
         -1    1    6    6    0  502 -0.32227946313E+03 -0.17248320647E+03  0.18992138556E+02  0.36602624250E+03  0.00000000000E+00 0.  1.
<mgrwt>
<rscale>  0 0.27891646E+04</rscale>
<asrwt>0</asrwt>
<pdfrwt beam="1">  1        1 0.43061522E+00 0.27891646E+04</pdfrwt>
<pdfrwt beam="2">  1       -2 0.42967451E+00 0.27891646E+04</pdfrwt>
<totfact> 0.28108425E-03</totfact>
</mgrwt>
</event>
<event>
12    3  0.1201947E-007  0.4947977E+03  0.7818608E-02  0.1015146E+00
         -2   -1    0    0    0  501 -0.00000000000E+00  0.00000000000E+00  0.36485301644E+03  0.36485301644E+03  0.00000000000E+00 0.  1.
          1   -1    0    0  501    0  0.00000000000E+00 -0.00000000000E+00 -0.72352117612E+03  0.72352117612E+03  0.00000000000E+00 0. -1.
        -24    2    1    2    0    0 -0.24014675812E+03 -0.20921435860E+03 -0.21813881155E+03  0.39505406558E+03  0.83916984866E+02 0.  0.
    5000000    2    1    2    0    0  0.24014675812E+03  0.20921435860E+03 -0.14052934813E+03  0.69332012697E+03  0.59958584665E+03 0.  0.
        -24    2    4    4    0    0 -0.10104164712E+03  0.28407668467E+03 -0.12102159075E+03  0.33453070950E+03  0.79721972777E+02 0.  0.
         24    2    4    4    0    0  0.34118840524E+03 -0.74862326071E+02 -0.19507757382E+02  0.35878941748E+03  0.79595211933E+02 0.  0.
         13    1    3    3    0    0 -0.10857704897E+03 -0.14918083864E+03 -0.12973938058E+03  0.22555754266E+03  0.00000000000E+00 0. -1.
        -14    1    3    3    0    0 -0.13156970915E+03 -0.60033519958E+02 -0.88399430968E+02  0.16949652292E+03  0.00000000000E+00 0.  1.
         15    1    5    5    0    0 -0.64979303590E+02  0.12732803647E+03 -0.94868476559E+02  0.17157483597E+03  0.17770000000E+01 0. -1.
        -16    1    5    5    0    0 -0.36062343527E+02  0.15674864820E+03 -0.26153114193E+02  0.16295587352E+03  0.00000000000E+00 0.  1.
          4    1    6    6  502    0  0.13353782282E+03  0.63656992207E+01 -0.23718226172E+02  0.13577712069E+03  0.00000000000E+00 0. -1.
         -3    1    6    6    0  502  0.20765058242E+03 -0.81228025292E+02  0.42104687908E+01  0.22301229679E+03  0.00000000000E+00 0.  1.
<mgrwt>
<rscale>  0 0.49479771E+03</rscale>
<asrwt>0</asrwt>
<pdfrwt beam="1">  1        1 0.11131095E+00 0.49479771E+03</pdfrwt>
<pdfrwt beam="2">  1       -2 0.56131234E-01 0.49479771E+03</pdfrwt>
<totfact> 0.70358191E+01</totfact>
</mgrwt>
</event>
<event>
12    3  0.1201947E-007  0.6478422E+03  0.7818608E-02  0.9810837E-01
         -2   -1    0    0    0  501 -0.00000000000E+00  0.00000000000E+00  0.28107448079E+03  0.28107448079E+03  0.00000000000E+00 0.  1.
          1   -1    0    0  501    0  0.00000000000E+00 -0.00000000000E+00 -0.19521313180E+04  0.19521313180E+04  0.00000000000E+00 0. -1.
        -24    2    1    2    0    0  0.34898356183E+02  0.52660603643E+03 -0.22155511181E+03  0.57806242462E+03  0.80855960331E+02 0.  0.
    5000000    2    1    2    0    0 -0.34898356183E+02 -0.52660603643E+03 -0.14495017254E+04  0.16551433741E+04  0.59992709909E+03 0.  0.
        -24    2    4    4    0    0 -0.28401990850E+03 -0.23276445307E+03 -0.49200312155E+03  0.61930633756E+03  0.81404355500E+02 0.  0.
         24    2    4    4    0    0  0.24912155232E+03 -0.29384158337E+03 -0.95749860381E+03  0.10358370366E+04  0.88036163440E+02 0.  0.
         11    1    3    3    0    0  0.63088233361E+01  0.38371786973E+03 -0.12650403881E+03  0.40408226468E+03  0.00000000000E+00 0. -1.
        -12    1    3    3    0    0  0.28589532847E+02  0.14288816671E+03 -0.95051073001E+02  0.17398015994E+03  0.00000000000E+00 0.  1.
         15    1    5    5    0    0 -0.17156317734E+03 -0.10376172416E+03 -0.21746130581E+03  0.29579215080E+03  0.17770000000E+01 0. -1.
        -16    1    5    5    0    0 -0.11245673116E+03 -0.12900272891E+03 -0.27454181574E+03  0.32351418676E+03  0.00000000000E+00 0.  1.
          4    1    6    6  502    0  0.19216550399E+03 -0.16351226793E+03 -0.58414756580E+03  0.63631141851E+03  0.00000000000E+00 0. -1.
         -3    1    6    6    0  502  0.56956048328E+02 -0.13032931544E+03 -0.37335103800E+03  0.39952561805E+03  0.00000000000E+00 0.  1.
<mgrwt>
<rscale>  0 0.64784223E+03</rscale>
<asrwt>0</asrwt>
<pdfrwt beam="1">  1        1 0.30032790E+00 0.64784223E+03</pdfrwt>
<pdfrwt beam="2">  1       -2 0.43242227E-01 0.64784223E+03</pdfrwt>
<totfact> 0.15081491E+01</totfact>
</mgrwt>
</event>
<event>
12    3  0.1201947E-007  0.8707971E+03  0.7818608E-02  0.9462841E-01
          1   -1    0    0  501    0  0.00000000000E+00  0.00000000000E+00  0.91951954012E+03  0.91951954012E+03  0.00000000000E+00 0. -1.
         -2   -1    0    0    0  501 -0.00000000000E+00 -0.00000000000E+00 -0.88841811446E+03  0.88841811446E+03  0.00000000000E+00 0.  1.
        -24    2    1    2    0    0 -0.65248288757E+03  0.42696448495E+03 -0.17413367471E+03  0.80300741600E+03  0.80410095801E+02 0.  0.
    5000000    2    1    2    0    0  0.65248288757E+03 -0.42696448495E+03  0.20523510038E+03  0.10049302386E+04  0.59977558137E+03 0.  0.
        -24    2    4    4    0    0 -0.52255054365E+02 -0.21811644577E+03  0.10181148531E+03  0.25955815173E+03  0.81850357139E+02 0.  0.
         24    2    4    4    0    0  0.70473794193E+03 -0.20884803917E+03  0.10342361507E+03  0.74537208685E+03  0.67897227027E+02 0.  0.
         11    1    3    3    0    0 -0.39514206510E+03  0.25233343776E+03 -0.14449283435E+03  0.49059921994E+03  0.00000000000E+00 0. -1.
        -12    1    3    3    0    0 -0.25734082247E+03  0.17463104718E+03 -0.29640840358E+02  0.31240819606E+03  0.00000000000E+00 0.  1.
         15    1    5    5    0    0 -0.15007524472E+02 -0.11356167824E+03  0.94178754614E+02  0.14830467324E+03  0.17770000000E+01 0. -1.
        -16    1    5    5    0    0 -0.37247529894E+02 -0.10455476753E+03  0.76327306910E+01  0.11125347849E+03  0.00000000000E+00 0.  1.
          2    1    6    6  502    0  0.22603561650E+03 -0.46912736537E+02  0.73444513362E+01  0.23096936104E+03  0.00000000000E+00 0. -1.
         -1    1    6    6    0  502  0.47870232544E+03 -0.16193530264E+03  0.96079163734E+02  0.51440272581E+03  0.00000000000E+00 0.  1.
<mgrwt>
<rscale>  0 0.87079715E+03</rscale>
<asrwt>0</asrwt>
<pdfrwt beam="1">  1        1 0.14146454E+00 0.87079715E+03</pdfrwt>
<pdfrwt beam="2">  1       -2 0.13667971E+00 0.87079715E+03</pdfrwt>
<totfact> 0.59320472E+00</totfact>
</mgrwt>
</event>
<event>
12    3  0.1201947E-007  0.3157590E+03  0.7818608E-02  0.1077618E+00
         -2   -1    0    0    0  501 -0.00000000000E+00  0.00000000000E+00  0.89228764481E+02  0.89228764481E+02  0.00000000000E+00 0.  1.
          1   -1    0    0  501    0  0.00000000000E+00 -0.00000000000E+00 -0.13930537137E+04  0.13930537137E+04  0.00000000000E+00 0. -1.
        -24    2    1    2    0    0 -0.57364656743E+02  0.11522010606E+02 -0.16330132942E+03  0.19222966974E+03  0.82833937274E+02 0.  0.
    5000000    2    1    2    0    0  0.57364656743E+02 -0.11522010606E+02 -0.11405236198E+04  0.12900528084E+04  0.60001555037E+03 0.  0.
        -24    2    4    4    0    0 -0.24689474042E+03 -0.86571809770E+01 -0.71684570656E+03  0.76232120187E+03  0.78954975593E+02 0.  0.
         24    2    4    4    0    0  0.30425939716E+03 -0.28648296292E+01 -0.42367791323E+03  0.52773160657E+03  0.80097980049E+02 0.  0.
         13    1    3    3    0    0 -0.54997612357E+02 -0.10900985389E+01 -0.16933786547E+03  0.17804841578E+03  0.00000000000E+00 0. -1.
        -14    1    3    3    0    0 -0.23670443856E+01  0.12612109145E+02  0.60365360505E+01  0.14181253954E+02  0.00000000000E+00 0.  1.
         15    1    5    5    0    0 -0.15794163088E+03 -0.20937044664E+02 -0.34863266267E+03  0.38331685303E+03  0.17770000000E+01 0. -1.
        -16    1    5    5    0    0 -0.88953109541E+02  0.12279863687E+02 -0.36821304389E+03  0.37900434884E+03  0.00000000000E+00 0.  1.
          4    1    6    6  502    0  0.24227784360E+03  0.30443141208E+02 -0.32352415351E+03  0.40533099592E+03  0.00000000000E+00 0. -1.
         -3    1    6    6    0  502  0.61981553557E+02 -0.33307970837E+02 -0.10015375972E+03  0.12240061066E+03  0.00000000000E+00 0.  1.
<mgrwt>
<rscale>  0 0.31575898E+03</rscale>
<asrwt>0</asrwt>
<pdfrwt beam="1">  1        1 0.21431595E+00 0.31575898E+03</pdfrwt>
<pdfrwt beam="2">  1       -2 0.13727503E-01 0.31575898E+03</pdfrwt>
<totfact> 0.29346394E+02</totfact>
</mgrwt>
</event>
<event>
12    3  0.1201947E-007  0.4804605E+03  0.7818608E-02  0.1019009E+00
         -2   -1    0    0    0  501 -0.00000000000E+00  0.00000000000E+00  0.92877203127E+02  0.92877203127E+02  0.00000000000E+00 0.  1.
          1   -1    0    0  501    0  0.00000000000E+00 -0.00000000000E+00 -0.29178840496E+04  0.29178840496E+04  0.00000000000E+00 0. -1.
        -24    2    1    2    0    0 -0.25214885641E+03 -0.21909527766E+03 -0.11583837092E+04  0.12082257002E+04  0.79841959243E+02 0.  0.
    5000000    2    1    2    0    0  0.25214885641E+03  0.21909527766E+03 -0.16666231373E+04  0.18025355526E+04  0.59993328785E+03 0.  0.
        -24    2    4    4    0    0 -0.83311117664E+02 -0.11246268632E+03 -0.76458823653E+03  0.78161144761E+03  0.82052942971E+02 0.  0.
         24    2    4    4    0    0  0.33545997408E+03  0.33155796398E+03 -0.90203490079E+03  0.10209241049E+04  0.78453732359E+02 0.  0.
         11    1    3    3    0    0 -0.10781029204E+03 -0.56790757832E+02 -0.51298572100E+03  0.52725951788E+03  0.00000000000E+00 0. -1.
        -12    1    3    3    0    0 -0.14433856437E+03 -0.16230451983E+03 -0.64539798819E+03  0.68096618233E+03  0.00000000000E+00 0.  1.
         15    1    5    5    0    0 -0.50915258259E+02 -0.93970440934E+02 -0.36623326136E+03  0.38151378317E+03  0.17770000000E+01 0. -1.
        -16    1    5    5    0    0 -0.32395859405E+02 -0.18492245386E+02 -0.39835497517E+03  0.40009766444E+03  0.00000000000E+00 0.  1.
          2    1    6    6  502    0  0.20072607008E+03  0.14532490590E+03 -0.44533290131E+03  0.50963877057E+03  0.00000000000E+00 0. -1.
         -1    1    6    6    0  502  0.13473390400E+03  0.18623305809E+03 -0.45670199948E+03  0.51128533437E+03  0.00000000000E+00 0.  1.
<mgrwt>
<rscale>  0 0.48046045E+03</rscale>
<asrwt>0</asrwt>
<pdfrwt beam="1">  1        1 0.44890530E+00 0.48046045E+03</pdfrwt>
<pdfrwt beam="2">  1       -2 0.14288798E-01 0.48046045E+03</pdfrwt>
<totfact> 0.25399388E+01</totfact>
</mgrwt>
</event>
<event>
12    3  0.1201947E-007  0.4671369E+03  0.7818608E-02  0.1022731E+00
         -2   -1    0    0    0  501 -0.00000000000E+00  0.00000000000E+00  0.63716256032E+03  0.63716256032E+03  0.00000000000E+00 0.  1.
          1   -1    0    0  501    0  0.00000000000E+00 -0.00000000000E+00 -0.74441106104E+03  0.74441106104E+03  0.00000000000E+00 0. -1.
        -24    2    1    2    0    0  0.33404217145E+02 -0.32044308083E+03 -0.49611018446E+03  0.59737694399E+03  0.83272374172E+02 0.  0.
    5000000    2    1    2    0    0 -0.33404217145E+02  0.32044308083E+03  0.38886168374E+03  0.78419667737E+03  0.59995950691E+03 0.  0.
        -24    2    4    4    0    0 -0.17975650312E+03 -0.52641370285E+02  0.30504835272E+03  0.36692028693E+03  0.80575959092E+02 0.  0.
         24    2    4    4    0    0  0.14635228597E+03  0.37308445112E+03  0.83813331021E+02  0.41727639044E+03  0.80522743899E+02 0.  0.
         11    1    3    3    0    0  0.52823385862E+02 -0.25261436966E+03 -0.34732690039E+03  0.43271272871E+03  0.00000000000E+00 0. -1.
        -12    1    3    3    0    0 -0.19419168717E+02 -0.67828711179E+02 -0.14878328407E+03  0.16466421528E+03  0.00000000000E+00 0.  1.
         15    1    5    5    0    0 -0.18559686665E+02 -0.36371166114E+02  0.77058688039E+02  0.87226846927E+02  0.17770000000E+01 0. -1.
        -16    1    5    5    0    0 -0.16119681645E+03 -0.16270204171E+02  0.22798966469E+03  0.27969344000E+03  0.00000000000E+00 0.  1.
          2    1    6    6  502    0  0.65672379129E+02  0.22157631172E+03  0.12622228885E+02  0.23144814528E+03  0.00000000000E+00 0. -1.
         -1    1    6    6    0  502  0.80679906843E+02  0.15150813940E+03  0.71191102136E+02  0.18582824515E+03  0.00000000000E+00 0.  1.
<mgrwt>
<rscale>  0 0.46713686E+03</rscale>
<asrwt>0</asrwt>
<pdfrwt beam="1">  1        1 0.11452478E+00 0.46713686E+03</pdfrwt>
<pdfrwt beam="2">  1       -2 0.98025009E-01 0.46713686E+03</pdfrwt>
<totfact> 0.19849838E+01</totfact>
</mgrwt>
</event>
<event>
12    3  0.1201947E-007  0.8545728E+03  0.7818608E-02  0.9484220E-01
         -2   -1    0    0    0  501 -0.00000000000E+00  0.00000000000E+00  0.83448231528E+03  0.83448231528E+03  0.00000000000E+00 0.  1.
          1   -1    0    0  501    0  0.00000000000E+00 -0.00000000000E+00 -0.11790551800E+04  0.11790551800E+04  0.00000000000E+00 0. -1.
        -24    2    1    2    0    0  0.29411944451E+03 -0.69535677851E+03 -0.65204678265E+03  0.10011190161E+04  0.83946295909E+02 0.  0.
    5000000    2    1    2    0    0 -0.29411944451E+03  0.69535677851E+03  0.30747391795E+03  0.10124184791E+04  0.60035295421E+03 0.  0.
        -24    2    4    4    0    0 -0.45627860250E+03  0.60373186190E+03  0.22475447567E+03  0.79361611622E+03  0.81422610030E+02 0.  0.
         24    2    4    4    0    0  0.16215915798E+03  0.91624916609E+02  0.82719442286E+02  0.21880236292E+03  0.79631966114E+02 0.  0.
         11    1    3    3    0    0 -0.33846763651E+01 -0.22403805785E+02 -0.30209224055E+02  0.37762200225E+02  0.00000000000E+00 0. -1.
        -12    1    3    3    0    0  0.29750412088E+03 -0.67295297273E+03 -0.62183755859E+03  0.96335681589E+03  0.00000000000E+00 0.  1.
         15    1    5    5    0    0 -0.13754762892E+03  0.23889295420E+03  0.10117578286E+03  0.29364756181E+03  0.17770000000E+01 0. -1.
        -16    1    5    5    0    0 -0.31873097357E+03  0.36483890770E+03  0.12357869281E+03  0.49996855441E+03  0.00000000000E+00 0.  1.
          2    1    6    6  502    0  0.11948710590E+03  0.86700549466E+02  0.93200883830E+02  0.17458682224E+03  0.00000000000E+00 0. -1.
         -1    1    6    6    0  502  0.42672052084E+02  0.49243671427E+01 -0.10481441544E+02  0.44215540681E+02  0.00000000000E+00 0.  1.
<mgrwt>
<rscale>  0 0.85457277E+03</rscale>
<asrwt>0</asrwt>
<pdfrwt beam="1">  1        1 0.18139310E+00 0.85457277E+03</pdfrwt>
<pdfrwt beam="2">  1       -2 0.12838190E+00 0.85457277E+03</pdfrwt>
<totfact> 0.44120932E+00</totfact>
</mgrwt>
</event>
<event>
12    3  0.1201947E-007  0.6788430E+03  0.7818608E-02  0.9754114E-01
          1   -1    0    0  501    0  0.00000000000E+00  0.00000000000E+00  0.59896796584E+03  0.59896796584E+03  0.00000000000E+00 0. -1.
         -2   -1    0    0    0  501 -0.00000000000E+00 -0.00000000000E+00 -0.12765924157E+04  0.12765924157E+04  0.00000000000E+00 0.  1.
        -24    2    1    2    0    0  0.23867803552E+02 -0.56020885508E+03  0.26482060307E+03  0.62548364619E+03  0.81830351843E+02 0.  0.
    5000000    2    1    2    0    0 -0.23867803552E+02  0.56020885508E+03 -0.94244505290E+03  0.12500767353E+04  0.60007127334E+03 0.  0.
        -24    2    4    4    0    0  0.11655893562E+03  0.62684730077E+03 -0.70078179593E+03  0.95081202089E+03  0.80155159555E+02 0.  0.
         24    2    4    4    0    0 -0.14042673917E+03 -0.66638445683E+02 -0.24166325697E+03  0.29926471443E+03  0.83653380196E+02 0.  0.
         11    1    3    3    0    0  0.11084856872E+01 -0.16869120390E+03  0.12167682550E+03  0.20799807903E+03  0.00000000000E+00 0. -1.
        -12    1    3    3    0    0  0.22759317865E+02 -0.39151765118E+03  0.14314377757E+03  0.41748556717E+03  0.00000000000E+00 0.  1.
         15    1    5    5    0    0  0.97549398805E+02  0.41902834430E+03 -0.42276453087E+03  0.60318624390E+03  0.17770000000E+01 0. -1.
        -16    1    5    5    0    0  0.19009536811E+02  0.20781895647E+03 -0.27801726506E+03  0.34762577699E+03  0.00000000000E+00 0.  1.
          2    1    6    6  502    0 -0.66011066726E+02 -0.46663744868E+02 -0.19004139905E+03  0.20652045750E+03  0.00000000000E+00 0. -1.
         -3    1    6    6    0  502 -0.74415672442E+02 -0.19974700815E+02 -0.51621857918E+02  0.92744256925E+02  0.00000000000E+00 0.  1.
<mgrwt>
<rscale>  0 0.67884296E+03</rscale>
<asrwt>0</asrwt>
<pdfrwt beam="1">  1        1 0.92148919E-01 0.67884296E+03</pdfrwt>
<pdfrwt beam="2">  1       -2 0.19639883E+00 0.67884296E+03</pdfrwt>
<totfact> 0.43735479E+00</totfact>
</mgrwt>
</event>
<event>
12    3  0.1201947E-007  0.8102621E+03  0.7818608E-02  0.9545281E-01
         -2   -1    0    0    0  501 -0.00000000000E+00  0.00000000000E+00  0.85700787909E+03  0.85700787909E+03  0.00000000000E+00 0.  1.
          1   -1    0    0  501    0  0.00000000000E+00 -0.00000000000E+00 -0.83609511743E+03  0.83609511743E+03  0.00000000000E+00 0. -1.
        -24    2    1    2    0    0 -0.68046085822E+03  0.25564937850E+03  0.13603271825E+03  0.74354285696E+03  0.77249565751E+02 0.  0.
    5000000    2    1    2    0    0  0.68046085822E+03 -0.25564937850E+03 -0.11511995659E+03  0.94956013956E+03  0.60002355782E+03 0.  0.
        -24    2    4    4    0    0  0.50452666457E+03 -0.40596958555E+03 -0.21290993301E+03  0.68637555157E+03  0.80139244812E+02 0.  0.
         24    2    4    4    0    0  0.17593419365E+03  0.15032020705E+03  0.97789976428E+02  0.26318458799E+03  0.78448981665E+02 0.  0.
         11    1    3    3    0    0 -0.29241502534E+03  0.86484553057E+02  0.88783717133E+02  0.31759828934E+03  0.00000000000E+00 0. -1.
        -12    1    3    3    0    0 -0.38804583288E+03  0.16916482544E+03  0.47249001113E+02  0.42594456763E+03  0.00000000000E+00 0.  1.
         15    1    5    5    0    0  0.97641065663E+02 -0.41816403888E+02 -0.27826556927E+02  0.10981741363E+03  0.17770000000E+01 0. -1.
        -16    1    5    5    0    0  0.40688559891E+03 -0.36415318166E+03 -0.18508337609E+03  0.57655813793E+03  0.00000000000E+00 0.  1.
          2    1    6    6  502    0  0.74965735754E+02  0.10575206332E+03  0.77316313901E+02  0.15093433284E+03  0.00000000000E+00 0. -1.
         -1    1    6    6    0  502  0.10096845790E+03  0.44568143732E+02  0.20473662527E+02  0.11225025516E+03  0.00000000000E+00 0.  1.
<mgrwt>
<rscale>  0 0.81026206E+03</rscale>
<asrwt>0</asrwt>
<pdfrwt beam="1">  1        1 0.12863002E+00 0.81026206E+03</pdfrwt>
<pdfrwt beam="2">  1       -2 0.13184737E+00 0.81026206E+03</pdfrwt>
<totfact> 0.76741214E+00</totfact>
</mgrwt>
</event>
<event>
12    3  0.1201947E-007  0.1210936E+04  0.7818608E-02  0.9103338E-01
          1   -1    0    0  501    0  0.00000000000E+00  0.00000000000E+00  0.80450811124E+03  0.80450811124E+03  0.00000000000E+00 0. -1.
         -2   -1    0    0    0  501 -0.00000000000E+00 -0.00000000000E+00 -0.20936301135E+04  0.20936301135E+04  0.00000000000E+00 0.  1.
        -24    2    1    2    0    0 -0.11151843209E+04 -0.29702446189E+03 -0.14480353573E+03  0.11657264916E+04  0.78042223838E+02 0.  0.
    5000000    2    1    2    0    0  0.11151843209E+04  0.29702446189E+03 -0.11443184666E+04  0.17324117332E+04  0.59993838006E+03 0.  0.
        -24    2    4    4    0    0 -0.45989051827E+02  0.54551142514E+02 -0.14351060377E+03  0.17832322930E+03  0.78186064458E+02 0.  0.
         24    2    4    4    0    0  0.11611733727E+04  0.24247331937E+03 -0.10008078628E+04  0.15540885039E+04  0.80360360866E+02 0.  0.
         11    1    3    3    0    0 -0.23841767132E+03 -0.58554242514E+02 -0.62846216656E+02  0.25341908425E+03  0.00000000000E+00 0. -1.
        -12    1    3    3    0    0 -0.87676664957E+03 -0.23847021937E+03 -0.81957319072E+02  0.91230740733E+03  0.00000000000E+00 0.  1.
         15    1    5    5    0    0 -0.24917648262E+02  0.52586054412E+02 -0.35346178031E+02  0.68107946261E+02  0.17770000000E+01 0. -1.
        -16    1    5    5    0    0 -0.21071403565E+02  0.19650881021E+01 -0.10816442574E+03  0.11021528304E+03  0.00000000000E+00 0.  1.
          4    1    6    6  502    0  0.40640700698E+03  0.11982262216E+03 -0.33394471267E+03  0.53948418626E+03  0.00000000000E+00 0. -1.
         -3    1    6    6    0  502  0.75476636573E+03  0.12265069721E+03 -0.66686315012E+03  0.10146043176E+04  0.00000000000E+00 0.  1.
<mgrwt>
<rscale>  0 0.12109360E+04</rscale>
<asrwt>0</asrwt>
<pdfrwt beam="1">  1        1 0.12377048E+00 0.12109360E+04</pdfrwt>
<pdfrwt beam="2">  1       -2 0.32209693E+00 0.12109360E+04</pdfrwt>
<totfact> 0.43900132E-01</totfact>
</mgrwt>
</event>
<event>
12    3  0.1201947E-007  0.6831416E+03  0.7818608E-02  0.9746505E-01
         -2   -1    0    0    0  501 -0.00000000000E+00  0.00000000000E+00  0.87959641806E+03  0.87959641806E+03  0.00000000000E+00 0.  1.
          1   -1    0    0  501    0  0.00000000000E+00 -0.00000000000E+00 -0.11050112649E+04  0.11050112649E+04  0.00000000000E+00 0. -1.
        -24    2    1    2    0    0  0.55474300361E+03  0.68665868098E+02  0.59789245114E+03  0.82255786568E+03  0.81677767880E+02 0.  0.
    5000000    2    1    2    0    0 -0.55474300361E+03 -0.68665868098E+02 -0.82330729796E+03  0.11620498172E+04  0.60005838833E+03 0.  0.
        -24    2    4    4    0    0  0.24814989314E+02 -0.19968158817E+03 -0.24681841429E+03  0.32865391647E+03  0.81274515235E+02 0.  0.
         24    2    4    4    0    0 -0.57955799292E+03  0.13101572008E+03 -0.57648888367E+03  0.83339590078E+03  0.95690691168E+02 0.  0.
         11    1    3    3    0    0  0.16185913679E+03 -0.13847147671E+02  0.19493421255E+03  0.25375080470E+03  0.00000000000E+00 0. -1.
        -12    1    3    3    0    0  0.39288386681E+03  0.82513015768E+02  0.40295823859E+03  0.56880706098E+03  0.00000000000E+00 0.  1.
         15    1    5    5    0    0  0.36049781041E+02 -0.86768860571E+02 -0.16086560699E+03  0.18630438299E+03  0.17770000000E+01 0. -1.
        -16    1    5    5    0    0 -0.11234791727E+02 -0.11291272760E+03 -0.85952807296E+02  0.14234953348E+03  0.00000000000E+00 0.  1.
          4    1    6    6  502    0 -0.13513342659E+03  0.43581923528E+02 -0.19492150759E+03  0.24115310731E+03  0.00000000000E+00 0. -1.
         -3    1    6    6    0  502 -0.44442456633E+03  0.87433796549E+02 -0.38156737607E+03  0.59224279347E+03  0.00000000000E+00 0.  1.
<mgrwt>
<rscale>  0 0.68314156E+03</rscale>
<asrwt>0</asrwt>
<pdfrwt beam="1">  1        1 0.17000173E+00 0.68314156E+03</pdfrwt>
<pdfrwt beam="2">  1       -2 0.13532253E+00 0.68314156E+03</pdfrwt>
<totfact> 0.44812269E+00</totfact>
</mgrwt>
</event>
<event>
12    3  0.1201947E-007  0.3868482E+03  0.7818608E-02  0.1048431E+00
         -4   -1    0    0    0  501 -0.00000000000E+00  0.00000000000E+00  0.70323166692E+03  0.70323166692E+03  0.00000000000E+00 0.  1.
          3   -1    0    0  501    0  0.00000000000E+00 -0.00000000000E+00 -0.35987275159E+03  0.35987275159E+03  0.00000000000E+00 0. -1.
        -24    2    1    2    0    0 -0.22555719505E+02  0.30343718165E+03  0.20864056327E+03  0.37688618300E+03  0.77002770067E+02 0.  0.
    5000000    2    1    2    0    0  0.22555719505E+02 -0.30343718165E+03  0.13471835205E+03  0.68621823552E+03  0.60013627510E+03 0.  0.
        -24    2    4    4    0    0 -0.12838983174E+03 -0.22867512969E+03  0.32139378073E+03  0.42242547398E+03  0.79831415756E+02 0.  0.
         24    2    4    4    0    0  0.15094555125E+03 -0.74762051959E+02 -0.18667542868E+03  0.26379276154E+03  0.79780834244E+02 0.  0.
         11    1    3    3    0    0 -0.44241398790E+02  0.10443113280E+03  0.82969881001E+02  0.14052460289E+03  0.00000000000E+00 0. -1.
        -12    1    3    3    0    0  0.21685679285E+02  0.19900604885E+03  0.12567068227E+03  0.23636158010E+03  0.00000000000E+00 0.  1.
         15    1    5    5    0    0 -0.11439846672E+03 -0.12488901531E+03  0.20187623322E+03  0.26351745028E+03  0.17770000000E+01 0. -1.
        -16    1    5    5    0    0 -0.13991365017E+02 -0.10378611438E+03  0.11951754751E+03  0.15890802370E+03  0.00000000000E+00 0.  1.
          2    1    6    6  502    0  0.69440713338E+02  0.79276583753E+01 -0.78460320663E+02  0.10507560304E+03  0.00000000000E+00 0. -1.
         -1    1    6    6    0  502  0.81504837908E+02 -0.82689710335E+02 -0.10821510802E+03  0.15871715849E+03  0.00000000000E+00 0.  1.
<mgrwt>
<rscale>  0 0.38684824E+03</rscale>
<asrwt>0</asrwt>
<pdfrwt beam="1">  1        3 0.55365039E-01 0.38684824E+03</pdfrwt>
<pdfrwt beam="2">  1       -4 0.10818949E+00 0.38684824E+03</pdfrwt>
<totfact> 0.49239451E+00</totfact>
</mgrwt>
</event>
<event>
12    3  0.1201947E-007  0.4805093E+03  0.7818608E-02  0.1018995E+00
          1   -1    0    0  501    0  0.00000000000E+00  0.00000000000E+00  0.14419394943E+04  0.14419394943E+04  0.00000000000E+00 0. -1.
         -2   -1    0    0    0  501 -0.00000000000E+00 -0.00000000000E+00 -0.29649435616E+03  0.29649435616E+03  0.00000000000E+00 0.  1.
        -24    2    1    2    0    0 -0.10515012111E+03  0.32915813790E+03  0.95857383934E+03  0.10213748496E+04  0.70293316196E+02 0.  0.
    5000000    2    1    2    0    0  0.10515012111E+03 -0.32915813790E+03  0.18687129879E+03  0.71705900080E+03  0.59987590434E+03 0.  0.
        -24    2    4    4    0    0 -0.15576111193E+03 -0.30334341225E+03 -0.51009409804E+02  0.35401615189E+03  0.80291507422E+02 0.  0.
         24    2    4    4    0    0  0.26091123304E+03 -0.25814725649E+02  0.23788070859E+03  0.36304284891E+03  0.80447542189E+02 0.  0.
         11    1    3    3    0    0 -0.63958492017E+02  0.26340913890E+03  0.67538531697E+03  0.72775022469E+03  0.00000000000E+00 0. -1.
        -12    1    3    3    0    0 -0.41191629093E+02  0.65748998998E+02  0.28318852238E+03  0.29362462496E+03  0.00000000000E+00 0.  1.
         15    1    5    5    0    0 -0.10575977281E+03 -0.24095400568E+03 -0.80936400379E+01  0.26327291379E+03  0.17770000000E+01 0. -1.
        -16    1    5    5    0    0 -0.50001339116E+02 -0.62389406573E+02 -0.42915769766E+02  0.90743238097E+02  0.00000000000E+00 0.  1.
          4    1    6    6  502    0  0.11418163734E+03 -0.41969897375E+02  0.14217332720E+03  0.18711540171E+03  0.00000000000E+00 0. -1.
         -3    1    6    6    0  502  0.14672959569E+03  0.16155171726E+02  0.95707381392E+02  0.17592744720E+03  0.00000000000E+00 0.  1.
<mgrwt>
<rscale>  0 0.48050928E+03</rscale>
<asrwt>0</asrwt>
<pdfrwt beam="1">  1        1 0.22183684E+00 0.48050928E+03</pdfrwt>
<pdfrwt beam="2">  1       -2 0.45614517E-01 0.48050928E+03</pdfrwt>
<totfact> 0.30650503E+01</totfact>
</mgrwt>
</event>
<event>
12    3  0.1201947E-007  0.1249022E+04  0.7818608E-02  0.9070998E-01
         -2   -1    0    0    0  501 -0.00000000000E+00  0.00000000000E+00  0.14237649647E+04  0.14237649647E+04  0.00000000000E+00 0.  1.
          1   -1    0    0  501    0  0.00000000000E+00 -0.00000000000E+00 -0.26669442636E+04  0.26669442636E+04  0.00000000000E+00 0. -1.
        -24    2    1    2    0    0  0.10353593898E+04 -0.56165554718E+03 -0.21742573840E+04  0.24738313526E+04  0.70854564787E+02 0.  0.
    5000000    2    1    2    0    0 -0.10353593898E+04  0.56165554718E+03  0.93107808508E+03  0.16168778758E+04  0.59996803651E+03 0.  0.
        -24    2    4    4    0    0 -0.91877175102E+03  0.67147372777E+03  0.83545952092E+03  0.14141038767E+04  0.81723101959E+02 0.  0.
         24    2    4    4    0    0 -0.11658763882E+03 -0.10981818059E+03  0.95618564155E+02  0.20277399909E+03  0.79508959130E+02 0.  0.
         13    1    3    3    0    0  0.34773585689E+03 -0.21763469811E+03 -0.71059211002E+03  0.82050364704E+03  0.00000000000E+00 0. -1.
        -14    1    3    3    0    0  0.68762353295E+03 -0.34402084907E+03 -0.14636652740E+04  0.16533277055E+04  0.00000000000E+00 0.  1.
         15    1    5    5    0    0 -0.19989993798E+03  0.18289091173E+03  0.22114921892E+03  0.34974162686E+03  0.17770000000E+01 0. -1.
        -16    1    5    5    0    0 -0.71887181304E+03  0.48858281604E+03  0.61431030200E+03  0.10643622498E+04  0.00000000000E+00 0.  1.
          2    1    6    6  502    0 -0.18914574073E+02 -0.71370744025E+02  0.38354312909E+02  0.83202148613E+02  0.00000000000E+00 0. -1.
         -1    1    6    6    0  502 -0.97673064747E+02 -0.38447436562E+02  0.57264251246E+02  0.11957185048E+03  0.00000000000E+00 0.  1.
<mgrwt>
<rscale>  0 0.12490221E+04</rscale>
<asrwt>0</asrwt>
<pdfrwt beam="1">  1        1 0.41029911E+00 0.12490221E+04</pdfrwt>
<pdfrwt beam="2">  1       -2 0.21904077E+00 0.12490221E+04</pdfrwt>
<totfact> 0.88676325E-02</totfact>
</mgrwt>
</event>
<event>
12    3  0.1201947E-007  0.5767915E+03  0.7818608E-02  0.9954762E-01
         -2   -1    0    0    0  501 -0.00000000000E+00  0.00000000000E+00  0.23665378473E+03  0.23665378473E+03  0.00000000000E+00 0.  1.
          1   -1    0    0  501    0  0.00000000000E+00 -0.00000000000E+00 -0.21814353471E+04  0.21814353471E+04  0.00000000000E+00 0. -1.
        -24    2    1    2    0    0  0.43252322133E+03  0.13393089186E+03 -0.14433144475E+04  0.15146565975E+04  0.77551229568E+02 0.  0.
    5000000    2    1    2    0    0 -0.43252322133E+03 -0.13393089186E+03 -0.50146711490E+03  0.90343253435E+03  0.59975599706E+03 0.  0.
        -24    2    4    4    0    0  0.41430387426E+02 -0.19719718871E+03 -0.16775246484E+02  0.21746883572E+03  0.80050467674E+02 0.  0.
         24    2    4    4    0    0 -0.47395360876E+03  0.63266296855E+02 -0.48469186841E+03  0.68596369863E+03  0.83578352213E+02 0.  0.
         11    1    3    3    0    0  0.41786300431E+03  0.11307333648E+03 -0.13832587157E+04  0.14494135863E+04  0.00000000000E+00 0. -1.
        -12    1    3    3    0    0  0.14660217017E+02  0.20857555379E+02 -0.60055731809E+02  0.65243011139E+02  0.00000000000E+00 0.  1.
         15    1    5    5    0    0  0.62299082666E+01  0.25615404320E+01  0.10712391107E+02  0.12778352735E+02  0.17770000000E+01 0. -1.
        -16    1    5    5    0    0  0.35200479160E+02 -0.19975872915E+03 -0.27487637591E+02  0.20469048298E+03  0.00000000000E+00 0.  1.
          4    1    6    6  502    0 -0.57988897738E+02  0.36605744181E+02 -0.70209919883E+02  0.98143393144E+02  0.00000000000E+00 0. -1.
         -3    1    6    6    0  502 -0.41596471102E+03  0.26660552674E+02 -0.41448194853E+03  0.58782030548E+03  0.00000000000E+00 0.  1.
<mgrwt>
<rscale>  0 0.57679154E+03</rscale>
<asrwt>0</asrwt>
<pdfrwt beam="1">  1        1 0.33560544E+00 0.57679154E+03</pdfrwt>
<pdfrwt beam="2">  1       -2 0.36408274E-01 0.57679154E+03</pdfrwt>
<totfact> 0.15003812E+01</totfact>
</mgrwt>
</event>
<event>
12    3  0.1201947E-007  0.8210239E+03  0.7818608E-02  0.9530075E-01
         -2   -1    0    0    0  501 -0.00000000000E+00  0.00000000000E+00  0.45213738696E+03  0.45213738696E+03  0.00000000000E+00 0.  1.
          1   -1    0    0  501    0  0.00000000000E+00 -0.00000000000E+00 -0.16842449178E+04  0.16842449178E+04  0.00000000000E+00 0. -1.
        -24    2    1    2    0    0  0.24126646788E+02  0.73567906777E+03 -0.27995057382E+03  0.79160326909E+03  0.80359355544E+02 0.  0.
    5000000    2    1    2    0    0 -0.24126646788E+02 -0.73567906777E+03 -0.95215695697E+03  0.13447790356E+04  0.60001833146E+03 0.  0.
        -24    2    4    4    0    0  0.20647203815E+03 -0.13721710907E+03 -0.10638751082E+03  0.28032360338E+03  0.76182560935E+02 0.  0.
         24    2    4    4    0    0 -0.23059868494E+03 -0.59846195869E+03 -0.84576944615E+03  0.10644554322E+04  0.80043373748E+02 0.  0.
         11    1    3    3    0    0  0.38371047230E+02  0.37785311939E+03 -0.17681786088E+03  0.41893898485E+03  0.00000000000E+00 0. -1.
        -12    1    3    3    0    0 -0.14244400443E+02  0.35782594838E+03 -0.10313271294E+03  0.37266428425E+03  0.00000000000E+00 0.  1.
         15    1    5    5    0    0  0.25083255951E+02  0.84412058867E+01 -0.76720267233E+01  0.27612341606E+02  0.17770000000E+01 0. -1.
        -16    1    5    5    0    0  0.18138878220E+03 -0.14565831496E+03 -0.98715484102E+02  0.25271126178E+03  0.00000000000E+00 0.  1.
          4    1    6    6  502    0 -0.96164445108E+02 -0.34405757581E+03 -0.50237199354E+03  0.61644207828E+03  0.00000000000E+00 0. -1.
         -3    1    6    6    0  502 -0.13443423983E+03 -0.25440438288E+03 -0.34339745261E+03  0.44801335396E+03  0.00000000000E+00 0.  1.
<mgrwt>
<rscale>  0 0.82102390E+03</rscale>
<asrwt>0</asrwt>
<pdfrwt beam="1">  1        1 0.25911460E+00 0.82102390E+03</pdfrwt>
<pdfrwt beam="2">  1       -2 0.69559599E-01 0.82102390E+03</pdfrwt>
<totfact> 0.82920855E+00</totfact>
</mgrwt>
</event>
<event>
12    3  0.1201947E-007  0.7093582E+03  0.7818608E-02  0.9701361E-01
         -2   -1    0    0    0  501 -0.00000000000E+00  0.00000000000E+00  0.71310072025E+03  0.71310072025E+03  0.00000000000E+00 0.  1.
          1   -1    0    0  501    0  0.00000000000E+00 -0.00000000000E+00 -0.86741567435E+03  0.86741567435E+03  0.00000000000E+00 0. -1.
        -24    2    1    2    0    0 -0.59880417543E+03  0.88473837613E+02 -0.35319185198E+03  0.70537911566E+03  0.80132091193E+02 0.  0.
    5000000    2    1    2    0    0  0.59880417543E+03 -0.88473837613E+02  0.19887689789E+03  0.87513727895E+03  0.59993264291E+03 0.  0.
        -24    2    4    4    0    0  0.62310846056E+03 -0.22880946096E+03  0.78893842872E+02  0.67327235678E+03  0.80333709741E+02 0.  0.
         24    2    4    4    0    0 -0.24304285124E+02  0.14033562334E+03  0.11998305501E+03  0.20186492217E+03  0.77902040125E+02 0.  0.
         13    1    3    3    0    0 -0.35293280740E+03  0.62268143894E+02 -0.25249226500E+03  0.43839620455E+03  0.00000000000E+00 0. -1.
        -14    1    3    3    0    0 -0.24587136804E+03  0.26205693719E+02 -0.10069958698E+03  0.26698291110E+03  0.00000000000E+00 0.  1.
         15    1    5    5    0    0  0.22865795469E+03 -0.95461390364E+02 -0.80044157796E+01  0.24792048260E+03  0.17770000000E+01 0. -1.
        -16    1    5    5    0    0  0.39445050587E+03 -0.13334807059E+03  0.86898258652E+02  0.42535187418E+03  0.00000000000E+00 0.  1.
          2    1    6    6  502    0  0.59229611911E+01  0.89913029748E+02  0.31149288507E+02  0.95339984068E+02  0.00000000000E+00 0. -1.
         -1    1    6    6    0  502 -0.30227246315E+02  0.50422593597E+02  0.88833766507E+02  0.10652493810E+03  0.00000000000E+00 0.  1.
<mgrwt>
<rscale>  0 0.70935818E+03</rscale>
<asrwt>0</asrwt>
<pdfrwt beam="1">  1        1 0.13344857E+00 0.70935818E+03</pdfrwt>
<pdfrwt beam="2">  1       -2 0.10970780E+00 0.70935818E+03</pdfrwt>
<totfact> 0.11525582E+01</totfact>
</mgrwt>
</event>
<event>
12    3  0.1201947E-007  0.1104452E+04  0.7818608E-02  0.9200864E-01
         -2   -1    0    0    0  501 -0.00000000000E+00  0.00000000000E+00  0.10236113640E+04  0.10236113640E+04  0.00000000000E+00 0.  1.
          1   -1    0    0  501    0  0.00000000000E+00 -0.00000000000E+00 -0.13874479763E+04  0.13874479763E+04  0.00000000000E+00 0. -1.
        -24    2    1    2    0    0  0.79405711938E+03  0.75436068092E+03 -0.38009726862E+03  0.11621165450E+04  0.80337941410E+02 0.  0.
    5000000    2    1    2    0    0 -0.79405711938E+03 -0.75436068092E+03  0.16260656241E+02  0.12489427953E+04  0.60000579267E+03 0.  0.
        -24    2    4    4    0    0 -0.17800672906E+03 -0.12305017328E+03 -0.23446570977E+03  0.32866407308E+03  0.78855330432E+02 0.  0.
         24    2    4    4    0    0 -0.61605039032E+03 -0.63131050764E+03  0.25072636602E+03  0.92027872222E+03  0.77318661987E+02 0.  0.
         11    1    3    3    0    0  0.49701982295E+03  0.43368246501E+03 -0.25783877100E+03  0.70823020035E+03  0.00000000000E+00 0. -1.
        -12    1    3    3    0    0  0.29703729643E+03  0.32067821591E+03 -0.12225849762E+03  0.45388634466E+03  0.00000000000E+00 0.  1.
         15    1    5    5    0    0 -0.18047519458E+03 -0.99328000022E+02 -0.20344720858E+03  0.28953630490E+03  0.17770000000E+01 0. -1.
        -16    1    5    5    0    0  0.24684655229E+01 -0.23722173262E+02 -0.31018501190E+02  0.39127768175E+02  0.00000000000E+00 0.  1.
          2    1    6    6  502    0 -0.32563379853E+03 -0.31960898635E+03  0.16846167164E+03  0.48638113626E+03  0.00000000000E+00 0. -1.
         -1    1    6    6    0  502 -0.29041659179E+03 -0.31170152129E+03  0.82264694375E+02  0.43389758596E+03  0.00000000000E+00 0.  1.
<mgrwt>
<rscale>  0 0.11044515E+04</rscale>
<asrwt>0</asrwt>
<pdfrwt beam="1">  1        1 0.21345353E+00 0.11044515E+04</pdfrwt>
<pdfrwt beam="2">  1       -2 0.15747867E+00 0.11044515E+04</pdfrwt>
<totfact> 0.17819943E+00</totfact>
</mgrwt>
</event>
<event>
12    3  0.1201947E-007  0.9917895E+03  0.7818608E-02  0.9317596E-01
         -2   -1    0    0    0  501 -0.00000000000E+00  0.00000000000E+00  0.54231627165E+03  0.54231627165E+03  0.00000000000E+00 0.  1.
          1   -1    0    0  501    0  0.00000000000E+00 -0.00000000000E+00 -0.18380797580E+04  0.18380797580E+04  0.00000000000E+00 0. -1.
        -24    2    1    2    0    0 -0.67233799451E+02  0.90140373789E+03 -0.51540220694E+03  0.10437714476E+04  0.82281938490E+02 0.  0.
    5000000    2    1    2    0    0  0.67233799451E+02 -0.90140373789E+03 -0.78036127944E+03  0.13366245821E+04  0.60046021061E+03 0.  0.
        -24    2    4    4    0    0  0.31269038903E+03 -0.62869311157E+03 -0.46052328948E+03  0.84385405862E+03  0.83532413846E+02 0.  0.
         24    2    4    4    0    0 -0.24545658958E+03 -0.27271062632E+03 -0.31983798996E+03  0.49277052347E+03  0.76853275151E+02 0.  0.
         11    1    3    3    0    0 -0.50294285209E+02  0.61926662196E+03 -0.30982208816E+03  0.69426968140E+03  0.00000000000E+00 0. -1.
        -12    1    3    3    0    0 -0.16939514242E+02  0.28213711593E+03 -0.20558011879E+03  0.34950176619E+03  0.00000000000E+00 0.  1.
         15    1    5    5    0    0  0.12219290828E+03 -0.16925350255E+03 -0.11609150796E+03  0.23886868968E+03  0.17770000000E+01 0. -1.
        -16    1    5    5    0    0  0.19049748075E+03 -0.45943960902E+03 -0.34443178151E+03  0.60498536894E+03  0.00000000000E+00 0.  1.
          2    1    6    6  502    0 -0.13587366129E+03 -0.99006146217E+02 -0.16500785221E+03  0.23556625419E+03  0.00000000000E+00 0. -1.
         -1    1    6    6    0  502 -0.10958292830E+03 -0.17370448010E+03 -0.15483013775E+03  0.25720426928E+03  0.00000000000E+00 0.  1.
<mgrwt>
<rscale>  0 0.99178947E+03</rscale>
<asrwt>0</asrwt>
<pdfrwt beam="1">  1        1 0.28278150E+00 0.99178947E+03</pdfrwt>
<pdfrwt beam="2">  1       -2 0.83433272E-01 0.99178947E+03</pdfrwt>
<totfact> 0.42613615E+00</totfact>
</mgrwt>
</event>
<event>
12    3  0.1201947E-007  0.3677788E+03  0.7818608E-02  0.1055546E+00
         -4   -1    0    0    0  501 -0.00000000000E+00  0.00000000000E+00  0.20573764059E+03  0.20573764059E+03  0.00000000000E+00 0.  1.
          1   -1    0    0  501    0  0.00000000000E+00 -0.00000000000E+00 -0.11873840207E+04  0.11873840207E+04  0.00000000000E+00 0. -1.
        -24    2    1    2    0    0  0.13876281194E+03 -0.26638551669E+03 -0.23950967875E+03  0.39257042775E+03  0.80810228635E+02 0.  0.
    5000000    2    1    2    0    0 -0.13876281194E+03  0.26638551669E+03 -0.74213670131E+03  0.10005512335E+04  0.60009959669E+03 0.  0.
        -24    2    4    4    0    0 -0.18715763722E+03  0.28421464083E+03 -0.11830469833E+03  0.36896018865E+03  0.79559260466E+02 0.  0.
         24    2    4    4    0    0  0.48394825286E+02 -0.17829124145E+02 -0.62383200298E+03  0.63159104485E+03  0.84148340513E+02 0.  0.
         13    1    3    3    0    0  0.28818419808E+02 -0.85243619962E+02 -0.11770380109E+03  0.14815924155E+03  0.00000000000E+00 0. -1.
        -14    1    3    3    0    0  0.10994439213E+03 -0.18114189672E+03 -0.12180587766E+03  0.24441118621E+03  0.00000000000E+00 0.  1.
         15    1    5    5    0    0 -0.64154095597E+02  0.14697114477E+03 -0.85584473297E+02  0.18178043122E+03  0.17770000000E+01 0. -1.
        -16    1    5    5    0    0 -0.12300354162E+03  0.13724349606E+03 -0.32720225035E+02  0.18717975743E+03  0.00000000000E+00 0.  1.
          2    1    6    6  502    0 -0.19325603552E+02 -0.17533383194E+01 -0.28632982373E+03  0.28698662182E+03  0.00000000000E+00 0. -1.
         -1    1    6    6    0  502  0.67720428838E+02 -0.16075785826E+02 -0.33750217925E+03  0.34460442303E+03  0.00000000000E+00 0.  1.
<mgrwt>
<rscale>  0 0.36777879E+03</rscale>
<asrwt>0</asrwt>
<pdfrwt beam="1">  1        1 0.18267446E+00 0.36777879E+03</pdfrwt>
<pdfrwt beam="2">  1       -4 0.31651945E-01 0.36777879E+03</pdfrwt>
<totfact> 0.53068784E+01</totfact>
</mgrwt>
</event>
<event>
12    3  0.1201947E-007  0.2011973E+04  0.7818608E-02  0.8601043E-01
          1   -1    0    0  501    0  0.00000000000E+00  0.00000000000E+00  0.20924425589E+04  0.20924425589E+04  0.00000000000E+00 0. -1.
         -2   -1    0    0    0  501 -0.00000000000E+00 -0.00000000000E+00 -0.20188272567E+04  0.20188272567E+04  0.00000000000E+00 0.  1.
        -24    2    1    2    0    0 -0.96346541629E+03 -0.17192592926E+04  0.43453697759E+03  0.20197632436E+04  0.80641500431E+02 0.  0.
    5000000    2    1    2    0    0  0.96346541629E+03  0.17192592926E+04 -0.36092167543E+03  0.20915065720E+04  0.60001430104E+03 0.  0.
        -24    2    4    4    0    0  0.66233450187E+03  0.61115492002E+03 -0.10628643349E+03  0.91157338999E+03  0.86440214981E+02 0.  0.
         24    2    4    4    0    0  0.30113091442E+03  0.11081043726E+04 -0.25463524193E+03  0.11799331820E+04  0.93957860101E+02 0.  0.
         11    1    3    3    0    0 -0.58735020688E+03 -0.10318325500E+04  0.22211566587E+03  0.12078882588E+04  0.00000000000E+00 0. -1.
        -12    1    3    3    0    0 -0.37611520942E+03 -0.68742674262E+03  0.21242131172E+03  0.81187498477E+03  0.00000000000E+00 0.  1.
         15    1    5    5    0    0  0.39438274221E+03  0.33964625654E+03 -0.10032800591E+03  0.53006244296E+03  0.17770000000E+01 0. -1.
        -16    1    5    5    0    0  0.26795175966E+03  0.27150866348E+03 -0.59584275871E+01  0.38151094704E+03  0.00000000000E+00 0.  1.
          4    1    6    6  502    0  0.23441988762E+03  0.71659035217E+03 -0.19023964680E+03  0.77758957024E+03  0.00000000000E+00 0. -1.
         -3    1    6    6    0  502  0.66711026797E+02  0.39151402042E+03 -0.64395595129E+02  0.40234361179E+03  0.00000000000E+00 0.  1.
<mgrwt>
<rscale>  0 0.20119725E+04</rscale>
<asrwt>0</asrwt>
<pdfrwt beam="1">  1        1 0.32191424E+00 0.20119725E+04</pdfrwt>
<pdfrwt beam="2">  1       -2 0.31058881E+00 0.20119725E+04</pdfrwt>
<totfact> 0.54986408E-02</totfact>
</mgrwt>
</event>
<event>
12    3  0.1201947E-007  0.5458885E+03  0.7818608E-02  0.1002450E+00
          3   -1    0    0  501    0  0.00000000000E+00  0.00000000000E+00  0.93280917409E+03  0.93280917409E+03  0.00000000000E+00 0. -1.
         -4   -1    0    0    0  501 -0.00000000000E+00 -0.00000000000E+00 -0.50653729668E+03  0.50653729668E+03  0.00000000000E+00 0.  1.
        -24    2    1    2    0    0 -0.31475808092E+03 -0.36770641713E+03  0.45106564449E+03  0.66798499274E+03  0.91994979160E+02 0.  0.
    5000000    2    1    2    0    0  0.31475808092E+03  0.36770641713E+03 -0.24793767079E+02  0.77136147803E+03  0.60008594402E+03 0.  0.
        -24    2    4    4    0    0 -0.16534023031E+02  0.24582220997E+03  0.21602800398E+03  0.33746848713E+03  0.80715230710E+02 0.  0.
         24    2    4    4    0    0  0.33129210395E+03  0.12188420716E+03 -0.24082177106E+03  0.43389299091E+03  0.75218242768E+02 0.  0.
         13    1    3    3    0    0 -0.19918559539E+03 -0.22280269891E+03  0.21654339527E+03  0.36906230651E+03  0.00000000000E+00 0. -1.
        -14    1    3    3    0    0 -0.11557248553E+03 -0.14490371821E+03  0.23452224922E+03  0.29892268623E+03  0.00000000000E+00 0.  1.
         15    1    5    5    0    0 -0.32194476543E+02  0.83665392499E+02  0.41759118477E+02  0.98910888818E+02  0.17770000000E+01 0. -1.
        -16    1    5    5    0    0  0.15660453512E+02  0.16215681747E+03  0.17426888550E+03  0.23855759831E+03  0.00000000000E+00 0.  1.
          2    1    6    6  502    0  0.23589225271E+03  0.10459893964E+03 -0.20831911690E+03  0.33163677046E+03  0.00000000000E+00 0. -1.
         -1    1    6    6    0  502  0.95399851248E+02  0.17285267519E+02 -0.32502654164E+02  0.10225622044E+03  0.00000000000E+00 0.  1.
<mgrwt>
<rscale>  0 0.54588850E+03</rscale>
<asrwt>0</asrwt>
<pdfrwt beam="1">  1        3 0.14350910E+00 0.54588850E+03</pdfrwt>
<pdfrwt beam="2">  1       -4 0.77928815E-01 0.54588850E+03</pdfrwt>
<totfact> 0.12097935E+00</totfact>
</mgrwt>
</event>
<event>
12    3  0.1201947E-007  0.8427826E+03  0.7818608E-02  0.9500075E-01
         -2   -1    0    0    0  501 -0.00000000000E+00  0.00000000000E+00  0.34454895552E+03  0.34454895552E+03  0.00000000000E+00 0.  1.
          1   -1    0    0  501    0  0.00000000000E+00 -0.00000000000E+00 -0.23360169039E+04  0.23360169039E+04  0.00000000000E+00 0. -1.
        -24    2    1    2    0    0 -0.65242920019E+03  0.35789630384E+03 -0.47010908560E+03  0.88388994287E+03  0.80655149716E+02 0.  0.
    5000000    2    1    2    0    0  0.65242920019E+03 -0.35789630384E+03 -0.15213588628E+04  0.17966759165E+04  0.59979824454E+03 0.  0.
        -24    2    4    4    0    0 -0.60122855874E+02  0.62661176412E+02 -0.26241295300E+03  0.28761807829E+03  0.79513648066E+02 0.  0.
         24    2    4    4    0    0  0.71255205607E+03 -0.42055748025E+03 -0.12589459098E+04  0.15090578382E+04  0.87816448553E+02 0.  0.
         11    1    3    3    0    0 -0.48421486587E+03  0.25437043653E+03 -0.38466671400E+03  0.66868291153E+03  0.00000000000E+00 0. -1.
        -12    1    3    3    0    0 -0.16821433432E+03  0.10352586731E+03 -0.85442371598E+02  0.21520703134E+03  0.00000000000E+00 0.  1.
         15    1    5    5    0    0 -0.27649709302E+02  0.73037879866E+02 -0.21837767313E+03  0.23192887740E+03  0.17770000000E+01 0. -1.
        -16    1    5    5    0    0 -0.32473146571E+02 -0.10376703453E+02 -0.44035279869E+02  0.55689200891E+02  0.00000000000E+00 0.  1.
          2    1    6    6  502    0  0.53505283505E+03 -0.29049642084E+03 -0.98070271831E+03  0.11543169099E+04  0.00000000000E+00 0. -1.
         -1    1    6    6    0  502  0.17749922101E+03 -0.13006105941E+03 -0.27824319146E+03  0.35474092832E+03  0.00000000000E+00 0.  1.
<mgrwt>
<rscale>  0 0.84278256E+03</rscale>
<asrwt>0</asrwt>
<pdfrwt beam="1">  1        1 0.35938721E+00 0.84278256E+03</pdfrwt>
<pdfrwt beam="2">  1       -2 0.53007533E-01 0.84278256E+03</pdfrwt>
<totfact> 0.53647600E+00</totfact>
</mgrwt>
</event>
<event>
12    3  0.1201947E-007  0.5946761E+03  0.7818608E-02  0.9916513E-01
          1   -1    0    0  501    0  0.00000000000E+00  0.00000000000E+00  0.85180197403E+03  0.85180197403E+03  0.00000000000E+00 0. -1.
         -2   -1    0    0    0  501 -0.00000000000E+00 -0.00000000000E+00 -0.49199663795E+03  0.49199663795E+03  0.00000000000E+00 0.  1.
        -24    2    1    2    0    0  0.44795904652E+03  0.15986347525E+03  0.31629866323E+03  0.57670585060E+03  0.79505695843E+02 0.  0.
    5000000    2    1    2    0    0 -0.44795904652E+03 -0.15986347525E+03  0.43506672849E+02  0.76709276138E+03  0.60026230592E+03 0.  0.
        -24    2    4    4    0    0 -0.43454970381E+03 -0.31659763727E+03  0.14502504382E+03  0.56339341994E+03  0.85512415952E+02 0.  0.
         24    2    4    4    0    0 -0.13409342709E+02  0.15673416202E+03 -0.10151837097E+03  0.20369934145E+03  0.80262282815E+02 0.  0.
         11    1    3    3    0    0  0.31924992070E+03  0.10989217189E+03  0.17967396731E+03  0.38246507794E+03  0.00000000000E+00 0. -1.
        -12    1    3    3    0    0  0.12870912582E+03  0.49971303352E+02  0.13662469592E+03  0.19424077266E+03  0.00000000000E+00 0.  1.
         15    1    5    5    0    0 -0.18807764387E+03 -0.89378441083E+02  0.71706752573E+02  0.22024241632E+03  0.17770000000E+01 0. -1.
        -16    1    5    5    0    0 -0.24647205994E+03 -0.22721919619E+03  0.73318291251E+02  0.34315100361E+03  0.00000000000E+00 0.  1.
          4    1    6    6  502    0 -0.34699908529E+02  0.47127448451E+02 -0.61994814691E+02  0.85255129452E+02  0.00000000000E+00 0. -1.
         -3    1    6    6    0  502  0.21290565821E+02  0.10960671357E+03 -0.39523556284E+02  0.11844421199E+03  0.00000000000E+00 0.  1.
<mgrwt>
<rscale>  0 0.59467614E+03</rscale>
<asrwt>0</asrwt>
<pdfrwt beam="1">  1        1 0.13104646E+00 0.59467614E+03</pdfrwt>
<pdfrwt beam="2">  1       -2 0.75691790E-01 0.59467614E+03</pdfrwt>
<totfact> 0.28401862E+01</totfact>
</mgrwt>
</event>
<event>
12    3  0.1201947E-007  0.4708139E+03  0.7818608E-02  0.1021691E+00
         -2   -1    0    0    0  501 -0.00000000000E+00  0.00000000000E+00  0.22708815535E+04  0.22708815535E+04  0.00000000000E+00 0.  1.
          1   -1    0    0  501    0  0.00000000000E+00 -0.00000000000E+00 -0.14130549287E+03  0.14130549287E+03  0.00000000000E+00 0. -1.
        -24    2    1    2    0    0 -0.10685373247E+03 -0.38497988135E+03  0.87809298086E+03  0.96791338755E+03  0.78624509980E+02 0.  0.
    5000000    2    1    2    0    0  0.10685373247E+03  0.38497988135E+03  0.12514830798E+04  0.14442736588E+04  0.60007438990E+03 0.  0.
        -24    2    4    4    0    0  0.22742010388E+03  0.31961230858E+03  0.36063102069E+03  0.53877946064E+03  0.79728556201E+02 0.  0.
         24    2    4    4    0    0 -0.12056637141E+03  0.65367572774E+02  0.89085205907E+03  0.90549419818E+03  0.86563169397E+02 0.  0.
         13    1    3    3    0    0 -0.65058682846E+02 -0.32469626184E+03  0.75817098998E+03  0.82733520698E+03  0.00000000000E+00 0. -1.
        -14    1    3    3    0    0 -0.41795049619E+02 -0.60283619509E+02  0.11992199088E+03  0.14057818056E+03  0.00000000000E+00 0.  1.
         15    1    5    5    0    0  0.15849694628E+03  0.27136941153E+03  0.30486797879E+03  0.43784732694E+03  0.17770000000E+01 0. -1.
        -16    1    5    5    0    0  0.68923157597E+02  0.48242897050E+02  0.55763041909E+02  0.10093213369E+03  0.00000000000E+00 0.  1.
          2    1    6    6  502    0 -0.16763705101E+02  0.18083666743E+02  0.43106491896E+03  0.43176962048E+03  0.00000000000E+00 0. -1.
         -1    1    6    6    0  502 -0.10380266631E+03  0.47283906031E+02  0.45978714011E+03  0.47372457770E+03  0.00000000000E+00 0.  1.
<mgrwt>
<rscale>  0 0.47081393E+03</rscale>
<asrwt>0</asrwt>
<pdfrwt beam="1">  1        1 0.21739308E-01 0.47081393E+03</pdfrwt>
<pdfrwt beam="2">  1       -2 0.34936636E+00 0.47081393E+03</pdfrwt>
<totfact> 0.35515299E+00</totfact>
</mgrwt>
</event>
<event>
12    3  0.1201947E-007  0.7672117E+03  0.7818608E-02  0.9608728E-01
          1   -1    0    0  501    0  0.00000000000E+00  0.00000000000E+00  0.33146751655E+04  0.33146751655E+04  0.00000000000E+00 0. -1.
         -2   -1    0    0    0  501 -0.00000000000E+00 -0.00000000000E+00 -0.21291012189E+03  0.21291012189E+03  0.00000000000E+00 0.  1.
        -24    2    1    2    0    0 -0.43968534948E+01  0.71998170514E+03  0.10991610709E+04  0.13165125350E+04  0.81591708999E+02 0.  0.
    5000000    2    1    2    0    0  0.43968534948E+01 -0.71998170514E+03  0.20026039726E+04  0.22110727523E+04  0.60002254685E+03 0.  0.
        -24    2    4    4    0    0  0.14031583423E+03 -0.62403193528E+03  0.18838898084E+04  0.19911605488E+04  0.81087182323E+02 0.  0.
         24    2    4    4    0    0 -0.13591898074E+03 -0.95949769867E+02  0.11871416421E+03  0.21991220354E+03  0.81166475942E+02 0.  0.
         13    1    3    3    0    0  0.17699788761E+02  0.23409560086E+03  0.41982097794E+03  0.48100279249E+03  0.00000000000E+00 0. -1.
        -14    1    3    3    0    0 -0.22096642256E+02  0.48588610428E+03  0.67934009300E+03  0.83550974255E+03  0.00000000000E+00 0.  1.
         15    1    5    5    0    0  0.75408976298E+02 -0.18873064860E+03  0.65700543594E+03  0.68772456115E+03  0.17770000000E+01 0. -1.
        -16    1    5    5    0    0  0.64906857935E+02 -0.43530128668E+03  0.12268843725E+04  0.13034359876E+04  0.00000000000E+00 0.  1.
          2    1    6    6  502    0 -0.91847858484E+02 -0.83463998485E+02  0.42855647285E+02  0.13129689507E+03  0.00000000000E+00 0. -1.
         -1    1    6    6    0  502 -0.44071122255E+02 -0.12485771382E+02  0.75858516928E+02  0.88615308465E+02  0.00000000000E+00 0.  1.
<mgrwt>
<rscale>  0 0.76721167E+03</rscale>
<asrwt>0</asrwt>
<pdfrwt beam="1">  1        1 0.50994999E+00 0.76721167E+03</pdfrwt>
<pdfrwt beam="2">  1       -2 0.32755406E-01 0.76721167E+03</pdfrwt>
<totfact> 0.28487913E+00</totfact>
</mgrwt>
</event>
<event>
12    3  0.1201947E-007  0.1360042E+04  0.7818608E-02  0.8983261E-01
         -2   -1    0    0    0  501 -0.00000000000E+00  0.00000000000E+00  0.14496263771E+04  0.14496263771E+04  0.00000000000E+00 0.  1.
          1   -1    0    0  501    0  0.00000000000E+00 -0.00000000000E+00 -0.13123947076E+04  0.13123947076E+04  0.00000000000E+00 0. -1.
        -24    2    1    2    0    0 -0.55761690573E+03  0.11884050390E+04  0.52394261402E+02  0.13162156753E+04  0.80220914058E+02 0.  0.
    5000000    2    1    2    0    0  0.55761690573E+03 -0.11884050390E+04  0.84837408131E+02  0.14458054093E+04  0.59992728352E+03 0.  0.
        -24    2    4    4    0    0  0.62018347700E+03 -0.87395737339E+03  0.20229714653E+03  0.10946976295E+04  0.94919591655E+02 0.  0.
         24    2    4    4    0    0 -0.62566571271E+02 -0.31444766563E+03 -0.11745973840E+03  0.35110777984E+03  0.81780026013E+02 0.  0.
         11    1    3    3    0    0 -0.35261219516E+03  0.83585211284E+03  0.45746015528E+02  0.90833738922E+03  0.00000000000E+00 0. -1.
        -12    1    3    3    0    0 -0.20500471058E+03  0.35255292618E+03  0.66482458736E+01  0.40787828612E+03  0.00000000000E+00 0.  1.
         15    1    5    5    0    0  0.96961660060E+01 -0.37359829920E+02 -0.34737280914E+01  0.38794291367E+02  0.17770000000E+01 0. -1.
        -16    1    5    5    0    0  0.61048731100E+03 -0.83659754347E+03  0.20577087463E+03  0.10559033381E+04  0.00000000000E+00 0.  1.
          2    1    6    6  502    0 -0.29728652052E+02 -0.28537238656E+03 -0.98919614717E+02  0.30349016778E+03  0.00000000000E+00 0. -1.
         -1    1    6    6    0  502 -0.32837919219E+02 -0.29075279072E+02 -0.18540123686E+02  0.47617612057E+02  0.00000000000E+00 0.  1.
<mgrwt>
<rscale>  0 0.13600416E+04</rscale>
<asrwt>0</asrwt>
<pdfrwt beam="1">  1        1 0.20190688E+00 0.13600416E+04</pdfrwt>
<pdfrwt beam="2">  1       -2 0.22301944E+00 0.13600416E+04</pdfrwt>
<totfact> 0.70393819E-01</totfact>
</mgrwt>
</event>
<event>
12    3  0.1201947E-007  0.1489724E+04  0.7818608E-02  0.8891315E-01
         -2   -1    0    0    0  501 -0.00000000000E+00  0.00000000000E+00  0.12321611507E+04  0.12321611507E+04  0.00000000000E+00 0.  1.
          1   -1    0    0  501    0  0.00000000000E+00 -0.00000000000E+00 -0.45285183955E+04  0.45285183955E+04  0.00000000000E+00 0. -1.
        -24    2    1    2    0    0 -0.83523841800E+02 -0.14444314280E+04 -0.38388242329E+04  0.41031534896E+04  0.77062867691E+02 0.  0.
    5000000    2    1    2    0    0  0.83523841800E+02  0.14444314280E+04  0.54246698810E+03  0.16575260566E+04  0.59980314510E+03 0.  0.
        -24    2    4    4    0    0  0.19089427820E+03  0.19858382669E+03 -0.13050097643E+02  0.28679539563E+03  0.78772661719E+02 0.  0.
         24    2    4    4    0    0 -0.10737043640E+03  0.12458476013E+04  0.55551708574E+03  0.13707306610E+04  0.81477948820E+02 0.  0.
         11    1    3    3    0    0  0.10524117293E+01 -0.55218359805E+03 -0.15141494864E+04  0.16116936746E+04  0.00000000000E+00 0. -1.
        -12    1    3    3    0    0 -0.84576253529E+02 -0.89224782991E+03 -0.23246747465E+04  0.24914598150E+04  0.00000000000E+00 0.  1.
         15    1    5    5    0    0  0.10629791399E+03  0.77501486078E+02 -0.38122372980E+02  0.13697517992E+03  0.17770000000E+01 0. -1.
        -16    1    5    5    0    0  0.84596364211E+02  0.12108234062E+03  0.25072275337E+02  0.14982021572E+03  0.00000000000E+00 0.  1.
          2    1    6    6  502    0 -0.38365463973E+02  0.76605978998E+03  0.30901366768E+03  0.82692741971E+03  0.00000000000E+00 0. -1.
         -1    1    6    6    0  502 -0.69004972427E+02  0.47978781129E+03  0.24650341806E+03  0.54380324125E+03  0.00000000000E+00 0.  1.
<mgrwt>
<rscale>  0 0.14897236E+04</rscale>
<asrwt>0</asrwt>
<pdfrwt beam="1">  1        1 0.69669514E+00 0.14897236E+04</pdfrwt>
<pdfrwt beam="2">  1       -2 0.18956325E+00 0.14897236E+04</pdfrwt>
<totfact> 0.39799257E-03</totfact>
</mgrwt>
</event>
<event>
12    3  0.1201947E-007  0.6210284E+03  0.7818608E-02  0.9862714E-01
          1   -1    0    0  501    0  0.00000000000E+00  0.00000000000E+00  0.10845957288E+04  0.10845957288E+04  0.00000000000E+00 0. -1.
         -2   -1    0    0    0  501 -0.00000000000E+00 -0.00000000000E+00 -0.39475523786E+03  0.39475523786E+03  0.00000000000E+00 0.  1.
        -24    2    1    2    0    0  0.31886476202E+03 -0.39538077072E+03  0.35670199485E+03  0.62548533969E+03  0.77426783051E+02 0.  0.
    5000000    2    1    2    0    0 -0.31886476202E+03  0.39538077072E+03  0.33313849604E+03  0.85386562692E+03  0.60008712783E+03 0.  0.
        -24    2    4    4    0    0  0.54405588895E+02  0.33895386628E+03  0.30236489252E+03  0.46471577792E+03  0.81771232390E+02 0.  0.
         24    2    4    4    0    0 -0.37327035091E+03  0.56426904435E+02  0.30773603522E+02  0.38914984900E+03  0.89307557863E+02 0.  0.
         11    1    3    3    0    0  0.11960693077E+03 -0.18053237706E+03  0.19158774905E+03  0.28914291041E+03  0.00000000000E+00 0. -1.
        -12    1    3    3    0    0  0.19925783125E+03 -0.21484839366E+03  0.16511424580E+03  0.33634242929E+03  0.00000000000E+00 0.  1.
         15    1    5    5    0    0  0.36667468475E+02  0.60072132704E+02  0.86962375681E+02  0.11188734015E+03  0.17770000000E+01 0. -1.
        -16    1    5    5    0    0  0.17738120420E+02  0.27888173358E+03  0.21540251684E+03  0.35282843777E+03  0.00000000000E+00 0.  1.
          4    1    6    6  502    0 -0.76255590047E+02 -0.13623977387E+02  0.32440376419E+02  0.83981580097E+02  0.00000000000E+00 0. -1.
         -3    1    6    6    0  502 -0.29701476086E+03  0.70050881822E+02 -0.16667728977E+01  0.30516826891E+03  0.00000000000E+00 0.  1.
<mgrwt>
<rscale>  0 0.62102844E+03</rscale>
<asrwt>0</asrwt>
<pdfrwt beam="1">  1        1 0.16686088E+00 0.62102844E+03</pdfrwt>
<pdfrwt beam="2">  1       -2 0.60731575E-01 0.62102844E+03</pdfrwt>
<totfact> 0.29937090E+01</totfact>
</mgrwt>
</event>
<event>
12    3  0.1201947E-007  0.1663711E+04  0.7818608E-02  0.8782336E-01
         -2   -1    0    0    0  501 -0.00000000000E+00  0.00000000000E+00  0.12813795770E+04  0.12813795770E+04  0.00000000000E+00 0.  1.
          1   -1    0    0  501    0  0.00000000000E+00 -0.00000000000E+00 -0.29636765014E+04  0.29636765014E+04  0.00000000000E+00 0. -1.
        -24    2    1    2    0    0  0.10238575668E+04 -0.12544887286E+04  0.26454505612E+03  0.16427262939E+04  0.80865955004E+02 0.  0.
    5000000    2    1    2    0    0 -0.10238575668E+04  0.12544887286E+04 -0.19468419806E+04  0.26023297845E+04  0.59991692975E+03 0.  0.
        -24    2    4    4    0    0 -0.32419520416E+03  0.81432513408E+03 -0.82442596673E+03  0.12059482162E+04  0.80031063869E+02 0.  0.
         24    2    4    4    0    0 -0.69966236262E+03  0.44016359452E+03 -0.11224160139E+04  0.13963815683E+04  0.82415802025E+02 0.  0.
         11    1    3    3    0    0  0.18754567367E+03 -0.23838946991E+03  0.18237884402E+02  0.30386763484E+03  0.00000000000E+00 0. -1.
        -12    1    3    3    0    0  0.83631189311E+03 -0.10160992587E+04  0.24630717172E+03  0.13388586590E+04  0.00000000000E+00 0.  1.
         15    1    5    5    0    0 -0.35583882167E+02  0.60144153835E+02 -0.42020788305E+02  0.81562468632E+02  0.17770000000E+01 0. -1.
        -16    1    5    5    0    0 -0.28861132199E+03  0.75418098024E+03 -0.78240517842E+03  0.11243857476E+04  0.00000000000E+00 0.  1.
          4    1    6    6  502    0 -0.29117183441E+03  0.13593450992E+03 -0.42859497606E+03  0.53567983129E+03  0.00000000000E+00 0. -1.
         -3    1    6    6    0  502 -0.40849052821E+03  0.30422908460E+03 -0.69382103779E+03  0.86070173698E+03  0.00000000000E+00 0.  1.
<mgrwt>
<rscale>  0 0.16637113E+04</rscale>
<asrwt>0</asrwt>
<pdfrwt beam="1">  1        1 0.45595023E+00 0.16637113E+04</pdfrwt>
<pdfrwt beam="2">  1       -2 0.19713532E+00 0.16637113E+04</pdfrwt>
<totfact> 0.71639894E-02</totfact>
</mgrwt>
</event>
<event>
12    3  0.1201947E-007  0.7012184E+03  0.7818608E-02  0.9715151E-01
         -2   -1    0    0    0  501 -0.00000000000E+00  0.00000000000E+00  0.29902433895E+03  0.29902433895E+03  0.00000000000E+00 0.  1.
          1   -1    0    0  501    0  0.00000000000E+00 -0.00000000000E+00 -0.25857658033E+04  0.25857658033E+04  0.00000000000E+00 0. -1.
        -24    2    1    2    0    0 -0.25947431484E+03  0.56243605915E+03 -0.17759688971E+04  0.18824256955E+04  0.76155991398E+02 0.  0.
    5000000    2    1    2    0    0  0.25947431484E+03 -0.56243605915E+03 -0.51077256731E+03  0.10023644468E+04  0.60015383690E+03 0.  0.
        -24    2    4    4    0    0  0.10473466971E+03  0.60184789311E+02  0.44451328184E+02  0.15014777050E+03  0.77310235459E+02 0.  0.
         24    2    4    4    0    0  0.15473964513E+03 -0.62262084846E+03 -0.55522389549E+03  0.85221667627E+03  0.79991314983E+02 0.  0.
         11    1    3    3    0    0 -0.18553527228E+03  0.31262829921E+03 -0.10397587672E+04  0.11014799520E+04  0.00000000000E+00 0. -1.
        -12    1    3    3    0    0 -0.73939042560E+02  0.24980775994E+03 -0.73621012987E+03  0.78094574348E+03  0.00000000000E+00 0.  1.
         15    1    5    5    0    0  0.55506839252E+02  0.18484442200E+01 -0.99026243539E+01  0.56441524146E+02  0.17770000000E+01 0. -1.
        -16    1    5    5    0    0  0.49227830456E+02  0.58336345091E+02  0.54353952538E+02  0.93706246358E+02  0.00000000000E+00 0.  1.
          2    1    6    6  502    0  0.82708401144E+02 -0.18070939683E+03 -0.17549315898E+03  0.26513093854E+03  0.00000000000E+00 0. -1.
         -1    1    6    6    0  502  0.72031243988E+02 -0.44191145163E+03 -0.37973073651E+03  0.58708573773E+03  0.00000000000E+00 0.  1.
<mgrwt>
<rscale>  0 0.70121842E+03</rscale>
<asrwt>0</asrwt>
<pdfrwt beam="1">  1        1 0.39781012E+00 0.70121842E+03</pdfrwt>
<pdfrwt beam="2">  1       -2 0.46003744E-01 0.70121842E+03</pdfrwt>
<totfact> 0.49490495E+00</totfact>
</mgrwt>
</event>
<event>
12    3  0.1201947E-007  0.6338981E+03  0.7818608E-02  0.9837471E-01
          1   -1    0    0  501    0  0.00000000000E+00  0.00000000000E+00  0.10940460058E+04  0.10940460058E+04  0.00000000000E+00 0. -1.
         -2   -1    0    0    0  501 -0.00000000000E+00 -0.00000000000E+00 -0.46903854083E+03  0.46903854083E+03  0.00000000000E+00 0.  1.
        -24    2    1    2    0    0 -0.29201517364E+03  0.50784288135E+03  0.30883281500E+03  0.66698809549E+03  0.79486842486E+02 0.  0.
    5000000    2    1    2    0    0  0.29201517364E+03 -0.50784288135E+03  0.31617464992E+03  0.89609645110E+03  0.59987097499E+03 0.  0.
        -24    2    4    4    0    0 -0.46756320457E+02 -0.97586658254E+01 -0.11669008995E+03  0.15029712604E+03  0.81800146342E+02 0.  0.
         24    2    4    4    0    0  0.33877149410E+03 -0.49808421552E+03  0.43286473988E+03  0.74579932505E+03  0.77399865969E+02 0.  0.
         11    1    3    3    0    0 -0.93561539674E+02  0.24173427583E+03  0.13754388442E+03  0.29344086621E+03  0.00000000000E+00 0. -1.
        -12    1    3    3    0    0 -0.19845363397E+03  0.26610860551E+03  0.17128893059E+03  0.37354722928E+03  0.00000000000E+00 0.  1.
         15    1    5    5    0    0 -0.81879072946E+01  0.19409577757E+02  0.28641226200E+01  0.21333880612E+02  0.17770000000E+01 0. -1.
        -16    1    5    5    0    0 -0.38568413163E+02 -0.29168243583E+02 -0.11955421257E+03  0.12896324543E+03  0.00000000000E+00 0.  1.
          4    1    6    6  502    0  0.10235497501E+02 -0.52694649785E+02  0.43763361926E+02  0.69258381241E+02  0.00000000000E+00 0. -1.
         -3    1    6    6    0  502  0.32853599660E+03 -0.44538956574E+03  0.38910137795E+03  0.67654094381E+03  0.00000000000E+00 0.  1.
<mgrwt>
<rscale>  0 0.63389812E+03</rscale>
<asrwt>0</asrwt>
<pdfrwt beam="1">  1        1 0.16831477E+00 0.63389812E+03</pdfrwt>
<pdfrwt beam="2">  1       -2 0.72159776E-01 0.63389812E+03</pdfrwt>
<totfact> 0.20294534E+01</totfact>
</mgrwt>
</event>
<event>
12    3  0.1201947E-007  0.5809684E+03  0.7818608E-02  0.9945697E-01
         -2   -1    0    0    0  501 -0.00000000000E+00  0.00000000000E+00  0.17104035281E+03  0.17104035281E+03  0.00000000000E+00 0.  1.
          1   -1    0    0  501    0  0.00000000000E+00 -0.00000000000E+00 -0.27245156660E+04  0.27245156660E+04  0.00000000000E+00 0. -1.
        -24    2    1    2    0    0 -0.41419818504E+03  0.22868228375E+03 -0.16178890901E+04  0.16875950511E+04  0.80970520824E+02 0.  0.
    5000000    2    1    2    0    0  0.41419818504E+03 -0.22868228375E+03 -0.93558622310E+03  0.12079609677E+04  0.59999366273E+03 0.  0.
        -24    2    4    4    0    0  0.13023330319E+02 -0.26949145973E+03 -0.64516401962E+03  0.70383839524E+03  0.79728416552E+02 0.  0.
         24    2    4    4    0    0  0.40117485472E+03  0.40809175980E+02 -0.29042220348E+03  0.50412257249E+03  0.84781241512E+02 0.  0.
         13    1    3    3    0    0 -0.52488609082E+02  0.63283495175E+02 -0.28753886876E+03  0.29906262871E+03  0.00000000000E+00 0. -1.
        -14    1    3    3    0    0 -0.36170957596E+03  0.16539878857E+03 -0.13303502214E+04  0.13885324224E+04  0.00000000000E+00 0.  1.
         15    1    5    5    0    0  0.15041679319E+02 -0.13200928794E+03 -0.22020232429E+03  0.25718655791E+03  0.17770000000E+01 0. -1.
        -16    1    5    5    0    0 -0.20183490000E+01 -0.13748217179E+03 -0.42496169533E+03  0.44665183733E+03  0.00000000000E+00 0.  1.
          4    1    6    6  502    0  0.25985792439E+03 -0.13530599101E+02 -0.19483330013E+03  0.32506804337E+03  0.00000000000E+00 0. -1.
         -3    1    6    6    0  502  0.14131693033E+03  0.54339775081E+02 -0.95588903351E+02  0.17905452912E+03  0.00000000000E+00 0.  1.
<mgrwt>
<rscale>  0 0.58096840E+03</rscale>
<asrwt>0</asrwt>
<pdfrwt beam="1">  1        1 0.41915625E+00 0.58096840E+03</pdfrwt>
<pdfrwt beam="2">  1       -2 0.26313901E-01 0.58096840E+03</pdfrwt>
<totfact> 0.11753129E+01</totfact>
</mgrwt>
</event>
<event>
12    3  0.1201947E-007  0.5105461E+03  0.7818608E-02  0.1011062E+00
         -2   -1    0    0    0  501 -0.00000000000E+00  0.00000000000E+00  0.51070285854E+03  0.51070285854E+03  0.00000000000E+00 0.  1.
          1   -1    0    0  501    0  0.00000000000E+00 -0.00000000000E+00 -0.87611545519E+03  0.87611545519E+03  0.00000000000E+00 0. -1.
        -24    2    1    2    0    0  0.41480013695E+03  0.23472906729E+03 -0.38906330537E+03  0.62028371171E+03  0.78897013750E+02 0.  0.
    5000000    2    1    2    0    0 -0.41480013695E+03 -0.23472906729E+03  0.23650708723E+02  0.76653460202E+03  0.59988253135E+03 0.  0.
        -24    2    4    4    0    0 -0.33374679400E+03 -0.75825985097E+02 -0.24988291326E+03  0.43122187681E+03  0.79839427449E+02 0.  0.
         24    2    4    4    0    0 -0.81053342952E+02 -0.15890308219E+03  0.27353362198E+03  0.33531272521E+03  0.76119297163E+02 0.  0.
         13    1    3    3    0    0  0.30124765555E+03  0.15178341342E+03 -0.23164429820E+03  0.40920341574E+03  0.00000000000E+00 0. -1.
        -14    1    3    3    0    0  0.11355248140E+03  0.82945653868E+02 -0.15741900716E+03  0.21108029597E+03  0.00000000000E+00 0.  1.
         15    1    5    5    0    0 -0.17873606875E+03 -0.80035121254E+02 -0.15115091391E+03  0.24739029774E+03  0.17770000000E+01 0. -1.
        -16    1    5    5    0    0 -0.15501072525E+03  0.42091361569E+01 -0.98731999346E+02  0.18383157907E+03  0.00000000000E+00 0.  1.
          2    1    6    6  502    0 -0.46377068639E+02 -0.14917546808E+03  0.20335187846E+03  0.25642959901E+03  0.00000000000E+00 0. -1.
         -1    1    6    6    0  502 -0.34676274313E+02 -0.97276141135E+01  0.70181743521E+02  0.78883126207E+02  0.00000000000E+00 0.  1.
<mgrwt>
<rscale>  0 0.51054607E+03</rscale>
<asrwt>0</asrwt>
<pdfrwt beam="1">  1        1 0.13478699E+00 0.51054607E+03</pdfrwt>
<pdfrwt beam="2">  1       -2 0.78569671E-01 0.51054607E+03</pdfrwt>
<totfact> 0.25239835E+01</totfact>
</mgrwt>
</event>
<event>
12    3  0.1201947E-007  0.5868255E+03  0.7818608E-02  0.9933122E-01
          1   -1    0    0  501    0  0.00000000000E+00  0.00000000000E+00  0.15857102524E+04  0.15857102524E+04  0.00000000000E+00 0. -1.
         -2   -1    0    0    0  501 -0.00000000000E+00 -0.00000000000E+00 -0.31540351986E+03  0.31540351986E+03  0.00000000000E+00 0.  1.
        -24    2    1    2    0    0  0.27214901689E+03  0.41061067623E+03  0.92619110751E+03  0.10522577733E+04  0.82159837961E+02 0.  0.
    5000000    2    1    2    0    0 -0.27214901689E+03 -0.41061067623E+03  0.34411562503E+03  0.84885599897E+03  0.59956211419E+03 0.  0.
        -24    2    4    4    0    0  0.11179045549E+03 -0.18390940423E+03  0.32517586712E+03  0.39810462277E+03  0.80175876730E+02 0.  0.
         24    2    4    4    0    0 -0.38393947238E+03 -0.22670127200E+03  0.18939757911E+02  0.45075137620E+03  0.63364844650E+02 0.  0.
         13    1    3    3    0    0  0.10794560995E+03  0.20227533992E+03  0.35691817395E+03  0.42421474603E+03  0.00000000000E+00 0. -1.
        -14    1    3    3    0    0  0.16420340693E+03  0.20833533632E+03  0.56927293356E+03  0.62804302726E+03  0.00000000000E+00 0.  1.
         15    1    5    5    0    0  0.96562862576E+02 -0.82631731916E+02  0.17293413804E+03  0.21462004421E+03  0.17770000000E+01 0. -1.
        -16    1    5    5    0    0  0.15227592917E+02 -0.10127767232E+03  0.15224172909E+03  0.18348457856E+03  0.00000000000E+00 0.  1.
          4    1    6    6  502    0 -0.30041784164E+03 -0.20366763537E+03  0.25642871369E+02  0.36385291276E+03  0.00000000000E+00 0. -1.
         -1    1    6    6    0  502 -0.83521630739E+02 -0.23033636632E+02 -0.67031134576E+01  0.86898463438E+02  0.00000000000E+00 0.  1.
<mgrwt>
<rscale>  0 0.58682552E+03</rscale>
<asrwt>0</asrwt>
<pdfrwt beam="1">  1        1 0.24395542E+00 0.58682552E+03</pdfrwt>
<pdfrwt beam="2">  1       -2 0.48523620E-01 0.58682552E+03</pdfrwt>
<totfact> 0.21264467E+01</totfact>
</mgrwt>
</event>
<event>
12    3  0.1201947E-007  0.1117930E+04  0.7818608E-02  0.9187891E-01
         -2   -1    0    0    0  501 -0.00000000000E+00  0.00000000000E+00  0.11940776268E+04  0.11940776268E+04  0.00000000000E+00 0.  1.
          1   -1    0    0  501    0  0.00000000000E+00 -0.00000000000E+00 -0.12493336879E+04  0.12493336879E+04  0.00000000000E+00 0. -1.
        -24    2    1    2    0    0 -0.42071575143E+03  0.10286448064E+04 -0.30748845552E+03  0.11555088668E+04  0.74429225498E+02 0.  0.
    5000000    2    1    2    0    0  0.42071575143E+03 -0.10286448064E+04  0.25223239447E+03  0.12879024479E+04  0.59996637676E+03 0.  0.
        -24    2    4    4    0    0  0.29468379357E+03 -0.76436949966E+03 -0.94098756970E+02  0.82813959706E+03  0.76559427590E+02 0.  0.
         24    2    4    4    0    0  0.12603195786E+03 -0.26427530676E+03  0.34633115144E+03  0.45976285085E+03  0.75571955113E+02 0.  0.
         13    1    3    3    0    0 -0.11887840313E+03  0.21057892971E+03 -0.71494902418E+02  0.25216479025E+03  0.00000000000E+00 0. -1.
        -14    1    3    3    0    0 -0.30183734830E+03  0.81806587670E+03 -0.23599355310E+03  0.90334407650E+03  0.00000000000E+00 0.  1.
         15    1    5    5    0    0  0.10817657428E+03 -0.19751574319E+03 -0.93133455530E+01  0.22539861615E+03  0.17770000000E+01 0. -1.
        -16    1    5    5    0    0  0.18650721929E+03 -0.56685375647E+03 -0.84785411417E+02  0.60274098091E+03  0.00000000000E+00 0.  1.
          2    1    6    6  502    0  0.12606277001E+03 -0.20378992465E+03  0.25233376304E+03  0.34798632637E+03  0.00000000000E+00 0. -1.
         -3    1    6    6    0  502 -0.30812154018E-01 -0.60485382108E+02  0.93997388400E+02  0.11177652448E+03  0.00000000000E+00 0.  1.
<mgrwt>
<rscale>  0 0.11179296E+04</rscale>
<asrwt>0</asrwt>
<pdfrwt beam="1">  1        1 0.19220518E+00 0.11179296E+04</pdfrwt>
<pdfrwt beam="2">  1       -2 0.18370425E+00 0.11179296E+04</pdfrwt>
<totfact> 0.14502543E+00</totfact>
</mgrwt>
</event>
<event>
12    3  0.1201947E-007  0.6585455E+03  0.7818608E-02  0.9790875E-01
          1   -1    0    0  501    0  0.00000000000E+00  0.00000000000E+00  0.72878748141E+03  0.72878748141E+03  0.00000000000E+00 0. -1.
         -2   -1    0    0    0  501 -0.00000000000E+00 -0.00000000000E+00 -0.69089938973E+03  0.69089938973E+03  0.00000000000E+00 0.  1.
        -24    2    1    2    0    0 -0.52318328386E+03  0.32005808412E+02 -0.23177246593E+03  0.57872184321E+03  0.80345351848E+02 0.  0.
    5000000    2    1    2    0    0  0.52318328386E+03 -0.32005808412E+02  0.26966055761E+03  0.84096502793E+03  0.59980016804E+03 0.  0.
        -24    2    4    4    0    0  0.58444135198E+03 -0.18070843904E+03  0.18950212583E+03  0.64531528177E+03  0.79331729730E+02 0.  0.
         24    2    4    4    0    0 -0.61258068120E+02  0.14870263062E+03  0.80158431779E+02  0.19564974616E+03  0.77384919218E+02 0.  0.
         11    1    3    3    0    0 -0.20209201793E+03 -0.24153130007E+02 -0.10451034107E+03  0.22879459956E+03  0.00000000000E+00 0. -1.
        -12    1    3    3    0    0 -0.32109126593E+03  0.56158938419E+02 -0.12726212486E+03  0.34992724365E+03  0.00000000000E+00 0.  1.
         15    1    5    5    0    0  0.19805160351E+03 -0.10101021141E+03  0.70067616327E+02  0.23310969317E+03  0.17770000000E+01 0. -1.
        -16    1    5    5    0    0  0.38638974848E+03 -0.79698227623E+02  0.11943450951E+03  0.41220558860E+03  0.00000000000E+00 0.  1.
          2    1    6    6  502    0 -0.59586536328E+02  0.69604672683E+02  0.71181239969E+02  0.11602643964E+03  0.00000000000E+00 0. -1.
         -1    1    6    6    0  502 -0.16715317920E+01  0.79097957941E+02  0.89771918103E+01  0.79623306523E+02  0.00000000000E+00 0.  1.
<mgrwt>
<rscale>  0 0.65854555E+03</rscale>
<asrwt>0</asrwt>
<pdfrwt beam="1">  1        1 0.11212115E+00 0.65854555E+03</pdfrwt>
<pdfrwt beam="2">  1       -2 0.10629221E+00 0.65854555E+03</pdfrwt>
<totfact> 0.16498096E+01</totfact>
</mgrwt>
</event>
<event>
12    3  0.1201947E-007  0.6247597E+03  0.7818608E-02  0.9855328E-01
         -2   -1    0    0    0  501 -0.00000000000E+00  0.00000000000E+00  0.91335959016E+03  0.91335959016E+03  0.00000000000E+00 0.  1.
          1   -1    0    0  501    0  0.00000000000E+00 -0.00000000000E+00 -0.49114496254E+03  0.49114496254E+03  0.00000000000E+00 0. -1.
        -24    2    1    2    0    0  0.35250040508E+03 -0.37356422444E+03  0.31284559602E+03  0.60717381551E+03  0.83551839812E+02 0.  0.
    5000000    2    1    2    0    0 -0.35250040508E+03  0.37356422444E+03  0.10936903160E+03  0.79733073719E+03  0.59997329444E+03 0.  0.
        -24    2    4    4    0    0 -0.25953920972E+03  0.49304442422E+03  0.20847789453E+03  0.60008946858E+03  0.78682476782E+02 0.  0.
         24    2    4    4    0    0 -0.92961195358E+02 -0.11948019978E+03 -0.99108862923E+02  0.19724126862E+03  0.78512733697E+02 0.  0.
         13    1    3    3    0    0  0.10716618081E+03 -0.17070348001E+03  0.10869254780E+03  0.22899418845E+03  0.00000000000E+00 0. -1.
        -14    1    3    3    0    0  0.24533422427E+03 -0.20286074442E+03  0.20415304821E+03  0.37817962706E+03  0.00000000000E+00 0.  1.
         15    1    5    5    0    0 -0.13390877217E+03  0.17222064626E+03  0.82070507154E+02  0.23308847276E+03  0.17770000000E+01 0. -1.
        -16    1    5    5    0    0 -0.12563043755E+03  0.32082377796E+03  0.12640738737E+03  0.36700099581E+03  0.00000000000E+00 0.  1.
          2    1    6    6  502    0 -0.27986808809E+00 -0.52656430437E+02 -0.50871524919E+02  0.73216733334E+02  0.00000000000E+00 0. -1.
         -1    1    6    6    0  502 -0.92681327270E+02 -0.66823769347E+02 -0.48237338005E+02  0.12402453528E+03  0.00000000000E+00 0.  1.
<mgrwt>
<rscale>  0 0.62475972E+03</rscale>
<asrwt>0</asrwt>
<pdfrwt beam="1">  1        1 0.75560764E-01 0.62475972E+03</pdfrwt>
<pdfrwt beam="2">  1       -2 0.14051686E+00 0.62475972E+03</pdfrwt>
<totfact> 0.14590148E+01</totfact>
</mgrwt>
</event>
<event>
12    3  0.1201947E-007  0.3293709E+03  0.7818608E-02  0.1071416E+00
          1   -1    0    0  501    0  0.00000000000E+00  0.00000000000E+00  0.99232897345E+03  0.99232897345E+03  0.00000000000E+00 0. -1.
         -2   -1    0    0    0  501 -0.00000000000E+00 -0.00000000000E+00 -0.18011192200E+03  0.18011192200E+03  0.00000000000E+00 0.  1.
        -24    2    1    2    0    0  0.12175547966E+03  0.99230669661E+02  0.37173623982E+03  0.41171149616E+03  0.81531597841E+02 0.  0.
    5000000    2    1    2    0    0 -0.12175547966E+03 -0.99230669661E+02  0.44048081162E+03  0.76072939929E+03  0.60001229230E+03 0.  0.
        -24    2    4    4    0    0 -0.18398785239E+03 -0.25592959774E+03  0.47010050782E+03  0.57175030647E+03  0.80947122642E+02 0.  0.
         24    2    4    4    0    0  0.62232372736E+02  0.15669892808E+03 -0.29619696200E+02  0.18897909282E+03  0.80052163261E+02 0.  0.
         13    1    3    3    0    0  0.35832335326E+02 -0.50630868900E+01  0.12806438837E+03  0.13307921954E+03  0.00000000000E+00 0. -1.
        -14    1    3    3    0    0  0.85923144331E+02  0.10429375655E+03  0.24367185145E+03  0.27863227662E+03  0.00000000000E+00 0.  1.
         15    1    5    5    0    0 -0.27957734980E+02 -0.71843219295E+02  0.68079352045E+02  0.10286417748E+03  0.17770000000E+01 0. -1.
        -16    1    5    5    0    0 -0.15603011741E+03 -0.18408637845E+03  0.40202115578E+03  0.46888612899E+03  0.00000000000E+00 0.  1.
          4    1    6    6  502    0  0.19930310267E+01  0.13452040037E+02  0.21456290004E+02  0.25402793834E+02  0.00000000000E+00 0. -1.
         -3    1    6    6    0  502  0.60239341710E+02  0.14324688804E+03 -0.51075986204E+02  0.16357629899E+03  0.00000000000E+00 0.  1.
<mgrwt>
<rscale>  0 0.32937088E+03</rscale>
<asrwt>0</asrwt>
<pdfrwt beam="1">  1        1 0.15266599E+00 0.32937088E+03</pdfrwt>
<pdfrwt beam="2">  1       -2 0.27709527E-01 0.32937088E+03</pdfrwt>
<totfact> 0.16844340E+02</totfact>
</mgrwt>
</event>
<event>
12    3  0.1201947E-007  0.9167547E+03  0.7818608E-02  0.9404876E-01
          1   -1    0    0  501    0  0.00000000000E+00  0.00000000000E+00  0.21729002755E+04  0.21729002755E+04  0.00000000000E+00 0. -1.
         -2   -1    0    0    0  501 -0.00000000000E+00 -0.00000000000E+00 -0.45135694547E+03  0.45135694547E+03  0.00000000000E+00 0.  1.
        -24    2    1    2    0    0 -0.37981376825E+03  0.81346752638E+03  0.76430496978E+03  0.11812499779E+04  0.72121483530E+02 0.  0.
    5000000    2    1    2    0    0  0.37981376825E+03 -0.81346752638E+03  0.95723836023E+03  0.14430072431E+04  0.59998059152E+03 0.  0.
        -24    2    4    4    0    0 -0.32580569110E+01 -0.23947907066E+03 -0.94462426402E+01  0.25238740854E+03  0.79052718305E+02 0.  0.
         24    2    4    4    0    0  0.38307182516E+03 -0.57398845572E+03  0.96668460287E+03  0.11906198345E+04  0.83004207104E+02 0.  0.
         13    1    3    3    0    0 -0.91274652287E+02  0.13253476436E+03  0.14607254864E+03  0.21733318978E+03  0.00000000000E+00 0. -1.
        -14    1    3    3    0    0 -0.28853911596E+03  0.68093276202E+03  0.61823242113E+03  0.96391678809E+03  0.00000000000E+00 0.  1.
         15    1    5    5    0    0 -0.75242200828E+01 -0.12288097499E+02  0.18420677300E+02  0.23454004118E+02  0.17770000000E+01 0. -1.
        -16    1    5    5    0    0  0.42661631718E+01 -0.22719097316E+03 -0.27866919940E+02  0.22893340442E+03  0.00000000000E+00 0.  1.
          4    1    6    6  502    0  0.44352879721E+02 -0.92673878621E+02  0.19154624519E+03  0.21736050645E+03  0.00000000000E+00 0. -1.
         -3    1    6    6    0  502  0.33871894544E+03 -0.48131457710E+03  0.77513835767E+03  0.97325932807E+03  0.00000000000E+00 0.  1.
<mgrwt>
<rscale>  0 0.91675470E+03</rscale>
<asrwt>0</asrwt>
<pdfrwt beam="1">  1        1 0.33429234E+00 0.91675470E+03</pdfrwt>
<pdfrwt beam="2">  1       -2 0.69439531E-01 0.91675470E+03</pdfrwt>
<totfact> 0.38573164E+00</totfact>
</mgrwt>
</event>
<event>
12    3  0.1201947E-007  0.5085887E+03  0.7818608E-02  0.1011561E+00
         -2   -1    0    0    0  501 -0.00000000000E+00  0.00000000000E+00  0.39532014904E+03  0.39532014904E+03  0.00000000000E+00 0.  1.
          1   -1    0    0  501    0  0.00000000000E+00 -0.00000000000E+00 -0.71387698917E+03  0.71387698917E+03  0.00000000000E+00 0. -1.
        -24    2    1    2    0    0  0.30071518327E+03  0.18187610608E+03 -0.49381196092E+02  0.36371346721E+03  0.79626906794E+02 0.  0.
    5000000    2    1    2    0    0 -0.30071518327E+03 -0.18187610608E+03 -0.26917564404E+03  0.74548367101E+03  0.59981816993E+03 0.  0.
        -24    2    4    4    0    0  0.14250044386E+03  0.56197633368E+02  0.75626192848E+01  0.16579763033E+03  0.62985002324E+02 0.  0.
         24    2    4    4    0    0 -0.44321562713E+03 -0.23807373944E+03 -0.27673826332E+03  0.57968604068E+03  0.79577897820E+02 0.  0.
         13    1    3    3    0    0  0.16178381498E+03  0.13172643581E+03 -0.21477376139E+01  0.20863956829E+03  0.00000000000E+00 0. -1.
        -14    1    3    3    0    0  0.13893136830E+03  0.50149670268E+02 -0.47233458478E+02  0.15507389891E+03  0.00000000000E+00 0.  1.
         15    1    5    5    0    0  0.53970653976E+02  0.31639492260E+01  0.27513294231E+02  0.60687570011E+02  0.17770000000E+01 0. -1.
        -16    1    5    5    0    0  0.88529789879E+02  0.53033684142E+02 -0.19950674947E+02  0.10511006032E+03  0.00000000000E+00 0.  1.
          4    1    6    6  502    0 -0.35310321545E+03 -0.19914996085E+03 -0.25570239954E+03  0.47929772042E+03  0.00000000000E+00 0. -1.
         -3    1    6    6    0  502 -0.90112411678E+02 -0.38923778591E+02 -0.21035863782E+02  0.10038832025E+03  0.00000000000E+00 0.  1.
<mgrwt>
<rscale>  0 0.50858866E+03</rscale>
<asrwt>0</asrwt>
<pdfrwt beam="1">  1        1 0.10982723E+00 0.50858866E+03</pdfrwt>
<pdfrwt beam="2">  1       -2 0.60818484E-01 0.50858866E+03</pdfrwt>
<totfact> 0.60637956E+01</totfact>
</mgrwt>
</event>
<event>
12    3  0.1201947E-007  0.7384041E+03  0.7818608E-02  0.9653720E-01
          1   -1    0    0  501    0  0.00000000000E+00  0.00000000000E+00  0.11468321573E+04  0.11468321573E+04  0.00000000000E+00 0. -1.
         -2   -1    0    0    0  501 -0.00000000000E+00 -0.00000000000E+00 -0.63599461082E+03  0.63599461082E+03  0.00000000000E+00 0.  1.
        -24    2    1    2    0    0 -0.34804672739E+03 -0.52882563321E+03  0.63679494536E+03  0.90146488060E+03  0.79611894343E+02 0.  0.
    5000000    2    1    2    0    0  0.34804672739E+03  0.52882563321E+03 -0.12595739887E+03  0.88136188753E+03  0.60011701831E+03 0.  0.
        -24    2    4    4    0    0  0.42479674952E+03  0.15630737773E+03 -0.16920197945E+03  0.48954757493E+03  0.78378846223E+02 0.  0.
         24    2    4    4    0    0 -0.76750022129E+02  0.37251825549E+03  0.43244580578E+02  0.39181431260E+03  0.83593930650E+02 0.  0.
         11    1    3    3    0    0 -0.19195906063E+03 -0.22153994932E+03  0.30593533342E+03  0.42370350286E+03  0.00000000000E+00 0. -1.
        -12    1    3    3    0    0 -0.15608766676E+03 -0.30728568390E+03  0.33085961194E+03  0.47776137774E+03  0.00000000000E+00 0.  1.
         15    1    5    5    0    0  0.35641267054E+03  0.11385743422E+03 -0.16506288734E+03  0.40895283537E+03  0.17770000000E+01 0. -1.
        -16    1    5    5    0    0  0.68384078979E+02  0.42449943505E+02 -0.41390921070E+01  0.80594739560E+02  0.00000000000E+00 0.  1.
          4    1    6    6  502    0 -0.15445076348E+02  0.21166048870E+03 -0.74723712165E+01  0.21235477200E+03  0.00000000000E+00 0. -1.
         -3    1    6    6    0  502 -0.61304945781E+02  0.16085776679E+03  0.50716951794E+02  0.17945954060E+03  0.00000000000E+00 0.  1.
<mgrwt>
<rscale>  0 0.73840406E+03</rscale>
<asrwt>0</asrwt>
<pdfrwt beam="1">  1        1 0.17643572E+00 0.73840406E+03</pdfrwt>
<pdfrwt beam="2">  1       -2 0.97845325E-01 0.73840406E+03</pdfrwt>
<totfact> 0.91679274E+00</totfact>
</mgrwt>
</event>
<event>
12    3  0.1201947E-007  0.6189889E+03  0.7818608E-02  0.9866775E-01
         -2   -1    0    0    0  501 -0.00000000000E+00  0.00000000000E+00  0.52390016005E+03  0.52390016005E+03  0.00000000000E+00 0.  1.
          1   -1    0    0  501    0  0.00000000000E+00 -0.00000000000E+00 -0.10615127096E+04  0.10615127096E+04  0.00000000000E+00 0. -1.
        -24    2    1    2    0    0 -0.23555397758E+03  0.42343326024E+03 -0.64064388363E+03  0.80730198310E+03  0.80811534094E+02 0.  0.
    5000000    2    1    2    0    0  0.23555397758E+03 -0.42343326024E+03  0.10303133409E+03  0.77811088655E+03  0.60004974271E+03 0.  0.
        -24    2    4    4    0    0  0.37017399249E+03 -0.91450364769E+02 -0.27302046957E+02  0.38943707456E+03  0.74322804965E+02 0.  0.
         24    2    4    4    0    0 -0.13462001491E+03 -0.33198289547E+03  0.13033338105E+03  0.38867381199E+03  0.75798091066E+02 0.  0.
         13    1    3    3    0    0 -0.12457453413E+03  0.14489330255E+03 -0.23531953120E+03  0.30313060789E+03  0.00000000000E+00 0. -1.
        -14    1    3    3    0    0 -0.11097944345E+03  0.27853995769E+03 -0.40532435244E+03  0.50417137521E+03  0.00000000000E+00 0.  1.
         15    1    5    5    0    0  0.12965983787E+03 -0.34912484154E+02 -0.45269409717E+02  0.14171461566E+03  0.17770000000E+01 0. -1.
        -16    1    5    5    0    0  0.24051415462E+03 -0.56537880615E+02  0.17967362761E+02  0.24772245890E+03  0.00000000000E+00 0.  1.
          4    1    6    6  502    0 -0.10351894230E+03 -0.15754756595E+03  0.57339516387E+02  0.19704118121E+03  0.00000000000E+00 0. -1.
         -3    1    6    6    0  502 -0.31101072616E+02 -0.17443532952E+03  0.72993864659E+02  0.19163263078E+03  0.00000000000E+00 0.  1.
<mgrwt>
<rscale>  0 0.61898895E+03</rscale>
<asrwt>0</asrwt>
<pdfrwt beam="1">  1        1 0.16330965E+00 0.61898895E+03</pdfrwt>
<pdfrwt beam="2">  1       -2 0.80600026E-01 0.61898895E+03</pdfrwt>
<totfact> 0.16825325E+01</totfact>
</mgrwt>
</event>
<event>
12    3  0.1201947E-007  0.8361111E+03  0.7818608E-02  0.9509170E-01
         -2   -1    0    0    0  501 -0.00000000000E+00  0.00000000000E+00  0.53815896346E+03  0.53815896346E+03  0.00000000000E+00 0.  1.
          1   -1    0    0  501    0  0.00000000000E+00 -0.00000000000E+00 -0.14844497192E+04  0.14844497192E+04  0.00000000000E+00 0. -1.
        -24    2    1    2    0    0 -0.10194639564E+03 -0.78061559548E+03 -0.50628187600E+03  0.93934613933E+03  0.79347690636E+02 0.  0.
    5000000    2    1    2    0    0  0.10194639564E+03  0.78061559548E+03 -0.44000887975E+03  0.10832625433E+04  0.60008011802E+03 0.  0.
        -24    2    4    4    0    0 -0.11710749460E+03  0.11577260666E+03 -0.30708015614E+03  0.36464482843E+03  0.10747170261E+03 0.  0.
         24    2    4    4    0    0  0.21905389024E+03  0.66484298882E+03 -0.13292872361E+03  0.71861771491E+03  0.93491004939E+02 0.  0.
         11    1    3    3    0    0 -0.47653503921E+02 -0.44861333984E+03 -0.24488476759E+03  0.51331601817E+03  0.00000000000E+00 0. -1.
        -12    1    3    3    0    0 -0.54292891721E+02 -0.33200225564E+03 -0.26139710842E+03  0.42603012116E+03  0.00000000000E+00 0.  1.
         15    1    5    5    0    0 -0.49242002220E+02  0.58373250335E+01 -0.27672517919E+02  0.56813511801E+02  0.17770000000E+01 0. -1.
        -16    1    5    5    0    0 -0.67865492376E+02  0.10993528163E+03 -0.27940763822E+03  0.30783131663E+03  0.00000000000E+00 0.  1.
          4    1    6    6  502    0 -0.90260721735E+01  0.24801525107E+02 -0.93843588578E+01  0.28011637183E+02  0.00000000000E+00 0. -1.
         -3    1    6    6    0  502  0.22807996241E+03  0.64004146371E+03 -0.12354436476E+03  0.69060607772E+03  0.00000000000E+00 0.  1.
<mgrwt>
<rscale>  0 0.83611110E+03</rscale>
<asrwt>0</asrwt>
<pdfrwt beam="1">  1        1 0.22837687E+00 0.83611110E+03</pdfrwt>
<pdfrwt beam="2">  1       -2 0.82793688E-01 0.83611110E+03</pdfrwt>
<totfact> 0.76830558E+00</totfact>
</mgrwt>
</event>
<event>
12    3  0.1201947E-007  0.1633554E+04  0.7818608E-02  0.8800196E-01
          1   -1    0    0  501    0  0.00000000000E+00  0.00000000000E+00  0.17525347252E+04  0.17525347252E+04  0.00000000000E+00 0. -1.
         -4   -1    0    0    0  501 -0.00000000000E+00 -0.00000000000E+00 -0.15532194236E+04  0.15532194236E+04  0.00000000000E+00 0.  1.
        -24    2    1    2    0    0 -0.14904921290E+04 -0.54809072673E+03  0.23670637600E+03  0.16077493070E+04  0.82811197100E+02 0.  0.
    5000000    2    1    2    0    0  0.14904921290E+04  0.54809072673E+03 -0.37391074352E+02  0.16980048418E+04  0.59987675333E+03 0.  0.
        -24    2    4    4    0    0 -0.12837502676E+02  0.19550415294E+01 -0.56308772000E+02  0.96629300996E+02  0.77446241642E+02 0.  0.
         24    2    4    4    0    0  0.15033296316E+04  0.54613568520E+03  0.18917697648E+02  0.16013755408E+04  0.76036671786E+02 0.  0.
         11    1    3    3    0    0 -0.83004161535E+02 -0.44082746666E+02  0.29164774756E+02  0.98405098813E+02  0.00000000000E+00 0. -1.
        -12    1    3    3    0    0 -0.14074879674E+04 -0.50400798006E+03  0.20754160124E+03  0.15093442082E+04  0.00000000000E+00 0.  1.
         15    1    5    5    0    0 -0.37784012219E+02 -0.21808954782E+02 -0.26535541142E+02  0.51093588255E+02  0.17770000000E+01 0. -1.
        -16    1    5    5    0    0  0.24946509543E+02  0.23763996312E+02 -0.29773230858E+02  0.45535712741E+02  0.00000000000E+00 0.  1.
          2    1    6    6  502    0  0.82784183032E+03  0.27867309035E+03  0.41998192315E+02  0.87449678985E+03  0.00000000000E+00 0. -1.
         -1    1    6    6    0  502  0.67548780133E+03  0.26746259485E+03 -0.23080494667E+02  0.72687875098E+03  0.00000000000E+00 0.  1.
<mgrwt>
<rscale>  0 0.16335536E+04</rscale>
<asrwt>0</asrwt>
<pdfrwt beam="1">  1        1 0.26962073E+00 0.16335536E+04</pdfrwt>
<pdfrwt beam="2">  1       -4 0.23895684E+00 0.16335536E+04</pdfrwt>
<totfact> 0.14420141E-01</totfact>
</mgrwt>
</event>
<event>
12    3  0.1201947E-007  0.4008297E+03  0.7818608E-02  0.1043493E+00
          1   -1    0    0  501    0  0.00000000000E+00  0.00000000000E+00  0.21994606825E+04  0.21994606825E+04  0.00000000000E+00 0. -1.
         -2   -1    0    0    0  501 -0.00000000000E+00 -0.00000000000E+00 -0.87263518169E+02  0.87263518169E+02  0.00000000000E+00 0.  1.
        -24    2    1    2    0    0  0.17803285338E+01  0.21313492796E+03  0.39307255101E+03  0.45348216192E+03  0.75567014880E+02 0.  0.
    5000000    2    1    2    0    0 -0.17803285338E+01 -0.21313492796E+03  0.17191246133E+04  0.18332420387E+04  0.59996439013E+03 0.  0.
        -24    2    4    4    0    0 -0.18757589451E+03  0.81439757654E+02  0.10687652294E+04  0.10912164031E+04  0.81712743560E+02 0.  0.
         24    2    4    4    0    0  0.18579556598E+03 -0.29457468561E+03  0.65035938390E+03  0.74202563564E+03  0.79627118386E+02 0.  0.
         11    1    3    3    0    0 -0.36488419959E+02  0.10233804406E+03  0.17795474042E+03  0.20850028703E+03  0.00000000000E+00 0. -1.
        -12    1    3    3    0    0  0.38268748493E+02  0.11079688390E+03  0.21511781059E+03  0.24498187489E+03  0.00000000000E+00 0.  1.
         15    1    5    5    0    0 -0.11362983573E+03  0.50171240194E+01  0.53449498745E+03  0.54646588223E+03  0.17770000000E+01 0. -1.
        -16    1    5    5    0    0 -0.73946058782E+02  0.76422633634E+02  0.53427024196E+03  0.54475052087E+03  0.00000000000E+00 0.  1.
          4    1    6    6  502    0  0.68932291347E+02 -0.17687990286E+03  0.38151134300E+03  0.42613268551E+03  0.00000000000E+00 0. -1.
         -3    1    6    6    0  502  0.11686327463E+03 -0.11769478276E+03  0.26884804090E+03  0.31589295013E+03  0.00000000000E+00 0.  1.
<mgrwt>
<rscale>  0 0.40082974E+03</rscale>
<asrwt>0</asrwt>
<pdfrwt beam="1">  1        1 0.33837853E+00 0.40082974E+03</pdfrwt>
<pdfrwt beam="2">  1       -2 0.13425158E-01 0.40082974E+03</pdfrwt>
<totfact> 0.88036697E+01</totfact>
</mgrwt>
</event>
<event>
12    3  0.1201947E-007  0.1192628E+04  0.7818608E-02  0.9119334E-01
          1   -1    0    0  501    0  0.00000000000E+00  0.00000000000E+00  0.18210860120E+04  0.18210860120E+04  0.00000000000E+00 0. -1.
         -2   -1    0    0    0  501 -0.00000000000E+00 -0.00000000000E+00 -0.83812848986E+03  0.83812848986E+03  0.00000000000E+00 0.  1.
        -24    2    1    2    0    0  0.41888843751E+03  0.10808833652E+04  0.39051308995E+03  0.12257838216E+04  0.79177848127E+02 0.  0.
    5000000    2    1    2    0    0 -0.41888843751E+03 -0.10808833652E+04  0.59244443224E+03  0.14334306803E+04  0.59996394692E+03 0.  0.
        -24    2    4    4    0    0 -0.39788940221E+03 -0.51841147365E+03  0.55934669658E+03  0.86390132503E+03  0.79939602261E+02 0.  0.
         24    2    4    4    0    0 -0.20999035298E+02 -0.56247189158E+03  0.33097735656E+02  0.56952935526E+03  0.80328314414E+02 0.  0.
         13    1    3    3    0    0  0.26326779146E+03  0.77101617606E+03  0.25842602635E+03  0.85472795957E+03  0.00000000000E+00 0. -1.
        -14    1    3    3    0    0  0.15562064605E+03  0.30986718916E+03  0.13208706360E+03  0.37105586206E+03  0.00000000000E+00 0.  1.
         15    1    5    5    0    0 -0.13561843663E+02 -0.50976047816E+02  0.53856323911E+02  0.75406514365E+02  0.17770000000E+01 0. -1.
        -16    1    5    5    0    0 -0.38432755855E+03 -0.46743542583E+03  0.50549037267E+03  0.78849481066E+03  0.00000000000E+00 0.  1.
          2    1    6    6  502    0  0.19724278992E+02 -0.24282270338E+03 -0.13239306970E+02  0.24398194956E+03  0.00000000000E+00 0. -1.
         -1    1    6    6    0  502 -0.40723314289E+02 -0.31964918819E+03  0.46337042625E+02  0.32554740570E+03  0.00000000000E+00 0.  1.
<mgrwt>
<rscale>  0 0.11926281E+04</rscale>
<asrwt>0</asrwt>
<pdfrwt beam="1">  1        1 0.28016708E+00 0.11926281E+04</pdfrwt>
<pdfrwt beam="2">  1       -2 0.12894284E+00 0.11926281E+04</pdfrwt>
<totfact> 0.15014210E+00</totfact>
</mgrwt>
</event>
<event>
12    3  0.1201947E-007  0.9015720E+03  0.7818608E-02  0.9423619E-01
         -4   -1    0    0    0  501 -0.00000000000E+00  0.00000000000E+00  0.52548660328E+03  0.52548660328E+03  0.00000000000E+00 0.  1.
          3   -1    0    0  501    0  0.00000000000E+00 -0.00000000000E+00 -0.21267415035E+04  0.21267415035E+04  0.00000000000E+00 0. -1.
        -24    2    1    2    0    0 -0.46217065206E+03 -0.73082514886E+03 -0.18503675406E+03  0.88779217557E+03  0.78925514342E+02 0.  0.
    5000000    2    1    2    0    0  0.46217065206E+03  0.73082514886E+03 -0.14162181461E+04  0.17644359312E+04  0.59987766087E+03 0.  0.
        -24    2    4    4    0    0 -0.16439081578E+02  0.22260588091E+03 -0.72440803692E+02  0.24797851337E+03  0.80137702961E+02 0.  0.
         24    2    4    4    0    0  0.47860973363E+03  0.50821926795E+03 -0.13437773424E+04  0.15164574178E+04  0.80941043699E+02 0.  0.
         13    1    3    3    0    0 -0.11696423007E+03 -0.23694795205E+03 -0.32608651344E+02  0.26624854411E+03  0.00000000000E+00 0. -1.
        -14    1    3    3    0    0 -0.34520642198E+03 -0.49387719681E+03 -0.15242810272E+03  0.62154363146E+03  0.00000000000E+00 0.  1.
         15    1    5    5    0    0  0.32171211643E+02  0.83775230120E+02 -0.21333866776E+02  0.92258157585E+02  0.17770000000E+01 0. -1.
        -16    1    5    5    0    0 -0.48610293221E+02  0.13883065079E+03 -0.51106936915E+02  0.15572035579E+03  0.00000000000E+00 0.  1.
          2    1    6    6  502    0  0.18397873200E+03  0.16478707362E+03 -0.40615398981E+03  0.47535672594E+03  0.00000000000E+00 0. -1.
         -1    1    6    6    0  502  0.29463100164E+03  0.34343219433E+03 -0.93762335263E+03  0.10411006919E+04  0.00000000000E+00 0.  1.
<mgrwt>
<rscale>  0 0.90157197E+03</rscale>
<asrwt>0</asrwt>
<pdfrwt beam="1">  1        3 0.32719100E+00 0.90157197E+03</pdfrwt>
<pdfrwt beam="2">  1       -4 0.80844093E-01 0.90157197E+03</pdfrwt>
<totfact> 0.84305707E-02</totfact>
</mgrwt>
</event>
<event>
12    3  0.1201947E-007  0.4074399E+03  0.7818608E-02  0.1041234E+00
          1   -1    0    0  501    0  0.00000000000E+00  0.00000000000E+00  0.62008056016E+03  0.62008056016E+03  0.00000000000E+00 0. -1.
         -2   -1    0    0    0  501 -0.00000000000E+00 -0.00000000000E+00 -0.36959512166E+03  0.36959512166E+03  0.00000000000E+00 0.  1.
        -24    2    1    2    0    0 -0.11229375157E+02 -0.20232605066E+03 -0.12829516419E+03  0.25170622779E+03  0.76383547398E+02 0.  0.
    5000000    2    1    2    0    0  0.11229375157E+02  0.20232605066E+03  0.37878060269E+03  0.73796945403E+03  0.60005186481E+03 0.  0.
        -24    2    4    4    0    0 -0.11213584623E+03 -0.16489201048E+03  0.44368856436E+02  0.21976851152E+03  0.81029501435E+02 0.  0.
         24    2    4    4    0    0  0.12336522139E+03  0.36721806114E+03  0.33441174625E+03  0.51820094251E+03  0.81442731457E+02 0.  0.
         11    1    3    3    0    0  0.27411138194E+02 -0.57105370870E+02 -0.19821650694E+02  0.66372371628E+02  0.00000000000E+00 0. -1.
        -12    1    3    3    0    0 -0.38640513352E+02 -0.14522067979E+03 -0.10847351350E+03  0.18533385616E+03  0.00000000000E+00 0.  1.
         15    1    5    5    0    0 -0.75453228272E+02 -0.43794312352E+02  0.56379912447E+01  0.87441844247E+02  0.17770000000E+01 0. -1.
        -16    1    5    5    0    0 -0.36682617960E+02 -0.12109769813E+03  0.38730865191E+02  0.13232666727E+03  0.00000000000E+00 0.  1.
          4    1    6    6  502    0  0.11605420081E+03  0.33871108325E+03  0.33264368938E+03  0.48871832330E+03  0.00000000000E+00 0. -1.
         -3    1    6    6    0  502  0.73110205765E+01  0.28506977892E+02  0.17680568728E+01  0.29482619210E+02  0.00000000000E+00 0.  1.
<mgrwt>
<rscale>  0 0.40743986E+03</rscale>
<asrwt>0</asrwt>
<pdfrwt beam="1">  1        1 0.95397009E-01 0.40743986E+03</pdfrwt>
<pdfrwt beam="2">  1       -2 0.56860788E-01 0.40743986E+03</pdfrwt>
<totfact> 0.86729641E+01</totfact>
</mgrwt>
</event>
<event>
12    3  0.1924306E-007  0.1427325E+04  0.7818608E-02  0.8934273E-01
         -2   -1    0    0    0  501 -0.00000000000E+00  0.00000000000E+00  0.15577066518E+04  0.15577066518E+04  0.00000000000E+00 0.  1.
          1   -1    0    0  501    0  0.00000000000E+00 -0.00000000000E+00 -0.15605785517E+04  0.15605785517E+04  0.00000000000E+00 0. -1.
        -24    2    1    2    0    0 -0.95309231238E+03 -0.10329617968E+04  0.52388048810E+03  0.15018378546E+04  0.75307014111E+02 0.  0.
    5000000    2    1    2    0    0  0.95309231238E+03  0.10329617968E+04 -0.52675238793E+03  0.16164473488E+04  0.60003243572E+03 0.  0.
        -24    2    4    4    0    0  0.92292976831E+03  0.10268895649E+04 -0.36118636533E+03  0.14292765404E+04  0.77937813781E+02 0.  0.
         24    2    4    4    0    0  0.30162544073E+02  0.60722318674E+01 -0.16556602259E+03  0.18717080841E+03  0.81695487145E+02 0.  0.
         11    1    3    3    0    0 -0.42693115026E+03 -0.50277393330E+03  0.21798687191E+03  0.69467266492E+03  0.00000000000E+00 0. -1.
        -12    1    3    3    0    0 -0.52616116212E+03 -0.53018786345E+03  0.30589361619E+03  0.80716518972E+03  0.00000000000E+00 0.  1.
         15    1    5    5    0    0  0.27720182332E+03  0.27317075715E+03 -0.75092040891E+02  0.39636483920E+03  0.17770000000E+01 0. -1.
        -16    1    5    5    0    0  0.64572794499E+03  0.75371880773E+03 -0.28609432444E+03  0.10329117012E+04  0.00000000000E+00 0.  1.
          2    1    6    6  502    0  0.16040574521E+02 -0.26468382790E+02 -0.18873633929E+02  0.36250370704E+02  0.00000000000E+00 0. -1.
         -1    1    6    6    0  502  0.14121969553E+02  0.32540614658E+02 -0.14669238867E+03  0.15092043771E+03  0.00000000000E+00 0.  1.
<mgrwt>
<rscale>  0 0.14273254E+04</rscale>
<asrwt>0</asrwt>
<pdfrwt beam="1">  1        1 0.24008901E+00 0.14273254E+04</pdfrwt>
<pdfrwt beam="2">  1       -2 0.23964718E+00 0.14273254E+04</pdfrwt>
<totfact> 0.36813301E-01</totfact>
</mgrwt>
</event>
<event>
12    3  0.1201947E-007  0.7763101E+03  0.7818608E-02  0.9594955E-01
          3   -1    0    0  501    0  0.00000000000E+00  0.00000000000E+00  0.13593593365E+04  0.13593593365E+04  0.00000000000E+00 0. -1.
         -4   -1    0    0    0  501 -0.00000000000E+00 -0.00000000000E+00 -0.62422099514E+03  0.62422099514E+03  0.00000000000E+00 0.  1.
        -24    2    1    2    0    0 -0.50592287820E+03 -0.49844945829E+03  0.77344090729E+03  0.10530483891E+04  0.79311105868E+02 0.  0.
    5000000    2    1    2    0    0  0.50592287820E+03  0.49844945829E+03 -0.38302565959E+02  0.93053194253E+03  0.60001065688E+03 0.  0.
        -24    2    4    4    0    0  0.43606110110E+03  0.12967975159E+03  0.17179489573E+03  0.49276682175E+03  0.79621181546E+02 0.  0.
         24    2    4    4    0    0  0.69861777096E+02  0.36876970670E+03 -0.21009746169E+03  0.43776512079E+03  0.81397746223E+02 0.  0.
         13    1    3    3    0    0 -0.90627047437E+02 -0.52289388750E+02  0.12719606591E+03  0.16470058011E+03  0.00000000000E+00 0. -1.
        -14    1    3    3    0    0 -0.41529583076E+03 -0.44616006954E+03  0.64624484137E+03  0.88834780897E+03  0.00000000000E+00 0.  1.
         15    1    5    5    0    0  0.27690940476E+03  0.87913078754E+02  0.68537496869E+02  0.29850975540E+03  0.17770000000E+01 0. -1.
        -16    1    5    5    0    0  0.15915169634E+03  0.41766672834E+02  0.10325739886E+03  0.19425706635E+03  0.00000000000E+00 0.  1.
          2    1    6    6  502    0  0.86428950003E+02  0.33175930880E+03 -0.19557000739E+03  0.39469207005E+03  0.00000000000E+00 0. -1.
         -1    1    6    6    0  502 -0.16567172907E+02  0.37010397907E+02 -0.14527454300E+02  0.43073050737E+02  0.00000000000E+00 0.  1.
<mgrwt>
<rscale>  0 0.77631006E+03</rscale>
<asrwt>0</asrwt>
<pdfrwt beam="1">  1        3 0.20913221E+00 0.77631006E+03</pdfrwt>
<pdfrwt beam="2">  1       -4 0.96033999E-01 0.77631006E+03</pdfrwt>
<totfact> 0.26475119E-01</totfact>
</mgrwt>
</event>
<event>
12    3  0.1201947E-007  0.5485349E+03  0.7818608E-02  0.1001834E+00
          3   -1    0    0  501    0  0.00000000000E+00  0.00000000000E+00  0.11162060035E+04  0.11162060035E+04  0.00000000000E+00 0. -1.
         -4   -1    0    0    0  501 -0.00000000000E+00 -0.00000000000E+00 -0.33977092040E+03  0.33977092040E+03  0.00000000000E+00 0.  1.
        -24    2    1    2    0    0  0.41653579724E+03  0.22687374909E+02  0.53130594058E+02  0.42780766604E+03  0.78611396962E+02 0.  0.
    5000000    2    1    2    0    0 -0.41653579724E+03 -0.22687374909E+02  0.72330448903E+03  0.10281692579E+04  0.59995487462E+03 0.  0.
        -24    2    4    4    0    0 -0.17072270135E+03  0.24742033554E+03  0.51106286124E+03  0.59873731311E+03  0.83295010579E+02 0.  0.
         24    2    4    4    0    0 -0.24581309590E+03 -0.27010771044E+03  0.21224162779E+03  0.42943194474E+03  0.77350069423E+02 0.  0.
         13    1    3    3    0    0  0.35915907121E+03  0.16543456430E+02  0.72812638934E+02  0.36683866313E+03  0.00000000000E+00 0. -1.
        -14    1    3    3    0    0  0.57376726032E+02  0.61439184784E+01 -0.19682044876E+02  0.60969002903E+02  0.00000000000E+00 0.  1.
         15    1    5    5    0    0 -0.28314749064E+02  0.11035905844E+03  0.20036066679E+03  0.23049598982E+03  0.17770000000E+01 0. -1.
        -16    1    5    5    0    0 -0.14240795228E+03  0.13706127710E+03  0.31070219444E+03  0.36824132330E+03  0.00000000000E+00 0.  1.
          4    1    6    6  502    0 -0.93362898463E+02 -0.13733347918E+03  0.60830136256E+02  0.17685423599E+03  0.00000000000E+00 0. -1.
         -3    1    6    6    0  502 -0.15245019743E+03 -0.13277423127E+03  0.15141149154E+03  0.25257770875E+03  0.00000000000E+00 0.  1.
<mgrwt>
<rscale>  0 0.54853489E+03</rscale>
<asrwt>0</asrwt>
<pdfrwt beam="1">  1        3 0.17172400E+00 0.54853489E+03</pdfrwt>
<pdfrwt beam="2">  1       -4 0.52272450E-01 0.54853489E+03</pdfrwt>
<totfact> 0.18084243E+00</totfact>
</mgrwt>
</event>
<event>
12    3  0.1201947E-007  0.4463925E+03  0.7818608E-02  0.1028803E+00
         -2   -1    0    0    0  501 -0.00000000000E+00  0.00000000000E+00  0.31954205214E+03  0.31954205214E+03  0.00000000000E+00 0.  1.
          1   -1    0    0  501    0  0.00000000000E+00 -0.00000000000E+00 -0.87191213678E+03  0.87191213678E+03  0.00000000000E+00 0. -1.
        -24    2    1    2    0    0 -0.29947430592E+03  0.16131642131E+02 -0.39631734043E+03  0.50273844256E+03  0.75719333835E+02 0.  0.
    5000000    2    1    2    0    0  0.29947430592E+03 -0.16131642131E+02 -0.15605274421E+03  0.68871574636E+03  0.60002652486E+03 0.  0.
        -24    2    4    4    0    0  0.37607400088E+03 -0.17435324450E+03  0.28837450084E+02  0.42256018217E+03  0.76777607591E+02 0.  0.
         24    2    4    4    0    0 -0.76599694963E+02  0.15822160237E+03 -0.18489019429E+03  0.26615556419E+03  0.75847291856E+02 0.  0.
         11    1    3    3    0    0 -0.11998930690E+03  0.95610163093E+01 -0.22154163908E+03  0.25213001537E+03  0.00000000000E+00 0. -1.
        -12    1    3    3    0    0 -0.17948499901E+03  0.65706258219E+01 -0.17477570135E+03  0.25060842719E+03  0.00000000000E+00 0.  1.
         15    1    5    5    0    0  0.15834540725E+03 -0.49220039271E+02  0.42085342182E+02  0.17108539978E+03  0.17770000000E+01 0. -1.
        -16    1    5    5    0    0  0.21772859363E+03 -0.12513320523E+03 -0.13247892098E+02  0.25147478239E+03  0.00000000000E+00 0.  1.
          2    1    6    6  502    0 -0.73717215665E+02  0.15412440218E+03 -0.13970761642E+03  0.22069611985E+03  0.00000000000E+00 0. -1.
         -1    1    6    6    0  502 -0.28824792987E+01  0.40972001834E+01 -0.45182577874E+02  0.45459444339E+02  0.00000000000E+00 0.  1.
<mgrwt>
<rscale>  0 0.44639247E+03</rscale>
<asrwt>0</asrwt>
<pdfrwt beam="1">  1        1 0.13414033E+00 0.44639247E+03</pdfrwt>
<pdfrwt beam="2">  1       -2 0.49160317E-01 0.44639247E+03</pdfrwt>
<totfact> 0.69205944E+01</totfact>
</mgrwt>
</event>
<event>
12    3  0.1201947E-007  0.1592551E+04  0.7818608E-02  0.8825137E-01
         -2   -1    0    0    0  501 -0.00000000000E+00  0.00000000000E+00  0.14799810506E+04  0.14799810506E+04  0.00000000000E+00 0.  1.
          1   -1    0    0  501    0  0.00000000000E+00 -0.00000000000E+00 -0.18185690326E+04  0.18185690326E+04  0.00000000000E+00 0. -1.
        -24    2    1    2    0    0 -0.13739743463E+04 -0.72874091597E+03 -0.47074697579E+03  0.16263262266E+04  0.66824046797E+02 0.  0.
    5000000    2    1    2    0    0  0.13739743463E+04  0.72874091597E+03  0.13215899378E+03  0.16722238567E+04  0.59999816700E+03 0.  0.
        -24    2    4    4    0    0  0.13073563609E+04  0.54139419117E+03 -0.61391451355E+01  0.14172974014E+04  0.80036931736E+02 0.  0.
         24    2    4    4    0    0  0.66617985388E+02  0.18734672479E+03  0.13829813892E+03  0.25492645524E+03  0.79525914571E+02 0.  0.
         11    1    3    3    0    0 -0.72567218226E+03 -0.42259090556E+03 -0.25379042695E+03  0.87726436744E+03  0.00000000000E+00 0. -1.
        -12    1    3    3    0    0 -0.64830216401E+03 -0.30615001041E+03 -0.21695654884E+03  0.74906185914E+03  0.00000000000E+00 0.  1.
         15    1    5    5    0    0  0.12835840759E+04  0.51990334267E+03 -0.12485841140E+01  0.13848798801E+04  0.17770000000E+01 0. -1.
        -16    1    5    5    0    0  0.23772285003E+02  0.21490848499E+02 -0.48905610215E+01  0.32417521351E+02  0.00000000000E+00 0.  1.
          4    1    6    6  502    0  0.52643750327E+02  0.19007579123E+03  0.13794394888E+03  0.24068382558E+03  0.00000000000E+00 0. -1.
         -3    1    6    6    0  502  0.13974235062E+02 -0.27290664410E+01  0.35419003030E+00  0.14242629665E+02  0.00000000000E+00 0.  1.
<mgrwt>
<rscale>  0 0.15925508E+04</rscale>
<asrwt>0</asrwt>
<pdfrwt beam="1">  1        1 0.27977985E+00 0.15925508E+04</pdfrwt>
<pdfrwt beam="2">  1       -2 0.22768939E+00 0.15925508E+04</pdfrwt>
<totfact> 0.28591121E-01</totfact>
</mgrwt>
</event>
<event>
12    3  0.1201947E-007  0.3288439E+03  0.7818608E-02  0.1071650E+00
          1   -1    0    0  501    0  0.00000000000E+00  0.00000000000E+00  0.53138254666E+03  0.53138254666E+03  0.00000000000E+00 0. -1.
         -2   -1    0    0    0  501 -0.00000000000E+00 -0.00000000000E+00 -0.31500677937E+03  0.31500677937E+03  0.00000000000E+00 0.  1.
        -24    2    1    2    0    0 -0.20215199338E+02  0.99657536165E+02  0.19939836312E+03  0.23745272987E+03  0.79270504659E+02 0.  0.
    5000000    2    1    2    0    0  0.20215199338E+02 -0.99657536165E+02  0.16977404165E+02  0.60893659616E+03  0.60014603813E+03 0.  0.
        -24    2    4    4    0    0 -0.57466711385E+02 -0.30716577046E+03 -0.11087860779E+03  0.34139551836E+03  0.81262542584E+02 0.  0.
         24    2    4    4    0    0  0.77681910723E+02  0.20750823430E+03  0.12785601196E+03  0.26754107780E+03  0.78338508817E+02 0.  0.
         13    1    3    3    0    0 -0.33716941314E+02  0.22313815795E+02  0.28757158957E+02  0.49615649730E+02  0.00000000000E+00 0. -1.
        -14    1    3    3    0    0  0.13501741975E+02  0.77343720370E+02  0.17064120416E+03  0.18783708014E+03  0.00000000000E+00 0.  1.
         15    1    5    5    0    0  0.57175380317E+01 -0.98163130461E+02 -0.43298864560E+01  0.98440825214E+02  0.17770000000E+01 0. -1.
        -16    1    5    5    0    0 -0.63184249417E+02 -0.20900264000E+03 -0.10654872134E+03  0.24295469314E+03  0.00000000000E+00 0.  1.
          2    1    6    6  502    0  0.19970771792E+02  0.73084577405E+02  0.87592415033E+02  0.11581285918E+03  0.00000000000E+00 0. -1.
         -1    1    6    6    0  502  0.57711138931E+02  0.13442365689E+03  0.40263596924E+02  0.15172821862E+03  0.00000000000E+00 0.  1.
<mgrwt>
<rscale>  0 0.32884391E+03</rscale>
<asrwt>0</asrwt>
<pdfrwt beam="1">  1        1 0.81751161E-01 0.32884391E+03</pdfrwt>
<pdfrwt beam="2">  1       -2 0.48462582E-01 0.32884391E+03</pdfrwt>
<totfact> 0.15004811E+02</totfact>
</mgrwt>
</event>
<event>
12    3  0.1201947E-007  0.1667221E+04  0.7818608E-02  0.8780283E-01
          1   -1    0    0  501    0  0.00000000000E+00  0.00000000000E+00  0.22504154998E+04  0.22504154998E+04  0.00000000000E+00 0. -1.
         -2   -1    0    0    0  501 -0.00000000000E+00 -0.00000000000E+00 -0.24196040961E+04  0.24196040961E+04  0.00000000000E+00 0.  1.
        -24    2    1    2    0    0 -0.13037601275E+04 -0.10205093828E+04  0.15058324977E+04  0.22395809175E+04  0.83434429902E+02 0.  0.
    5000000    2    1    2    0    0  0.13037601275E+04  0.10205093828E+04 -0.16750210941E+04  0.24304386784E+04  0.60008885465E+03 0.  0.
        -24    2    4    4    0    0  0.40417713248E+03  0.17648322625E+03 -0.15881248171E+03  0.47417781560E+03  0.71538191851E+02 0.  0.
         24    2    4    4    0    0  0.89958299506E+03  0.84402615658E+03 -0.15162086124E+04  0.19562608628E+04  0.80238951227E+02 0.  0.
         13    1    3    3    0    0 -0.61843764816E+02 -0.58098280831E+02  0.10128101920E+03  0.13212837066E+03  0.00000000000E+00 0. -1.
        -14    1    3    3    0    0 -0.12419163627E+04 -0.96241110200E+03  0.14045514785E+04  0.21074525468E+04  0.00000000000E+00 0.  1.
         15    1    5    5    0    0  0.33093664314E+03  0.12998450145E+03 -0.99934163275E+02  0.36933051202E+03  0.17770000000E+01 0. -1.
        -16    1    5    5    0    0  0.73240489346E+02  0.46498724791E+02 -0.58878318436E+02  0.10484730358E+03  0.00000000000E+00 0.  1.
          4    1    6    6  502    0  0.54006989030E+03  0.55940416311E+03 -0.94575139208E+03  0.12243586892E+04  0.00000000000E+00 0. -1.
         -3    1    6    6    0  502  0.35951310476E+03  0.28462199348E+03 -0.57045722028E+03  0.73190217368E+03  0.00000000000E+00 0.  1.
<mgrwt>
<rscale>  0 0.16672211E+04</rscale>
<asrwt>0</asrwt>
<pdfrwt beam="1">  1        1 0.34621777E+00 0.16672211E+04</pdfrwt>
<pdfrwt beam="2">  1       -2 0.37224678E+00 0.16672211E+04</pdfrwt>
<totfact> 0.18246332E-02</totfact>
</mgrwt>
</event>
<event>
12    3  0.1201947E-007  0.1323608E+04  0.7818608E-02  0.9011051E-01
          1   -1    0    0  501    0  0.00000000000E+00  0.00000000000E+00  0.18900437811E+04  0.18900437811E+04  0.00000000000E+00 0. -1.
         -2   -1    0    0    0  501 -0.00000000000E+00 -0.00000000000E+00 -0.10149670482E+04  0.10149670482E+04  0.00000000000E+00 0.  1.
        -24    2    1    2    0    0 -0.56675084112E+03 -0.11836753768E+04  0.27942478574E+03  0.13441281435E+04  0.79425069247E+02 0.  0.
    5000000    2    1    2    0    0  0.56675084112E+03  0.11836753768E+04  0.59565194720E+03  0.15608826859E+04  0.59938268522E+03 0.  0.
        -24    2    4    4    0    0  0.20167021413E+03  0.65190691544E+03  0.59805455800E+03  0.91078373626E+03  0.78767113796E+02 0.  0.
         24    2    4    4    0    0  0.36508062699E+03  0.53176846136E+03 -0.24026107985E+01  0.65009894963E+03  0.81001920168E+02 0.  0.
         13    1    3    3    0    0 -0.23141755775E+03 -0.40215227121E+03  0.83785080078E+02  0.47148751301E+03  0.00000000000E+00 0. -1.
        -14    1    3    3    0    0 -0.33533328337E+03 -0.78152310559E+03  0.19563970566E+03  0.87264063046E+03  0.00000000000E+00 0.  1.
         15    1    5    5    0    0  0.13937180914E+03  0.38946277086E+03  0.40643261476E+03  0.57991066479E+03  0.17770000000E+01 0. -1.
        -16    1    5    5    0    0  0.62298404996E+02  0.26244414458E+03  0.19162194324E+03  0.33087307147E+03  0.00000000000E+00 0.  1.
          2    1    6    6  502    0  0.13792673033E+03  0.13983056786E+03  0.12929746036E+02  0.19683381056E+03  0.00000000000E+00 0. -1.
         -1    1    6    6    0  502  0.22715389666E+03  0.39193789350E+03 -0.15332356835E+02  0.45326513907E+03  0.00000000000E+00 0.  1.
<mgrwt>
<rscale>  0 0.13236076E+04</rscale>
<asrwt>0</asrwt>
<pdfrwt beam="1">  1        1 0.29077597E+00 0.13236076E+04</pdfrwt>
<pdfrwt beam="2">  1       -2 0.15614878E+00 0.13236076E+04</pdfrwt>
<totfact> 0.80446108E-01</totfact>
</mgrwt>
</event>
<event>
12    3  0.1201947E-007  0.8467065E+03  0.7818608E-02  0.9494768E-01
         -2   -1    0    0    0  501 -0.00000000000E+00  0.00000000000E+00  0.43398709338E+03  0.43398709338E+03  0.00000000000E+00 0.  1.
          1   -1    0    0  501    0  0.00000000000E+00 -0.00000000000E+00 -0.27083740062E+04  0.27083740062E+04  0.00000000000E+00 0. -1.
        -24    2    1    2    0    0  0.27275798465E+03  0.71683666916E+03 -0.12358390874E+03  0.78133305393E+03  0.83406415969E+02 0.  0.
    5000000    2    1    2    0    0 -0.27275798465E+03 -0.71683666916E+03 -0.21508030041E+04  0.23610280456E+04  0.60020674900E+03 0.  0.
        -24    2    4    4    0    0  0.15039891462E+03 -0.21798131100E+03 -0.36699167732E+03  0.45931108988E+03  0.78409824615E+02 0.  0.
         24    2    4    4    0    0 -0.42315689927E+03 -0.49885535816E+03 -0.17838113267E+04  0.19017169557E+04  0.81400863859E+02 0.  0.
         13    1    3    3    0    0  0.23631485766E+03  0.59473404258E+03 -0.72528501763E+02  0.64406030534E+03  0.00000000000E+00 0. -1.
        -14    1    3    3    0    0  0.36443126988E+02  0.12210262658E+03 -0.51055406981E+02  0.13727274859E+03  0.00000000000E+00 0.  1.
         15    1    5    5    0    0  0.40860707569E+02 -0.10519388217E+03 -0.10727866903E+03  0.15571519138E+03  0.17770000000E+01 0. -1.
        -16    1    5    5    0    0  0.10953820705E+03 -0.11278742882E+03 -0.25971300829E+03  0.30359589849E+03  0.00000000000E+00 0.  1.
          2    1    6    6  502    0 -0.15515437056E+03 -0.14790913666E+03 -0.67473478269E+03  0.70796682011E+03  0.00000000000E+00 0. -1.
         -1    1    6    6    0  502 -0.26800252871E+03 -0.35094622150E+03 -0.11090765440E+04  0.11937501356E+04  0.00000000000E+00 0.  1.
<mgrwt>
<rscale>  0 0.84670649E+03</rscale>
<asrwt>0</asrwt>
<pdfrwt beam="1">  1        1 0.41667293E+00 0.84670649E+03</pdfrwt>
<pdfrwt beam="2">  1       -2 0.66767244E-01 0.84670649E+03</pdfrwt>
<totfact> 0.18283321E+00</totfact>
</mgrwt>
</event>
<event>
12    3  0.1201947E-007  0.1073985E+04  0.7818608E-02  0.9230925E-01
         -2   -1    0    0    0  501 -0.00000000000E+00  0.00000000000E+00  0.16998487481E+04  0.16998487481E+04  0.00000000000E+00 0.  1.
          1   -1    0    0  501    0  0.00000000000E+00 -0.00000000000E+00 -0.12018372433E+04  0.12018372433E+04  0.00000000000E+00 0. -1.
        -24    2    1    2    0    0  0.84732290962E+03  0.64704170783E+03 -0.62720977905E+03  0.12395642397E+04  0.80674113810E+02 0.  0.
    5000000    2    1    2    0    0 -0.84732290962E+03 -0.64704170783E+03  0.11252212838E+04  0.16621217517E+04  0.59992224081E+03 0.  0.
        -24    2    4    4    0    0 -0.15479166020E+03 -0.17775380541E+03 -0.12213015845E+02  0.24793355899E+03  0.75927718988E+02 0.  0.
         24    2    4    4    0    0 -0.69253124942E+03 -0.46928790242E+03  0.11374342997E+04  0.14141881927E+04  0.79629087146E+02 0.  0.
         13    1    3    3    0    0  0.66637842940E+03  0.48608218464E+03 -0.45105708846E+03  0.94010031297E+03  0.00000000000E+00 0. -1.
        -14    1    3    3    0    0  0.18094448022E+03  0.16095952319E+03 -0.17615269059E+03  0.29946392676E+03  0.00000000000E+00 0.  1.
         15    1    5    5    0    0 -0.11575177070E+03 -0.96850889768E+02  0.20522418955E+02  0.15232496406E+03  0.17770000000E+01 0. -1.
        -16    1    5    5    0    0 -0.39039889506E+02 -0.80902915641E+02 -0.32735434800E+02  0.95608594924E+02  0.00000000000E+00 0.  1.
          2    1    6    6  502    0 -0.33146571606E+03 -0.27182698704E+03  0.59301939556E+03  0.73173180559E+03  0.00000000000E+00 0. -1.
         -1    1    6    6    0  502 -0.36106553336E+03 -0.19746091538E+03  0.54441490413E+03  0.68245638712E+03  0.00000000000E+00 0.  1.
<mgrwt>
<rscale>  0 0.10739853E+04</rscale>
<asrwt>0</asrwt>
<pdfrwt beam="1">  1        1 0.18489804E+00 0.10739853E+04</pdfrwt>
<pdfrwt beam="2">  1       -2 0.26151519E+00 0.10739853E+04</pdfrwt>
<totfact> 0.50654917E-01</totfact>
</mgrwt>
</event>
<event>
12    3  0.1201947E-007  0.5050897E+03  0.7818608E-02  0.1012459E+00
         -2   -1    0    0    0  501 -0.00000000000E+00  0.00000000000E+00  0.17606414047E+03  0.17606414047E+03  0.00000000000E+00 0.  1.
          1   -1    0    0  501    0  0.00000000000E+00 -0.00000000000E+00 -0.24840321961E+04  0.24840321961E+04  0.00000000000E+00 0. -1.
        -24    2    1    2    0    0  0.10871729074E+02  0.45740388181E+03 -0.14233440212E+04  0.14973200750E+04  0.81992064970E+02 0.  0.
    5000000    2    1    2    0    0 -0.10871729074E+02 -0.45740388181E+03 -0.88462403444E+03  0.11627762616E+04  0.60012702539E+03 0.  0.
        -24    2    4    4    0    0 -0.75345614647E+02 -0.45001488494E+03 -0.26328279138E+03  0.53296374087E+03  0.80883635714E+02 0.  0.
         24    2    4    4    0    0  0.64473885573E+02 -0.73889968637E+01 -0.62134124306E+03  0.62981252072E+03  0.79921159428E+02 0.  0.
         13    1    3    3    0    0  0.79033084630E+01  0.44883600343E+03 -0.14165832912E+04  0.14860095697E+04  0.00000000000E+00 0. -1.
        -14    1    3    3    0    0  0.29684206109E+01  0.85678783750E+01 -0.67607300359E+01  0.11310505355E+02  0.00000000000E+00 0.  1.
         15    1    5    5    0    0 -0.70703594466E+02 -0.43422004328E+03 -0.26884816896E+03  0.51558562813E+03  0.17770000000E+01 0. -1.
        -16    1    5    5    0    0 -0.46420201804E+01 -0.15794841665E+02  0.55653775818E+01  0.17378112734E+02  0.00000000000E+00 0.  1.
          2    1    6    6  502    0 -0.90261449522E+01 -0.19333605338E+02 -0.62717373703E+02  0.66247479592E+02  0.00000000000E+00 0. -1.
         -1    1    6    6    0  502  0.73500030525E+02  0.11944608474E+02 -0.55862386936E+03  0.56356504112E+03  0.00000000000E+00 0.  1.
<mgrwt>
<rscale>  0 0.50508966E+03</rscale>
<asrwt>0</asrwt>
<pdfrwt beam="1">  1        1 0.38215877E+00 0.50508966E+03</pdfrwt>
<pdfrwt beam="2">  1       -2 0.27086793E-01 0.50508966E+03</pdfrwt>
<totfact> 0.16546109E+01</totfact>
</mgrwt>
</event>
<event>
12    3  0.1201947E-007  0.4942230E+03  0.7818608E-02  0.1015298E+00
         -4   -1    0    0    0  501 -0.00000000000E+00  0.00000000000E+00  0.16470425728E+04  0.16470425728E+04  0.00000000000E+00 0.  1.
          3   -1    0    0  501    0  0.00000000000E+00 -0.00000000000E+00 -0.16882888566E+03  0.16882888566E+03  0.00000000000E+00 0. -1.
        -24    2    1    2    0    0  0.18409782554E+03 -0.27499835529E+03  0.70395362397E+03  0.78203346038E+03  0.80681619160E+02 0.  0.
    5000000    2    1    2    0    0 -0.18409782554E+03  0.27499835529E+03  0.77426006318E+03  0.10338379981E+04  0.59985519594E+03 0.  0.
        -24    2    4    4    0    0 -0.26080381728E+03  0.40642907999E+03  0.68565167717E+03  0.84238712952E+03  0.79338675409E+02 0.  0.
         24    2    4    4    0    0  0.76705991742E+02 -0.13143072470E+03  0.88608386014E+02  0.19145086858E+03  0.75127521204E+02 0.  0.
         13    1    3    3    0    0  0.16033181007E+03 -0.21834587909E+03  0.49548095028E+03  0.56469689598E+03  0.00000000000E+00 0. -1.
        -14    1    3    3    0    0  0.23766015476E+02 -0.56652476202E+02  0.20847267369E+03  0.21733656440E+03  0.00000000000E+00 0.  1.
         15    1    5    5    0    0 -0.76794549813E+02  0.72776303066E+02  0.18646992370E+03  0.21440145369E+03  0.17770000000E+01 0. -1.
        -16    1    5    5    0    0 -0.18400926747E+03  0.33365277692E+03  0.49918175346E+03  0.62798567584E+03  0.00000000000E+00 0.  1.
          4    1    6    6  502    0  0.80318996681E+02 -0.66586760616E+02  0.61230166785E+02  0.12097136538E+03  0.00000000000E+00 0. -1.
         -3    1    6    6    0  502 -0.36130049384E+01 -0.64843964083E+02  0.27378219230E+02  0.70479503197E+02  0.00000000000E+00 0.  1.
<mgrwt>
<rscale>  0 0.49422297E+03</rscale>
<asrwt>0</asrwt>
<pdfrwt beam="1">  1        3 0.25973676E-01 0.49422297E+03</pdfrwt>
<pdfrwt beam="2">  1       -4 0.25339115E+00 0.49422297E+03</pdfrwt>
<totfact> 0.19998896E+00</totfact>
</mgrwt>
</event>
<event>
12    3  0.1201947E-007  0.1396333E+04  0.7818608E-02  0.8956477E-01
          1   -1    0    0  501    0  0.00000000000E+00  0.00000000000E+00  0.16091814373E+04  0.16091814373E+04  0.00000000000E+00 0. -1.
         -2   -1    0    0    0  501 -0.00000000000E+00 -0.00000000000E+00 -0.22517161894E+04  0.22517161894E+04  0.00000000000E+00 0.  1.
        -24    2    1    2    0    0  0.13372566826E+04 -0.52765011792E+02 -0.16166139483E+04  0.21002641156E+04  0.81419382168E+02 0.  0.
    5000000    2    1    2    0    0 -0.13372566826E+04  0.52765011792E+02  0.97407919624E+03  0.17606335110E+04  0.59996708090E+03 0.  0.
        -24    2    4    4    0    0 -0.97207197952E+03 -0.22195729958E+03  0.70784347686E+03  0.12254590952E+04  0.80738033339E+02 0.  0.
         24    2    4    4    0    0 -0.36518470304E+03  0.27472231137E+03  0.26623571938E+03  0.53517441587E+03  0.81841196368E+02 0.  0.
         11    1    3    3    0    0  0.69372012949E+03 -0.15085175989E+02 -0.77719007242E+03  0.10418731157E+04  0.00000000000E+00 0. -1.
        -12    1    3    3    0    0  0.64353655307E+03 -0.37679835803E+02 -0.83942387590E+03  0.10583909999E+04  0.00000000000E+00 0.  1.
         15    1    5    5    0    0 -0.57693369834E+03 -0.12606798443E+03  0.46690850172E+03  0.75282955287E+03  0.17770000000E+01 0. -1.
        -16    1    5    5    0    0 -0.39513828118E+03 -0.95889315149E+02  0.24093497515E+03  0.47262954231E+03  0.00000000000E+00 0.  1.
          4    1    6    6  502    0 -0.17571941373E+03  0.13359203986E+03  0.81610572081E+02  0.23533897032E+03  0.00000000000E+00 0. -1.
         -3    1    6    6    0  502 -0.18946528931E+03  0.14113027151E+03  0.18462514730E+03  0.29983544554E+03  0.00000000000E+00 0.  1.
<mgrwt>
<rscale>  0 0.13963331E+04</rscale>
<asrwt>0</asrwt>
<pdfrwt beam="1">  1        1 0.24756638E+00 0.13963331E+04</pdfrwt>
<pdfrwt beam="2">  1       -2 0.34641787E+00 0.13963331E+04</pdfrwt>
<totfact> 0.75566734E-02</totfact>
</mgrwt>
</event>
<event>
12    3  0.1201947E-007  0.6900298E+03  0.7818608E-02  0.9734436E-01
          1   -1    0    0  501    0  0.00000000000E+00  0.00000000000E+00  0.16732582187E+04  0.16732582187E+04  0.00000000000E+00 0. -1.
         -2   -1    0    0    0  501 -0.00000000000E+00 -0.00000000000E+00 -0.38088721963E+03  0.38088721963E+03  0.00000000000E+00 0.  1.
        -24    2    1    2    0    0 -0.61077985289E+03  0.13210775410E+03  0.20222646473E+03  0.66169651666E+03  0.80263626487E+02 0.  0.
    5000000    2    1    2    0    0  0.61077985289E+03 -0.13210775410E+03  0.10901445344E+04  0.13924489217E+04  0.59999533856E+03 0.  0.
        -24    2    4    4    0    0  0.62299127792E+03 -0.31271939472E+02  0.10971302662E+04  0.12645153923E+04  0.78792702157E+02 0.  0.
         24    2    4    4    0    0 -0.12211425028E+02 -0.10083581463E+03 -0.69857318093E+01  0.12793352936E+03  0.77467458144E+02 0.  0.
         13    1    3    3    0    0 -0.21922333402E+03  0.21629205876E+02  0.40997918751E+02  0.22407035071E+03  0.00000000000E+00 0. -1.
        -14    1    3    3    0    0 -0.39155651887E+03  0.11047854823E+03  0.16122854598E+03  0.43762616595E+03  0.00000000000E+00 0.  1.
         15    1    5    5    0    0  0.30544605116E+03  0.89427159252E+01  0.59835079679E+03  0.67186612958E+03  0.17770000000E+01 0. -1.
        -16    1    5    5    0    0  0.31754522676E+03 -0.40214655397E+02  0.49877946937E+03  0.59264926273E+03  0.00000000000E+00 0.  1.
          2    1    6    6  502    0  0.96297672137E+01 -0.10465030045E+03 -0.15442305515E+01  0.10510376991E+03  0.00000000000E+00 0. -1.
         -1    1    6    6    0  502 -0.21841192242E+02  0.38144858176E+01 -0.54415012577E+01  0.22829759450E+02  0.00000000000E+00 0.  1.
<mgrwt>
<rscale>  0 0.69002978E+03</rscale>
<asrwt>0</asrwt>
<pdfrwt beam="1">  1        1 0.25742434E+00 0.69002978E+03</pdfrwt>
<pdfrwt beam="2">  1       -2 0.58598035E-01 0.69002978E+03</pdfrwt>
<totfact> 0.12397366E+01</totfact>
</mgrwt>
</event>
<event>
12    3  0.1508456E-007  0.4389404E+03  0.7818608E-02  0.1031072E+00
          1   -1    0    0  501    0  0.00000000000E+00  0.00000000000E+00  0.18396153591E+04  0.18396153591E+04  0.00000000000E+00 0. -1.
         -2   -1    0    0    0  501 -0.00000000000E+00 -0.00000000000E+00 -0.24148706000E+03  0.24148706000E+03  0.00000000000E+00 0.  1.
        -24    2    1    2    0    0  0.31693043349E+03  0.20398395705E+03  0.62999253138E+02  0.39042245974E+03  0.80040219669E+02 0.  0.
    5000000    2    1    2    0    0 -0.31693043349E+03 -0.20398395705E+03  0.15351290460E+04  0.16906799594E+04  0.59976927469E+03 0.  0.
        -24    2    4    4    0    0 -0.32937218810E+03 -0.22704462654E+03  0.47244664246E+03  0.62422110884E+03  0.80067858789E+02 0.  0.
         24    2    4    4    0    0  0.12441754612E+02  0.23060669488E+02  0.10626824035E+04  0.10664588505E+04  0.85755451330E+02 0.  0.
         11    1    3    3    0    0  0.79497827007E+02  0.92682856475E+02  0.71512510128E+01  0.12231580754E+03  0.00000000000E+00 0. -1.
        -12    1    3    3    0    0  0.23743260648E+03  0.11130110058E+03  0.55848002125E+02  0.26810665220E+03  0.00000000000E+00 0.  1.
         15    1    5    5    0    0 -0.88845348811E+02 -0.10277954233E+03  0.18260020605E+03  0.22760299494E+03  0.17770000000E+01 0. -1.
        -16    1    5    5    0    0 -0.24052683929E+03 -0.12426508421E+03  0.28984643642E+03  0.39661811390E+03  0.00000000000E+00 0.  1.
          4    1    6    6  502    0  0.26433551962E+02 -0.25309454736E+02  0.58108666701E+03  0.58223793740E+03  0.00000000000E+00 0. -1.
         -3    1    6    6    0  502 -0.13991797350E+02  0.48370124224E+02  0.48159573650E+03  0.48422091315E+03  0.00000000000E+00 0.  1.
<mgrwt>
<rscale>  0 0.43894035E+03</rscale>
<asrwt>0</asrwt>
<pdfrwt beam="1">  1        1 0.28301774E+00 0.43894035E+03</pdfrwt>
<pdfrwt beam="2">  1       -2 0.37151857E-01 0.43894035E+03</pdfrwt>
<totfact> 0.24998250E+01</totfact>
</mgrwt>
</event>
<event>
12    3  0.1201947E-007  0.8507140E+03  0.7818608E-02  0.9489379E-01
         -2   -1    0    0    0  501 -0.00000000000E+00  0.00000000000E+00  0.15130530948E+04  0.15130530948E+04  0.00000000000E+00 0.  1.
          1   -1    0    0  501    0  0.00000000000E+00 -0.00000000000E+00 -0.85776160361E+03  0.85776160361E+03  0.00000000000E+00 0. -1.
        -24    2    1    2    0    0  0.28371155958E+03 -0.79761048896E+03 -0.35598854281E+03  0.92190244553E+03  0.80632098556E+02 0.  0.
    5000000    2    1    2    0    0 -0.28371155958E+03  0.79761048896E+03  0.10112800340E+04  0.14489122529E+04  0.59998722339E+03 0.  0.
        -24    2    4    4    0    0 -0.74155157718E+02  0.24441663041E+03 -0.65971225129E+01  0.26900468761E+03  0.84151787225E+02 0.  0.
         24    2    4    4    0    0 -0.20955640186E+03  0.55319385856E+03  0.10178771565E+04  0.11799075653E+04  0.78553333103E+02 0.  0.
         13    1    3    3    0    0  0.24051569780E+03 -0.68786431261E+03 -0.27515513052E+03  0.77891941772E+03  0.00000000000E+00 0. -1.
        -14    1    3    3    0    0  0.43195861772E+02 -0.10974617635E+03 -0.80833412288E+02  0.14298302781E+03  0.00000000000E+00 0.  1.
         15    1    5    5    0    0 -0.83480739739E+02  0.20839187350E+03 -0.27740193370E+02  0.22620539981E+03  0.17770000000E+01 0. -1.
        -16    1    5    5    0    0  0.93255820212E+01  0.36024756909E+02  0.21143070857E+02  0.42799287794E+02  0.00000000000E+00 0.  1.
          4    1    6    6  502    0 -0.13745016424E+03  0.30340011627E+03  0.50603391433E+03  0.60581721720E+03  0.00000000000E+00 0. -1.
         -3    1    6    6    0  502 -0.72106237621E+02  0.24979374228E+03  0.51184324215E+03  0.57409034805E+03  0.00000000000E+00 0.  1.
<mgrwt>
<rscale>  0 0.85071396E+03</rscale>
<asrwt>0</asrwt>
<pdfrwt beam="1">  1        1 0.13196332E+00 0.85071396E+03</pdfrwt>
<pdfrwt beam="2">  1       -2 0.23277740E+00 0.85071396E+03</pdfrwt>
<totfact> 0.14482556E+00</totfact>
</mgrwt>
</event>
<event>
12    3  0.1201947E-007  0.6683144E+03  0.7818608E-02  0.9773008E-01
          1   -1    0    0  501    0  0.00000000000E+00  0.00000000000E+00  0.13726081661E+04  0.13726081661E+04  0.00000000000E+00 0. -1.
         -2   -1    0    0    0  501 -0.00000000000E+00 -0.00000000000E+00 -0.42825789079E+03  0.42825789079E+03  0.00000000000E+00 0.  1.
        -24    2    1    2    0    0  0.30324157207E+03 -0.53464458986E+03  0.63673727464E+03  0.88853635054E+03  0.79134068701E+02 0.  0.
    5000000    2    1    2    0    0 -0.30324157207E+03  0.53464458986E+03  0.30761300064E+03  0.91232970632E+03  0.59993286823E+03 0.  0.
        -24    2    4    4    0    0 -0.31159801378E+03  0.19810905996E+03  0.40381042198E+03  0.55304974963E+03  0.80378148969E+02 0.  0.
         24    2    4    4    0    0  0.83564417082E+01  0.33653552990E+03 -0.96197421334E+02  0.35927995670E+03  0.80635912679E+02 0.  0.
         11    1    3    3    0    0  0.14216850246E+03 -0.18623773200E+03  0.27260496728E+03  0.35945770836E+03  0.00000000000E+00 0. -1.
        -12    1    3    3    0    0  0.16107306961E+03 -0.34840685786E+03  0.36413230736E+03  0.52907864219E+03  0.00000000000E+00 0.  1.
         15    1    5    5    0    0 -0.19121982069E+03  0.78104192632E+02  0.19813739595E+03  0.28622870250E+03  0.17770000000E+01 0. -1.
        -16    1    5    5    0    0 -0.12037819309E+03  0.12000486733E+03  0.20567302602E+03  0.26682104713E+03  0.00000000000E+00 0.  1.
          4    1    6    6  502    0  0.34416619976E+02  0.18002139102E+03 -0.79342447037E+02  0.19971837386E+03  0.00000000000E+00 0. -1.
         -3    1    6    6    0  502 -0.26060178268E+02  0.15651413888E+03 -0.16854974298E+02  0.15956158284E+03  0.00000000000E+00 0.  1.
<mgrwt>
<rscale>  0 0.66831442E+03</rscale>
<asrwt>0</asrwt>
<pdfrwt beam="1">  1        1 0.21117048E+00 0.66831442E+03</pdfrwt>
<pdfrwt beam="2">  1       -2 0.65885830E-01 0.66831442E+03</pdfrwt>
<totfact> 0.15544314E+01</totfact>
</mgrwt>
</event>
<event>
12    3  0.1201947E-007  0.7562563E+03  0.7818608E-02  0.9625586E-01
          1   -1    0    0  501    0  0.00000000000E+00  0.00000000000E+00  0.14096400625E+04  0.14096400625E+04  0.00000000000E+00 0. -1.
         -2   -1    0    0    0  501 -0.00000000000E+00 -0.00000000000E+00 -0.62359769763E+03  0.62359769763E+03  0.00000000000E+00 0.  1.
        -24    2    1    2    0    0 -0.10225135996E+03 -0.70819710116E+03 -0.12176956884E+03  0.73086802410E+03  0.85684106216E+02 0.  0.
    5000000    2    1    2    0    0  0.10225135996E+03  0.70819710116E+03  0.90781193368E+03  0.13023697360E+04  0.60003828847E+03 0.  0.
        -24    2    4    4    0    0 -0.88793151064E+02  0.88231541270E+02  0.52392267169E+03  0.54438713265E+03  0.78697876263E+02 0.  0.
         24    2    4    4    0    0  0.19104451102E+03  0.61996555989E+03  0.38388926199E+03  0.75798260336E+03  0.79444073948E+02 0.  0.
         13    1    3    3    0    0 -0.29192581363E+02 -0.46693845194E+03 -0.94727069307E+02  0.47734363133E+03  0.00000000000E+00 0. -1.
        -14    1    3    3    0    0 -0.73058778594E+02 -0.24125864921E+03 -0.27042499531E+02  0.25352439277E+03  0.00000000000E+00 0.  1.
         15    1    5    5    0    0 -0.55060577751E+02  0.94714557133E+01  0.13454976543E+03  0.14569891147E+03  0.17770000000E+01 0. -1.
        -16    1    5    5    0    0 -0.33732573312E+02  0.78760085556E+02  0.38937290626E+03  0.39868822118E+03  0.00000000000E+00 0.  1.
          4    1    6    6  502    0  0.35769140827E+01  0.67627743245E+02  0.61776972576E+02  0.91666244122E+02  0.00000000000E+00 0. -1.
         -3    1    6    6    0  502  0.18746759694E+03  0.55233781664E+03  0.32211228942E+03  0.66631635924E+03  0.00000000000E+00 0.  1.
<mgrwt>
<rscale>  0 0.75625629E+03</rscale>
<asrwt>0</asrwt>
<pdfrwt beam="1">  1        1 0.21686770E+00 0.75625629E+03</pdfrwt>
<pdfrwt beam="2">  1       -2 0.95938108E-01 0.75625629E+03</pdfrwt>
<totfact> 0.62272112E+00</totfact>
</mgrwt>
</event>
<event>
12    3  0.1201947E-007  0.9966275E+03  0.7818608E-02  0.9312251E-01
         -2   -1    0    0    0  501 -0.00000000000E+00  0.00000000000E+00  0.79121883525E+03  0.79121883525E+03  0.00000000000E+00 0.  1.
          1   -1    0    0  501    0  0.00000000000E+00 -0.00000000000E+00 -0.12792710351E+04  0.12792710351E+04  0.00000000000E+00 0. -1.
        -24    2    1    2    0    0 -0.83043939494E+03 -0.38005986274E+03 -0.27365434642E+03  0.95691260141E+03  0.81975224741E+02 0.  0.
    5000000    2    1    2    0    0  0.83043939494E+03  0.38005986274E+03 -0.21439785346E+03  0.11135772690E+04  0.60001067197E+03 0.  0.
        -24    2    4    4    0    0 -0.73688379061E+02  0.58773838114E+02 -0.65406336099E+02  0.13930962065E+03  0.79024302264E+02 0.  0.
         24    2    4    4    0    0  0.90412777400E+03  0.32128602463E+03 -0.14899151736E+03  0.97426764833E+03  0.79543931166E+02 0.  0.
         11    1    3    3    0    0 -0.40856714089E+03 -0.14199209041E+03 -0.12817743917E+03  0.45113004585E+03  0.00000000000E+00 0. -1.
        -12    1    3    3    0    0 -0.42187225405E+03 -0.23806777233E+03 -0.14547690725E+03  0.50578255555E+03  0.00000000000E+00 0.  1.
         15    1    5    5    0    0 -0.10427625144E+01  0.41641150049E+02 -0.26191722330E+01  0.41774280643E+02  0.17770000000E+01 0. -1.
        -16    1    5    5    0    0 -0.72645616547E+02  0.17132688065E+02 -0.62787163866E+02  0.97535340006E+02  0.00000000000E+00 0.  1.
          2    1    6    6  502    0  0.65937861484E+03  0.24825975850E+03 -0.76130618341E+02  0.70866701380E+03  0.00000000000E+00 0. -1.
         -1    1    6    6    0  502  0.24474915916E+03  0.73026266135E+02 -0.72860899016E+02  0.26560063453E+03  0.00000000000E+00 0.  1.
<mgrwt>
<rscale>  0 0.99662751E+03</rscale>
<asrwt>0</asrwt>
<pdfrwt beam="1">  1        1 0.19681093E+00 0.99662751E+03</pdfrwt>
<pdfrwt beam="2">  1       -2 0.12172598E+00 0.99662751E+03</pdfrwt>
<totfact> 0.42000460E+00</totfact>
</mgrwt>
</event>
<event>
12    3  0.1201947E-007  0.8910824E+03  0.7818608E-02  0.9436798E-01
         -2   -1    0    0    0  501 -0.00000000000E+00  0.00000000000E+00  0.51114848508E+03  0.51114848508E+03  0.00000000000E+00 0.  1.
          1   -1    0    0  501    0  0.00000000000E+00 -0.00000000000E+00 -0.21512278416E+04  0.21512278416E+04  0.00000000000E+00 0. -1.
        -24    2    1    2    0    0  0.51630732189E+03  0.70771626645E+03 -0.12558658922E+04  0.15332695560E+04  0.79251673387E+02 0.  0.
    5000000    2    1    2    0    0 -0.51630732189E+03 -0.70771626645E+03 -0.38421346430E+03  0.11291067707E+04  0.59985544008E+03 0.  0.
        -24    2    4    4    0    0 -0.13406671916E+03 -0.51381958701E+02 -0.32350334777E+03  0.36288741345E+03  0.80117837944E+02 0.  0.
         24    2    4    4    0    0 -0.38224060273E+03 -0.65633430775E+03 -0.60710116533E+02  0.76621935722E+03  0.80769940125E+02 0.  0.
         11    1    3    3    0    0  0.30541565709E+03  0.38799542087E+03 -0.64589511571E+03  0.81301886245E+03  0.00000000000E+00 0. -1.
        -12    1    3    3    0    0  0.21089166480E+03  0.31972084558E+03 -0.60997077649E+03  0.72025069354E+03  0.00000000000E+00 0.  1.
         15    1    5    5    0    0 -0.95422643125E+02 -0.44642381814E+02 -0.29805025495E+03  0.31612582191E+03  0.17770000000E+01 0. -1.
        -16    1    5    5    0    0 -0.38644076035E+02 -0.67395768867E+01 -0.25453092820E+02  0.46761591539E+02  0.00000000000E+00 0.  1.
          2    1    6    6  502    0 -0.14675533344E+03 -0.29499557772E+03  0.74479270364E+01  0.32956788434E+03  0.00000000000E+00 0. -1.
         -1    1    6    6    0  502 -0.23548526928E+03 -0.36133873002E+03 -0.68158043569E+02  0.43665147288E+03  0.00000000000E+00 0.  1.
<mgrwt>
<rscale>  0 0.89108244E+03</rscale>
<asrwt>0</asrwt>
<pdfrwt beam="1">  1        1 0.33095813E+00 0.89108244E+03</pdfrwt>
<pdfrwt beam="2">  1       -2 0.78638229E-01 0.89108244E+03</pdfrwt>
<totfact> 0.30391553E+00</totfact>
</mgrwt>
</event>
<event>
12    3  0.1201947E-007  0.6825090E+03  0.7818608E-02  0.9747621E-01
          1   -1    0    0  501    0  0.00000000000E+00  0.00000000000E+00  0.14867262985E+04  0.14867262985E+04  0.00000000000E+00 0. -1.
         -2   -1    0    0    0  501 -0.00000000000E+00 -0.00000000000E+00 -0.39602765380E+03  0.39602765380E+03  0.00000000000E+00 0.  1.
        -24    2    1    2    0    0 -0.30611553364E+03 -0.47080294374E+03  0.68712255234E+02  0.57139468845E+03  0.80052384138E+02 0.  0.
    5000000    2    1    2    0    0  0.30611553364E+03  0.47080294374E+03  0.10219863895E+04  0.13113592638E+04  0.59987065842E+03 0.  0.
        -24    2    4    4    0    0  0.47207823042E+03  0.33718532716E+03  0.64112894179E+03  0.86741541518E+03  0.69364126068E+02 0.  0.
         24    2    4    4    0    0 -0.16596269679E+03  0.13361761658E+03  0.38085744766E+03  0.44394384866E+03  0.81464477745E+02 0.  0.
         13    1    3    3    0    0 -0.15069494030E+03 -0.28979565295E+03  0.63559382107E+02  0.33276159718E+03  0.00000000000E+00 0. -1.
        -14    1    3    3    0    0 -0.15542059333E+03 -0.18100729079E+03  0.51528731265E+01  0.23863309128E+03  0.00000000000E+00 0.  1.
         15    1    5    5    0    0  0.18477530694E+03  0.92015258743E+02  0.21740264514E+03  0.29979291142E+03  0.17770000000E+01 0. -1.
        -16    1    5    5    0    0  0.28730292348E+03  0.24517006842E+03  0.42372629665E+03  0.56762250375E+03  0.00000000000E+00 0.  1.
          2    1    6    6  502    0 -0.12427348511E+03  0.80111980978E+02  0.32125773815E+03  0.35365005714E+03  0.00000000000E+00 0. -1.
         -1    1    6    6    0  502 -0.41689211679E+02  0.53505635601E+02  0.59599709513E+02  0.90293791512E+02  0.00000000000E+00 0.  1.
<mgrwt>
<rscale>  0 0.68250904E+03</rscale>
<asrwt>0</asrwt>
<pdfrwt beam="1">  1        1 0.22872712E+00 0.68250904E+03</pdfrwt>
<pdfrwt beam="2">  1       -2 0.60927332E-01 0.68250904E+03</pdfrwt>
<totfact> 0.15294604E+01</totfact>
</mgrwt>
</event>
<event>
12    3  0.1201947E-007  0.1515410E+04  0.7818608E-02  0.8874270E-01
         -2   -1    0    0    0  501 -0.00000000000E+00  0.00000000000E+00  0.12629597888E+04  0.12629597888E+04  0.00000000000E+00 0.  1.
          1   -1    0    0  501    0  0.00000000000E+00 -0.00000000000E+00 -0.19324710337E+04  0.19324710337E+04  0.00000000000E+00 0. -1.
        -24    2    1    2    0    0 -0.13382514176E+04  0.67714085752E+03 -0.43199008197E+03  0.15628501646E+04  0.80303228238E+02 0.  0.
    5000000    2    1    2    0    0  0.13382514176E+04 -0.67714085752E+03 -0.23752116294E+03  0.16325806580E+04  0.59955542236E+03 0.  0.
        -24    2    4    4    0    0  0.24367331790E+03 -0.85035576781E+01  0.14040887672E+03  0.29306876101E+03  0.82010058342E+02 0.  0.
         24    2    4    4    0    0  0.10945780997E+04 -0.66863729985E+03 -0.37793003966E+03  0.13395118970E+04  0.79271383813E+02 0.  0.
         11    1    3    3    0    0 -0.82990263749E+02  0.25083412028E+02 -0.36639134848E+02  0.94122195249E+02  0.00000000000E+00 0. -1.
        -12    1    3    3    0    0 -0.12552611538E+04  0.65205744550E+03 -0.39535094713E+03  0.14687279693E+04  0.00000000000E+00 0.  1.
         15    1    5    5    0    0  0.17711319872E+03  0.85047450528E+01  0.59757113863E+02  0.18712425347E+03  0.17770000000E+01 0. -1.
        -16    1    5    5    0    0  0.66560119179E+02 -0.17008302731E+02  0.80651762852E+02  0.10594450754E+03  0.00000000000E+00 0.  1.
          4    1    6    6  502    0  0.10086863554E+04 -0.60014525148E+03 -0.32698888859E+03  0.12184187374E+04  0.00000000000E+00 0. -1.
         -3    1    6    6    0  502  0.85891744278E+02 -0.68492048367E+02 -0.50941151064E+02  0.12109315958E+03  0.00000000000E+00 0.  1.
<mgrwt>
<rscale>  0 0.15154096E+04</rscale>
<asrwt>0</asrwt>
<pdfrwt beam="1">  1        1 0.29730323E+00 0.15154096E+04</pdfrwt>
<pdfrwt beam="2">  1       -2 0.19430151E+00 0.15154096E+04</pdfrwt>
<totfact> 0.39637244E-01</totfact>
</mgrwt>
</event>
<event>
12    3  0.1201947E-007  0.4780528E+03  0.7818608E-02  0.1019672E+00
          1   -1    0    0  501    0  0.00000000000E+00  0.00000000000E+00  0.74215712299E+03  0.74215712299E+03  0.00000000000E+00 0. -1.
         -2   -1    0    0    0  501 -0.00000000000E+00 -0.00000000000E+00 -0.39383653842E+03  0.39383653842E+03  0.00000000000E+00 0.  1.
        -24    2    1    2    0    0  0.23837298645E+03  0.26176826364E+03  0.14300547615E+02  0.36335372854E+03  0.80480568240E+02 0.  0.
    5000000    2    1    2    0    0 -0.23837298645E+03 -0.26176826364E+03  0.33402003695E+03  0.77263993287E+03  0.60004897822E+03 0.  0.
        -24    2    4    4    0    0 -0.21374282859E+03  0.90870383241E+02  0.32886391678E+03  0.41028701552E+03  0.78997063411E+02 0.  0.
         24    2    4    4    0    0 -0.24630157862E+02 -0.35263864688E+03  0.51561201775E+01  0.36235291735E+03  0.79450558126E+02 0.  0.
         11    1    3    3    0    0  0.17719415246E+03  0.17461720614E+03  0.44387862997E+02  0.25270381621E+03  0.00000000000E+00 0. -1.
        -12    1    3    3    0    0  0.61178833991E+02  0.87151057500E+02 -0.30087315382E+02  0.11064991233E+03  0.00000000000E+00 0.  1.
         15    1    5    5    0    0 -0.49586925310E+02  0.47973711545E+02  0.55569914744E+02  0.88608765451E+02  0.17770000000E+01 0. -1.
        -16    1    5    5    0    0 -0.16415590328E+03  0.42896671696E+02  0.27329400203E+03  0.32167825007E+03  0.00000000000E+00 0.  1.
          2    1    6    6  502    0  0.28846500213E+02 -0.11207305787E+03  0.65515997416E+01  0.11591123472E+03  0.00000000000E+00 0. -1.
         -1    1    6    6    0  502 -0.53476658074E+02 -0.24056558901E+03 -0.13954795641E+01  0.24644168263E+03  0.00000000000E+00 0.  1.
<mgrwt>
<rscale>  0 0.47805279E+03</rscale>
<asrwt>0</asrwt>
<pdfrwt beam="1">  1        1 0.11417802E+00 0.47805279E+03</pdfrwt>
<pdfrwt beam="2">  1       -2 0.60590237E-01 0.47805279E+03</pdfrwt>
<totfact> 0.57823581E+01</totfact>
</mgrwt>
</event>
<event>
12    3  0.1201947E-007  0.5928072E+03  0.7818608E-02  0.9920442E-01
         -2   -1    0    0    0  501 -0.00000000000E+00  0.00000000000E+00  0.32619470492E+03  0.32619470492E+03  0.00000000000E+00 0.  1.
          1   -1    0    0  501    0  0.00000000000E+00 -0.00000000000E+00 -0.12367663229E+04  0.12367663229E+04  0.00000000000E+00 0. -1.
        -24    2    1    2    0    0  0.37453019350E+03  0.30983281432E+03 -0.42596334426E+03  0.65129955307E+03  0.80480423086E+02 0.  0.
    5000000    2    1    2    0    0 -0.37453019350E+03 -0.30983281432E+03 -0.48460827374E+03  0.91166147478E+03  0.60001018903E+03 0.  0.
        -24    2    4    4    0    0 -0.13247380613E+03  0.13196203991E+03  0.25999492442E+01  0.20600249079E+03  0.86411672746E+02 0.  0.
         24    2    4    4    0    0 -0.24205638737E+03 -0.44179485423E+03 -0.48720822298E+03  0.70565898399E+03  0.82515218265E+02 0.  0.
         11    1    3    3    0    0  0.50320889687E+02  0.66568701317E+02 -0.43912141925E+02  0.94296660293E+02  0.00000000000E+00 0. -1.
        -12    1    3    3    0    0  0.32420930381E+03  0.24326411301E+03 -0.38205120233E+03  0.55700289278E+03  0.00000000000E+00 0.  1.
         15    1    5    5    0    0 -0.10430213614E+03  0.11407059939E+03  0.36077795850E+02  0.15873185669E+03  0.17770000000E+01 0. -1.
        -16    1    5    5    0    0 -0.28171669992E+02  0.17891440524E+02 -0.33477846606E+02  0.47270634093E+02  0.00000000000E+00 0.  1.
          4    1    6    6  502    0 -0.14881920722E+03 -0.33832486145E+03 -0.37795620263E+03  0.52864142801E+03  0.00000000000E+00 0. -1.
         -3    1    6    6    0  502 -0.93237180156E+02 -0.10346999279E+03 -0.10925202036E+03  0.17701755597E+03  0.00000000000E+00 0.  1.
<mgrwt>
<rscale>  0 0.59280723E+03</rscale>
<asrwt>0</asrwt>
<pdfrwt beam="1">  1        1 0.19027174E+00 0.59280723E+03</pdfrwt>
<pdfrwt beam="2">  1       -2 0.50183802E-01 0.59280723E+03</pdfrwt>
<totfact> 0.34552388E+01</totfact>
</mgrwt>
</event>
<event>
12    3  0.1201947E-007  0.1058212E+04  0.7818608E-02  0.9246906E-01
         -2   -1    0    0    0  501 -0.00000000000E+00  0.00000000000E+00  0.17749056874E+04  0.17749056874E+04  0.00000000000E+00 0.  1.
          1   -1    0    0  501    0  0.00000000000E+00 -0.00000000000E+00 -0.67010196473E+03  0.67010196473E+03  0.00000000000E+00 0. -1.
        -24    2    1    2    0    0  0.77950152732E+03 -0.58599893149E+03  0.23294916251E+03  0.10057999695E+04  0.79692456091E+02 0.  0.
    5000000    2    1    2    0    0 -0.77950152732E+03  0.58599893149E+03  0.87185456012E+03  0.14392076826E+04  0.60014248374E+03 0.  0.
        -24    2    4    4    0    0 -0.53034600910E+03  0.40455485875E+02  0.36543958432E+03  0.65022586714E+03  0.79649562503E+02 0.  0.
         24    2    4    4    0    0 -0.24915551821E+03  0.54554344562E+03  0.50641497580E+03  0.78898181543E+03  0.79624456373E+02 0.  0.
         11    1    3    3    0    0  0.45371862860E+03 -0.36593949757E+03  0.17361324293E+03  0.60820544879E+03  0.00000000000E+00 0. -1.
        -12    1    3    3    0    0  0.32578289872E+03 -0.22005943392E+03  0.59335919587E+02  0.39759452072E+03  0.00000000000E+00 0.  1.
         15    1    5    5    0    0 -0.83773724288E+02  0.35997010544E+02  0.64353995131E+02  0.11161727495E+03  0.17770000000E+01 0. -1.
        -16    1    5    5    0    0 -0.44657228482E+03  0.44584753307E+01  0.30108558918E+03  0.53860859219E+03  0.00000000000E+00 0.  1.
          2    1    6    6  502    0 -0.12892521933E+03  0.21299732465E+03  0.24430127602E+03  0.34881612055E+03  0.00000000000E+00 0. -1.
         -1    1    6    6    0  502 -0.12023029888E+03  0.33254612097E+03  0.26211369978E+03  0.44016569489E+03  0.00000000000E+00 0.  1.
<mgrwt>
<rscale>  0 0.10582121E+04</rscale>
<asrwt>0</asrwt>
<pdfrwt beam="1">  1        1 0.10309261E+00 0.10582121E+04</pdfrwt>
<pdfrwt beam="2">  1       -2 0.27306241E+00 0.10582121E+04</pdfrwt>
<totfact> 0.11812779E+00</totfact>
</mgrwt>
</event>
<event>
12    3  0.1201947E-007  0.1397330E+04  0.7818608E-02  0.8955754E-01
          1   -1    0    0  501    0  0.00000000000E+00  0.00000000000E+00  0.14316982029E+04  0.14316982029E+04  0.00000000000E+00 0. -1.
         -2   -1    0    0    0  501 -0.00000000000E+00 -0.00000000000E+00 -0.19194510525E+04  0.19194510525E+04  0.00000000000E+00 0.  1.
        -24    2    1    2    0    0  0.14683226992E+03  0.13255400427E+04 -0.11339105007E+04  0.17523610353E+04  0.80000338607E+02 0.  0.
    5000000    2    1    2    0    0 -0.14683226992E+03 -0.13255400427E+04  0.64615765107E+03  0.15987882201E+04  0.59998995189E+03 0.  0.
        -24    2    4    4    0    0 -0.34146021323E+03 -0.10851692002E+04  0.54606087237E+03  0.12644546537E+04  0.80472508747E+02 0.  0.
         24    2    4    4    0    0  0.19462794331E+03 -0.24037084247E+03  0.10009677869E+03  0.33433356636E+03  0.78111396492E+02 0.  0.
         11    1    3    3    0    0  0.57870834602E+02  0.24430769758E+03 -0.20516716891E+03  0.32423579659E+03  0.00000000000E+00 0. -1.
        -12    1    3    3    0    0  0.88961435315E+02  0.10812323451E+04 -0.92874333180E+03  0.14281252387E+04  0.00000000000E+00 0.  1.
         15    1    5    5    0    0 -0.14996793457E+03 -0.59211432735E+03  0.27025198279E+03  0.66792892585E+03  0.17770000000E+01 0. -1.
        -16    1    5    5    0    0 -0.19149227865E+03 -0.49305487285E+03  0.27580888958E+03  0.59652572786E+03  0.00000000000E+00 0.  1.
          2    1    6    6  502    0  0.78029163473E+02 -0.15793883365E+03  0.57935590967E+02  0.18544475789E+03  0.00000000000E+00 0. -1.
         -1    1    6    6    0  502  0.11659877984E+03 -0.82432008822E+02  0.42161187728E+02  0.14888880847E+03  0.00000000000E+00 0.  1.
<mgrwt>
<rscale>  0 0.13973299E+04</rscale>
<asrwt>0</asrwt>
<pdfrwt beam="1">  1        1 0.22026126E+00 0.13973299E+04</pdfrwt>
<pdfrwt beam="2">  1       -2 0.29530016E+00 0.13973299E+04</pdfrwt>
<totfact> 0.20747782E-01</totfact>
</mgrwt>
</event>
<event>
12    3  0.1201947E-007  0.5410541E+03  0.7818608E-02  0.1003586E+00
         -2   -1    0    0    0  501 -0.00000000000E+00  0.00000000000E+00  0.25867036600E+03  0.25867036600E+03  0.00000000000E+00 0.  1.
          1   -1    0    0  501    0  0.00000000000E+00 -0.00000000000E+00 -0.12449290812E+04  0.12449290812E+04  0.00000000000E+00 0. -1.
        -24    2    1    2    0    0  0.34493255302E+03  0.18366179387E+03 -0.22320211321E+03  0.45716229324E+03  0.80424239866E+02 0.  0.
    5000000    2    1    2    0    0 -0.34493255302E+03 -0.18366179387E+03 -0.76305660204E+03  0.10464371540E+04  0.60005434646E+03 0.  0.
        -24    2    4    4    0    0 -0.97720326751E+02 -0.36298296904E+03 -0.30787598430E+03  0.49233880123E+03  0.79397578147E+02 0.  0.
         24    2    4    4    0    0 -0.24721222627E+03  0.17932117517E+03 -0.45518061774E+03  0.55409835277E+03  0.81028520247E+02 0.  0.
         11    1    3    3    0    0  0.10736882327E+03  0.24467704286E+02 -0.87372476732E+02  0.14057269456E+03  0.00000000000E+00 0. -1.
        -12    1    3    3    0    0  0.23756372975E+03  0.15919408958E+03 -0.13582963648E+03  0.31658959869E+03  0.00000000000E+00 0.  1.
         15    1    5    5    0    0 -0.24994510977E+02 -0.13799629739E+03 -0.69290421824E+02  0.15643536671E+03  0.17770000000E+01 0. -1.
        -16    1    5    5    0    0 -0.72725815775E+02 -0.22498667165E+03 -0.23858556248E+03  0.33590343452E+03  0.00000000000E+00 0.  1.
          4    1    6    6  502    0 -0.17088339080E+03  0.94758068237E+02 -0.33968745662E+03  0.39187726769E+03  0.00000000000E+00 0. -1.
         -3    1    6    6    0  502 -0.76328835468E+02  0.84563106936E+02 -0.11549316112E+03  0.16222108508E+03  0.00000000000E+00 0.  1.
<mgrwt>
<rscale>  0 0.54105409E+03</rscale>
<asrwt>0</asrwt>
<pdfrwt beam="1">  1        1 0.19152755E+00 0.54105409E+03</pdfrwt>
<pdfrwt beam="2">  1       -2 0.39795441E-01 0.54105409E+03</pdfrwt>
<totfact> 0.54373876E+01</totfact>
</mgrwt>
</event>
<event>
12    3  0.1201947E-007  0.4002375E+03  0.7818608E-02  0.1043697E+00
          1   -1    0    0  501    0  0.00000000000E+00  0.00000000000E+00  0.21579984216E+03  0.21579984216E+03  0.00000000000E+00 0. -1.
         -2   -1    0    0    0  501 -0.00000000000E+00 -0.00000000000E+00 -0.93733634781E+03  0.93733634781E+03  0.00000000000E+00 0.  1.
        -24    2    1    2    0    0  0.16498401495E+03  0.17329668349E+03 -0.22119942908E+03  0.33587696905E+03  0.81441299229E+02 0.  0.
    5000000    2    1    2    0    0 -0.16498401495E+03 -0.17329668349E+03 -0.50033707657E+03  0.81725922092E+03  0.60026992120E+03 0.  0.
        -24    2    4    4    0    0  0.12521752818E+03 -0.21620307819E+03 -0.39618602243E+02  0.26528574352E+03  0.79898008074E+02 0.  0.
         24    2    4    4    0    0 -0.29020154312E+03  0.42906394696E+02 -0.46071847433E+03  0.55197347739E+03  0.79720215910E+02 0.  0.
         13    1    3    3    0    0  0.11472899646E+03  0.61928422717E+02 -0.12077771430E+03  0.17772205389E+03  0.00000000000E+00 0. -1.
        -14    1    3    3    0    0  0.50255018492E+02  0.11136826077E+03 -0.10042171477E+03  0.15815491516E+03  0.00000000000E+00 0.  1.
         15    1    5    5    0    0  0.48522438742E+02 -0.62372521889E+02 -0.49241746396E+02  0.93127148916E+02  0.17770000000E+01 0. -1.
        -16    1    5    5    0    0  0.76695089435E+02 -0.15383055630E+03  0.96231441532E+01  0.17215859461E+03  0.00000000000E+00 0.  1.
          2    1    6    6  502    0 -0.25482324707E+02  0.17785708411E+02 -0.93937685427E+02  0.98944272393E+02  0.00000000000E+00 0. -1.
         -1    1    6    6    0  502 -0.26471921842E+03  0.25120686285E+02 -0.36678078890E+03  0.45302920500E+03  0.00000000000E+00 0.  1.
<mgrwt>
<rscale>  0 0.40023750E+03</rscale>
<asrwt>0</asrwt>
<pdfrwt beam="1">  1        1 0.33199975E-01 0.40023750E+03</pdfrwt>
<pdfrwt beam="2">  1       -2 0.14420559E+00 0.40023750E+03</pdfrwt>
<totfact> 0.40735314E+01</totfact>
</mgrwt>
</event>
<event>
12    3  0.1201947E-007  0.3598402E+03  0.7818608E-02  0.1058647E+00
         -2   -1    0    0    0  501 -0.00000000000E+00  0.00000000000E+00  0.75734222905E+03  0.75734222905E+03  0.00000000000E+00 0.  1.
          1   -1    0    0  501    0  0.00000000000E+00 -0.00000000000E+00 -0.41072280933E+03  0.41072280933E+03  0.00000000000E+00 0. -1.
        -24    2    1    2    0    0 -0.19929340296E+03 -0.40315996836E+02  0.47394369911E+03  0.52188233339E+03  0.79970619027E+02 0.  0.
    5000000    2    1    2    0    0  0.19929340296E+03  0.40315996836E+02 -0.12732427940E+03  0.64618270499E+03  0.59999781336E+03 0.  0.
        -24    2    4    4    0    0 -0.13131680170E+03 -0.67422356622E+02  0.12453456107E+03  0.20932744790E+03  0.80741853842E+02 0.  0.
         24    2    4    4    0    0  0.33061020466E+03  0.10773835346E+03 -0.25185884046E+03  0.43685525709E+03  0.80616250804E+02 0.  0.
         11    1    3    3    0    0 -0.46998648218E+02 -0.15417112443E+02  0.21349150763E+03  0.21914649009E+03  0.00000000000E+00 0. -1.
        -12    1    3    3    0    0 -0.15229475474E+03 -0.24898884394E+02  0.26045219148E+03  0.30273584329E+03  0.00000000000E+00 0.  1.
         15    1    5    5    0    0 -0.25575426550E+02 -0.55201079624E+02  0.56150196178E+02  0.82808597951E+02  0.17770000000E+01 0. -1.
        -16    1    5    5    0    0 -0.10574137515E+03 -0.12221276998E+02  0.68384364888E+02  0.12651884995E+03  0.00000000000E+00 0.  1.
          2    1    6    6  502    0  0.11536335284E+03  0.25347973873E+02 -0.13180575383E+03  0.17698581779E+03  0.00000000000E+00 0. -1.
         -1    1    6    6    0  502  0.21524685183E+03  0.82390379586E+02 -0.12005308663E+03  0.25986943929E+03  0.00000000000E+00 0.  1.
<mgrwt>
<rscale>  0 0.35984018E+03</rscale>
<asrwt>0</asrwt>
<pdfrwt beam="1">  1        1 0.63188125E-01 0.35984018E+03</pdfrwt>
<pdfrwt beam="2">  1       -2 0.11651419E+00 0.35984018E+03</pdfrwt>
<totfact> 0.30613278E+01</totfact>
</mgrwt>
</event>
<event>
12    3  0.1201947E-007  0.1794328E+04  0.7818608E-02  0.8709322E-01
          1   -1    0    0  501    0  0.00000000000E+00  0.00000000000E+00  0.26718758118E+04  0.26718758118E+04  0.00000000000E+00 0. -1.
         -2   -1    0    0    0  501 -0.00000000000E+00 -0.00000000000E+00 -0.12266015821E+04  0.12266015821E+04  0.00000000000E+00 0.  1.
        -24    2    1    2    0    0  0.64827585936E+03  0.16209680373E+04  0.94142653130E+03  0.19849487647E+04  0.77063070052E+02 0.  0.
    5000000    2    1    2    0    0 -0.64827585936E+03 -0.16209680373E+04  0.50384769845E+03  0.19135286291E+04  0.59994195007E+03 0.  0.
        -24    2    4    4    0    0 -0.74428613911E+03 -0.12937902637E+04  0.37438265761E+03  0.15401884141E+04  0.64520332684E+02 0.  0.
         24    2    4    4    0    0  0.96010279757E+02 -0.32717777362E+03  0.12946504084E+03  0.37334021502E+03  0.79739889539E+02 0.  0.
         11    1    3    3    0    0  0.47644903434E+03  0.11048786008E+04  0.63057995145E+03  0.13584518688E+04  0.00000000000E+00 0. -1.
        -12    1    3    3    0    0  0.17182682502E+03  0.51608943656E+03  0.31084657984E+03  0.62649689586E+03  0.00000000000E+00 0.  1.
         15    1    5    5    0    0 -0.59655231257E+03 -0.10065095269E+04  0.31570178842E+03  0.12118609104E+04  0.17770000000E+01 0. -1.
        -16    1    5    5    0    0 -0.14773382654E+03 -0.28728073686E+03  0.58680869195E+02  0.32832750370E+03  0.00000000000E+00 0.  1.
          2    1    6    6  502    0  0.70436022729E+02 -0.11602830098E+03  0.68744607222E+02  0.15214999490E+03  0.00000000000E+00 0. -1.
         -1    1    6    6    0  502  0.25574257027E+02 -0.21114947264E+03  0.60720433614E+02  0.22119022012E+03  0.00000000000E+00 0.  1.
<mgrwt>
<rscale>  0 0.17943279E+04</rscale>
<asrwt>0</asrwt>
<pdfrwt beam="1">  1        1 0.41105782E+00 0.17943279E+04</pdfrwt>
<pdfrwt beam="2">  1       -2 0.18870794E+00 0.17943279E+04</pdfrwt>
<totfact> 0.13018554E-01</totfact>
</mgrwt>
</event>
<event>
12    3  0.1201947E-007  0.5335684E+03  0.7818608E-02  0.1005370E+00
          1   -1    0    0  501    0  0.00000000000E+00  0.00000000000E+00  0.11361011440E+04  0.11361011440E+04  0.00000000000E+00 0. -1.
         -2   -1    0    0    0  501 -0.00000000000E+00 -0.00000000000E+00 -0.27564486972E+03  0.27564486972E+03  0.00000000000E+00 0.  1.
        -24    2    1    2    0    0  0.35944902030E+03  0.16084727199E+03  0.33591403890E+03  0.52281342194E+03  0.73621936463E+02 0.  0.
    5000000    2    1    2    0    0 -0.35944902030E+03 -0.16084727199E+03  0.52454223540E+03  0.88893259181E+03  0.59998429392E+03 0.  0.
        -24    2    4    4    0    0 -0.41077041636E+01  0.16824374279E+03  0.29025191137E+03  0.34507577364E+03  0.80673956645E+02 0.  0.
         24    2    4    4    0    0 -0.35534131614E+03 -0.32909101477E+03  0.23429032403E+03  0.54385681817E+03  0.79498023695E+02 0.  0.
         13    1    3    3    0    0  0.14644525568E+03  0.35655007197E+02  0.15793165296E+03  0.21831147349E+03  0.00000000000E+00 0. -1.
        -14    1    3    3    0    0  0.21300376462E+03  0.12519226479E+03  0.17798238594E+03  0.30450194845E+03  0.00000000000E+00 0.  1.
         15    1    5    5    0    0 -0.32618220048E+02  0.10274721726E+03  0.21942551922E+03  0.24448242298E+03  0.17770000000E+01 0. -1.
        -16    1    5    5    0    0  0.28510515884E+02  0.65496525523E+02  0.70826392150E+02  0.10059335066E+03  0.00000000000E+00 0.  1.
          2    1    6    6  502    0 -0.15047127558E+03 -0.19046531999E+03  0.13064488522E+03  0.27565690437E+03  0.00000000000E+00 0. -1.
         -3    1    6    6    0  502 -0.20487004056E+03 -0.13862569478E+03  0.10364543882E+03  0.26819991380E+03  0.00000000000E+00 0.  1.
<mgrwt>
<rscale>  0 0.53356837E+03</rscale>
<asrwt>0</asrwt>
<pdfrwt beam="1">  1        1 0.17478479E+00 0.53356837E+03</pdfrwt>
<pdfrwt beam="2">  1       -2 0.42406904E-01 0.53356837E+03</pdfrwt>
<totfact> 0.57575588E+01</totfact>
</mgrwt>
</event>
<event>
12    3  0.1201947E-007  0.4373198E+03  0.7818608E-02  0.1031572E+00
         -4   -1    0    0    0  501 -0.00000000000E+00  0.00000000000E+00  0.86773043491E+03  0.86773043491E+03  0.00000000000E+00 0.  1.
          3   -1    0    0  501    0  0.00000000000E+00 -0.00000000000E+00 -0.70869168648E+03  0.70869168648E+03  0.00000000000E+00 0. -1.
        -24    2    1    2    0    0  0.34487443461E+03  0.24384671800E+03 -0.45014327527E+03  0.62275409493E+03  0.82426312296E+02 0.  0.
    5000000    2    1    2    0    0 -0.34487443461E+03 -0.24384671800E+03  0.60918202370E+03  0.95366802647E+03  0.59998364076E+03 0.  0.
        -24    2    4    4    0    0 -0.14045465756E+03 -0.94222705835E+02 -0.88479681193E+02  0.20716858216E+03  0.80527872961E+02 0.  0.
         24    2    4    4    0    0 -0.20441977705E+03 -0.14962401216E+03  0.69766170489E+03  0.74649944431E+03  0.79716846520E+02 0.  0.
         13    1    3    3    0    0  0.11739776566E+03  0.51211390215E+02 -0.17677588843E+03  0.21829923637E+03  0.00000000000E+00 0. -1.
        -14    1    3    3    0    0  0.22747666895E+03  0.19263532778E+03 -0.27336738684E+03  0.40445485856E+03  0.00000000000E+00 0.  1.
         15    1    5    5    0    0 -0.24559849014E+02  0.14309817757E+02 -0.15425531114E+02  0.32389223625E+02  0.17770000000E+01 0. -1.
        -16    1    5    5    0    0 -0.11589480855E+03 -0.10853252359E+03 -0.73054150078E+02  0.17477935853E+03  0.00000000000E+00 0.  1.
          4    1    6    6  502    0 -0.51836563642E+02 -0.69163554356E+01  0.92093348548E+02  0.10590585512E+03  0.00000000000E+00 0. -1.
         -3    1    6    6    0  502 -0.15258321341E+03 -0.14270765673E+03  0.60556835634E+03  0.64059358918E+03  0.00000000000E+00 0.  1.
<mgrwt>
<rscale>  0 0.43731983E+03</rscale>
<asrwt>0</asrwt>
<pdfrwt beam="1">  1        3 0.10902949E+00 0.43731983E+03</pdfrwt>
<pdfrwt beam="2">  1       -4 0.13349699E+00 0.43731983E+03</pdfrwt>
<totfact> 0.65588412E-01</totfact>
</mgrwt>
</event>
<event>
12    3  0.1201947E-007  0.6094111E+03  0.7818608E-02  0.9886071E-01
          1   -1    0    0  501    0  0.00000000000E+00  0.00000000000E+00  0.12878884235E+04  0.12878884235E+04  0.00000000000E+00 0. -1.
         -2   -1    0    0    0  501 -0.00000000000E+00 -0.00000000000E+00 -0.43446721105E+03  0.43446721105E+03  0.00000000000E+00 0.  1.
        -24    2    1    2    0    0  0.35025554955E+03  0.31161611587E+03 -0.11644960762E+03  0.48930805430E+03  0.77963499321E+02 0.  0.
    5000000    2    1    2    0    0 -0.35025554955E+03 -0.31161611587E+03  0.96987082003E+03  0.12330475802E+04  0.59997781113E+03 0.  0.
        -24    2    4    4    0    0 -0.11025096825E+03 -0.44901767030E+03  0.53919788705E+03  0.71471564019E+03  0.79447722987E+02 0.  0.
         24    2    4    4    0    0 -0.24000458130E+03  0.13740155443E+03  0.43067293298E+03  0.51833194002E+03  0.81898953833E+02 0.  0.
         11    1    3    3    0    0  0.13941808003E+03  0.16395760679E+03 -0.78678403053E+02  0.22915014504E+03  0.00000000000E+00 0. -1.
        -12    1    3    3    0    0  0.21083746952E+03  0.14765850908E+03 -0.37771204564E+02  0.26015790926E+03  0.00000000000E+00 0.  1.
         15    1    5    5    0    0 -0.55550853720E+02 -0.33293353338E+03  0.42665897887E+03  0.54403279035E+03  0.17770000000E+01 0. -1.
        -16    1    5    5    0    0 -0.54700114527E+02 -0.11608413692E+03  0.11253890818E+03  0.17068284984E+03  0.00000000000E+00 0.  1.
          2    1    6    6  502    0 -0.77852904717E+02  0.70128931400E+02  0.22307121208E+03  0.24645467626E+03  0.00000000000E+00 0. -1.
         -1    1    6    6    0  502 -0.16215167659E+03  0.67272623030E+02  0.20760172090E+03  0.27187726376E+03  0.00000000000E+00 0.  1.
<mgrwt>
<rscale>  0 0.60941113E+03</rscale>
<asrwt>0</asrwt>
<pdfrwt beam="1">  1        1 0.19813668E+00 0.60941113E+03</pdfrwt>
<pdfrwt beam="2">  1       -2 0.66841110E-01 0.60941113E+03</pdfrwt>
<totfact> 0.17418703E+01</totfact>
</mgrwt>
</event>
<event>
12    3  0.1201947E-007  0.9398199E+03  0.7818608E-02  0.9377129E-01
         -2   -1    0    0    0  501 -0.00000000000E+00  0.00000000000E+00  0.16192633479E+04  0.16192633479E+04  0.00000000000E+00 0.  1.
          1   -1    0    0  501    0  0.00000000000E+00 -0.00000000000E+00 -0.63583446665E+03  0.63583446665E+03  0.00000000000E+00 0. -1.
        -24    2    1    2    0    0  0.48236422322E+03  0.74685524715E+03  0.17170020088E+03  0.90997653623E+03  0.90046285117E+02 0.  0.
    5000000    2    1    2    0    0 -0.48236422322E+03 -0.74685524715E+03  0.81172868036E+03  0.13451212783E+04  0.59998316544E+03 0.  0.
        -24    2    4    4    0    0 -0.54726119788E+03 -0.63502364620E+03  0.45404984015E+03  0.95667657156E+03  0.79491856862E+02 0.  0.
         24    2    4    4    0    0  0.64896974658E+02 -0.11183160096E+03  0.35767884022E+03  0.38844470675E+03  0.78976029119E+02 0.  0.
         11    1    3    3    0    0  0.20688557252E+03  0.37324016321E+03  0.46998138567E+02  0.42932351972E+03  0.00000000000E+00 0. -1.
        -12    1    3    3    0    0  0.27547865070E+03  0.37361508394E+03  0.12470206231E+03  0.48065301651E+03  0.00000000000E+00 0.  1.
         15    1    5    5    0    0 -0.25582212160E+03 -0.28281052048E+03  0.25039976086E+03  0.45621261092E+03  0.17770000000E+01 0. -1.
        -16    1    5    5    0    0 -0.29143907627E+03 -0.35221312572E+03  0.20365007929E+03  0.50046396064E+03  0.00000000000E+00 0.  1.
          4    1    6    6  502    0  0.49003868306E+02 -0.12189923468E+03  0.29346321639E+03  0.32152987715E+03  0.00000000000E+00 0. -1.
         -3    1    6    6    0  502  0.15893106351E+02  0.10067633720E+02  0.64215623820E+02  0.66914829603E+02  0.00000000000E+00 0.  1.
<mgrwt>
<rscale>  0 0.93981988E+03</rscale>
<asrwt>0</asrwt>
<pdfrwt beam="1">  1        1 0.97820688E-01 0.93981988E+03</pdfrwt>
<pdfrwt beam="2">  1       -2 0.24911744E+00 0.93981988E+03</pdfrwt>
<totfact> 0.18103064E+00</totfact>
</mgrwt>
</event>
<event>
12    3  0.1201947E-007  0.1209714E+04  0.7818608E-02  0.9104397E-01
         -2   -1    0    0    0  501 -0.00000000000E+00  0.00000000000E+00  0.18644685836E+04  0.18644685836E+04  0.00000000000E+00 0.  1.
          1   -1    0    0  501    0  0.00000000000E+00 -0.00000000000E+00 -0.81779435614E+03  0.81779435614E+03  0.00000000000E+00 0. -1.
        -24    2    1    2    0    0  0.82274942616E+02 -0.11550344546E+04  0.57485483432E+03  0.12953189059E+04  0.80741748771E+02 0.  0.
    5000000    2    1    2    0    0 -0.82274942616E+02  0.11550344546E+04  0.47181939310E+03  0.13869440338E+04  0.60010537033E+03 0.  0.
        -24    2    4    4    0    0 -0.16149285222E+03  0.11436391261E+04  0.32736837544E+03  0.12032545457E+04  0.81615296109E+02 0.  0.
         24    2    4    4    0    0  0.79217909603E+02  0.11395328542E+02  0.14445101766E+03  0.18368948802E+03  0.80438801529E+02 0.  0.
         11    1    3    3    0    0  0.13554621469E+02 -0.21644702322E+03  0.14367362954E+03  0.26014448572E+03  0.00000000000E+00 0. -1.
        -12    1    3    3    0    0  0.68720321148E+02 -0.93858743141E+03  0.43118120478E+03  0.10351744202E+04  0.00000000000E+00 0.  1.
         15    1    5    5    0    0 -0.91797888207E+02  0.37658517283E+03  0.11401562510E+03  0.40403708390E+03  0.17770000000E+01 0. -1.
        -16    1    5    5    0    0 -0.69694964012E+02  0.76705395326E+03  0.21335275033E+03  0.79921746183E+03  0.00000000000E+00 0.  1.
          2    1    6    6  502    0  0.50722181329E+01  0.27322410074E+02  0.78195852798E+02  0.82986944057E+02  0.00000000000E+00 0. -1.
         -1    1    6    6    0  502  0.74145691470E+02 -0.15927081533E+02  0.66255164864E+02  0.10070254396E+03  0.00000000000E+00 0.  1.
<mgrwt>
<rscale>  0 0.12097136E+04</rscale>
<asrwt>0</asrwt>
<pdfrwt beam="1">  1        1 0.12581452E+00 0.12097136E+04</pdfrwt>
<pdfrwt beam="2">  1       -2 0.28684132E+00 0.12097136E+04</pdfrwt>
<totfact> 0.70143122E-01</totfact>
</mgrwt>
</event>
<event>
12    3  0.1201947E-007  0.1009863E+04  0.7818608E-02  0.9297793E-01
          1   -1    0    0  501    0  0.00000000000E+00  0.00000000000E+00  0.21673330509E+04  0.21673330509E+04  0.00000000000E+00 0. -1.
         -2   -1    0    0    0  501 -0.00000000000E+00 -0.00000000000E+00 -0.55428715924E+03  0.55428715924E+03  0.00000000000E+00 0.  1.
        -24    2    1    2    0    0  0.98731613930E+03  0.16072947457E+03  0.93871824094E+03  0.13742424475E+04  0.81995400199E+02 0.  0.
    5000000    2    1    2    0    0 -0.98731613930E+03 -0.16072947457E+03  0.67432765074E+03  0.13473777627E+04  0.60006827271E+03 0.  0.
        -24    2    4    4    0    0 -0.73155670536E+03 -0.76730639652E+02  0.75312061275E+03  0.10558299567E+04  0.80767789565E+02 0.  0.
         24    2    4    4    0    0 -0.25575943393E+03 -0.83998834913E+02 -0.78792962009E+02  0.29154780601E+03  0.79517922617E+02 0.  0.
         11    1    3    3    0    0  0.44769735007E+03  0.11120928603E+03  0.45285620132E+03  0.64643573666E+03  0.00000000000E+00 0. -1.
        -12    1    3    3    0    0  0.53961878922E+03  0.49520188536E+02  0.48586203962E+03  0.72780671081E+03  0.00000000000E+00 0.  1.
         15    1    5    5    0    0 -0.45506461920E+03 -0.19678661910E+02  0.50379758912E+03  0.67918055473E+03  0.17770000000E+01 0. -1.
        -16    1    5    5    0    0 -0.27649208616E+03 -0.57051977742E+02  0.24932302363E+03  0.37664940194E+03  0.00000000000E+00 0.  1.
          2    1    6    6  502    0  0.21376407083E+01 -0.10281409858E+02 -0.10312154819E+02  0.14717928981E+02  0.00000000000E+00 0. -1.
         -1    1    6    6    0  502 -0.25789707464E+03 -0.73717425056E+02 -0.68480807190E+02  0.27682987703E+03  0.00000000000E+00 0.  1.
<mgrwt>
<rscale>  0 0.10098633E+04</rscale>
<asrwt>0</asrwt>
<pdfrwt beam="1">  1        1 0.33343585E+00 0.10098633E+04</pdfrwt>
<pdfrwt beam="2">  1       -2 0.85274949E-01 0.10098633E+04</pdfrwt>
<totfact> 0.24270440E+00</totfact>
</mgrwt>
</event>
<event>
12    3  0.1201947E-007  0.8010395E+03  0.7818608E-02  0.9558514E-01
         -2   -1    0    0    0  501 -0.00000000000E+00  0.00000000000E+00  0.12526156072E+04  0.12526156072E+04  0.00000000000E+00 0.  1.
          1   -1    0    0  501    0  0.00000000000E+00 -0.00000000000E+00 -0.68183066592E+03  0.68183066592E+03  0.00000000000E+00 0. -1.
        -24    2    1    2    0    0  0.28291099562E+03  0.65351922039E+03 -0.17903982818E+03  0.73891366126E+03  0.82535664161E+02 0.  0.
    5000000    2    1    2    0    0 -0.28291099562E+03 -0.65351922039E+03  0.74982476944E+03  0.11955326118E+04  0.59994586277E+03 0.  0.
        -24    2    4    4    0    0 -0.41906211919E+03 -0.59680106825E+03  0.71461828057E+03  0.10241325343E+04  0.79897347021E+02 0.  0.
         24    2    4    4    0    0  0.13615112357E+03 -0.56718152133E+02  0.35206488870E+02  0.17140007755E+03  0.79902518685E+02 0.  0.
         11    1    3    3    0    0  0.86955063092E+02  0.11754634612E+03 -0.34924092228E+02  0.15032637394E+03  0.00000000000E+00 0. -1.
        -12    1    3    3    0    0  0.19595593253E+03  0.53597287427E+03 -0.14411573595E+03  0.58858728732E+03  0.00000000000E+00 0.  1.
         15    1    5    5    0    0 -0.19650204772E+03 -0.22419380465E+03  0.25954045537E+03  0.39527246616E+03  0.17770000000E+01 0. -1.
        -16    1    5    5    0    0 -0.22256007148E+03 -0.37260726360E+03  0.45507782520E+03  0.62886006814E+03  0.00000000000E+00 0.  1.
          2    1    6    6  502    0  0.13653895911E+03 -0.48606703491E+02  0.50997577743E+02  0.15364326186E+03  0.00000000000E+00 0. -1.
         -1    1    6    6    0  502 -0.38783553744E+00 -0.81114486414E+01 -0.15791088873E+02  0.17756815685E+02  0.00000000000E+00 0.  1.
<mgrwt>
<rscale>  0 0.80103953E+03</rscale>
<asrwt>0</asrwt>
<pdfrwt beam="1">  1        1 0.10489703E+00 0.80103953E+03</pdfrwt>
<pdfrwt beam="2">  1       -2 0.19271009E+00 0.80103953E+03</pdfrwt>
<totfact> 0.37635443E+00</totfact>
</mgrwt>
</event>
<event>
12    3  0.1201947E-007  0.6737480E+03  0.7818608E-02  0.9763211E-01
          1   -1    0    0  501    0  0.00000000000E+00  0.00000000000E+00  0.61977197946E+03  0.61977197946E+03  0.00000000000E+00 0. -1.
         -2   -1    0    0    0  501 -0.00000000000E+00 -0.00000000000E+00 -0.84311354369E+03  0.84311354369E+03  0.00000000000E+00 0.  1.
        -24    2    1    2    0    0 -0.54042490652E+03 -0.11287822261E+03  0.13236411771E+03  0.57316142654E+03  0.78696813749E+02 0.  0.
    5000000    2    1    2    0    0  0.54042490652E+03  0.11287822261E+03 -0.35570568193E+03  0.88972409660E+03  0.60023484003E+03 0.  0.
        -24    2    4    4    0    0  0.62043028170E+03  0.21617999386E+03 -0.30065918967E+03  0.72751521253E+03  0.84940637709E+02 0.  0.
         24    2    4    4    0    0 -0.80005375181E+02 -0.10330177125E+03 -0.55046492269E+02  0.16220888407E+03  0.78800315732E+02 0.  0.
         11    1    3    3    0    0 -0.19243936185E+03 -0.31571005823E+02  0.84801205880E+02  0.21265201837E+03  0.00000000000E+00 0. -1.
        -12    1    3    3    0    0 -0.34798554467E+03 -0.81307216784E+02  0.47562911829E+02  0.36050940817E+03  0.00000000000E+00 0.  1.
         15    1    5    5    0    0  0.16606490193E+03  0.98093855718E+02 -0.94411747809E+02  0.21474797330E+03  0.17770000000E+01 0. -1.
        -16    1    5    5    0    0  0.45436537977E+03  0.11808613814E+03 -0.20624744186E+03  0.51276723923E+03  0.00000000000E+00 0.  1.
          4    1    6    6  502    0 -0.17398449620E+02 -0.40637419649E+02 -0.58783368852E+02  0.73549917597E+02  0.00000000000E+00 0. -1.
         -1    1    6    6    0  502 -0.62606925561E+02 -0.62664351602E+02  0.37368765838E+01  0.88658966475E+02  0.00000000000E+00 0.  1.
<mgrwt>
<rscale>  0 0.67374801E+03</rscale>
<asrwt>0</asrwt>
<pdfrwt beam="1">  1        1 0.95349536E-01 0.67374801E+03</pdfrwt>
<pdfrwt beam="2">  1       -2 0.12970978E+00 0.67374801E+03</pdfrwt>
<totfact> 0.12843913E+01</totfact>
</mgrwt>
</event>
<event>
12    3  0.1201947E-007  0.1277955E+04  0.7818608E-02  0.9047232E-01
          1   -1    0    0  501    0  0.00000000000E+00  0.00000000000E+00  0.30172581337E+04  0.30172581337E+04  0.00000000000E+00 0. -1.
         -2   -1    0    0    0  501 -0.00000000000E+00 -0.00000000000E+00 -0.59198755895E+03  0.59198755895E+03  0.00000000000E+00 0.  1.
        -24    2    1    2    0    0  0.11156819930E+04  0.60150511985E+03  0.11931327862E+04  0.17425831626E+04  0.80470582006E+02 0.  0.
    5000000    2    1    2    0    0 -0.11156819930E+04 -0.60150511985E+03  0.12321377885E+04  0.18666625300E+04  0.59975891183E+03 0.  0.
        -24    2    4    4    0    0 -0.92159343439E+03 -0.42409500765E+03  0.61153869456E+03  0.11873998830E+04  0.82145440747E+02 0.  0.
         24    2    4    4    0    0 -0.19408855858E+03 -0.17741011219E+03  0.62059909397E+03  0.67926264697E+03  0.84319580476E+02 0.  0.
         11    1    3    3    0    0  0.38631748166E+03  0.20098897277E+03  0.46232878554E+03  0.63512649902E+03  0.00000000000E+00 0. -1.
        -12    1    3    3    0    0  0.72936451131E+03  0.40051614707E+03  0.73080400068E+03  0.11074566636E+04  0.00000000000E+00 0.  1.
         15    1    5    5    0    0 -0.68328880186E+03 -0.32617973561E+03  0.41555602271E+03  0.86369367973E+03  0.17770000000E+01 0. -1.
        -16    1    5    5    0    0 -0.23830463253E+03 -0.97915272045E+02  0.19598267185E+03  0.32370620329E+03  0.00000000000E+00 0.  1.
          4    1    6    6  502    0 -0.25364935585E+02 -0.67694631274E+02  0.20779474723E+03  0.22001045438E+03  0.00000000000E+00 0. -1.
         -3    1    6    6    0  502 -0.16872362300E+03 -0.10971548092E+03  0.41280434675E+03  0.45925219260E+03  0.00000000000E+00 0.  1.
<mgrwt>
<rscale>  0 0.12779549E+04</rscale>
<asrwt>0</asrwt>
<pdfrwt beam="1">  1        1 0.46419355E+00 0.12779549E+04</pdfrwt>
<pdfrwt beam="2">  1       -2 0.91075011E-01 0.12779549E+04</pdfrwt>
<totfact> 0.51556665E-01</totfact>
</mgrwt>
</event>
<event>
12    3  0.1201947E-007  0.1167516E+04  0.7818608E-02  0.9141775E-01
          1   -1    0    0  501    0  0.00000000000E+00  0.00000000000E+00  0.10252066926E+04  0.10252066926E+04  0.00000000000E+00 0. -1.
         -2   -1    0    0    0  501 -0.00000000000E+00 -0.00000000000E+00 -0.14625494105E+04  0.14625494105E+04  0.00000000000E+00 0.  1.
        -24    2    1    2    0    0  0.21392760380E+03 -0.11294309038E+04 -0.19791766281E+03  0.11691761985E+04  0.80139851211E+02 0.  0.
    5000000    2    1    2    0    0 -0.21392760380E+03  0.11294309038E+04 -0.23942505506E+03  0.13185799045E+04  0.59995784964E+03 0.  0.
        -24    2    4    4    0    0 -0.14674585202E+03  0.10321961631E+04 -0.38600263601E+03  0.11146484194E+04  0.80497202245E+02 0.  0.
         24    2    4    4    0    0 -0.67181751776E+02  0.97234740731E+02  0.14657758095E+03  0.20393148513E+03  0.78326756693E+02 0.  0.
         13    1    3    3    0    0  0.14134262823E+03 -0.86704678886E+03 -0.17691163535E+03  0.89612811547E+03  0.00000000000E+00 0. -1.
        -14    1    3    3    0    0  0.72584975566E+02 -0.26238411499E+03 -0.21006027468E+02  0.27304808306E+03  0.00000000000E+00 0.  1.
         15    1    5    5    0    0 -0.91125868074E+02  0.43840923161E+03 -0.13598715933E+03  0.46797675522E+03  0.17770000000E+01 0. -1.
        -16    1    5    5    0    0 -0.55619983948E+02  0.59378693150E+03 -0.25001547668E+03  0.64667166415E+03  0.00000000000E+00 0.  1.
          4    1    6    6  502    0 -0.34158770451E+02  0.10125803586E+03  0.12415946162E+03  0.16381569929E+03  0.00000000000E+00 0. -1.
         -3    1    6    6    0  502 -0.33022981325E+02 -0.40232951261E+01  0.22418119327E+02  0.40115785838E+02  0.00000000000E+00 0.  1.
<mgrwt>
<rscale>  0 0.11675158E+04</rscale>
<asrwt>0</asrwt>
<pdfrwt beam="1">  1        1 0.15772411E+00 0.11675158E+04</pdfrwt>
<pdfrwt beam="2">  1       -2 0.22500760E+00 0.11675158E+04</pdfrwt>
<totfact> 0.11408985E+00</totfact>
</mgrwt>
</event>
<event>
12    3  0.1201947E-007  0.2846513E+03  0.7818608E-02  0.1093175E+00
         -2   -1    0    0    0  501 -0.00000000000E+00  0.00000000000E+00  0.87333297912E+02  0.87333297912E+02  0.00000000000E+00 0.  1.
          1   -1    0    0  501    0  0.00000000000E+00 -0.00000000000E+00 -0.14566236472E+04  0.14566236472E+04  0.00000000000E+00 0. -1.
        -24    2    1    2    0    0  0.23387965048E+02 -0.26494119737E+02 -0.28133478234E+03  0.30102658356E+03  0.10108812476E+03 0.  0.
    5000000    2    1    2    0    0 -0.23387965048E+02  0.26494119737E+02 -0.10879555670E+04  0.12429303616E+04  0.59998302704E+03 0.  0.
        -24    2    4    4    0    0  0.12620253259E+03 -0.16842303343E+03 -0.88823842413E+03  0.91639843315E+03  0.80778665213E+02 0.  0.
         24    2    4    4    0    0 -0.14959049764E+03  0.19491715316E+03 -0.19971714285E+03  0.32653192844E+03  0.79788154256E+02 0.  0.
         11    1    3    3    0    0 -0.33407460667E+02 -0.26803184469E+02 -0.17832527865E+03  0.18339676696E+03  0.00000000000E+00 0. -1.
        -12    1    3    3    0    0  0.56795425715E+02  0.30906473197E+00 -0.10300950369E+03  0.11762981660E+03  0.00000000000E+00 0.  1.
         15    1    5    5    0    0  0.77149786654E+02 -0.57030163752E+02 -0.51351005859E+03  0.52239857117E+03  0.17770000000E+01 0. -1.
        -16    1    5    5    0    0  0.49052745934E+02 -0.11139286967E+03 -0.37472836554E+03  0.39399986198E+03  0.00000000000E+00 0.  1.
          2    1    6    6  502    0 -0.75900594867E+02  0.14289324649E+03 -0.16136821088E+03  0.22851494410E+03  0.00000000000E+00 0. -1.
         -1    1    6    6    0  502 -0.73689902770E+02  0.52023906673E+02 -0.38348931977E+02  0.98016984342E+02  0.00000000000E+00 0.  1.
<mgrwt>
<rscale>  0 0.28465135E+03</rscale>
<asrwt>0</asrwt>
<pdfrwt beam="1">  1        1 0.22409590E+00 0.28465135E+03</pdfrwt>
<pdfrwt beam="2">  1       -2 0.13435895E-01 0.28465135E+03</pdfrwt>
<totfact> 0.27674654E+02</totfact>
</mgrwt>
</event>
<event>
12    3  0.1201947E-007  0.8152258E+03  0.7818608E-02  0.9538236E-01
         -2   -1    0    0    0  501 -0.00000000000E+00  0.00000000000E+00  0.13490683811E+04  0.13490683811E+04  0.00000000000E+00 0.  1.
          1   -1    0    0  501    0  0.00000000000E+00 -0.00000000000E+00 -0.11128345656E+04  0.11128345656E+04  0.00000000000E+00 0. -1.
        -24    2    1    2    0    0 -0.74207733917E+03 -0.28014505555E+03  0.94837426947E+03  0.12387035791E+04  0.76241540681E+02 0.  0.
    5000000    2    1    2    0    0  0.74207733917E+03  0.28014505555E+03 -0.71214045391E+03  0.12231993675E+04  0.59992719324E+03 0.  0.
        -24    2    4    4    0    0  0.13248065824E+03 -0.30346514324E+02 -0.46777806157E+03  0.49193986512E+03  0.68676635505E+02 0.  0.
         24    2    4    4    0    0  0.60959668093E+03  0.31049156987E+03 -0.24436239233E+03  0.73125950242E+03  0.83751732652E+02 0.  0.
         11    1    3    3    0    0 -0.23469860184E+03 -0.10881960343E+03  0.26285899598E+03  0.36880888217E+03  0.00000000000E+00 0. -1.
        -12    1    3    3    0    0 -0.50737873733E+03 -0.17132545212E+03  0.68551527348E+03  0.86989469697E+03  0.00000000000E+00 0.  1.
         15    1    5    5    0    0  0.23597133319E+02  0.18518536491E+02 -0.13791960339E+03  0.14115500566E+03  0.17770000000E+01 0. -1.
        -16    1    5    5    0    0  0.10888352492E+03 -0.48865050815E+02 -0.32985845819E+03  0.35078485946E+03  0.00000000000E+00 0.  1.
          4    1    6    6  502    0  0.88762772250E+02  0.22037144396E+02 -0.12413186401E+02  0.92296005696E+02  0.00000000000E+00 0. -1.
         -3    1    6    6    0  502  0.52083390868E+03  0.28845442548E+03 -0.23194920593E+03  0.63896349672E+03  0.00000000000E+00 0.  1.
<mgrwt>
<rscale>  0 0.81522578E+03</rscale>
<asrwt>0</asrwt>
<pdfrwt beam="1">  1        1 0.17120532E+00 0.81522578E+03</pdfrwt>
<pdfrwt beam="2">  1       -2 0.20754898E+00 0.81522578E+03</pdfrwt>
<totfact> 0.13220761E+00</totfact>
</mgrwt>
</event>
<event>
12    3  0.1201947E-007  0.3859431E+03  0.7818608E-02  0.1048759E+00
          1   -1    0    0  501    0  0.00000000000E+00  0.00000000000E+00  0.45076555415E+03  0.45076555415E+03  0.00000000000E+00 0. -1.
         -2   -1    0    0    0  501 -0.00000000000E+00 -0.00000000000E+00 -0.61271295970E+03  0.61271295970E+03  0.00000000000E+00 0.  1.
        -24    2    1    2    0    0  0.32316713275E+03  0.95238604019E+02 -0.14486992672E+03  0.37512764156E+03  0.78905414319E+02 0.  0.
    5000000    2    1    2    0    0 -0.32316713275E+03 -0.95238604019E+02 -0.17077478825E+02  0.68835087229E+03  0.60002324598E+03 0.  0.
        -24    2    4    4    0    0 -0.24462589842E+03  0.56083639547E+02 -0.26770383549E+03  0.37510432656E+03  0.77786293595E+02 0.  0.
         24    2    4    4    0    0 -0.78541234335E+02 -0.15132224357E+03  0.25062635666E+03  0.31324654573E+03  0.79010637703E+02 0.  0.
         13    1    3    3    0    0  0.17222421690E+03  0.32780630518E+02 -0.11332742571E+03  0.20875549344E+03  0.00000000000E+00 0. -1.
        -14    1    3    3    0    0  0.15094291585E+03  0.62457973501E+02 -0.31542501008E+02  0.16637214812E+03  0.00000000000E+00 0.  1.
         15    1    5    5    0    0 -0.14828670076E+03 -0.51666166061E+01 -0.15856251463E+03  0.21716553209E+03  0.17770000000E+01 0. -1.
        -16    1    5    5    0    0 -0.96339197654E+02  0.61250256153E+02 -0.10914132085E+03  0.15793879448E+03  0.00000000000E+00 0.  1.
          2    1    6    6  502    0 -0.56134748169E+02 -0.11540710543E+03  0.11913315097E+03  0.17510744586E+03  0.00000000000E+00 0. -1.
         -1    1    6    6    0  502 -0.22406486166E+02 -0.35915138132E+02  0.13149320569E+03  0.13813909987E+03  0.00000000000E+00 0.  1.
<mgrwt>
<rscale>  0 0.38594309E+03</rscale>
<asrwt>0</asrwt>
<pdfrwt beam="1">  1        1 0.69348547E-01 0.38594309E+03</pdfrwt>
<pdfrwt beam="2">  1       -2 0.94263532E-01 0.38594309E+03</pdfrwt>
<totfact> 0.44590431E+01</totfact>
</mgrwt>
</event>
<event>
12    3  0.1201947E-007  0.4051183E+03  0.7818608E-02  0.1042022E+00
         -4   -1    0    0    0  501 -0.00000000000E+00  0.00000000000E+00  0.44789974726E+03  0.44789974726E+03  0.00000000000E+00 0.  1.
          3   -1    0    0  501    0  0.00000000000E+00 -0.00000000000E+00 -0.46262273622E+03  0.46262273622E+03  0.00000000000E+00 0. -1.
        -24    2    1    2    0    0 -0.10191070274E+03 -0.19160829437E+03 -0.12300318155E+03  0.26333939726E+03  0.84370170529E+02 0.  0.
    5000000    2    1    2    0    0  0.10191070274E+03  0.19160829437E+03  0.10828019259E+03  0.64718308621E+03  0.60001818070E+03 0.  0.
        -24    2    4    4    0    0 -0.20298521352E+03  0.17516627059E+03  0.16749720123E+03  0.32588348907E+03  0.79110787968E+02 0.  0.
         24    2    4    4    0    0  0.30489591626E+03  0.16442023780E+02 -0.59217008642E+02  0.32129959714E+03  0.80591048596E+02 0.  0.
         11    1    3    3    0    0  0.37117351132E+01 -0.50440144199E+02 -0.54061936916E+02  0.74031602356E+02  0.00000000000E+00 0. -1.
        -12    1    3    3    0    0 -0.10562243785E+03 -0.14116815017E+03 -0.68941244631E+02  0.18930779490E+03  0.00000000000E+00 0.  1.
         15    1    5    5    0    0 -0.14843291061E+03  0.16452073788E+03  0.11602128740E+03  0.25012696576E+03  0.17770000000E+01 0. -1.
        -16    1    5    5    0    0 -0.54552302907E+02  0.10645532711E+02  0.51475913832E+02  0.75756523310E+02  0.00000000000E+00 0.  1.
          2    1    6    6  502    0  0.10384256495E+03 -0.51497948440E+01 -0.58067975992E+02  0.11908689482E+03  0.00000000000E+00 0. -1.
         -1    1    6    6    0  502  0.20105335130E+03  0.21591818624E+02 -0.11490326502E+01  0.20221270232E+03  0.00000000000E+00 0.  1.
<mgrwt>
<rscale>  0 0.40511826E+03</rscale>
<asrwt>0</asrwt>
<pdfrwt beam="1">  1        3 0.71172728E-01 0.40511826E+03</pdfrwt>
<pdfrwt beam="2">  1       -4 0.68907654E-01 0.40511826E+03</pdfrwt>
<totfact> 0.81672998E+00</totfact>
</mgrwt>
</event>
<event>
12    3  0.1201947E-007  0.5783661E+03  0.7818608E-02  0.9951335E-01
          1   -1    0    0  501    0  0.00000000000E+00  0.00000000000E+00  0.15953919496E+04  0.15953919496E+04  0.00000000000E+00 0. -1.
         -4   -1    0    0    0  501 -0.00000000000E+00 -0.00000000000E+00 -0.22881191287E+03  0.22881191287E+03  0.00000000000E+00 0.  1.
        -24    2    1    2    0    0 -0.37573703896E+03  0.21220505915E+03  0.31970173594E+03  0.54272514876E+03  0.78307583045E+02 0.  0.
    5000000    2    1    2    0    0  0.37573703896E+03 -0.21220505915E+03  0.10468783008E+04  0.12814787137E+04  0.60002017252E+03 0.  0.
        -24    2    4    4    0    0  0.52260220790E+03 -0.19203533198E+03  0.72154110865E+03  0.91481245457E+03  0.79180926615E+02 0.  0.
         24    2    4    4    0    0 -0.14686516894E+03 -0.20169727169E+02  0.32533719214E+03  0.36666625912E+03  0.81385878693E+02 0.  0.
         13    1    3    3    0    0 -0.26758781149E+03  0.15561853649E+03  0.18357206476E+03  0.35988757789E+03  0.00000000000E+00 0. -1.
        -14    1    3    3    0    0 -0.10814922747E+03  0.56586522657E+02  0.13612967117E+03  0.18283757087E+03  0.00000000000E+00 0.  1.
         15    1    5    5    0    0  0.18748883895E+03 -0.67644593657E+02  0.19860565533E+03  0.28138091591E+03  0.17770000000E+01 0. -1.
        -16    1    5    5    0    0  0.33511336895E+03 -0.12439073832E+03  0.52293545332E+03  0.63343153866E+03  0.00000000000E+00 0.  1.
          2    1    6    6  502    0 -0.31088049330E+02 -0.40229364504E+02  0.11491490467E+03  0.12565947595E+03  0.00000000000E+00 0. -1.
         -3    1    6    6    0  502 -0.11577711961E+03  0.20059637335E+02  0.21042228746E+03  0.24100678318E+03  0.00000000000E+00 0.  1.
<mgrwt>
<rscale>  0 0.57836609E+03</rscale>
<asrwt>0</asrwt>
<pdfrwt beam="1">  1        1 0.24544491E+00 0.57836609E+03</pdfrwt>
<pdfrwt beam="2">  1       -4 0.35201834E-01 0.57836609E+03</pdfrwt>
<totfact> 0.22310256E+01</totfact>
</mgrwt>
</event>
<event>
12    3  0.1201947E-007  0.1329477E+04  0.7818608E-02  0.9006511E-01
          1   -1    0    0  501    0  0.00000000000E+00  0.00000000000E+00  0.12117644362E+04  0.12117644362E+04  0.00000000000E+00 0. -1.
         -2   -1    0    0    0  501 -0.00000000000E+00 -0.00000000000E+00 -0.15683320007E+04  0.15683320007E+04  0.00000000000E+00 0.  1.
        -24    2    1    2    0    0  0.79588642369E+03  0.10024126870E+04  0.12057814391E+03  0.12881222866E+04  0.80333940692E+02 0.  0.
    5000000    2    1    2    0    0 -0.79588642369E+03 -0.10024126870E+04 -0.47714570843E+03  0.14919741503E+04  0.60004370152E+03 0.  0.
        -24    2    4    4    0    0 -0.79521555947E+03 -0.10237311342E+04 -0.35714781914E+03  0.13470168546E+04  0.80663626056E+02 0.  0.
         24    2    4    4    0    0 -0.67086422593E+00  0.21318447227E+02 -0.11999788929E+03  0.14495729577E+03  0.78474186282E+02 0.  0.
         13    1    3    3    0    0  0.43588517326E+03  0.49734882062E+03  0.38020741001E+02  0.66241777632E+03  0.00000000000E+00 0. -1.
        -14    1    3    3    0    0  0.36000125044E+03  0.50506386639E+03  0.82557402912E+02  0.62570451031E+03  0.00000000000E+00 0.  1.
         15    1    5    5    0    0 -0.35617534228E+03 -0.39609611445E+03 -0.15715285067E+03  0.55538561607E+03  0.17770000000E+01 0. -1.
        -16    1    5    5    0    0 -0.43904021719E+03 -0.62763501978E+03 -0.19999496848E+03  0.79163123851E+03  0.00000000000E+00 0.  1.
          2    1    6    6  502    0 -0.21812042698E+02  0.43159606823E+02 -0.90449066893E+02  0.10256486031E+03  0.00000000000E+00 0. -1.
         -1    1    6    6    0  502  0.21141178472E+02 -0.21841159596E+02 -0.29548822393E+02  0.42392435463E+02  0.00000000000E+00 0.  1.
<mgrwt>
<rscale>  0 0.13294773E+04</rscale>
<asrwt>0</asrwt>
<pdfrwt beam="1">  1        1 0.18642530E+00 0.13294773E+04</pdfrwt>
<pdfrwt beam="2">  1       -2 0.24128185E+00 0.13294773E+04</pdfrwt>
<totfact> 0.64241480E-01</totfact>
</mgrwt>
</event>
<event>
12    3  0.1201947E-007  0.7091933E+03  0.7818608E-02  0.9701638E-01
          1   -1    0    0  501    0  0.00000000000E+00  0.00000000000E+00  0.14428764524E+04  0.14428764524E+04  0.00000000000E+00 0. -1.
         -2   -1    0    0    0  501 -0.00000000000E+00 -0.00000000000E+00 -0.10756090517E+04  0.10756090517E+04  0.00000000000E+00 0.  1.
        -24    2    1    2    0    0 -0.65150676396E+03 -0.12975171344E+03  0.11492590161E+04  0.13299090182E+04  0.81025551086E+02 0.  0.
    5000000    2    1    2    0    0  0.65150676396E+03  0.12975171344E+03 -0.78199161541E+03  0.11885764859E+04  0.59992216638E+03 0.  0.
        -24    2    4    4    0    0  0.29901389686E+03  0.23562902832E+03 -0.87569177550E+02  0.39862511348E+03  0.79393140401E+02 0.  0.
         24    2    4    4    0    0  0.35249286711E+03 -0.10587731488E+03 -0.69442243786E+03  0.78995137245E+03  0.79620483978E+02 0.  0.
         13    1    3    3    0    0 -0.48575843370E+03 -0.96394513837E+02  0.78232906780E+03  0.92590060402E+03  0.00000000000E+00 0. -1.
        -14    1    3    3    0    0 -0.16574833026E+03 -0.33357199606E+02  0.36692994834E+03  0.40400841420E+03  0.00000000000E+00 0.  1.
         15    1    5    5    0    0  0.21065179378E+03  0.19693248153E+03 -0.40214988911E+02  0.29116487351E+03  0.17770000000E+01 0. -1.
        -16    1    5    5    0    0  0.88362103080E+02  0.38696546793E+02 -0.47354188639E+02  0.10746023998E+03  0.00000000000E+00 0.  1.
          2    1    6    6  502    0  0.16540046789E+03 -0.65172043552E+02 -0.41226900211E+03  0.44896596769E+03  0.00000000000E+00 0. -1.
         -1    1    6    6    0  502  0.18709239922E+03 -0.40705271325E+02 -0.28215343575E+03  0.34098540476E+03  0.00000000000E+00 0.  1.
<mgrwt>
<rscale>  0 0.70919332E+03</rscale>
<asrwt>0</asrwt>
<pdfrwt beam="1">  1        1 0.22198099E+00 0.70919332E+03</pdfrwt>
<pdfrwt beam="2">  1       -2 0.16547832E+00 0.70919332E+03</pdfrwt>
<totfact> 0.15065756E+00</totfact>
</mgrwt>
</event>
<event>
12    3  0.1201947E-007  0.6731631E+03  0.7818608E-02  0.9764261E-01
          1   -1    0    0  501    0  0.00000000000E+00  0.00000000000E+00  0.21443241794E+04  0.21443241794E+04  0.00000000000E+00 0. -1.
         -2   -1    0    0    0  501 -0.00000000000E+00 -0.00000000000E+00 -0.22379720888E+03  0.22379720888E+03  0.00000000000E+00 0.  1.
        -24    2    1    2    0    0 -0.97811785707E+02  0.54489897383E+03  0.63855422080E+03  0.84828929351E+03  0.73220184859E+02 0.  0.
    5000000    2    1    2    0    0  0.97811785707E+02 -0.54489897383E+03  0.12819727497E+04  0.15198320948E+04  0.59996118886E+03 0.  0.
        -24    2    4    4    0    0 -0.14560517042E+03  0.23235669663E+02  0.20352461799E+03  0.27416848937E+03  0.10956882967E+03 0.  0.
         24    2    4    4    0    0  0.24341695613E+03 -0.56813464350E+03  0.10784481317E+04  0.12456636054E+04  0.81232119875E+02 0.  0.
         11    1    3    3    0    0 -0.26404475319E+01  0.19426858514E+03  0.20080312039E+03  0.27940856875E+03  0.00000000000E+00 0. -1.
        -12    1    3    3    0    0 -0.95171338175E+02  0.35063038870E+03  0.43775110041E+03  0.56888072476E+03  0.00000000000E+00 0.  1.
         15    1    5    5    0    0 -0.22048095650E+02 -0.26313647674E+02  0.99354607372E+02  0.10513335489E+03  0.17770000000E+01 0. -1.
        -16    1    5    5    0    0 -0.12355707477E+03  0.49549317337E+02  0.10417001062E+03  0.16903513448E+03  0.00000000000E+00 0.  1.
          2    1    6    6  502    0  0.12913317195E+03 -0.37730518052E+03  0.74109521764E+03  0.84157988151E+03  0.00000000000E+00 0. -1.
         -1    1    6    6    0  502  0.11428378419E+03 -0.19082946298E+03  0.33735291409E+03  0.40408372389E+03  0.00000000000E+00 0.  1.
<mgrwt>
<rscale>  0 0.67316308E+03</rscale>
<asrwt>0</asrwt>
<pdfrwt beam="1">  1        1 0.32989601E+00 0.67316308E+03</pdfrwt>
<pdfrwt beam="2">  1       -2 0.34430341E-01 0.67316308E+03</pdfrwt>
<totfact> 0.17377031E+01</totfact>
</mgrwt>
</event>
<event>
12    3  0.1201947E-007  0.9430485E+03  0.7818608E-02  0.9373313E-01
          1   -1    0    0  501    0  0.00000000000E+00  0.00000000000E+00  0.14065406452E+04  0.14065406452E+04  0.00000000000E+00 0. -1.
         -2   -1    0    0    0  501 -0.00000000000E+00 -0.00000000000E+00 -0.65498094068E+03  0.65498094068E+03  0.00000000000E+00 0.  1.
        -24    2    1    2    0    0  0.84676809861E+03  0.11520585073E+03  0.47881875544E+03  0.98240544224E+03  0.74595251273E+02 0.  0.
    5000000    2    1    2    0    0 -0.84676809861E+03 -0.11520585073E+03  0.27274094908E+03  0.10791161436E+04  0.59984616802E+03 0.  0.
        -24    2    4    4    0    0 -0.64386291118E+03 -0.33649713513E+03  0.22757881394E+03  0.76561847203E+03  0.81177323197E+02 0.  0.
         24    2    4    4    0    0 -0.20290518742E+03  0.22129128440E+03  0.45162135136E+02  0.31349767161E+03  0.78107771840E+02 0.  0.
         11    1    3    3    0    0  0.13265237843E+03  0.18055987218E+02  0.45097955162E+02  0.14126746879E+03  0.00000000000E+00 0. -1.
        -12    1    3    3    0    0  0.71411572018E+03  0.97149863514E+02  0.43372080028E+03  0.84113797345E+03  0.00000000000E+00 0.  1.
         15    1    5    5    0    0 -0.22720825259E+03 -0.12564487961E+03  0.41481251114E+02  0.26293359949E+03  0.17770000000E+01 0. -1.
        -16    1    5    5    0    0 -0.41665465860E+03 -0.21085225552E+03  0.18609756283E+03  0.50268487254E+03  0.00000000000E+00 0.  1.
          4    1    6    6  502    0 -0.21520305008E+02  0.54140438105E+02 -0.13839007173E+02  0.59881789263E+02  0.00000000000E+00 0. -1.
         -3    1    6    6    0  502 -0.18138488242E+03  0.16715084629E+03  0.59001142309E+02  0.25361588235E+03  0.00000000000E+00 0.  1.
<mgrwt>
<rscale>  0 0.94304848E+03</rscale>
<asrwt>0</asrwt>
<pdfrwt beam="1">  1        1 0.21639087E+00 0.94304848E+03</pdfrwt>
<pdfrwt beam="2">  1       -2 0.10076630E+00 0.94304848E+03</pdfrwt>
<totfact> 0.54441038E+00</totfact>
</mgrwt>
</event>
<event>
12    3  0.1201947E-007  0.2157044E+04  0.7818608E-02  0.8536523E-01
         -2   -1    0    0    0  501 -0.00000000000E+00  0.00000000000E+00  0.21423415859E+04  0.21423415859E+04  0.00000000000E+00 0.  1.
          1   -1    0    0  501    0  0.00000000000E+00 -0.00000000000E+00 -0.23990813808E+04  0.23990813808E+04  0.00000000000E+00 0. -1.
        -24    2    1    2    0    0 -0.17218504956E+04 -0.12834690248E+04  0.46293313121E+03  0.21983149309E+04  0.78864341274E+02 0.  0.
    5000000    2    1    2    0    0  0.17218504956E+04  0.12834690248E+04 -0.71967292606E+03  0.23431080358E+04  0.60013688438E+03 0.  0.
        -24    2    4    4    0    0  0.66362474842E+03  0.65562234103E+03 -0.58129380002E+03  0.11019408451E+04  0.78311451776E+02 0.  0.
         24    2    4    4    0    0  0.10582257472E+04  0.62784668377E+03 -0.13837912604E+03  0.12411671907E+04  0.85522057071E+02 0.  0.
         13    1    3    3    0    0 -0.12545305172E+04 -0.89228531141E+03  0.34097649384E+03  0.15767957588E+04  0.00000000000E+00 0. -1.
        -14    1    3    3    0    0 -0.46731997841E+03 -0.39118371339E+03  0.12195663737E+03  0.62151917206E+03  0.00000000000E+00 0.  1.
         15    1    5    5    0    0  0.32779766109E+03  0.29385693284E+03 -0.23558555782E+03  0.49930643535E+03  0.17770000000E+01 0. -1.
        -16    1    5    5    0    0  0.33582708733E+03  0.36176540819E+03 -0.34570824220E+03  0.60263440980E+03  0.00000000000E+00 0.  1.
          2    1    6    6  502    0  0.51862306179E+03  0.33438247157E+03 -0.10565638416E+03  0.62605494090E+03  0.00000000000E+00 0. -1.
         -1    1    6    6    0  502  0.53960268544E+03  0.29346421220E+03 -0.32722741877E+02  0.61511224976E+03  0.00000000000E+00 0.  1.
<mgrwt>
<rscale>  0 0.21570436E+04</rscale>
<asrwt>0</asrwt>
<pdfrwt beam="1">  1        1 0.36908944E+00 0.21570436E+04</pdfrwt>
<pdfrwt beam="2">  1       -2 0.32959102E+00 0.21570436E+04</pdfrwt>
<totfact> 0.25407447E-02</totfact>
</mgrwt>
</event>
<event>
12    3  0.1201947E-007  0.4432394E+03  0.7818608E-02  0.1029757E+00
         -2   -1    0    0    0  501 -0.00000000000E+00  0.00000000000E+00  0.18618433930E+04  0.18618433930E+04  0.00000000000E+00 0.  1.
          1   -1    0    0  501    0  0.00000000000E+00 -0.00000000000E+00 -0.14531269726E+03  0.14531269726E+03  0.00000000000E+00 0. -1.
        -24    2    1    2    0    0 -0.29322593148E+03  0.15889210242E+03  0.46508958575E+03  0.57984345861E+03  0.93177071266E+02 0.  0.
    5000000    2    1    2    0    0  0.29322593148E+03 -0.15889210242E+03  0.12514411100E+04  0.14273126317E+04  0.59990695080E+03 0.  0.
        -24    2    4    4    0    0  0.58358134408E+02  0.14267106737E+03  0.84833828503E+03  0.86609049972E+03  0.81695792687E+02 0.  0.
         24    2    4    4    0    0  0.23486779707E+03 -0.30156316979E+03  0.40310282499E+03  0.56122213197E+03  0.79844639243E+02 0.  0.
         13    1    3    3    0    0 -0.11458424300E+03  0.81946749526E+02  0.12635925926E+03  0.18923921608E+03  0.00000000000E+00 0. -1.
        -14    1    3    3    0    0 -0.17864168848E+03  0.76945352898E+02  0.33873032649E+03  0.39060424253E+03  0.00000000000E+00 0.  1.
         15    1    5    5    0    0  0.10715770916E+02  0.85531631954E+02  0.61929446512E+03  0.62526736686E+03  0.17770000000E+01 0. -1.
        -16    1    5    5    0    0  0.47642363492E+02  0.57139435414E+02  0.22904381991E+03  0.24082313286E+03  0.00000000000E+00 0.  1.
          4    1    6    6  502    0  0.11289156515E+03 -0.82754005527E+02  0.14447586149E+03  0.20116164014E+03  0.00000000000E+00 0. -1.
         -3    1    6    6    0  502  0.12197623193E+03 -0.21880916427E+03  0.25862696350E+03  0.36006049182E+03  0.00000000000E+00 0.  1.
<mgrwt>
<rscale>  0 0.44323944E+03</rscale>
<asrwt>0</asrwt>
<pdfrwt beam="1">  1        1 0.22355801E-01 0.44323944E+03</pdfrwt>
<pdfrwt beam="2">  1       -2 0.28643743E+00 0.44323944E+03</pdfrwt>
<totfact> 0.82223982E+00</totfact>
</mgrwt>
</event>
<event>
12    3  0.1201947E-007  0.9627823E+03  0.7818608E-02  0.9350334E-01
         -2   -1    0    0    0  501 -0.00000000000E+00  0.00000000000E+00  0.19072888934E+04  0.19072888934E+04  0.00000000000E+00 0.  1.
          1   -1    0    0  501    0  0.00000000000E+00 -0.00000000000E+00 -0.55217931556E+03  0.55217931556E+03  0.00000000000E+00 0. -1.
        -24    2    1    2    0    0 -0.70912896887E+03  0.61137859627E+03  0.59335150918E+03  0.11117571733E+04  0.85383349913E+02 0.  0.
    5000000    2    1    2    0    0  0.70912896887E+03 -0.61137859627E+03  0.76175806864E+03  0.13477110357E+04  0.59950145789E+03 0.  0.
        -24    2    4    4    0    0  0.92883025355E+02  0.98654933260E+00 -0.73012074003E+02  0.14037609130E+03  0.75805371713E+02 0.  0.
         24    2    4    4    0    0  0.61624594352E+03 -0.61236514560E+03  0.83477014264E+03  0.12073349444E+04  0.77886727716E+02 0.  0.
         11    1    3    3    0    0 -0.48068988092E+03  0.37986254458E+03  0.42391068723E+03  0.74502254002E+03  0.00000000000E+00 0. -1.
        -12    1    3    3    0    0 -0.22843908795E+03  0.23151605169E+03  0.16944082195E+03  0.36673463327E+03  0.00000000000E+00 0.  1.
         15    1    5    5    0    0  0.97175897866E+02  0.19020807625E+02 -0.50357861491E+02  0.11110363717E+03  0.17770000000E+01 0. -1.
        -16    1    5    5    0    0 -0.42928725116E+01 -0.18034258293E+02 -0.22654212512E+02  0.29272454135E+02  0.00000000000E+00 0.  1.
          2    1    6    6  502    0  0.40519514471E+03 -0.37008334434E+03  0.48489994777E+03  0.73230645661E+03  0.00000000000E+00 0. -1.
         -1    1    6    6    0  502  0.21105079881E+03 -0.24228180127E+03  0.34987019487E+03  0.47502848774E+03  0.00000000000E+00 0.  1.
<mgrwt>
<rscale>  0 0.96278229E+03</rscale>
<asrwt>0</asrwt>
<pdfrwt beam="1">  1        1 0.84950665E-01 0.96278229E+03</pdfrwt>
<pdfrwt beam="2">  1       -2 0.29342906E+00 0.96278229E+03</pdfrwt>
<totfact> 0.11938062E+00</totfact>
</mgrwt>
</event>
<event>
12    3  0.1201947E-007  0.1150039E+04  0.7818608E-02  0.9157748E-01
         -2   -1    0    0    0  501 -0.00000000000E+00  0.00000000000E+00  0.11595429582E+04  0.11595429582E+04  0.00000000000E+00 0.  1.
          1   -1    0    0  501    0  0.00000000000E+00 -0.00000000000E+00 -0.12361232652E+04  0.12361232652E+04  0.00000000000E+00 0. -1.
        -24    2    1    2    0    0  0.10085385862E+04 -0.40317493865E+03  0.23989338330E+03  0.11151950446E+04  0.80068977197E+02 0.  0.
    5000000    2    1    2    0    0 -0.10085385862E+04  0.40317493865E+03 -0.31647369035E+03  0.12804711788E+04  0.59979224085E+03 0.  0.
        -24    2    4    4    0    0 -0.41595003243E+03 -0.10379666175E+03 -0.55204785292E+01  0.43609140529E+03  0.79731183467E+02 0.  0.
         24    2    4    4    0    0 -0.59258855376E+03  0.50697160039E+03 -0.31095321182E+03  0.84437977356E+03  0.90021688458E+02 0.  0.
         13    1    3    3    0    0  0.75528202947E+03 -0.28520695989E+03  0.21009559301E+03  0.83422665518E+03  0.00000000000E+00 0. -1.
        -14    1    3    3    0    0  0.25325655672E+03 -0.11796797876E+03  0.29797790286E+02  0.28096838939E+03  0.00000000000E+00 0.  1.
         15    1    5    5    0    0 -0.14990619783E+03 -0.26114032966E+02  0.34575973110E+02  0.15605276836E+03  0.17770000000E+01 0. -1.
        -16    1    5    5    0    0 -0.26604383459E+03 -0.77682628783E+02 -0.40096451640E+02  0.28003863693E+03  0.00000000000E+00 0.  1.
          2    1    6    6  502    0 -0.45138338159E+03  0.42900137753E+03 -0.22942826881E+03  0.66364634379E+03  0.00000000000E+00 0. -1.
         -1    1    6    6    0  502 -0.14120517218E+03  0.77970222866E+02 -0.81524943011E+02  0.18073342977E+03  0.00000000000E+00 0.  1.
<mgrwt>
<rscale>  0 0.11500389E+04</rscale>
<asrwt>0</asrwt>
<pdfrwt beam="1">  1        1 0.19017281E+00 0.11500389E+04</pdfrwt>
<pdfrwt beam="2">  1       -2 0.17839123E+00 0.11500389E+04</pdfrwt>
<totfact> 0.16075014E+00</totfact>
</mgrwt>
</event>
<event>
12    3  0.1201947E-007  0.7158440E+03  0.7818608E-02  0.9690514E-01
         -2   -1    0    0    0  501 -0.00000000000E+00  0.00000000000E+00  0.11668458716E+04  0.11668458716E+04  0.00000000000E+00 0.  1.
          1   -1    0    0  501    0  0.00000000000E+00 -0.00000000000E+00 -0.47144560429E+03  0.47144560429E+03  0.00000000000E+00 0. -1.
        -24    2    1    2    0    0 -0.59053202841E+03  0.58841566506E+02  0.10377486719E+03  0.60770021977E+03  0.79623661871E+02 0.  0.
    5000000    2    1    2    0    0  0.59053202841E+03 -0.58841566506E+02  0.59162540013E+03  0.10305912561E+04  0.59992275886E+03 0.  0.
        -24    2    4    4    0    0  0.54751028700E+03 -0.26545366832E+03  0.47783682029E+03  0.77776706409E+03  0.79752208538E+02 0.  0.
         24    2    4    4    0    0  0.43021741403E+02  0.20661210181E+03  0.11378857985E+03  0.25282419204E+03  0.80204740048E+02 0.  0.
         11    1    3    3    0    0 -0.25759123999E+03  0.33941596766E+02  0.63104696180E+01  0.25989440344E+03  0.00000000000E+00 0. -1.
        -12    1    3    3    0    0 -0.33294078842E+03  0.24899969740E+02  0.97464397567E+02  0.34780581634E+03  0.00000000000E+00 0.  1.
         15    1    5    5    0    0  0.35347248281E+03 -0.20722600501E+03  0.34360659821E+03  0.53474673007E+03  0.17770000000E+01 0. -1.
        -16    1    5    5    0    0  0.19403780419E+03 -0.58227663311E+02  0.13423022208E+03  0.24302033403E+03  0.00000000000E+00 0.  1.
          2    1    6    6  502    0 -0.10093871184E+02  0.14051432327E+03  0.74645522265E+02  0.15943059704E+03  0.00000000000E+00 0. -1.
         -3    1    6    6    0  502  0.53115612587E+02  0.66097778546E+02  0.39143057582E+02  0.93393594995E+02  0.00000000000E+00 0.  1.
<mgrwt>
<rscale>  0 0.71584396E+03</rscale>
<asrwt>0</asrwt>
<pdfrwt beam="1">  1        1 0.72530093E-01 0.71584396E+03</pdfrwt>
<pdfrwt beam="2">  1       -2 0.17951475E+00 0.71584396E+03</pdfrwt>
<totfact> 0.78812065E+00</totfact>
</mgrwt>
</event>
<event>
12    3  0.1201947E-007  0.5047747E+03  0.7818608E-02  0.1012540E+00
         -2   -1    0    0    0  501 -0.00000000000E+00  0.00000000000E+00  0.21191134740E+03  0.21191134740E+03  0.00000000000E+00 0.  1.
          1   -1    0    0  501    0  0.00000000000E+00 -0.00000000000E+00 -0.14836325843E+04  0.14836325843E+04  0.00000000000E+00 0. -1.
        -24    2    1    2    0    0  0.29259783362E+03 -0.24090142878E+03 -0.29127232348E+03  0.48488365636E+03  0.81397808066E+02 0.  0.
    5000000    2    1    2    0    0 -0.29259783362E+03  0.24090142878E+03 -0.98044891345E+03  0.12106602754E+04  0.60064235600E+03 0.  0.
        -24    2    4    4    0    0 -0.38219493633E+03  0.30190322521E+03 -0.46507740679E+03  0.67803291380E+03  0.78823290577E+02 0.  0.
         24    2    4    4    0    0  0.89597102707E+02 -0.61001796432E+02 -0.51537150666E+03  0.53262736156E+03  0.79594324095E+02 0.  0.
         11    1    3    3    0    0  0.49304236175E+02 -0.70760818550E+02 -0.36424194385E+02  0.93620099783E+02  0.00000000000E+00 0. -1.
        -12    1    3    3    0    0  0.24329359744E+03 -0.17014061023E+03 -0.25484812909E+03  0.39126355658E+03  0.00000000000E+00 0.  1.
         15    1    5    5    0    0 -0.87767630372E+02  0.11453495522E+03 -0.13018578818E+03  0.19435254071E+03  0.17770000000E+01 0. -1.
        -16    1    5    5    0    0 -0.29442730595E+03  0.18736826999E+03 -0.33489161861E+03  0.48368037309E+03  0.00000000000E+00 0.  1.
          4    1    6    6  502    0  0.71737451312E+02 -0.79725415736E+02 -0.38205200892E+03  0.39682003648E+03  0.00000000000E+00 0. -1.
         -3    1    6    6    0  502  0.17859651395E+02  0.18723619304E+02 -0.13331949774E+03  0.13580732508E+03  0.00000000000E+00 0.  1.
<mgrwt>
<rscale>  0 0.50477468E+03</rscale>
<asrwt>0</asrwt>
<pdfrwt beam="1">  1        1 0.22825117E+00 0.50477468E+03</pdfrwt>
<pdfrwt beam="2">  1       -2 0.32601746E-01 0.50477468E+03</pdfrwt>
<totfact> 0.54602044E+01</totfact>
</mgrwt>
</event>
<event>
12    3  0.1201947E-007  0.3932845E+03  0.7818608E-02  0.1046130E+00
         -2   -1    0    0    0  501 -0.00000000000E+00  0.00000000000E+00  0.42675679201E+03  0.42675679201E+03  0.00000000000E+00 0.  1.
          1   -1    0    0  501    0  0.00000000000E+00 -0.00000000000E+00 -0.83022429271E+03  0.83022429271E+03  0.00000000000E+00 0. -1.
        -24    2    1    2    0    0 -0.10016604561E+03 -0.34123807744E+03  0.12152831540E+03  0.38361647217E+03  0.76914264542E+02 0.  0.
    5000000    2    1    2    0    0  0.10016604561E+03  0.34123807744E+03 -0.52499581610E+03  0.87336461254E+03  0.60055680608E+03 0.  0.
        -24    2    4    4    0    0 -0.50258088649E+00 -0.11554119186E+02  0.10888026641E+03  0.13679635988E+03  0.82003545089E+02 0.  0.
         24    2    4    4    0    0  0.10066862649E+03  0.35279219662E+03 -0.63387608251E+03  0.73656825266E+03  0.78341537468E+02 0.  0.
         11    1    3    3    0    0 -0.24908504856E+02 -0.15334556643E+02  0.70448077801E+01  0.30086733925E+02  0.00000000000E+00 0. -1.
        -12    1    3    3    0    0 -0.75257540750E+02 -0.32590352079E+03  0.11448350762E+03  0.35352973824E+03  0.00000000000E+00 0.  1.
         15    1    5    5    0    0 -0.23401586164E+02 -0.98421901440E+01  0.11086442814E+03  0.11374788832E+03  0.17770000000E+01 0. -1.
        -16    1    5    5    0    0  0.22899005278E+02 -0.17119290422E+01 -0.19841617304E+01  0.23048471566E+02  0.00000000000E+00 0.  1.
          4    1    6    6  502    0  0.26267891915E+02  0.22520058900E+03 -0.36130535193E+03  0.42655230015E+03  0.00000000000E+00 0. -1.
         -3    1    6    6    0  502  0.74400734578E+02  0.12759160762E+03 -0.27257073058E+03  0.31001595251E+03  0.00000000000E+00 0.  1.
<mgrwt>
<rscale>  0 0.39328451E+03</rscale>
<asrwt>0</asrwt>
<pdfrwt beam="1">  1        1 0.12772681E+00 0.39328451E+03</pdfrwt>
<pdfrwt beam="2">  1       -2 0.65654891E-01 0.39328451E+03</pdfrwt>
<totfact> 0.41454487E+01</totfact>
</mgrwt>
</event>
<event>
12    3  0.1201947E-007  0.9010747E+03  0.7818608E-02  0.9424239E-01
          1   -1    0    0  501    0  0.00000000000E+00  0.00000000000E+00  0.37274643870E+03  0.37274643870E+03  0.00000000000E+00 0. -1.
         -2   -1    0    0    0  501 -0.00000000000E+00 -0.00000000000E+00 -0.27237660427E+04  0.27237660427E+04  0.00000000000E+00 0.  1.
        -24    2    1    2    0    0 -0.58125161238E+03  0.67279114555E+03 -0.14142817550E+04  0.16724369497E+04  0.79693824258E+02 0.  0.
    5000000    2    1    2    0    0  0.58125161238E+03 -0.67279114555E+03 -0.93673784894E+03  0.14240755317E+04  0.60000996651E+03 0.  0.
        -24    2    4    4    0    0  0.11343609577E+03 -0.31549409386E+02  0.53705543140E+02  0.15231522727E+03  0.80327641814E+02 0.  0.
         24    2    4    4    0    0  0.46781551661E+03 -0.64124173617E+03 -0.99044339208E+03  0.12717603044E+04  0.79710960384E+02 0.  0.
         13    1    3    3    0    0 -0.24377760609E+03  0.30001819112E+03 -0.68608895812E+03  0.78750015536E+03  0.00000000000E+00 0. -1.
        -14    1    3    3    0    0 -0.33747400629E+03  0.37277295444E+03 -0.72819279689E+03  0.88493679431E+03  0.00000000000E+00 0.  1.
         15    1    5    5    0    0  0.10864722598E+03 -0.30048427450E+02  0.15522147643E+02  0.11380343801E+03  0.17770000000E+01 0. -1.
        -16    1    5    5    0    0  0.47888697837E+01 -0.15009819361E+01  0.38183395497E+02  0.38511789263E+02  0.00000000000E+00 0.  1.
          2    1    6    6  502    0  0.20121105603E+03 -0.23922887877E+03 -0.44188600306E+03  0.54127588641E+03  0.00000000000E+00 0. -1.
         -1    1    6    6    0  502  0.26660446058E+03 -0.40201285740E+03 -0.54855738902E+03  0.73048441802E+03  0.00000000000E+00 0.  1.
<mgrwt>
<rscale>  0 0.90107475E+03</rscale>
<asrwt>0</asrwt>
<pdfrwt beam="1">  1        1 0.57345604E-01 0.90107475E+03</pdfrwt>
<pdfrwt beam="2">  1       -2 0.41904095E+00 0.90107475E+03</pdfrwt>
<totfact> 0.33390369E-01</totfact>
</mgrwt>
</event>
<event>
12    3  0.1201947E-007  0.8451629E+03  0.7818608E-02  0.9496852E-01
         -2   -1    0    0    0  501 -0.00000000000E+00  0.00000000000E+00  0.18477477190E+04  0.18477477190E+04  0.00000000000E+00 0.  1.
          1   -1    0    0  501    0  0.00000000000E+00 -0.00000000000E+00 -0.72086765131E+03  0.72086765131E+03  0.00000000000E+00 0. -1.
        -24    2    1    2    0    0  0.82492955324E+03 -0.84274717839E+02 -0.23473811806E+03  0.86519521120E+03  0.76483812260E+02 0.  0.
    5000000    2    1    2    0    0 -0.82492955324E+03  0.84274717839E+02  0.13616181857E+04  0.17034201591E+04  0.60002096529E+03 0.  0.
        -24    2    4    4    0    0 -0.75212559926E+03  0.13895566421E+03  0.72995908484E+03  0.10602949817E+04  0.79897365796E+02 0.  0.
         24    2    4    4    0    0 -0.72803953980E+02 -0.54680946368E+02  0.63165910087E+03  0.64312517734E+03  0.79538370676E+02 0.  0.
         11    1    3    3    0    0  0.49563695754E+03 -0.50119781296E+02 -0.10190143869E+03  0.50847997931E+03  0.00000000000E+00 0. -1.
        -12    1    3    3    0    0  0.32929259570E+03 -0.34154936543E+02 -0.13283667937E+03  0.35671523189E+03  0.00000000000E+00 0.  1.
         15    1    5    5    0    0 -0.25046272014E+03  0.13753518488E+02  0.26564132248E+03  0.36536174319E+03  0.17770000000E+01 0. -1.
        -16    1    5    5    0    0 -0.50166287911E+03  0.12520214572E+03  0.46431776236E+03  0.69493323853E+03  0.00000000000E+00 0.  1.
          4    1    6    6  502    0 -0.58521821584E+02 -0.32832576931E+02  0.59107434389E+03  0.59487113034E+03  0.00000000000E+00 0. -1.
         -3    1    6    6    0  502 -0.14282132396E+02 -0.21848369437E+02  0.40584756979E+02  0.48254047000E+02  0.00000000000E+00 0.  1.
<mgrwt>
<rscale>  0 0.84516286E+03</rscale>
<asrwt>0</asrwt>
<pdfrwt beam="1">  1        1 0.11090272E+00 0.84516286E+03</pdfrwt>
<pdfrwt beam="2">  1       -2 0.28426888E+00 0.84516286E+03</pdfrwt>
<totfact> 0.93158554E-01</totfact>
</mgrwt>
</event>
<event>
12    3  0.1201947E-007  0.7761316E+03  0.7818608E-02  0.9595223E-01
          1   -1    0    0  501    0  0.00000000000E+00  0.00000000000E+00  0.81440443295E+03  0.81440443295E+03  0.00000000000E+00 0. -1.
         -2   -1    0    0    0  501 -0.00000000000E+00 -0.00000000000E+00 -0.10792677264E+04  0.10792677264E+04  0.00000000000E+00 0.  1.
        -24    2    1    2    0    0  0.33118685439E+03  0.61679348298E+03 -0.58678230132E+03  0.91708558305E+03  0.81323823777E+02 0.  0.
    5000000    2    1    2    0    0 -0.33118685439E+03 -0.61679348298E+03  0.32191900790E+03  0.97658657628E+03  0.59997546629E+03 0.  0.
        -24    2    4    4    0    0  0.11131929362E+03 -0.10606140570E+03 -0.75241543970E+02  0.18883846165E+03  0.79734984471E+02 0.  0.
         24    2    4    4    0    0 -0.44250614802E+03 -0.51073207728E+03  0.39716055187E+03  0.78774811463E+03  0.78432406185E+02 0.  0.
         11    1    3    3    0    0  0.10551755530E+03  0.28027077612E+03 -0.24059593635E+03  0.38415109919E+03  0.00000000000E+00 0. -1.
        -12    1    3    3    0    0  0.22566929909E+03  0.33652270687E+03 -0.34618636498E+03  0.53293448386E+03  0.00000000000E+00 0.  1.
         15    1    5    5    0    0  0.56489547382E+02 -0.97054392973E+02 -0.71518857529E+02  0.13314927289E+03  0.17770000000E+01 0. -1.
        -16    1    5    5    0    0  0.54829746241E+02 -0.90070127256E+01 -0.37226864403E+01  0.55689188766E+02  0.00000000000E+00 0.  1.
          4    1    6    6  502    0 -0.43583404673E+03 -0.48027607294E+03  0.37184340096E+03  0.74758540473E+03  0.00000000000E+00 0. -1.
         -3    1    6    6    0  502 -0.66721012858E+01 -0.30456004347E+02  0.25317150907E+02  0.40162709899E+02  0.00000000000E+00 0.  1.
<mgrwt>
<rscale>  0 0.77613162E+03</rscale>
<asrwt>0</asrwt>
<pdfrwt beam="1">  1        1 0.12529299E+00 0.77613162E+03</pdfrwt>
<pdfrwt beam="2">  1       -2 0.16604119E+00 0.77613162E+03</pdfrwt>
<totfact> 0.43738432E+00</totfact>
</mgrwt>
</event>
<event>
12    3  0.1201947E-007  0.7399771E+03  0.7818608E-02  0.9651207E-01
          1   -1    0    0  501    0  0.00000000000E+00  0.00000000000E+00  0.41159554274E+03  0.41159554274E+03  0.00000000000E+00 0. -1.
         -2   -1    0    0    0  501 -0.00000000000E+00 -0.00000000000E+00 -0.14565812276E+04  0.14565812276E+04  0.00000000000E+00 0.  1.
        -24    2    1    2    0    0  0.20766554915E+03  0.62097919101E+03 -0.40040791611E+03  0.77082360539E+03  0.71431053265E+02 0.  0.
    5000000    2    1    2    0    0 -0.20766554915E+03 -0.62097919101E+03 -0.64457776872E+03  0.10973531649E+04  0.59996944309E+03 0.  0.
        -24    2    4    4    0    0 -0.25207283918E+03 -0.78001687654E+02 -0.41993518804E+03  0.50248289111E+03  0.80737315932E+02 0.  0.
         24    2    4    4    0    0  0.44407290026E+02 -0.54297750336E+03 -0.22464258069E+03  0.59487027380E+03  0.81300535239E+02 0.  0.
         11    1    3    3    0    0  0.15160465127E+03  0.53002090540E+03 -0.32362356255E+03  0.63924826217E+03  0.00000000000E+00 0. -1.
        -12    1    3    3    0    0  0.56060897880E+02  0.90958285614E+02 -0.76784353557E+02  0.13157534322E+03  0.00000000000E+00 0.  1.
         15    1    5    5    0    0 -0.18670827591E+03 -0.25078390339E+02 -0.32496931465E+03  0.37562896473E+03  0.17770000000E+01 0. -1.
        -16    1    5    5    0    0 -0.65364563266E+02 -0.52923297315E+02 -0.94965873390E+02  0.12685392638E+03  0.00000000000E+00 0.  1.
          2    1    6    6  502    0  0.63575950702E+02 -0.44255044184E+03 -0.19949716013E+03  0.48958340656E+03  0.00000000000E+00 0. -1.
         -1    1    6    6    0  502 -0.19168660676E+02 -0.10042706152E+03 -0.25145420553E+02  0.10528686724E+03  0.00000000000E+00 0.  1.
<mgrwt>
<rscale>  0 0.73997714E+03</rscale>
<asrwt>0</asrwt>
<pdfrwt beam="1">  1        1 0.63322391E-01 0.73997714E+03</pdfrwt>
<pdfrwt beam="2">  1       -2 0.22408942E+00 0.73997714E+03</pdfrwt>
<totfact> 0.48419440E+00</totfact>
</mgrwt>
</event>
<event>
12    3  0.1201947E-007  0.8534569E+03  0.7818608E-02  0.9485709E-01
          1   -1    0    0  501    0  0.00000000000E+00  0.00000000000E+00  0.24397322940E+04  0.24397322940E+04  0.00000000000E+00 0. -1.
         -2   -1    0    0    0  501 -0.00000000000E+00 -0.00000000000E+00 -0.73209440598E+03  0.73209440598E+03  0.00000000000E+00 0.  1.
        -24    2    1    2    0    0 -0.32859326072E+03  0.67747906224E+03 -0.39881921721E+03  0.85578512388E+03  0.79749604780E+02 0.  0.
    5000000    2    1    2    0    0  0.32859326072E+03 -0.67747906224E+03  0.21064571052E+04  0.23160415761E+04  0.59994636032E+03 0.  0.
        -24    2    4    4    0    0  0.44131770607E+03 -0.25204324082E+03  0.11751010192E+04  0.12828508947E+04  0.80974685351E+02 0.  0.
         24    2    4    4    0    0 -0.11272444535E+03 -0.42543582142E+03  0.93135608596E+03  0.10331906814E+04  0.79726949631E+02 0.  0.
         11    1    3    3    0    0 -0.14777805505E+03  0.33169582147E+03 -0.14929102508E+03  0.39261722034E+03  0.00000000000E+00 0. -1.
        -12    1    3    3    0    0 -0.18081520567E+03  0.34578324077E+03 -0.24952819213E+03  0.46316790354E+03  0.00000000000E+00 0.  1.
         15    1    5    5    0    0  0.32007134344E+03 -0.21228391101E+03  0.93820735115E+03  0.10137782377E+04  0.17770000000E+01 0. -1.
        -16    1    5    5    0    0  0.12124636263E+03 -0.39759329807E+02  0.23689366807E+03  0.26907265697E+03  0.00000000000E+00 0.  1.
          2    1    6    6  502    0 -0.20534102453E+02 -0.15129110692E+03  0.40121804076E+03  0.42928611046E+03  0.00000000000E+00 0. -1.
         -1    1    6    6    0  502 -0.92190342893E+02 -0.27414471450E+03  0.53013804520E+03  0.60390457092E+03  0.00000000000E+00 0.  1.
<mgrwt>
<rscale>  0 0.85345686E+03</rscale>
<asrwt>0</asrwt>
<pdfrwt beam="1">  1        1 0.37534343E+00 0.85345686E+03</pdfrwt>
<pdfrwt beam="2">  1       -2 0.11262991E+00 0.85345686E+03</pdfrwt>
<totfact> 0.84125307E-01</totfact>
</mgrwt>
</event>
<event>
12    3  0.1201947E-007  0.8594131E+03  0.7818608E-02  0.9477789E-01
          1   -1    0    0  501    0  0.00000000000E+00  0.00000000000E+00  0.31686110232E+04  0.31686110232E+04  0.00000000000E+00 0. -1.
         -2   -1    0    0    0  501 -0.00000000000E+00 -0.00000000000E+00 -0.26520218950E+03  0.26520218950E+03  0.00000000000E+00 0.  1.
        -24    2    1    2    0    0  0.65025305214E+03  0.49229049039E+03  0.13727301873E+04  0.15987113514E+04  0.79440916145E+02 0.  0.
    5000000    2    1    2    0    0 -0.65025305214E+03 -0.49229049039E+03  0.15306786464E+04  0.18351018613E+04  0.59953545696E+03 0.  0.
        -24    2    4    4    0    0 -0.26773135620E+02  0.26448978155E+02  0.56415159511E+03  0.57124688580E+03  0.81483943448E+02 0.  0.
         24    2    4    4    0    0 -0.62347991652E+03 -0.51873946854E+03  0.96652705129E+03  0.12638549755E+04  0.73054881710E+02 0.  0.
         13    1    3    3    0    0  0.49032279053E+03  0.34140624110E+03  0.95108624556E+03  0.11231828466E+04  0.00000000000E+00 0. -1.
        -14    1    3    3    0    0  0.15993026161E+03  0.15088424929E+03  0.42164394177E+03  0.47552850481E+03  0.00000000000E+00 0.  1.
         15    1    5    5    0    0 -0.38527961376E+02 -0.18063977874E+02  0.22629040068E+03  0.23026335851E+03  0.17770000000E+01 0. -1.
        -16    1    5    5    0    0  0.11754825756E+02  0.44512956029E+02  0.33786119443E+03  0.34098352730E+03  0.00000000000E+00 0.  1.
          2    1    6    6  502    0 -0.80653274949E+02 -0.92156882543E+02  0.17424800947E+03  0.21297936652E+03  0.00000000000E+00 0. -1.
         -1    1    6    6    0  502 -0.54282664157E+03 -0.42658258600E+03  0.79227904183E+03  0.10508756090E+04  0.00000000000E+00 0.  1.
<mgrwt>
<rscale>  0 0.85941312E+03</rscale>
<asrwt>0</asrwt>
<pdfrwt beam="1">  1        1 0.48747859E+00 0.85941312E+03</pdfrwt>
<pdfrwt beam="2">  1       -2 0.40800339E-01 0.85941312E+03</pdfrwt>
<totfact> 0.23584046E+00</totfact>
</mgrwt>
</event>
<event>
12    3  0.1201947E-007  0.5397489E+03  0.7818608E-02  0.1003895E+00
          1   -1    0    0  501    0  0.00000000000E+00  0.00000000000E+00  0.36979561185E+04  0.36979561185E+04  0.00000000000E+00 0. -1.
         -2   -1    0    0    0  501 -0.00000000000E+00 -0.00000000000E+00 -0.12735360786E+03  0.12735360786E+03  0.00000000000E+00 0.  1.
        -24    2    1    2    0    0 -0.72813331064E+02  0.52596590068E+03  0.18679731851E+04  0.19436190442E+04  0.79932839234E+02 0.  0.
    5000000    2    1    2    0    0  0.72813331064E+02 -0.52596590068E+03  0.17026293255E+04  0.18816906822E+04  0.59989273488E+03 0.  0.
        -24    2    4    4    0    0  0.24547139864E+02 -0.17383467242E+03  0.64374949650E+02  0.20340462206E+03  0.80051550412E+02 0.  0.
         24    2    4    4    0    0  0.48266191199E+02 -0.35213122826E+03  0.16382543759E+04  0.16782860601E+04  0.80253799513E+02 0.  0.
         11    1    3    3    0    0 -0.66168954975E+02  0.19973780283E+03  0.76183187969E+03  0.79035519445E+03  0.00000000000E+00 0. -1.
        -12    1    3    3    0    0 -0.66443760884E+01  0.32622809785E+03  0.11061413054E+04  0.11532638497E+04  0.00000000000E+00 0.  1.
         15    1    5    5    0    0  0.38083327039E+02 -0.56699696262E+02  0.49895445589E+02  0.84604424081E+02  0.17770000000E+01 0. -1.
        -16    1    5    5    0    0 -0.13536187175E+02 -0.11713497616E+03  0.14479504061E+02  0.11880019798E+03  0.00000000000E+00 0.  1.
          2    1    6    6  502    0  0.13627406224E+01 -0.10487359886E+03  0.65451990791E+03  0.66287000132E+03  0.00000000000E+00 0. -1.
         -3    1    6    6    0  502  0.46903450577E+02 -0.24725762940E+03  0.98373446798E+03  0.10154160588E+04  0.00000000000E+00 0.  1.
<mgrwt>
<rscale>  0 0.53974889E+03</rscale>
<asrwt>0</asrwt>
<pdfrwt beam="1">  1        1 0.56891624E+00 0.53974889E+03</pdfrwt>
<pdfrwt beam="2">  1       -2 0.19592866E-01 0.53974889E+03</pdfrwt>
<totfact> 0.38357894E+00</totfact>
</mgrwt>
</event>
<event>
12    3  0.1201947E-007  0.3145004E+03  0.7818608E-02  0.1078209E+00
         -2   -1    0    0    0  501 -0.00000000000E+00  0.00000000000E+00  0.36575929692E+03  0.36575929692E+03  0.00000000000E+00 0.  1.
          1   -1    0    0  501    0  0.00000000000E+00 -0.00000000000E+00 -0.38339366203E+03  0.38339366203E+03  0.00000000000E+00 0. -1.
        -24    2    1    2    0    0  0.90769292328E+02  0.66269371360E+02 -0.12460830111E+02  0.13859875958E+03  0.80147675316E+02 0.  0.
    5000000    2    1    2    0    0 -0.90769292328E+02 -0.66269371360E+02 -0.51735349949E+01  0.61055419938E+03  0.60009913423E+03 0.  0.
        -24    2    4    4    0    0 -0.28765884981E+03  0.18349036976E+02  0.14915074242E+03  0.33450798430E+03  0.81026826207E+02 0.  0.
         24    2    4    4    0    0  0.19688955748E+03 -0.84618408336E+02 -0.15432427742E+03  0.27604621507E+03  0.80372615874E+02 0.  0.
         13    1    3    3    0    0  0.76411257054E+02  0.44195864559E+02 -0.43072149367E+02  0.98219981163E+02  0.00000000000E+00 0. -1.
        -14    1    3    3    0    0  0.14358035274E+02  0.22073506801E+02  0.30611319256E+02  0.40378778412E+02  0.00000000000E+00 0.  1.
         15    1    5    5    0    0 -0.12626941821E+03 -0.10163376268E-02  0.10989158960E+03  0.16740156861E+03  0.17770000000E+01 0. -1.
        -16    1    5    5    0    0 -0.16138943159E+03  0.18350053314E+02  0.39259152822E+02  0.16710641570E+03  0.00000000000E+00 0.  1.
          4    1    6    6  502    0  0.12468022926E+03 -0.15346414396E+02 -0.62824682554E+02  0.14045502035E+03  0.00000000000E+00 0. -1.
         -3    1    6    6    0  502  0.72209328215E+02 -0.69271993940E+02 -0.91499594866E+02  0.13559119472E+03  0.00000000000E+00 0.  1.
<mgrwt>
<rscale>  0 0.31450036E+03</rscale>
<asrwt>0</asrwt>
<pdfrwt beam="1">  1        1 0.58983640E-01 0.31450036E+03</pdfrwt>
<pdfrwt beam="2">  1       -2 0.56270661E-01 0.31450036E+03</pdfrwt>
<totfact> 0.17076806E+02</totfact>
</mgrwt>
</event>
<event>
12    3  0.1201947E-007  0.7311975E+03  0.7818608E-02  0.9665319E-01
          1   -1    0    0  501    0  0.00000000000E+00  0.00000000000E+00  0.18435272462E+04  0.18435272462E+04  0.00000000000E+00 0. -1.
         -2   -1    0    0    0  501 -0.00000000000E+00 -0.00000000000E+00 -0.30640188240E+03  0.30640188240E+03  0.00000000000E+00 0.  1.
        -24    2    1    2    0    0  0.54195371720E+03 -0.28624169806E+03  0.44697000017E+03  0.76275119246E+03  0.79743709796E+02 0.  0.
    5000000    2    1    2    0    0 -0.54195371720E+03  0.28624169806E+03  0.10901553636E+04  0.13871779361E+04  0.60014645577E+03 0.  0.
        -24    2    4    4    0    0 -0.32639686377E+02  0.32918475052E+03  0.41836528654E+03  0.53928020300E+03  0.79785181986E+02 0.  0.
         24    2    4    4    0    0 -0.50931403083E+03 -0.42943052454E+02  0.67179007708E+03  0.84789773314E+03  0.79898500885E+02 0.  0.
         13    1    3    3    0    0  0.13965574659E+03 -0.58188643434E+02  0.15071696985E+03  0.21355385920E+03  0.00000000000E+00 0. -1.
        -14    1    3    3    0    0  0.40229797061E+03 -0.22805305463E+03  0.29625303032E+03  0.54919733326E+03  0.00000000000E+00 0.  1.
         15    1    5    5    0    0 -0.48700795792E+02  0.15321515588E+03  0.23398651039E+03  0.28390050418E+03  0.17770000000E+01 0. -1.
        -16    1    5    5    0    0  0.16061109414E+02  0.17596959464E+03  0.18437877615E+03  0.25537969882E+03  0.00000000000E+00 0.  1.
          2    1    6    6  502    0 -0.12626184518E+03 -0.72672588943E+01  0.11375180094E+03  0.17010096654E+03  0.00000000000E+00 0. -1.
         -1    1    6    6    0  502 -0.38305218565E+03 -0.35675793560E+02  0.55803827614E+03  0.67779676660E+03  0.00000000000E+00 0.  1.
<mgrwt>
<rscale>  0 0.73119749E+03</rscale>
<asrwt>0</asrwt>
<pdfrwt beam="1">  1        1 0.28361957E+00 0.73119749E+03</pdfrwt>
<pdfrwt beam="2">  1       -2 0.47138753E-01 0.73119749E+03</pdfrwt>
<totfact> 0.14818242E+01</totfact>
</mgrwt>
</event>
<event>
12    3  0.1201947E-007  0.9987011E+03  0.7818608E-02  0.9309971E-01
          1   -1    0    0  501    0  0.00000000000E+00  0.00000000000E+00  0.80387682364E+03  0.80387682364E+03  0.00000000000E+00 0. -1.
         -2   -1    0    0    0  501 -0.00000000000E+00 -0.00000000000E+00 -0.28245809797E+04  0.28245809797E+04  0.00000000000E+00 0.  1.
        -24    2    1    2    0    0  0.75381511535E+03  0.61576504183E+03  0.31652559227E+03  0.10266398854E+04  0.79982428388E+02 0.  0.
    5000000    2    1    2    0    0 -0.75381511535E+03 -0.61576504183E+03 -0.23372297483E+04  0.26018179179E+04  0.59950793718E+03 0.  0.
        -24    2    4    4    0    0 -0.18222747222E+02 -0.58918222099E+02 -0.15132276515E+02  0.10186191335E+03  0.79645704131E+02 0.  0.
         24    2    4    4    0    0 -0.73559236812E+03 -0.55684681973E+03 -0.23220974718E+04  0.24999560046E+04  0.80429121479E+02 0.  0.
         13    1    3    3    0    0  0.20789290936E+03  0.16730007673E+03  0.12473697386E+03  0.29456423762E+03  0.00000000000E+00 0. -1.
        -14    1    3    3    0    0  0.54592220599E+03  0.44846496510E+03  0.19178861841E+03  0.73207564777E+03  0.00000000000E+00 0.  1.
         15    1    5    5    0    0 -0.44865244564E+02 -0.15094641734E+02  0.29988498702E+01  0.47464610062E+02  0.17770000000E+01 0. -1.
        -16    1    5    5    0    0  0.26642497342E+02 -0.43823580366E+02 -0.18131126385E+02  0.54397303285E+02  0.00000000000E+00 0.  1.
          4    1    6    6  502    0 -0.61577576097E+03 -0.43099198807E+03 -0.18469577317E+04  0.19940377991E+04  0.00000000000E+00 0. -1.
         -3    1    6    6    0  502 -0.11981660716E+03 -0.12585483166E+03 -0.47513974007E+03  0.50591820544E+03  0.00000000000E+00 0.  1.
<mgrwt>
<rscale>  0 0.99870115E+03</rscale>
<asrwt>0</asrwt>
<pdfrwt beam="1">  1        1 0.12367336E+00 0.99870115E+03</pdfrwt>
<pdfrwt beam="2">  1       -2 0.43455092E+00 0.99870115E+03</pdfrwt>
<totfact> 0.86413848E-02</totfact>
</mgrwt>
</event>
<event>
12    3  0.1201947E-007  0.3022866E+03  0.7818608E-02  0.1084103E+00
          1   -1    0    0  501    0  0.00000000000E+00  0.00000000000E+00  0.85840102685E+03  0.85840102685E+03  0.00000000000E+00 0. -1.
         -2   -1    0    0    0  501 -0.00000000000E+00 -0.00000000000E+00 -0.36792915493E+03  0.36792915493E+03  0.00000000000E+00 0.  1.
        -24    2    1    2    0    0 -0.20033179355E+03  0.12801171312E+03 -0.16973562995E+03  0.30315995003E+03  0.81092200790E+02 0.  0.
    5000000    2    1    2    0    0  0.20033179355E+03 -0.12801171312E+03  0.66020750188E+03  0.92317023175E+03  0.59987457443E+03 0.  0.
        -24    2    4    4    0    0 -0.33880837198E+02 -0.75127012798E+02  0.66046877398E+03  0.67039110416E+03  0.80082781903E+02 0.  0.
         24    2    4    4    0    0  0.23421263074E+03 -0.52884700318E+02 -0.26127210480E+00  0.25277912758E+03  0.79024497163E+02 0.  0.
         13    1    3    3    0    0 -0.64863051373E+02  0.79153203177E+02 -0.10027161621E+03  0.14327191639E+03  0.00000000000E+00 0. -1.
        -14    1    3    3    0    0 -0.13546874217E+03  0.48858509938E+02 -0.69464013739E+02  0.15988803365E+03  0.00000000000E+00 0.  1.
         15    1    5    5    0    0  0.21267456989E+02 -0.47235246125E+02  0.35162971917E+03  0.35542944494E+03  0.17770000000E+01 0. -1.
        -16    1    5    5    0    0 -0.55148294187E+02 -0.27891766673E+02  0.30883905481E+03  0.31496165922E+03  0.00000000000E+00 0.  1.
          4    1    6    6  502    0  0.16133772867E+03 -0.58229773682E+02  0.29201485892E+02  0.17399222975E+03  0.00000000000E+00 0. -1.
         -1    1    6    6    0  502  0.72874902072E+02  0.53450733641E+01 -0.29462757997E+02  0.78786897832E+02  0.00000000000E+00 0.  1.
<mgrwt>
<rscale>  0 0.30228657E+03</rscale>
<asrwt>0</asrwt>
<pdfrwt beam="1">  1        1 0.13206170E+00 0.30228657E+03</pdfrwt>
<pdfrwt beam="2">  1       -2 0.56604485E-01 0.30228657E+03</pdfrwt>
<totfact> 0.54507000E+01</totfact>
</mgrwt>
</event>
<event>
12    3  0.1201947E-007  0.3714499E+03  0.7818608E-02  0.1054140E+00
         -2   -1    0    0    0  501 -0.00000000000E+00  0.00000000000E+00  0.57309510686E+03  0.57309510686E+03  0.00000000000E+00 0.  1.
          1   -1    0    0  501    0  0.00000000000E+00 -0.00000000000E+00 -0.44072757615E+03  0.44072757615E+03  0.00000000000E+00 0. -1.
        -24    2    1    2    0    0 -0.24103451107E+02 -0.14511785460E+03 -0.24039255757E+03  0.29228644322E+03  0.77476545324E+02 0.  0.
    5000000    2    1    2    0    0  0.24103451107E+02  0.14511785460E+03  0.37276008828E+03  0.72153623979E+03  0.60002024452E+03 0.  0.
        -24    2    4    4    0    0 -0.25773996191E+03  0.11050265215E+03  0.29631949869E+03  0.41693243186E+03  0.85945816285E+02 0.  0.
         24    2    4    4    0    0  0.28184341302E+03  0.34615202448E+02  0.76440589594E+02  0.30460380793E+03  0.79412809833E+02 0.  0.
         11    1    3    3    0    0 -0.41240498198E+02 -0.89244152194E+02 -0.19465867482E+03  0.21807635607E+03  0.00000000000E+00 0. -1.
        -12    1    3    3    0    0  0.17137047091E+02 -0.55873702408E+02 -0.45733882745E+02  0.74210087149E+02  0.00000000000E+00 0.  1.
         15    1    5    5    0    0 -0.13347818414E+03  0.10291478325E+03  0.17899585750E+03  0.24586694162E+03  0.17770000000E+01 0. -1.
        -16    1    5    5    0    0 -0.12426177777E+03  0.75878689083E+01  0.11732364119E+03  0.17106549024E+03  0.00000000000E+00 0.  1.
          4    1    6    6  502    0  0.22340003686E+03  0.56925721231E+02  0.73522697363E+02  0.24197872062E+03  0.00000000000E+00 0. -1.
         -3    1    6    6    0  502  0.58443376157E+02 -0.22310518783E+02  0.29178922302E+01  0.62625087305E+02  0.00000000000E+00 0.  1.
<mgrwt>
<rscale>  0 0.37144987E+03</rscale>
<asrwt>0</asrwt>
<pdfrwt beam="1">  1        1 0.67804242E-01 0.37144987E+03</pdfrwt>
<pdfrwt beam="2">  1       -2 0.88168478E-01 0.37144987E+03</pdfrwt>
<totfact> 0.53635087E+01</totfact>
</mgrwt>
</event>
<event>
12    3  0.1201947E-007  0.4917478E+03  0.7818608E-02  0.1015956E+00
          1   -1    0    0  501    0  0.00000000000E+00  0.00000000000E+00  0.46684233413E+04  0.46684233413E+04  0.00000000000E+00 0. -1.
         -2   -1    0    0    0  501 -0.00000000000E+00 -0.00000000000E+00 -0.93223092334E+02  0.93223092334E+02  0.00000000000E+00 0.  1.
        -24    2    1    2    0    0  0.25789787252E+03 -0.34240557131E+03  0.76263214321E+03  0.87843125850E+03  0.79251511943E+02 0.  0.
    5000000    2    1    2    0    0 -0.25789787252E+03  0.34240557131E+03  0.38125681057E+04  0.38832151751E+04  0.59994303682E+03 0.  0.
        -24    2    4    4    0    0 -0.33678635491E+03  0.26616971923E+03  0.13928269598E+04  0.14596551008E+04  0.79716403524E+02 0.  0.
         24    2    4    4    0    0  0.78888482395E+02  0.76235852081E+02  0.24197411459E+04  0.24235600743E+04  0.80379865471E+02 0.  0.
         13    1    3    3    0    0  0.12709412015E+03 -0.10695402034E+03  0.31101106937E+03  0.35259036163E+03  0.00000000000E+00 0. -1.
        -14    1    3    3    0    0  0.13080375236E+03 -0.23545155097E+03  0.45162107384E+03  0.52584089687E+03  0.00000000000E+00 0.  1.
         15    1    5    5    0    0 -0.12405678426E+03  0.51451340946E+02  0.43744856113E+03  0.45760433517E+03  0.17770000000E+01 0. -1.
        -16    1    5    5    0    0 -0.21272957065E+03  0.21471837828E+03  0.95537839866E+03  0.10020507656E+04  0.00000000000E+00 0.  1.
          4    1    6    6  502    0  0.74502408269E+02  0.63133307152E+02  0.12745651481E+04  0.12783007236E+04  0.00000000000E+00 0. -1.
         -3    1    6    6    0  502  0.43860741256E+01  0.13102544929E+02  0.11451759979E+04  0.11452593507E+04  0.00000000000E+00 0.  1.
<mgrwt>
<rscale>  0 0.49174775E+03</rscale>
<asrwt>0</asrwt>
<pdfrwt beam="1">  1        1 0.71821880E+00 0.49174775E+03</pdfrwt>
<pdfrwt beam="2">  1       -2 0.14342018E-01 0.49174775E+03</pdfrwt>
<totfact> 0.86836110E-01</totfact>
</mgrwt>
</event>
<event>
12    3  0.1201947E-007  0.6110400E+03  0.7818608E-02  0.9882763E-01
         -2   -1    0    0    0  501 -0.00000000000E+00  0.00000000000E+00  0.19631842681E+03  0.19631842681E+03  0.00000000000E+00 0.  1.
          1   -1    0    0  501    0  0.00000000000E+00 -0.00000000000E+00 -0.25624731177E+04  0.25624731177E+04  0.00000000000E+00 0. -1.
        -24    2    1    2    0    0 -0.79684592591E+02 -0.57231051670E+03 -0.10451731752E+04  0.11970543659E+04  0.81628591235E+02 0.  0.
    5000000    2    1    2    0    0  0.79684592591E+02  0.57231051670E+03 -0.13209815157E+04  0.15617371786E+04  0.60011822875E+03 0.  0.
        -24    2    4    4    0    0 -0.34669038463E+02  0.31225531870E+02 -0.77420368846E+03  0.77996740523E+03  0.82345770583E+02 0.  0.
         24    2    4    4    0    0  0.11435363105E+03  0.54108498483E+03 -0.54677782723E+03  0.78176977339E+03  0.79676047188E+02 0.  0.
         13    1    3    3    0    0 -0.92735922756E+02 -0.47990098797E+03 -0.90697308804E+03  0.10302936921E+04  0.00000000000E+00 0. -1.
        -14    1    3    3    0    0  0.13051330164E+02 -0.92409528727E+02 -0.13820008717E+03  0.16676067376E+03  0.00000000000E+00 0.  1.
         15    1    5    5    0    0  0.22992286333E+02  0.11414052666E+02 -0.40023014055E+03  0.40105641618E+03  0.17770000000E+01 0. -1.
        -16    1    5    5    0    0 -0.57661324797E+02  0.19811479204E+02 -0.37397354791E+03  0.37891098905E+03  0.00000000000E+00 0.  1.
          4    1    6    6  502    0  0.39202832854E+02  0.15032707728E+03 -0.20503373927E+03  0.25724293285E+03  0.00000000000E+00 0. -1.
         -3    1    6    6    0  502  0.75150798201E+02  0.39075790755E+03 -0.34174408796E+03  0.52452684053E+03  0.00000000000E+00 0.  1.
<mgrwt>
<rscale>  0 0.61104000E+03</rscale>
<asrwt>0</asrwt>
<pdfrwt beam="1">  1        1 0.39422660E+00 0.61104000E+03</pdfrwt>
<pdfrwt beam="2">  1       -2 0.30202837E-01 0.61104000E+03</pdfrwt>
<totfact> 0.11729386E+01</totfact>
</mgrwt>
</event>
<event>
12    3  0.1201947E-007  0.6098815E+03  0.7818608E-02  0.9885115E-01
         -2   -1    0    0    0  501 -0.00000000000E+00  0.00000000000E+00  0.32960987431E+03  0.32960987431E+03  0.00000000000E+00 0.  1.
          1   -1    0    0  501    0  0.00000000000E+00 -0.00000000000E+00 -0.14151119520E+04  0.14151119520E+04  0.00000000000E+00 0. -1.
        -24    2    1    2    0    0 -0.36888262167E+02  0.46577904191E+03 -0.80467825307E+03  0.93409804365E+03  0.81982952040E+02 0.  0.
    5000000    2    1    2    0    0  0.36888262167E+02 -0.46577904191E+03 -0.28082382466E+03  0.81062378270E+03  0.59994836178E+03 0.  0.
        -24    2    4    4    0    0 -0.25517143360E+03 -0.33871162635E+03 -0.17126555937E+03  0.46435895590E+03  0.80369905744E+02 0.  0.
         24    2    4    4    0    0  0.29205969577E+03 -0.12706741556E+03 -0.10955826529E+03  0.34626482679E+03  0.80320126934E+02 0.  0.
         11    1    3    3    0    0 -0.37522922950E+02  0.28613276779E+03 -0.42060320788E+03  0.51008527623E+03  0.00000000000E+00 0. -1.
        -12    1    3    3    0    0  0.63466078336E+00  0.17964627412E+03 -0.38407504518E+03  0.42401276742E+03  0.00000000000E+00 0.  1.
         15    1    5    5    0    0 -0.16208560070E+03 -0.21470531283E+03 -0.14952982032E+03  0.30778635156E+03  0.17770000000E+01 0. -1.
        -16    1    5    5    0    0 -0.93085832899E+02 -0.12400631352E+03 -0.21735739058E+02  0.15657260434E+03  0.00000000000E+00 0.  1.
          4    1    6    6  502    0  0.21629075518E+03 -0.55658217013E+02 -0.61882157736E+02  0.23175187020E+03  0.00000000000E+00 0. -1.
         -3    1    6    6    0  502  0.75768940592E+02 -0.71409198549E+02 -0.47676107554E+02  0.11451295659E+03  0.00000000000E+00 0.  1.
<mgrwt>
<rscale>  0 0.60988148E+03</rscale>
<asrwt>0</asrwt>
<pdfrwt beam="1">  1        1 0.21770953E+00 0.60988148E+03</pdfrwt>
<pdfrwt beam="2">  1       -2 0.50709212E-01 0.60988148E+03</pdfrwt>
<totfact> 0.25323857E+01</totfact>
</mgrwt>
</event>
<event>
12    3  0.1201947E-007  0.6561962E+03  0.7818608E-02  0.9795221E-01
         -2   -1    0    0    0  501 -0.00000000000E+00  0.00000000000E+00  0.55004387365E+03  0.55004387365E+03  0.00000000000E+00 0.  1.
          1   -1    0    0  501    0  0.00000000000E+00 -0.00000000000E+00 -0.14113459659E+04  0.14113459659E+04  0.00000000000E+00 0. -1.
        -24    2    1    2    0    0  0.26317357410E+03  0.47970067158E+03  0.23206265149E+03  0.59943148507E+03  0.78051051582E+02 0.  0.
    5000000    2    1    2    0    0 -0.26317357410E+03 -0.47970067158E+03 -0.10933647437E+04  0.13619583545E+04  0.60009251962E+03 0.  0.
        -24    2    4    4    0    0  0.13080509593E+03 -0.23086906566E+02 -0.67826944095E+02  0.16948703671E+03  0.80513246683E+02 0.  0.
         24    2    4    4    0    0 -0.39397867003E+03 -0.45661376502E+03 -0.10255377996E+04  0.11924713178E+04  0.80899582210E+02 0.  0.
         13    1    3    3    0    0  0.12172524624E+03  0.28953648382E+03  0.15475619748E+03  0.35013981735E+03  0.00000000000E+00 0. -1.
        -14    1    3    3    0    0  0.14144832786E+03  0.19016418776E+03  0.77306454003E+02  0.24929166772E+03  0.00000000000E+00 0.  1.
         15    1    5    5    0    0  0.91086155290E+02 -0.50911940244E+02 -0.59945796924E+02  0.12035518120E+03  0.17770000000E+01 0. -1.
        -16    1    5    5    0    0  0.39718940638E+02  0.27825033677E+02 -0.78811471709E+01  0.49131855504E+02  0.00000000000E+00 0.  1.
          4    1    6    6  502    0 -0.36640321967E+03 -0.38394093523E+03 -0.89920347870E+03  0.10441402479E+04  0.00000000000E+00 0. -1.
         -3    1    6    6    0  502 -0.27575450355E+02 -0.72672829785E+02 -0.12633432092E+03  0.14833106989E+03  0.00000000000E+00 0.  1.
<mgrwt>
<rscale>  0 0.65619622E+03</rscale>
<asrwt>0</asrwt>
<pdfrwt beam="1">  1        1 0.21713015E+00 0.65619622E+03</pdfrwt>
<pdfrwt beam="2">  1       -2 0.84622135E-01 0.65619622E+03</pdfrwt>
<totfact> 0.84183614E+00</totfact>
</mgrwt>
</event>
<event>
12    3  0.1201947E-007  0.5459542E+03  0.7818608E-02  0.1002435E+00
         -2   -1    0    0    0  501 -0.00000000000E+00  0.00000000000E+00  0.13065888029E+04  0.13065888029E+04  0.00000000000E+00 0.  1.
          1   -1    0    0  501    0  0.00000000000E+00 -0.00000000000E+00 -0.27949213078E+03  0.27949213078E+03  0.00000000000E+00 0. -1.
        -24    2    1    2    0    0  0.23269331767E+03 -0.38585933169E+03  0.36249450769E+03  0.58365028728E+03  0.78814883126E+02 0.  0.
    5000000    2    1    2    0    0 -0.23269331767E+03  0.38585933169E+03  0.66460216445E+03  0.10024306464E+04  0.60011462233E+03 0.  0.
        -24    2    4    4    0    0  0.12255261445E+03  0.19222517937E+03  0.23388606608E+02  0.23982547524E+03  0.70707628731E+02 0.  0.
         24    2    4    4    0    0 -0.35524593212E+03  0.19363415231E+03  0.64121355784E+03  0.76260517117E+03  0.81963181377E+02 0.  0.
         13    1    3    3    0    0  0.50375584996E+02 -0.14880959202E+03  0.14586784974E+03  0.21438149134E+03  0.00000000000E+00 0. -1.
        -14    1    3    3    0    0  0.18231773267E+03 -0.23704973967E+03  0.21662665794E+03  0.36926879594E+03  0.00000000000E+00 0.  1.
         15    1    5    5    0    0  0.66148655674E+02  0.70643501512E+02  0.40074208775E+02  0.10476282209E+03  0.17770000000E+01 0. -1.
        -16    1    5    5    0    0  0.56403958780E+02  0.12158167786E+03 -0.16685602167E+02  0.13506265316E+03  0.00000000000E+00 0.  1.
          2    1    6    6  502    0 -0.24235156653E+03  0.12326815600E+03  0.35656756386E+03  0.44840801473E+03  0.00000000000E+00 0. -1.
         -1    1    6    6    0  502 -0.11289436559E+03  0.70365996314E+02  0.28464599398E+03  0.31419715643E+03  0.00000000000E+00 0.  1.
<mgrwt>
<rscale>  0 0.54595417E+03</rscale>
<asrwt>0</asrwt>
<pdfrwt beam="1">  1        1 0.42998790E-01 0.54595417E+03</pdfrwt>
<pdfrwt beam="2">  1       -2 0.20101366E+00 0.54595417E+03</pdfrwt>
<totfact> 0.11498965E+01</totfact>
</mgrwt>
</event>
<event>
12    3  0.1201947E-007  0.8715688E+03  0.7818608E-02  0.9461837E-01
         -2   -1    0    0    0  501 -0.00000000000E+00  0.00000000000E+00  0.54076908033E+03  0.54076908033E+03  0.00000000000E+00 0.  1.
          1   -1    0    0  501    0  0.00000000000E+00 -0.00000000000E+00 -0.15147982430E+04  0.15147982430E+04  0.00000000000E+00 0. -1.
        -24    2    1    2    0    0 -0.38339741583E+03  0.67406344859E+03 -0.19595481328E+03  0.80387800994E+03  0.80414270044E+02 0.  0.
    5000000    2    1    2    0    0  0.38339741583E+03 -0.67406344859E+03 -0.77807434943E+03  0.12516893134E+04  0.59997611031E+03 0.  0.
        -24    2    4    4    0    0  0.48540526538E+03 -0.29968614274E+03 -0.54094659272E+03  0.79020794224E+03  0.79845600991E+02 0.  0.
         24    2    4    4    0    0 -0.10200784955E+03 -0.37437730585E+03 -0.23712775672E+03  0.46148137120E+03  0.78558987091E+02 0.  0.
         11    1    3    3    0    0 -0.87920257639E+02  0.12052295787E+03 -0.10377293102E+02  0.14954411820E+03  0.00000000000E+00 0. -1.
        -12    1    3    3    0    0 -0.29547715819E+03  0.55354049072E+03 -0.18557752018E+03  0.65433389174E+03  0.00000000000E+00 0.  1.
         15    1    5    5    0    0  0.15883638252E+03 -0.90716403478E+02 -0.22564258212E+03  0.29047580772E+03  0.17770000000E+01 0. -1.
        -16    1    5    5    0    0  0.32656888286E+03 -0.20896973926E+03 -0.31530401059E+03  0.49973213452E+03  0.00000000000E+00 0.  1.
          2    1    6    6  502    0 -0.11529390786E+03 -0.33878785547E+03 -0.21631425979E+03  0.41816474647E+03  0.00000000000E+00 0. -1.
         -1    1    6    6    0  502  0.13286058303E+02 -0.35589450382E+02 -0.20813496928E+02  0.43316624731E+02  0.00000000000E+00 0.  1.
<mgrwt>
<rscale>  0 0.87156881E+03</rscale>
<asrwt>0</asrwt>
<pdfrwt beam="1">  1        1 0.23304588E+00 0.87156881E+03</pdfrwt>
<pdfrwt beam="2">  1       -2 0.83195243E-01 0.87156881E+03</pdfrwt>
<totfact> 0.72112769E+00</totfact>
</mgrwt>
</event>
<event>
12    3  0.1201947E-007  0.1794463E+04  0.7818608E-02  0.8709249E-01
         -2   -1    0    0    0  501 -0.00000000000E+00  0.00000000000E+00  0.13682423727E+04  0.13682423727E+04  0.00000000000E+00 0.  1.
          1   -1    0    0  501    0  0.00000000000E+00 -0.00000000000E+00 -0.25844375387E+04  0.25844375387E+04  0.00000000000E+00 0. -1.
        -24    2    1    2    0    0  0.17044698741E+04 -0.44786792438E+03 -0.11175938350E+04  0.20883996665E+04  0.81203187775E+02 0.  0.
    5000000    2    1    2    0    0 -0.17044698741E+04  0.44786792438E+03 -0.98601331005E+02  0.18642802448E+04  0.60001281594E+03 0.  0.
        -24    2    4    4    0    0 -0.16446025777E+04  0.33685033850E+03 -0.18531748624E+03  0.16908516500E+04  0.80317759924E+02 0.  0.
         24    2    4    4    0    0 -0.59867296427E+02  0.11101758588E+03  0.86716155230E+02  0.17342859481E+03  0.81540102781E+02 0.  0.
         13    1    3    3    0    0  0.94575355153E+03 -0.27502457329E+03 -0.58741897718E+03  0.11467996124E+04  0.00000000000E+00 0. -1.
        -14    1    3    3    0    0  0.75871632260E+03 -0.17284335109E+03 -0.53017485780E+03  0.94160005418E+03  0.00000000000E+00 0.  1.
         15    1    5    5    0    0 -0.11411531366E+04  0.22239511220E+03 -0.16382242859E+03  0.11741086036E+04  0.17770000000E+01 0. -1.
        -16    1    5    5    0    0 -0.50344944106E+03  0.11445522630E+03 -0.21495057643E+02  0.51674304643E+03  0.00000000000E+00 0.  1.
          2    1    6    6  502    0  0.42441238773E+01  0.71465055106E+02  0.24308601628E+02  0.75605388710E+02  0.00000000000E+00 0. -1.
         -1    1    6    6    0  502 -0.64111420304E+02  0.39552530777E+02  0.62407553601E+02  0.97823206096E+02  0.00000000000E+00 0.  1.
<mgrwt>
<rscale>  0 0.17944631E+04</rscale>
<asrwt>0</asrwt>
<pdfrwt beam="1">  1        1 0.39760577E+00 0.17944631E+04</pdfrwt>
<pdfrwt beam="2">  1       -2 0.21049883E+00 0.17944631E+04</pdfrwt>
<totfact> 0.10749495E-01</totfact>
</mgrwt>
</event>
<event>
12    3  0.1201947E-007  0.1872882E+04  0.7818608E-02  0.8668474E-01
         -2   -1    0    0    0  501 -0.00000000000E+00  0.00000000000E+00  0.16546543827E+04  0.16546543827E+04  0.00000000000E+00 0.  1.
          1   -1    0    0  501    0  0.00000000000E+00 -0.00000000000E+00 -0.21461591642E+04  0.21461591642E+04  0.00000000000E+00 0. -1.
        -24    2    1    2    0    0 -0.11634063805E+03 -0.18246194868E+04 -0.40627252620E+03  0.18746810725E+04  0.81242490082E+02 0.  0.
    5000000    2    1    2    0    0  0.11634063805E+03  0.18246194868E+04 -0.85232255352E+02  0.19261324745E+04  0.59995862880E+03 0.  0.
        -24    2    4    4    0    0 -0.14039749877E+03  0.14669231919E+04 -0.85715566669E+02  0.14783194323E+04  0.80660255926E+02 0.  0.
         24    2    4    4    0    0  0.25673813683E+03  0.35769629491E+03  0.48331131678E+00  0.44781304222E+03  0.81701755804E+02 0.  0.
         11    1    3    3    0    0 -0.12552871639E+03 -0.14584727162E+04 -0.32609227801E+03  0.14997454105E+04  0.00000000000E+00 0. -1.
        -12    1    3    3    0    0  0.91880783344E+01 -0.36614677057E+03 -0.80180248189E+02  0.37493566192E+03  0.00000000000E+00 0.  1.
         15    1    5    5    0    0 -0.19509434038E+02  0.50943541565E+03 -0.54621215363E+02  0.51272965160E+03  0.17770000000E+01 0. -1.
        -16    1    5    5    0    0 -0.12088806473E+03  0.95748777625E+03 -0.31094351306E+02  0.96558978067E+03  0.00000000000E+00 0.  1.
          2    1    6    6  502    0  0.19059005733E+02  0.36330821955E+02 -0.23688087886E+02  0.47374041744E+02  0.00000000000E+00 0. -1.
         -1    1    6    6    0  502  0.23767913109E+03  0.32136547295E+03  0.24171399203E+02  0.40043900047E+03  0.00000000000E+00 0.  1.
<mgrwt>
<rscale>  0 0.18728815E+04</rscale>
<asrwt>0</asrwt>
<pdfrwt beam="1">  1        1 0.33017833E+00 0.18728815E+04</pdfrwt>
<pdfrwt beam="2">  1       -2 0.25456221E+00 0.18728815E+04</pdfrwt>
<totfact> 0.11310090E-01</totfact>
</mgrwt>
</event>
<event>
12    3  0.1201947E-007  0.6964782E+03  0.7818608E-02  0.9723274E-01
         -2   -1    0    0    0  501 -0.00000000000E+00  0.00000000000E+00  0.11776509083E+04  0.11776509083E+04  0.00000000000E+00 0.  1.
          1   -1    0    0  501    0  0.00000000000E+00 -0.00000000000E+00 -0.76681899932E+03  0.76681899932E+03  0.00000000000E+00 0. -1.
        -24    2    1    2    0    0 -0.63879594660E+03  0.17149507172E+03  0.73708029225E+03  0.99371235880E+03  0.81890620831E+02 0.  0.
    5000000    2    1    2    0    0  0.63879594660E+03 -0.17149507172E+03 -0.32624838326E+03  0.95075754885E+03  0.60002590619E+03 0.  0.
        -24    2    4    4    0    0  0.31912099030E+03  0.69948974384E+02  0.10890257616E+03  0.35339282712E+03  0.79345155466E+02 0.  0.
         24    2    4    4    0    0  0.31967495630E+03 -0.24144404610E+03 -0.43515095942E+03  0.59736472173E+03  0.83671669039E+02 0.  0.
         13    1    3    3    0    0 -0.19964020275E+03  0.89495136929E+02  0.26742331175E+03  0.34551529308E+03  0.00000000000E+00 0. -1.
        -14    1    3    3    0    0 -0.43915574385E+03  0.81999934786E+02  0.46965698051E+03  0.64819706571E+03  0.00000000000E+00 0.  1.
         15    1    5    5    0    0  0.60761075938E+02  0.10155921699E+02  0.55381315894E+02  0.82857099719E+02  0.17770000000E+01 0. -1.
        -16    1    5    5    0    0  0.25835991436E+03  0.59793052685E+02  0.53521260271E+02  0.27053572740E+03  0.00000000000E+00 0.  1.
          2    1    6    6  502    0  0.54209377561E+02 -0.41480256419E+02 -0.12678358302E+03  0.14399078169E+03  0.00000000000E+00 0. -1.
         -1    1    6    6    0  502  0.26546557874E+03 -0.19996378968E+03 -0.30836737640E+03  0.45337394004E+03  0.00000000000E+00 0.  1.
<mgrwt>
<rscale>  0 0.69647821E+03</rscale>
<asrwt>0</asrwt>
<pdfrwt beam="1">  1        1 0.11797215E+00 0.69647821E+03</pdfrwt>
<pdfrwt beam="2">  1       -2 0.18117706E+00 0.69647821E+03</pdfrwt>
<totfact> 0.38116959E+00</totfact>
</mgrwt>
</event>
<event>
12    3  0.1201947E-007  0.7512644E+03  0.7818608E-02  0.9633369E-01
          1   -1    0    0  501    0  0.00000000000E+00  0.00000000000E+00  0.16750877259E+04  0.16750877259E+04  0.00000000000E+00 0. -1.
         -2   -1    0    0    0  501 -0.00000000000E+00 -0.00000000000E+00 -0.34315938598E+03  0.34315938598E+03  0.00000000000E+00 0.  1.
        -24    2    1    2    0    0 -0.44182023042E+03  0.45784566696E+03  0.53277939875E+03  0.83367497371E+03  0.79575770761E+02 0.  0.
    5000000    2    1    2    0    0  0.44182023042E+03 -0.45784566696E+03  0.79914894115E+03  0.11845721382E+04  0.59978692016E+03 0.  0.
        -24    2    4    4    0    0 -0.70979457305E+02 -0.31614856177E+03  0.27870944724E+03  0.43559335070E+03  0.84110728914E+02 0.  0.
         24    2    4    4    0    0  0.51279968772E+03 -0.14169710519E+03  0.52043949391E+03  0.74897878747E+03  0.84085479747E+02 0.  0.
         11    1    3    3    0    0 -0.22588799958E+03  0.18421227672E+03  0.26776329120E+03  0.39579885215E+03  0.00000000000E+00 0. -1.
        -12    1    3    3    0    0 -0.21593223083E+03  0.27363339024E+03  0.26501610755E+03  0.43787612156E+03  0.00000000000E+00 0.  1.
         15    1    5    5    0    0 -0.21780869222E+02 -0.67456200282E+02  0.20673212565E+02  0.73859898912E+02  0.17770000000E+01 0. -1.
        -16    1    5    5    0    0 -0.49198588082E+02 -0.24869236149E+03  0.25803623468E+03  0.36173345178E+03  0.00000000000E+00 0.  1.
          2    1    6    6  502    0  0.12941635060E+03 -0.72951488088E+02  0.12865793765E+03  0.19652830926E+03  0.00000000000E+00 0. -1.
         -1    1    6    6    0  502  0.38338333712E+03 -0.68745617105E+02  0.39178155626E+03  0.55245047821E+03  0.00000000000E+00 0.  1.
<mgrwt>
<rscale>  0 0.75126445E+03</rscale>
<asrwt>0</asrwt>
<pdfrwt beam="1">  1        1 0.25770580E+00 0.75126445E+03</pdfrwt>
<pdfrwt beam="2">  1       -2 0.52793753E-01 0.75126445E+03</pdfrwt>
<totfact> 0.15225264E+01</totfact>
</mgrwt>
</event>
<event>
12    3  0.1201947E-007  0.8497218E+03  0.7818608E-02  0.9490710E-01
          1   -1    0    0  501    0  0.00000000000E+00  0.00000000000E+00  0.74701650899E+03  0.74701650899E+03  0.00000000000E+00 0. -1.
         -4   -1    0    0    0  501 -0.00000000000E+00 -0.00000000000E+00 -0.14391543789E+04  0.14391543789E+04  0.00000000000E+00 0.  1.
        -24    2    1    2    0    0  0.32601213721E+03  0.77277324632E+03  0.14894798837E+03  0.85544570074E+03  0.78354577680E+02 0.  0.
    5000000    2    1    2    0    0 -0.32601213721E+03 -0.77277324632E+03 -0.84108585829E+03  0.13307251872E+04  0.59995141377E+03 0.  0.
        -24    2    4    4    0    0 -0.43641462823E+02 -0.23305439359E+03 -0.63484404110E+03  0.68255913877E+03  0.81492906166E+02 0.  0.
         24    2    4    4    0    0 -0.28237067438E+03 -0.53971885274E+03 -0.20624181720E+03  0.64816604839E+03  0.80956169478E+02 0.  0.
         11    1    3    3    0    0  0.22442965552E+03  0.45454036978E+03  0.65621173825E+02  0.51115727177E+03  0.00000000000E+00 0. -1.
        -12    1    3    3    0    0  0.10158248169E+03  0.31823287655E+03  0.83326814543E+02  0.34428842897E+03  0.00000000000E+00 0.  1.
         15    1    5    5    0    0  0.10820936721E+02 -0.10243088867E+03 -0.19545855183E+03  0.22094429804E+03  0.17770000000E+01 0. -1.
        -16    1    5    5    0    0 -0.54462399544E+02 -0.13062350492E+03 -0.43938548927E+03  0.46161484073E+03  0.00000000000E+00 0.  1.
          2    1    6    6  502    0 -0.25213887610E+03 -0.41497981869E+03 -0.17420901076E+03  0.51587890264E+03  0.00000000000E+00 0. -1.
         -1    1    6    6    0  502 -0.30231798282E+02 -0.12473903405E+03 -0.32032806433E+02  0.13228714575E+03  0.00000000000E+00 0.  1.
<mgrwt>
<rscale>  0 0.84972175E+03</rscale>
<asrwt>0</asrwt>
<pdfrwt beam="1">  1        1 0.11492562E+00 0.84972175E+03</pdfrwt>
<pdfrwt beam="2">  1       -4 0.22140836E+00 0.84972175E+03</pdfrwt>
<totfact> 0.11309664E+00</totfact>
</mgrwt>
</event>
<event>
12    3  0.1201947E-007  0.4735187E+03  0.7818608E-02  0.1020932E+00
         -2   -1    0    0    0  501 -0.00000000000E+00  0.00000000000E+00  0.21717719132E+04  0.21717719132E+04  0.00000000000E+00 0.  1.
          1   -1    0    0  501    0  0.00000000000E+00 -0.00000000000E+00 -0.15426604658E+03  0.15426604658E+03  0.00000000000E+00 0. -1.
        -24    2    1    2    0    0  0.16660929123E+03 -0.38266244100E+03  0.80089846042E+03  0.90676328489E+03  0.81191817611E+02 0.  0.
    5000000    2    1    2    0    0 -0.16660929123E+03  0.38266244100E+03  0.12166074062E+04  0.14192746748E+04  0.60001485168E+03 0.  0.
        -24    2    4    4    0    0 -0.12229139278E+02 -0.39949068491E+02  0.78659379532E+03  0.79171848492E+03  0.79642203676E+02 0.  0.
         24    2    4    4    0    0 -0.15438015196E+03  0.42261150949E+03  0.43001361085E+03  0.62755618992E+03  0.80506811682E+02 0.  0.
         11    1    3    3    0    0  0.68931054100E+02 -0.13682266145E+03  0.37895448280E+03  0.40875228554E+03  0.00000000000E+00 0. -1.
        -12    1    3    3    0    0  0.97678237134E+02 -0.24583977955E+03  0.42194397762E+03  0.49801099935E+03  0.00000000000E+00 0.  1.
         15    1    5    5    0    0  0.21598055452E+02 -0.33347574172E+02  0.63551885703E+03  0.63676205295E+03  0.17770000000E+01 0. -1.
        -16    1    5    5    0    0 -0.33827194730E+02 -0.66014943190E+01  0.15107493829E+03  0.15495643197E+03  0.00000000000E+00 0.  1.
          2    1    6    6  502    0 -0.66056877142E+02  0.27691330834E+03  0.29700120877E+03  0.41140516448E+03  0.00000000000E+00 0. -1.
         -3    1    6    6    0  502 -0.88323274815E+02  0.14569820116E+03  0.13301240207E+03  0.21615102544E+03  0.00000000000E+00 0.  1.
<mgrwt>
<rscale>  0 0.47351870E+03</rscale>
<asrwt>0</asrwt>
<pdfrwt beam="1">  1        1 0.23733239E-01 0.47351870E+03</pdfrwt>
<pdfrwt beam="2">  1       -2 0.33411873E+00 0.47351870E+03</pdfrwt>
<totfact> 0.39226249E+00</totfact>
</mgrwt>
</event>
<event>
12    3  0.1201947E-007  0.1037765E+04  0.7818608E-02  0.9268068E-01
          1   -1    0    0  501    0  0.00000000000E+00  0.00000000000E+00  0.11883438137E+04  0.11883438137E+04  0.00000000000E+00 0. -1.
         -2   -1    0    0    0  501 -0.00000000000E+00 -0.00000000000E+00 -0.12012795506E+04  0.12012795506E+04  0.00000000000E+00 0.  1.
        -24    2    1    2    0    0 -0.95382267332E+03  0.39592565876E+03 -0.43402400975E+03  0.11231087033E+04  0.80383450288E+02 0.  0.
    5000000    2    1    2    0    0  0.95382267332E+03 -0.39592565876E+03  0.42108827286E+03  0.12665146610E+04  0.60017433593E+03 0.  0.
        -24    2    4    4    0    0  0.80948697663E+03 -0.33989365254E+03  0.55926831912E+03  0.10440181742E+04  0.79975214723E+02 0.  0.
         24    2    4    4    0    0  0.14433569669E+03 -0.56032006225E+02 -0.13818004627E+03  0.22249648674E+03  0.80240777449E+02 0.  0.
         13    1    3    3    0    0 -0.67439742226E+02  0.66774785768E+01 -0.28074277874E+02  0.73354431563E+02  0.00000000000E+00 0. -1.
        -14    1    3    3    0    0 -0.88638293109E+03  0.38924818019E+03 -0.40594973188E+03  0.10497542718E+04  0.00000000000E+00 0.  1.
         15    1    5    5    0    0  0.17881288300E+03 -0.11191520768E+03  0.13646158152E+03  0.25124486421E+03  0.17770000000E+01 0. -1.
        -16    1    5    5    0    0  0.63067409363E+03 -0.22797844486E+03  0.42280673761E+03  0.79277331001E+03  0.00000000000E+00 0.  1.
          4    1    6    6  502    0  0.57531740396E+02 -0.39381004474E+02 -0.10905242252E+03  0.12943413586E+03  0.00000000000E+00 0. -1.
         -3    1    6    6    0  502  0.86803956293E+02 -0.16651001751E+02 -0.29127623743E+02  0.93062350885E+02  0.00000000000E+00 0.  1.
<mgrwt>
<rscale>  0 0.10377653E+04</rscale>
<asrwt>0</asrwt>
<pdfrwt beam="1">  1        1 0.18282213E+00 0.10377653E+04</pdfrwt>
<pdfrwt beam="2">  1       -2 0.18481224E+00 0.10377653E+04</pdfrwt>
<totfact> 0.15932048E+00</totfact>
</mgrwt>
</event>
<event>
12    3  0.1201947E-007  0.4247075E+03  0.7818608E-02  0.1035545E+00
          3   -1    0    0  501    0  0.00000000000E+00  0.00000000000E+00  0.15540334971E+04  0.15540334971E+04  0.00000000000E+00 0. -1.
         -4   -1    0    0    0  501 -0.00000000000E+00 -0.00000000000E+00 -0.13705482498E+03  0.13705482498E+03  0.00000000000E+00 0.  1.
        -24    2    1    2    0    0  0.84222005425E+02 -0.22512079454E+03  0.58442134896E+03  0.63707540260E+03  0.80895223262E+02 0.  0.
    5000000    2    1    2    0    0 -0.84222005425E+02  0.22512079454E+03  0.83255732314E+03  0.10540129195E+04  0.60001568289E+03 0.  0.
        -24    2    4    4    0    0 -0.22651999298E+03  0.33828170252E+03  0.38977914601E+03  0.56898569160E+03  0.77917373491E+02 0.  0.
         24    2    4    4    0    0  0.14229798756E+03 -0.11316090798E+03  0.44277817713E+03  0.48502722786E+03  0.78388706207E+02 0.  0.
         11    1    3    3    0    0  0.34645304754E+02 -0.39047283462E+02  0.20556019110E+03  0.21208484069E+03  0.00000000000E+00 0. -1.
        -12    1    3    3    0    0  0.49576700670E+02 -0.18607351108E+03  0.37886115786E+03  0.42499056190E+03  0.00000000000E+00 0.  1.
         15    1    5    5    0    0 -0.52265206985E+02  0.95581725743E+02  0.15264749078E+03  0.18754181488E+03  0.17770000000E+01 0. -1.
        -16    1    5    5    0    0 -0.17425478600E+03  0.24269997678E+03  0.23713165523E+03  0.38144387672E+03  0.00000000000E+00 0.  1.
          2    1    6    6  502    0  0.52573938975E+01 -0.42330213064E+02  0.11804593250E+03  0.12551625117E+03  0.00000000000E+00 0. -1.
         -3    1    6    6    0  502  0.13704059366E+03 -0.70830694916E+02  0.32473224463E+03  0.35951097668E+03  0.00000000000E+00 0.  1.
<mgrwt>
<rscale>  0 0.42470747E+03</rscale>
<asrwt>0</asrwt>
<pdfrwt beam="1">  1        3 0.23908206E+00 0.42470747E+03</pdfrwt>
<pdfrwt beam="2">  1       -4 0.21085359E-01 0.42470747E+03</pdfrwt>
<totfact> 0.41488333E+00</totfact>
</mgrwt>
</event>
<event>
12    3  0.1201947E-007  0.8098082E+03  0.7818608E-02  0.9545928E-01
         -2   -1    0    0    0  501 -0.00000000000E+00  0.00000000000E+00  0.16535549797E+03  0.16535549797E+03  0.00000000000E+00 0.  1.
          1   -1    0    0  501    0  0.00000000000E+00 -0.00000000000E+00 -0.41766335614E+04  0.41766335614E+04  0.00000000000E+00 0. -1.
        -24    2    1    2    0    0  0.70836926830E+03 -0.74627372894E+02 -0.14673676519E+04  0.16330061759E+04  0.78645277202E+02 0.  0.
    5000000    2    1    2    0    0 -0.70836926830E+03  0.74627372894E+02 -0.25439104115E+04  0.27089828835E+04  0.59979314429E+03 0.  0.
        -24    2    4    4    0    0 -0.79650970027E+03  0.66929213955E+02 -0.20695422864E+04  0.22199763963E+04  0.79891816782E+02 0.  0.
         24    2    4    4    0    0  0.88140431968E+02  0.76981589395E+01 -0.47436812512E+03  0.48900648721E+03  0.79210030943E+02 0.  0.
         11    1    3    3    0    0  0.45539543312E+03 -0.81516954751E+02 -0.98744481972E+03  0.10904482044E+04  0.00000000000E+00 0. -1.
        -12    1    3    3    0    0  0.25297383518E+03  0.68895818569E+01 -0.47992283215E+03  0.54255797151E+03  0.00000000000E+00 0.  1.
         15    1    5    5    0    0 -0.27063031236E+03  0.15278289416E+02 -0.60239605159E+03  0.66057425986E+03  0.17770000000E+01 0. -1.
        -16    1    5    5    0    0 -0.52587938791E+03  0.51650924539E+02 -0.14671462348E+04  0.15594021364E+04  0.00000000000E+00 0.  1.
          2    1    6    6  502    0  0.71728537590E+02  0.29152279684E+02 -0.22036898418E+03  0.23357510078E+03  0.00000000000E+00 0. -1.
         -1    1    6    6    0  502  0.16411894378E+02 -0.21454120744E+02 -0.25399914094E+03  0.25543138643E+03  0.00000000000E+00 0.  1.
<mgrwt>
<rscale>  0 0.80980815E+03</rscale>
<asrwt>0</asrwt>
<pdfrwt beam="1">  1        1 0.64255898E+00 0.80980815E+03</pdfrwt>
<pdfrwt beam="2">  1       -2 0.25439308E-01 0.80980815E+03</pdfrwt>
<totfact> 0.88870901E-01</totfact>
</mgrwt>
</event>
<event>
12    3  0.1201947E-007  0.3902453E+03  0.7818608E-02  0.1047211E+00
         -2   -1    0    0    0  501 -0.00000000000E+00  0.00000000000E+00  0.23607801275E+03  0.23607801275E+03  0.00000000000E+00 0.  1.
          1   -1    0    0  501    0  0.00000000000E+00 -0.00000000000E+00 -0.29342863234E+04  0.29342863234E+04  0.00000000000E+00 0. -1.
        -24    2    1    2    0    0  0.21232541452E+03  0.13426016769E+03  0.11164435241E+03  0.28619665183E+03  0.79600174689E+02 0.  0.
    5000000    2    1    2    0    0 -0.21232541452E+03 -0.13426016769E+03 -0.28098526631E+04  0.28841676843E+04  0.60003613965E+03 0.  0.
        -24    2    4    4    0    0  0.12991968468E+03  0.66531128646E+00 -0.18073499156E+04  0.18135351341E+04  0.74272457398E+02 0.  0.
         24    2    4    4    0    0 -0.34224509920E+03 -0.13492547898E+03 -0.10025027474E+04  0.10706325502E+04  0.76848592797E+02 0.  0.
         13    1    3    3    0    0  0.58209139980E+02  0.78992026524E+02  0.26420259623E+02  0.10161729356E+03  0.00000000000E+00 0. -1.
        -14    1    3    3    0    0  0.15411627454E+03  0.55268141167E+02  0.85224092790E+02  0.18457935827E+03  0.00000000000E+00 0.  1.
         15    1    5    5    0    0  0.98093342570E+02  0.26816805767E+02 -0.10063166785E+04  0.10114434538E+04  0.17770000000E+01 0. -1.
        -16    1    5    5    0    0  0.31826342109E+02 -0.26151494481E+02 -0.80103323706E+03  0.80209168029E+03  0.00000000000E+00 0.  1.
          2    1    6    6  502    0 -0.24228096024E+03 -0.56751329504E+02 -0.67440468929E+03  0.71884801038E+03  0.00000000000E+00 0. -1.
         -1    1    6    6    0  502 -0.99964138962E+02 -0.78174149473E+02 -0.32809805816E+03  0.35178453987E+03  0.00000000000E+00 0.  1.
<mgrwt>
<rscale>  0 0.39024527E+03</rscale>
<asrwt>0</asrwt>
<pdfrwt beam="1">  1        1 0.45142869E+00 0.39024527E+03</pdfrwt>
<pdfrwt beam="2">  1       -2 0.36319692E-01 0.39024527E+03</pdfrwt>
<totfact> 0.48686220E+00</totfact>
</mgrwt>
</event>
<event>
12    3  0.1201947E-007  0.7362841E+03  0.7818608E-02  0.9657117E-01
          1   -1    0    0  501    0  0.00000000000E+00  0.00000000000E+00  0.37277965693E+03  0.37277965693E+03  0.00000000000E+00 0. -1.
         -2   -1    0    0    0  501 -0.00000000000E+00 -0.00000000000E+00 -0.15281384677E+04  0.15281384677E+04  0.00000000000E+00 0.  1.
        -24    2    1    2    0    0 -0.62698864085E+03 -0.27647882988E+02 -0.58695012784E+03  0.86304900117E+03  0.80398785199E+02 0.  0.
    5000000    2    1    2    0    0  0.62698864085E+03  0.27647882988E+02 -0.56840868290E+03  0.10378691234E+04  0.60017058025E+03 0.  0.
        -24    2    4    4    0    0  0.72825167733E+03 -0.15832959035E+02 -0.48597214074E+03  0.87963430973E+03  0.83584742358E+02 0.  0.
         24    2    4    4    0    0 -0.10126303648E+03  0.43480842023E+02 -0.82436542168E+02  0.15823481371E+03  0.78087685368E+02 0.  0.
         13    1    3    3    0    0 -0.48210274689E+02 -0.24157524406E+02 -0.48450108079E+02  0.72492962030E+02  0.00000000000E+00 0. -1.
        -14    1    3    3    0    0 -0.57877836616E+03 -0.34903585819E+01 -0.53850001976E+03  0.79055603914E+03  0.00000000000E+00 0.  1.
         15    1    5    5    0    0  0.21909247285E+03  0.27313264194E-01 -0.10174843606E+03  0.24157279312E+03  0.17770000000E+01 0. -1.
        -16    1    5    5    0    0  0.50915920448E+03 -0.15860272299E+02 -0.38422370467E+03  0.63806151661E+03  0.00000000000E+00 0.  1.
          2    1    6    6  502    0 -0.70588547817E+02  0.22131458988E+02 -0.93530981771E+02  0.11925011158E+03  0.00000000000E+00 0. -1.
         -1    1    6    6    0  502 -0.30674488660E+02  0.21349383034E+02  0.11094439603E+02  0.38984702135E+02  0.00000000000E+00 0.  1.
<mgrwt>
<rscale>  0 0.73628414E+03</rscale>
<asrwt>0</asrwt>
<pdfrwt beam="1">  1        1 0.57350716E-01 0.73628414E+03</pdfrwt>
<pdfrwt beam="2">  1       -2 0.23509823E+00 0.73628414E+03</pdfrwt>
<totfact> 0.47221350E+00</totfact>
</mgrwt>
</event>
<event>
12    3  0.1201947E-007  0.4727484E+03  0.7818608E-02  0.1021147E+00
         -2   -1    0    0    0  501 -0.00000000000E+00  0.00000000000E+00  0.42401100741E+03  0.42401100741E+03  0.00000000000E+00 0.  1.
          1   -1    0    0  501    0  0.00000000000E+00 -0.00000000000E+00 -0.57717118560E+03  0.57717118560E+03  0.00000000000E+00 0. -1.
        -24    2    1    2    0    0  0.19767978578E+03  0.20923212869E+03 -0.15190476579E+03  0.33569393922E+03  0.82219107143E+02 0.  0.
    5000000    2    1    2    0    0 -0.19767978578E+03 -0.20923212869E+03 -0.12554123992E+01  0.66548825378E+03  0.60001471522E+03 0.  0.
        -24    2    4    4    0    0 -0.34497038256E+03 -0.29289991695E+03  0.67804997214E+02  0.46452617921E+03  0.79950780719E+02 0.  0.
         24    2    4    4    0    0  0.14729059678E+03  0.83667788260E+02 -0.69060409613E+02  0.20096207457E+03  0.83196133010E+02 0.  0.
         11    1    3    3    0    0  0.11195618821E+03  0.61096282374E+02 -0.75975056357E+02  0.14845589576E+03  0.00000000000E+00 0. -1.
        -12    1    3    3    0    0  0.85723597568E+02  0.14813584631E+03 -0.75929709434E+02  0.18723804346E+03  0.00000000000E+00 0.  1.
         15    1    5    5    0    0 -0.16574144257E+03 -0.90961366731E+02  0.17521778479E+02  0.18987987380E+03  0.17770000000E+01 0. -1.
        -16    1    5    5    0    0 -0.17922893998E+03 -0.20193855022E+03  0.50283218735E+02  0.27464630541E+03  0.00000000000E+00 0.  1.
          4    1    6    6  502    0  0.31992478578E+02  0.62910692345E+02 -0.36030898542E+02  0.79243293386E+02  0.00000000000E+00 0. -1.
         -3    1    6    6    0  502  0.11529811820E+03  0.20757095915E+02 -0.33029511071E+02  0.12171878118E+03  0.00000000000E+00 0.  1.
<mgrwt>
<rscale>  0 0.47274840E+03</rscale>
<asrwt>0</asrwt>
<pdfrwt beam="1">  1        1 0.88795567E-01 0.47274840E+03</pdfrwt>
<pdfrwt beam="2">  1       -2 0.65232463E-01 0.47274840E+03</pdfrwt>
<totfact> 0.71428442E+01</totfact>
</mgrwt>
</event>
<event>
12    3  0.1201947E-007  0.5766431E+03  0.7818608E-02  0.9955085E-01
          1   -1    0    0  501    0  0.00000000000E+00  0.00000000000E+00  0.29209393372E+04  0.29209393372E+04  0.00000000000E+00 0. -1.
         -2   -1    0    0    0  501 -0.00000000000E+00 -0.00000000000E+00 -0.18116810214E+03  0.18116810214E+03  0.00000000000E+00 0.  1.
        -24    2    1    2    0    0 -0.29400314517E+03 -0.48663417711E+03  0.72944076106E+03  0.92827230731E+03  0.79718134216E+02 0.  0.
    5000000    2    1    2    0    0  0.29400314517E+03  0.48663417711E+03  0.20103304741E+04  0.21738351321E+04  0.60073279820E+03 0.  0.
        -24    2    4    4    0    0  0.20156747445E+03  0.39465502870E+03  0.19583744788E+04  0.20095593195E+04  0.81951333257E+02 0.  0.
         24    2    4    4    0    0  0.92435670717E+02  0.91979148409E+02  0.51955995289E+02  0.16427581259E+03  0.85338152034E+02 0.  0.
         11    1    3    3    0    0 -0.13308257921E+03 -0.22714773663E+03  0.40226724151E+03  0.48075565596E+03  0.00000000000E+00 0. -1.
        -12    1    3    3    0    0 -0.16092056595E+03 -0.25948644048E+03  0.32717351954E+03  0.44751665134E+03  0.00000000000E+00 0.  1.
         15    1    5    5    0    0  0.12219496902E+03  0.30769909457E+03  0.15209575512E+04  0.15565748853E+04  0.17770000000E+01 0. -1.
        -16    1    5    5    0    0  0.79372505432E+02  0.86955934138E+02  0.43741692759E+03  0.45298443422E+03  0.00000000000E+00 0.  1.
          2    1    6    6  502    0  0.46103643364E+02  0.71830442600E+02 -0.81670326600E+01  0.85742981276E+02  0.00000000000E+00 0. -1.
         -1    1    6    6    0  502  0.46332027352E+02  0.20148705809E+02  0.60123027949E+02  0.78532831313E+02  0.00000000000E+00 0.  1.
<mgrwt>
<rscale>  0 0.57664306E+03</rscale>
<asrwt>0</asrwt>
<pdfrwt beam="1">  1        1 0.44937525E+00 0.57664306E+03</pdfrwt>
<pdfrwt beam="2">  1       -2 0.27872018E-01 0.57664306E+03</pdfrwt>
<totfact> 0.77249091E+00</totfact>
</mgrwt>
</event>
<event>
12    3  0.1201947E-007  0.1494816E+04  0.7818608E-02  0.8887907E-01
          1   -1    0    0  501    0  0.00000000000E+00  0.00000000000E+00  0.16544824127E+04  0.16544824127E+04  0.00000000000E+00 0. -1.
         -2   -1    0    0    0  501 -0.00000000000E+00 -0.00000000000E+00 -0.15676532097E+04  0.15676532097E+04  0.00000000000E+00 0.  1.
        -24    2    1    2    0    0  0.73667864723E+03 -0.12395118792E+04  0.62046840214E+03  0.15717429268E+04  0.79433380537E+02 0.  0.
    5000000    2    1    2    0    0 -0.73667864723E+03  0.12395118792E+04 -0.53363919918E+03  0.16503926956E+04  0.59995010380E+03 0.  0.
        -24    2    4    4    0    0 -0.74103164960E+03  0.77209832322E+03 -0.47163252326E+03  0.11722292155E+04  0.80127213654E+02 0.  0.
         24    2    4    4    0    0  0.43530023702E+01  0.46741355594E+03 -0.62006675926E+02  0.47816348009E+03  0.79379499387E+02 0.  0.
         13    1    3    3    0    0  0.41372470118E+03 -0.75040866144E+03  0.33850811523E+03  0.92134088784E+03  0.00000000000E+00 0. -1.
        -14    1    3    3    0    0  0.32295394604E+03 -0.48910321772E+03  0.28196028691E+03  0.65040203893E+03  0.00000000000E+00 0.  1.
         15    1    5    5    0    0 -0.33175932275E+03  0.39902073696E+03 -0.24496994249E+03  0.57384251081E+03  0.17770000000E+01 0. -1.
        -16    1    5    5    0    0 -0.40927232685E+03  0.37307758625E+03 -0.22666258077E+03  0.59838670474E+03  0.00000000000E+00 0.  1.
          2    1    6    6  502    0  0.21054627514E+02  0.32865134929E+02 -0.10704647821E+01  0.39045618557E+02  0.00000000000E+00 0. -1.
         -1    1    6    6    0  502 -0.16701625144E+02  0.43454842101E+03 -0.60936211144E+02  0.43911786153E+03  0.00000000000E+00 0.  1.
<mgrwt>
<rscale>  0 0.14948163E+04</rscale>
<asrwt>0</asrwt>
<pdfrwt beam="1">  1        1 0.25453576E+00 0.14948163E+04</pdfrwt>
<pdfrwt beam="2">  1       -2 0.24117742E+00 0.14948163E+04</pdfrwt>
<totfact> 0.30805174E-01</totfact>
</mgrwt>
</event>
<event>
12    3  0.1201947E-007  0.4911385E+03  0.7818608E-02  0.1016118E+00
          1   -1    0    0  501    0  0.00000000000E+00  0.00000000000E+00  0.29150953251E+04  0.29150953251E+04  0.00000000000E+00 0. -1.
         -2   -1    0    0    0  501 -0.00000000000E+00 -0.00000000000E+00 -0.22107461891E+03  0.22107461891E+03  0.00000000000E+00 0.  1.
        -24    2    1    2    0    0  0.16919426154E+03  0.41277480042E+03  0.21853035552E+04  0.22318544955E+04  0.81321132148E+02 0.  0.
    5000000    2    1    2    0    0 -0.16919426154E+03 -0.41277480042E+03  0.50871715096E+03  0.90431544851E+03  0.59998629713E+03 0.  0.
        -24    2    4    4    0    0  0.71845086764E+02 -0.12481765431E+03  0.49307929453E+03  0.51990415034E+03  0.80199573083E+02 0.  0.
         24    2    4    4    0    0 -0.24103934831E+03 -0.28795714611E+03  0.15637856428E+02  0.38441129818E+03  0.80673528401E+02 0.  0.
         13    1    3    3    0    0  0.14530316229E+03  0.37396357579E+03  0.18185306745E+04  0.18622608784E+04  0.00000000000E+00 0. -1.
        -14    1    3    3    0    0  0.23891099255E+02  0.38811224635E+02  0.36677288073E+03  0.36959361712E+03  0.00000000000E+00 0.  1.
         15    1    5    5    0    0  0.26480888641E+02 -0.10031149892E+03  0.23752754682E+03  0.25920286940E+03  0.17770000000E+01 0. -1.
        -16    1    5    5    0    0  0.45364198122E+02 -0.24506155390E+02  0.25555174771E+03  0.26070128094E+03  0.00000000000E+00 0.  1.
          4    1    6    6  502    0 -0.16791858040E+03 -0.23933910548E+03  0.35108604996E+02  0.29446981374E+03  0.00000000000E+00 0. -1.
         -3    1    6    6    0  502 -0.73120767907E+02 -0.48618040628E+02 -0.19470748568E+02  0.89941484442E+02  0.00000000000E+00 0.  1.
<mgrwt>
<rscale>  0 0.49113852E+03</rscale>
<asrwt>0</asrwt>
<pdfrwt beam="1">  1        1 0.44847618E+00 0.49113852E+03</pdfrwt>
<pdfrwt beam="2">  1       -2 0.34011482E-01 0.49113852E+03</pdfrwt>
<totfact> 0.55070398E+00</totfact>
</mgrwt>
</event>
<event>
12    3  0.1201947E-007  0.1881400E+04  0.7818608E-02  0.8664170E-01
         -2   -1    0    0    0  501 -0.00000000000E+00  0.00000000000E+00  0.12854502291E+04  0.12854502291E+04  0.00000000000E+00 0.  1.
          1   -1    0    0  501    0  0.00000000000E+00 -0.00000000000E+00 -0.28251250872E+04  0.28251250872E+04  0.00000000000E+00 0. -1.
        -24    2    1    2    0    0 -0.12675625539E+04 -0.13578999616E+04 -0.74724153067E+03  0.20037890797E+04  0.78699663864E+02 0.  0.
    5000000    2    1    2    0    0  0.12675625539E+04  0.13578999616E+04 -0.79243332747E+03  0.21067862366E+04  0.59999211189E+03 0.  0.
        -24    2    4    4    0    0  0.16035871856E+02  0.18045749205E+03  0.28982614920E+02  0.20057779806E+03  0.81051869102E+02 0.  0.
         24    2    4    4    0    0  0.12515266820E+04  0.11774424695E+04 -0.82141594239E+03  0.19062084385E+04  0.78845771222E+02 0.  0.
         11    1    3    3    0    0 -0.40599825443E+03 -0.44819613245E+03 -0.28200650789E+03  0.66726458488E+03  0.00000000000E+00 0. -1.
        -12    1    3    3    0    0 -0.86156429945E+03 -0.90970382914E+03 -0.46523502278E+03  0.13365244948E+04  0.00000000000E+00 0.  1.
         15    1    5    5    0    0  0.28373229138E+02  0.11082740260E+03  0.52730859510E+02  0.12598196130E+03  0.17770000000E+01 0. -1.
        -16    1    5    5    0    0 -0.12337357283E+02  0.69630089449E+02 -0.23748244590E+02  0.74595836764E+02  0.00000000000E+00 0.  1.
          2    1    6    6  502    0  0.53131821026E+03  0.44911761034E+03 -0.31957296298E+03  0.76559293827E+03  0.00000000000E+00 0. -1.
         -1    1    6    6    0  502  0.72020847177E+03  0.72832485921E+03 -0.50184297941E+03  0.11406155002E+04  0.00000000000E+00 0.  1.
<mgrwt>
<rscale>  0 0.18814003E+04</rscale>
<asrwt>0</asrwt>
<pdfrwt beam="1">  1        1 0.43463462E+00 0.18814003E+04</pdfrwt>
<pdfrwt beam="2">  1       -2 0.19776158E+00 0.18814003E+04</pdfrwt>
<totfact> 0.87284940E-02</totfact>
</mgrwt>
</event>
<event>
12    3  0.1201947E-007  0.3842954E+03  0.7818608E-02  0.1049357E+00
          1   -1    0    0  501    0  0.00000000000E+00  0.00000000000E+00  0.21688885911E+03  0.21688885911E+03  0.00000000000E+00 0. -1.
         -2   -1    0    0    0  501 -0.00000000000E+00 -0.00000000000E+00 -0.21507168546E+04  0.21507168546E+04  0.00000000000E+00 0.  1.
        -24    2    1    2    0    0  0.31549326984E+03 -0.19933458135E+03 -0.14778458407E+04  0.15262564902E+04  0.78487364157E+02 0.  0.
    5000000    2    1    2    0    0 -0.31549326984E+03  0.19933458135E+03 -0.45598215481E+03  0.84134922354E+03  0.60056516033E+03 0.  0.
        -24    2    4    4    0    0 -0.11253621481E+03  0.57811291053E+02 -0.54589996965E+03  0.56607626705E+03  0.80181158889E+02 0.  0.
         24    2    4    4    0    0 -0.20295705504E+03  0.14152329029E+03  0.89917814836E+02  0.27527295649E+03  0.80433694828E+02 0.  0.
         11    1    3    3    0    0  0.23856359378E+03 -0.12847668741E+03 -0.93702527502E+03  0.97541540562E+03  0.00000000000E+00 0. -1.
        -12    1    3    3    0    0  0.76929676061E+02 -0.70857893936E+02 -0.54082056564E+03  0.55084108453E+03  0.00000000000E+00 0.  1.
         15    1    5    5    0    0 -0.24842508171E+02  0.46357989102E+02 -0.11907556919E+03  0.13018587586E+03  0.17770000000E+01 0. -1.
        -16    1    5    5    0    0 -0.87693706634E+02  0.11453301952E+02 -0.42682440046E+03  0.43589039119E+03  0.00000000000E+00 0.  1.
          4    1    6    6  502    0 -0.72325252365E+02  0.23835014419E+02 -0.33791389277E+01  0.76226429943E+02  0.00000000000E+00 0. -1.
         -3    1    6    6    0  502 -0.13063180267E+03  0.11768827588E+03  0.93296953764E+02  0.19904652655E+03  0.00000000000E+00 0.  1.
<mgrwt>
<rscale>  0 0.38429542E+03</rscale>
<asrwt>0</asrwt>
<pdfrwt beam="1">  1        1 0.33367516E-01 0.38429542E+03</pdfrwt>
<pdfrwt beam="2">  1       -2 0.33087952E+00 0.38429542E+03</pdfrwt>
<totfact> 0.27060504E+00</totfact>
</mgrwt>
</event>
<event>
12    3  0.1201947E-007  0.5596962E+03  0.7818608E-02  0.9992742E-01
          3   -1    0    0  501    0  0.00000000000E+00  0.00000000000E+00  0.93379811460E+03  0.93379811460E+03  0.00000000000E+00 0. -1.
         -4   -1    0    0    0  501 -0.00000000000E+00 -0.00000000000E+00 -0.51105304984E+03  0.51105304984E+03  0.00000000000E+00 0.  1.
        -24    2    1    2    0    0 -0.30913840340E+03 -0.35928623916E+03 -0.13409828200E+03  0.49892867110E+03  0.79336722289E+02 0.  0.
    5000000    2    1    2    0    0  0.30913840340E+03  0.35928623916E+03  0.55684334676E+03  0.94592249334E+03  0.60003474605E+03 0.  0.
        -24    2    4    4    0    0  0.29298704168E+03  0.19789263310E+02  0.50939062686E+03  0.59321172853E+03  0.78665892221E+02 0.  0.
         24    2    4    4    0    0  0.16151361714E+02  0.33949697585E+03  0.47452719902E+02  0.35271076481E+03  0.81449738430E+02 0.  0.
         13    1    3    3    0    0 -0.62748318566E+02 -0.10041050542E+03 -0.64486599609E+02  0.13482634242E+03  0.00000000000E+00 0. -1.
        -14    1    3    3    0    0 -0.24639008483E+03 -0.25887573374E+03 -0.69611682391E+02  0.36410232868E+03  0.00000000000E+00 0.  1.
         15    1    5    5    0    0  0.80033520292E+02  0.15732360211E+02  0.21412642879E+03  0.22914221951E+03  0.17770000000E+01 0. -1.
        -16    1    5    5    0    0  0.21295352139E+03  0.40569030988E+01  0.29526419807E+03  0.36406950902E+03  0.00000000000E+00 0.  1.
          2    1    6    6  502    0 -0.27915167519E+02  0.21807291580E+03  0.38785505286E+02  0.22324732608E+03  0.00000000000E+00 0. -1.
         -1    1    6    6    0  502  0.44066529233E+02  0.12142406005E+03  0.86672146151E+01  0.12946343873E+03  0.00000000000E+00 0.  1.
<mgrwt>
<rscale>  0 0.55969621E+03</rscale>
<asrwt>0</asrwt>
<pdfrwt beam="1">  1        3 0.14366125E+00 0.55969621E+03</pdfrwt>
<pdfrwt beam="2">  1       -4 0.78623546E-01 0.55969621E+03</pdfrwt>
<totfact> 0.11822957E+00</totfact>
</mgrwt>
</event>
<event>
12    3  0.1201947E-007  0.8999971E+03  0.7818608E-02  0.9425585E-01
          1   -1    0    0  501    0  0.00000000000E+00  0.00000000000E+00  0.17060004339E+04  0.17060004339E+04  0.00000000000E+00 0. -1.
         -2   -1    0    0    0  501 -0.00000000000E+00 -0.00000000000E+00 -0.66565152396E+03  0.66565152396E+03  0.00000000000E+00 0.  1.
        -24    2    1    2    0    0 -0.79754890052E+03 -0.10879138450E+03 -0.14134283573E+03  0.82109539252E+03  0.79372743053E+02 0.  0.
    5000000    2    1    2    0    0  0.79754890052E+03  0.10879138450E+03  0.11816917457E+04  0.15505565654E+04  0.59992538411E+03 0.  0.
        -24    2    4    4    0    0 -0.85403867156E+02  0.28261932949E+02  0.11871281069E+03  0.16412919751E+03  0.68942763763E+02 0.  0.
         24    2    4    4    0    0  0.88295276768E+03  0.80529451550E+02  0.10629789350E+04  0.13864273679E+04  0.78524184556E+02 0.  0.
         11    1    3    3    0    0 -0.21038724858E+03 -0.76520811174E+01 -0.65491670808E+02  0.22047790741E+03  0.00000000000E+00 0. -1.
        -12    1    3    3    0    0 -0.58716165194E+03 -0.10113930338E+03 -0.75851164919E+02  0.60061748511E+03  0.00000000000E+00 0.  1.
         15    1    5    5    0    0 -0.14663151193E+02 -0.17251816420E+02  0.52085173233E+02  0.56821265143E+02  0.17770000000E+01 0. -1.
        -16    1    5    5    0    0 -0.70740715962E+02  0.45513749369E+02  0.66627637455E+02  0.10730793237E+03  0.00000000000E+00 0.  1.
          4    1    6    6  502    0  0.30230652329E+03  0.36840942137E+02  0.30995613347E+03  0.43453342072E+03  0.00000000000E+00 0. -1.
         -3    1    6    6    0  502  0.58064624439E+03  0.43688509413E+02  0.75302280153E+03  0.95189394714E+03  0.00000000000E+00 0.  1.
<mgrwt>
<rscale>  0 0.89999706E+03</rscale>
<asrwt>0</asrwt>
<pdfrwt beam="1">  1        1 0.26246160E+00 0.89999706E+03</pdfrwt>
<pdfrwt beam="2">  1       -2 0.10240793E+00 0.89999706E+03</pdfrwt>
<totfact> 0.32825354E+00</totfact>
</mgrwt>
</event>
<event>
12    3  0.1201947E-007  0.4190036E+03  0.7818608E-02  0.1037391E+00
         -2   -1    0    0    0  501 -0.00000000000E+00  0.00000000000E+00  0.12152114987E+03  0.12152114987E+03  0.00000000000E+00 0.  1.
          1   -1    0    0  501    0  0.00000000000E+00 -0.00000000000E+00 -0.33886252584E+04  0.33886252584E+04  0.00000000000E+00 0. -1.
        -24    2    1    2    0    0 -0.98232802628E+00 -0.21344548993E+03 -0.53567724818E+02  0.23411979383E+03  0.79891392397E+02 0.  0.
    5000000    2    1    2    0    0  0.98232802628E+00  0.21344548993E+03 -0.32135363838E+04  0.32760266145E+04  0.59997862208E+03 0.  0.
        -24    2    4    4    0    0  0.21429578633E+03  0.30762588956E+03 -0.21812764871E+04  0.22147348771E+04  0.80790413529E+02 0.  0.
         24    2    4    4    0    0 -0.21331345831E+03 -0.94180399630E+02 -0.10322598967E+04  0.10612917373E+04  0.80044227312E+02 0.  0.
         13    1    3    3    0    0 -0.17101775232E+02 -0.13334997670E+03 -0.68779536619E+02  0.15101427634E+03  0.00000000000E+00 0. -1.
        -14    1    3    3    0    0  0.16119447206E+02 -0.80095513231E+02  0.15211811801E+02  0.83105517484E+02  0.00000000000E+00 0.  1.
         15    1    5    5    0    0  0.14390670096E+03  0.14425137378E+03 -0.10553152590E+04  0.10748074483E+04  0.17770000000E+01 0. -1.
        -16    1    5    5    0    0  0.70389085367E+02  0.16337451578E+03 -0.11259612281E+04  0.11399274288E+04  0.00000000000E+00 0.  1.
          4    1    6    6  502    0 -0.31044602287E+02 -0.38834145136E+02 -0.32708446430E+03  0.33084151031E+03  0.00000000000E+00 0. -1.
         -3    1    6    6    0  502 -0.18226885602E+03 -0.55346254494E+02 -0.70517543237E+03  0.73045022704E+03  0.00000000000E+00 0.  1.
<mgrwt>
<rscale>  0 0.41900361E+03</rscale>
<asrwt>0</asrwt>
<pdfrwt beam="1">  1        1 0.52132699E+00 0.41900361E+03</pdfrwt>
<pdfrwt beam="2">  1       -2 0.18695560E-01 0.41900361E+03</pdfrwt>
<totfact> 0.74740661E+00</totfact>
</mgrwt>
</event>
<event>
12    3  0.1201947E-007  0.1301102E+04  0.7818608E-02  0.9028692E-01
          1   -1    0    0  501    0  0.00000000000E+00  0.00000000000E+00  0.14555466301E+04  0.14555466301E+04  0.00000000000E+00 0. -1.
         -2   -1    0    0    0  501 -0.00000000000E+00 -0.00000000000E+00 -0.18024757000E+04  0.18024757000E+04  0.00000000000E+00 0.  1.
        -24    2    1    2    0    0 -0.46310345675E+03 -0.11791832216E+04  0.75338991756E+03  0.14759922029E+04  0.77580496048E+02 0.  0.
    5000000    2    1    2    0    0  0.46310345675E+03  0.11791832216E+04 -0.11003189875E+04  0.17820301272E+04  0.59999301511E+03 0.  0.
        -24    2    4    4    0    0  0.16301371981E+03  0.91242271477E+03 -0.98942829566E+03  0.13578653150E+04  0.75770561981E+02 0.  0.
         24    2    4    4    0    0  0.30008973694E+03  0.26676050684E+03 -0.11089069180E+03  0.42416481220E+03  0.80025147003E+02 0.  0.
         11    1    3    3    0    0 -0.40162291310E+02 -0.16889457092E+03  0.11574490103E+03  0.20865106720E+03  0.00000000000E+00 0. -1.
        -12    1    3    3    0    0 -0.42294116544E+03 -0.10102886507E+04  0.63764501654E+03  0.12673411357E+04  0.00000000000E+00 0.  1.
         15    1    5    5    0    0  0.16545782601E+03  0.91095198877E+03 -0.98936592665E+03  0.13550121448E+04  0.17770000000E+01 0. -1.
        -16    1    5    5    0    0 -0.24441061979E+01  0.14707259978E+01 -0.62369012816E-01  0.28531701598E+01  0.00000000000E+00 0.  1.
          2    1    6    6  502    0  0.19255213883E+03  0.13807588086E+03 -0.96525086351E+02  0.25584832878E+03  0.00000000000E+00 0. -1.
         -1    1    6    6    0  502  0.10753759811E+03  0.12868462598E+03 -0.14365605447E+02  0.16831648342E+03  0.00000000000E+00 0.  1.
<mgrwt>
<rscale>  0 0.13011019E+04</rscale>
<asrwt>0</asrwt>
<pdfrwt beam="1">  1        1 0.22393025E+00 0.13011019E+04</pdfrwt>
<pdfrwt beam="2">  1       -2 0.27730395E+00 0.13011019E+04</pdfrwt>
<totfact> 0.25992350E-01</totfact>
</mgrwt>
</event>
<event>
12    3  0.1201947E-007  0.1660969E+04  0.7818608E-02  0.8783943E-01
         -2   -1    0    0    0  501 -0.00000000000E+00  0.00000000000E+00  0.15485345563E+04  0.15485345563E+04  0.00000000000E+00 0.  1.
          1   -1    0    0  501    0  0.00000000000E+00 -0.00000000000E+00 -0.18149932027E+04  0.18149932027E+04  0.00000000000E+00 0. -1.
        -24    2    1    2    0    0  0.86500089075E+03  0.13719931421E+04 -0.13101481368E+03  0.16290675837E+04  0.78131862482E+02 0.  0.
    5000000    2    1    2    0    0 -0.86500089075E+03 -0.13719931421E+04 -0.13544383267E+03  0.17344601753E+04  0.59951258951E+03 0.  0.
        -24    2    4    4    0    0 -0.55251203452E+03 -0.41317034883E+03 -0.19669791518E+03  0.72187415004E+03  0.80205568531E+02 0.  0.
         24    2    4    4    0    0 -0.31248885624E+03 -0.95882279324E+03  0.61254082514E+02  0.10125860252E+04  0.67734494932E+02 0.  0.
         13    1    3    3    0    0  0.26246642886E+03  0.44499377327E+03 -0.74909003961E+02  0.52203394851E+03  0.00000000000E+00 0. -1.
        -14    1    3    3    0    0  0.60253446189E+03  0.92699936880E+03 -0.56105809716E+02  0.11070336352E+04  0.00000000000E+00 0.  1.
         15    1    5    5    0    0 -0.32521435684E+03 -0.21679803942E+03 -0.14607596815E+03  0.41726144561E+03  0.17770000000E+01 0. -1.
        -16    1    5    5    0    0 -0.22729767768E+03 -0.19637230941E+03 -0.50621947025E+02  0.30461270443E+03  0.00000000000E+00 0.  1.
          2    1    6    6  502    0 -0.24308168772E+03 -0.74939312575E+03  0.19714000707E+02  0.78807829919E+03  0.00000000000E+00 0. -1.
         -1    1    6    6    0  502 -0.69407168513E+02 -0.20942966749E+03  0.41540081807E+02  0.22450772606E+03  0.00000000000E+00 0.  1.
<mgrwt>
<rscale>  0 0.16609695E+04</rscale>
<asrwt>0</asrwt>
<pdfrwt beam="1">  1        1 0.27922972E+00 0.16609695E+04</pdfrwt>
<pdfrwt beam="2">  1       -2 0.23823609E+00 0.16609695E+04</pdfrwt>
<totfact> 0.24528611E-01</totfact>
</mgrwt>
</event>
<event>
12    3  0.1201947E-007  0.2267125E+04  0.7818608E-02  0.8490997E-01
         -2   -1    0    0    0  501 -0.00000000000E+00  0.00000000000E+00  0.43306146217E+04  0.43306146217E+04  0.00000000000E+00 0.  1.
          1   -1    0    0  501    0  0.00000000000E+00 -0.00000000000E+00 -0.12457469266E+04  0.12457469266E+04  0.00000000000E+00 0. -1.
        -24    2    1    2    0    0  0.80251041968E+03 -0.20787046806E+04  0.21148927248E+04  0.30730757381E+04  0.77376558881E+02 0.  0.
    5000000    2    1    2    0    0 -0.80251041968E+03  0.20787046806E+04  0.96997497024E+03  0.25032858102E+04  0.60046005846E+03 0.  0.
        -24    2    4    4    0    0 -0.51361780699E+03  0.57979441186E+03  0.30626613675E+03  0.83675053256E+03  0.79923060019E+02 0.  0.
         24    2    4    4    0    0 -0.28889261269E+03  0.14989102687E+04  0.66370883349E+03  0.16665352776E+04  0.81483007979E+02 0.  0.
         13    1    3    3    0    0  0.13495260047E+03 -0.32313078318E+03  0.29657163214E+03  0.45889044488E+03  0.00000000000E+00 0. -1.
        -14    1    3    3    0    0  0.66755781920E+03 -0.17555738974E+04  0.18183210927E+04  0.26141852932E+04  0.00000000000E+00 0.  1.
         15    1    5    5    0    0 -0.27782931312E+03  0.25473224468E+03  0.13938886231E+03  0.40188313770E+03  0.17770000000E+01 0. -1.
        -16    1    5    5    0    0 -0.23578849387E+03  0.32506216719E+03  0.16687727445E+03  0.43486739485E+03  0.00000000000E+00 0.  1.
          4    1    6    6  502    0 -0.58657948646E+02  0.42568289443E+03  0.21810691152E+03  0.48188930928E+03  0.00000000000E+00 0. -1.
         -3    1    6    6    0  502 -0.23023466404E+03  0.10732273743E+04  0.44560192197E+03  0.11846459684E+04  0.00000000000E+00 0.  1.
<mgrwt>
<rscale>  0 0.22671251E+04</rscale>
<asrwt>0</asrwt>
<pdfrwt beam="1">  1        1 0.19165337E+00 0.22671251E+04</pdfrwt>
<pdfrwt beam="2">  1       -2 0.66624840E+00 0.22671251E+04</pdfrwt>
<totfact> 0.21922892E-03</totfact>
</mgrwt>
</event>
<event>
12    3  0.1201947E-007  0.1516860E+04  0.7818608E-02  0.8873318E-01
         -2   -1    0    0    0  501 -0.00000000000E+00  0.00000000000E+00  0.10837784281E+04  0.10837784281E+04  0.00000000000E+00 0.  1.
          1   -1    0    0  501    0  0.00000000000E+00 -0.00000000000E+00 -0.23982982023E+04  0.23982982023E+04  0.00000000000E+00 0. -1.
        -24    2    1    2    0    0 -0.12513065288E+04  0.83653061777E+03 -0.21145565459E+03  0.15220280272E+04  0.79399737875E+02 0.  0.
    5000000    2    1    2    0    0  0.12513065288E+04 -0.83653061777E+03 -0.11030641196E+04  0.19600486032E+04  0.59957365800E+03 0.  0.
        -24    2    4    4    0    0  0.36670042784E+03 -0.38902255526E+03 -0.70561043107E+03  0.88895901922E+03  0.80958663215E+02 0.  0.
         24    2    4    4    0    0  0.88460610096E+03 -0.44750806251E+03 -0.39745368852E+03  0.10710895839E+04  0.80449005204E+02 0.  0.
         11    1    3    3    0    0 -0.74298568736E+03  0.52477801703E+03 -0.96346304114E+02  0.91471433196E+03  0.00000000000E+00 0. -1.
        -12    1    3    3    0    0 -0.50832084144E+03  0.31175260074E+03 -0.11510935048E+03  0.60731369528E+03  0.00000000000E+00 0.  1.
         15    1    5    5    0    0  0.29470481620E+03 -0.29353991381E+03 -0.59559955109E+03  0.72646995305E+03  0.17770000000E+01 0. -1.
        -16    1    5    5    0    0  0.71995611639E+02 -0.95482641453E+02 -0.11001087997E+03  0.16248906618E+03  0.00000000000E+00 0.  1.
          2    1    6    6  502    0  0.17626082312E+03 -0.70649631559E+02 -0.47543803653E+02  0.19575408417E+03  0.00000000000E+00 0. -1.
         -1    1    6    6    0  502  0.70834527784E+03 -0.37685843095E+03 -0.34990988486E+03  0.87533549976E+03  0.00000000000E+00 0.  1.
<mgrwt>
<rscale>  0 0.15168602E+04</rscale>
<asrwt>0</asrwt>
<pdfrwt beam="1">  1        1 0.36896895E+00 0.15168602E+04</pdfrwt>
<pdfrwt beam="2">  1       -2 0.16673515E+00 0.15168602E+04</pdfrwt>
<totfact> 0.29630914E-01</totfact>
</mgrwt>
</event>
<event>
12    3  0.1201947E-007  0.5383419E+03  0.7818608E-02  0.1004229E+00
          1   -1    0    0  501    0  0.00000000000E+00  0.00000000000E+00  0.77850151548E+03  0.77850151548E+03  0.00000000000E+00 0. -1.
         -2   -1    0    0    0  501 -0.00000000000E+00 -0.00000000000E+00 -0.42142819216E+03  0.42142819216E+03  0.00000000000E+00 0.  1.
        -24    2    1    2    0    0  0.42609992259E+02 -0.39898030823E+03  0.38041819458E+02  0.41075991493E+03  0.79218873319E+02 0.  0.
    5000000    2    1    2    0    0 -0.42609992259E+02  0.39898030823E+03  0.31903150386E+03  0.78916979271E+03  0.60000580287E+03 0.  0.
        -24    2    4    4    0    0  0.20209119335E+03  0.37553340450E+03  0.87483898171E+02  0.44265434332E+03  0.80145161401E+02 0.  0.
         24    2    4    4    0    0 -0.24470118561E+03  0.23446903730E+02  0.23154760569E+03  0.34651544939E+03  0.77654590539E+02 0.  0.
         11    1    3    3    0    0  0.35463848834E+02 -0.30847122129E+03  0.62503498609E+02  0.31673153660E+03  0.00000000000E+00 0. -1.
        -12    1    3    3    0    0  0.71461434249E+01 -0.90509086939E+02 -0.24461679151E+02  0.94028378329E+02  0.00000000000E+00 0.  1.
         15    1    5    5    0    0  0.68276709719E+02  0.83680321497E+02 -0.62143870759E+01  0.10819372270E+03  0.17770000000E+01 0. -1.
        -16    1    5    5    0    0  0.13381448364E+03  0.29185308300E+03  0.93698285247E+02  0.33446062062E+03  0.00000000000E+00 0.  1.
          2    1    6    6  502    0 -0.18352222175E+03  0.10836779076E+02  0.12273118624E+03  0.22104475957E+03  0.00000000000E+00 0. -1.
         -1    1    6    6    0  502 -0.61178963867E+02  0.12610124654E+02  0.10881641945E+03  0.12547068983E+03  0.00000000000E+00 0.  1.
<mgrwt>
<rscale>  0 0.53834186E+03</rscale>
<asrwt>0</asrwt>
<pdfrwt beam="1">  1        1 0.11976946E+00 0.53834186E+03</pdfrwt>
<pdfrwt beam="2">  1       -2 0.64835106E-01 0.53834186E+03</pdfrwt>
<totfact> 0.46210579E+01</totfact>
</mgrwt>
</event>
<event>
12    3  0.1201947E-007  0.1349358E+04  0.7818608E-02  0.8991314E-01
         -2   -1    0    0    0  501 -0.00000000000E+00  0.00000000000E+00  0.10404600504E+04  0.10404600504E+04  0.00000000000E+00 0.  1.
          1   -1    0    0  501    0  0.00000000000E+00 -0.00000000000E+00 -0.19707232220E+04  0.19707232220E+04  0.00000000000E+00 0. -1.
        -24    2    1    2    0    0  0.12805666784E+04 -0.33427800039E+03 -0.80291550264E+02  0.13278025895E+04  0.70853258382E+02 0.  0.
    5000000    2    1    2    0    0 -0.12805666784E+04  0.33427800039E+03 -0.84997162138E+03  0.16833806830E+04  0.59977159595E+03 0.  0.
        -24    2    4    4    0    0 -0.14585297445E+03  0.17200026373E+03 -0.36462722885E+03  0.43615691710E+03  0.80141496312E+02 0.  0.
         24    2    4    4    0    0 -0.11347137039E+04  0.16227773666E+03 -0.48534439253E+03  0.12472237659E+04  0.78094104098E+02 0.  0.
         13    1    3    3    0    0  0.22400742673E+03 -0.86638427853E+02 -0.15460228891E+02  0.24067522326E+03  0.00000000000E+00 0. -1.
        -14    1    3    3    0    0  0.10565592516E+04 -0.24763957254E+03 -0.64831321373E+02  0.10871273662E+04  0.00000000000E+00 0.  1.
         15    1    5    5    0    0 -0.12415745988E+03  0.15066789898E+03 -0.24802793980E+03  0.31565314394E+03  0.17770000000E+01 0. -1.
        -16    1    5    5    0    0 -0.21695514576E+02  0.21332364749E+02 -0.11659928905E+03  0.12050377316E+03  0.00000000000E+00 0.  1.
          2    1    6    6  502    0 -0.74116555133E+03  0.13336485260E+03 -0.29080188830E+03  0.80726593922E+03  0.00000000000E+00 0. -1.
         -1    1    6    6    0  502 -0.39354815259E+03  0.28912884057E+02 -0.19454250423E+03  0.43995782665E+03  0.00000000000E+00 0.  1.
<mgrwt>
<rscale>  0 0.13493578E+04</rscale>
<asrwt>0</asrwt>
<pdfrwt beam="1">  1        1 0.30318819E+00 0.13493578E+04</pdfrwt>
<pdfrwt beam="2">  1       -2 0.16007078E+00 0.13493578E+04</pdfrwt>
<totfact> 0.66098656E-01</totfact>
</mgrwt>
</event>
<event>
12    3  0.1201947E-007  0.4748309E+03  0.7818608E-02  0.1020566E+00
          1   -1    0    0  501    0  0.00000000000E+00  0.00000000000E+00  0.82239068954E+03  0.82239068954E+03  0.00000000000E+00 0. -1.
         -2   -1    0    0    0  501 -0.00000000000E+00 -0.00000000000E+00 -0.43320783717E+03  0.43320783717E+03  0.00000000000E+00 0.  1.
        -24    2    1    2    0    0 -0.33691955183E+03 -0.28767915614E+03  0.14719518869E+03  0.47189920854E+03  0.68908331585E+02 0.  0.
    5000000    2    1    2    0    0  0.33691955183E+03  0.28767915614E+03  0.24198766369E+03  0.78369931817E+03  0.59946018269E+03 0.  0.
        -24    2    4    4    0    0  0.16995955419E+03  0.74582435630E+01  0.37806201335E+03  0.42139110674E+03  0.75483133512E+02 0.  0.
         24    2    4    4    0    0  0.16695999764E+03  0.28022091258E+03 -0.13607434966E+03  0.36230821143E+03  0.79696993491E+02 0.  0.
         11    1    3    3    0    0 -0.85912412415E+02 -0.42240384774E+02  0.15676793715E+02  0.97010074600E+02  0.00000000000E+00 0. -1.
        -12    1    3    3    0    0 -0.25100713941E+03 -0.24543877137E+03  0.13151839497E+03  0.37488913394E+03  0.00000000000E+00 0.  1.
         15    1    5    5    0    0  0.13871775078E+03 -0.45522833503E+01  0.35379366208E+03  0.38004795845E+03  0.17770000000E+01 0. -1.
        -16    1    5    5    0    0  0.31241803414E+02  0.12010526913E+02  0.24268351267E+02  0.41343148289E+02  0.00000000000E+00 0.  1.
          2    1    6    6  502    0  0.84647561326E+02  0.19254348707E+03 -0.11658240602E+03  0.24047798536E+03  0.00000000000E+00 0. -1.
         -3    1    6    6    0  502  0.82312436310E+02  0.87677425516E+02 -0.19491943648E+02  0.12183022607E+03  0.00000000000E+00 0.  1.
<mgrwt>
<rscale>  0 0.47483086E+03</rscale>
<asrwt>0</asrwt>
<pdfrwt beam="1">  1        1 0.12652164E+00 0.47483086E+03</pdfrwt>
<pdfrwt beam="2">  1       -2 0.66647360E-01 0.47483086E+03</pdfrwt>
<totfact> 0.40266543E+01</totfact>
</mgrwt>
</event>
<event>
12    3  0.1201947E-007  0.7419420E+03  0.7818608E-02  0.9648078E-01
          1   -1    0    0  501    0  0.00000000000E+00  0.00000000000E+00  0.10188531269E+04  0.10188531269E+04  0.00000000000E+00 0. -1.
         -2   -1    0    0    0  501 -0.00000000000E+00 -0.00000000000E+00 -0.66152509853E+03  0.66152509853E+03  0.00000000000E+00 0.  1.
        -24    2    1    2    0    0 -0.42830273969E+02 -0.70674683026E+03  0.18864028720E+03  0.73707508242E+03  0.79806044367E+02 0.  0.
    5000000    2    1    2    0    0  0.42830273969E+02  0.70674683026E+03  0.16868774112E+03  0.94330314297E+03  0.60003312499E+03 0.  0.
        -24    2    4    4    0    0  0.94872862253E+01  0.15888233449E+02 -0.15464087075E+03  0.17604251746E+03  0.82065367142E+02 0.  0.
         24    2    4    4    0    0  0.33342987744E+02  0.69085859681E+03  0.32332861187E+03  0.76726062551E+03  0.75829549520E+02 0.  0.
         11    1    3    3    0    0 -0.41856929436E+02 -0.24897098898E+03  0.38988927569E+02  0.25545780937E+03  0.00000000000E+00 0. -1.
        -12    1    3    3    0    0 -0.97334453258E+00 -0.45777584128E+03  0.14965135963E+03  0.48161727305E+03  0.00000000000E+00 0.  1.
         15    1    5    5    0    0 -0.27157562594E+02 -0.13946870685E+02 -0.95875906787E+02  0.10063496231E+03  0.17770000000E+01 0. -1.
        -16    1    5    5    0    0  0.36644848819E+02  0.29835104134E+02 -0.58764963967E+02  0.75407555150E+02  0.00000000000E+00 0.  1.
          2    1    6    6  502    0  0.46108416890E+00  0.58407054350E+03  0.27108359424E+03  0.64391375778E+03  0.00000000000E+00 0. -1.
         -1    1    6    6    0  502  0.32881903575E+02  0.10678805331E+03  0.52245017629E+02  0.12334686773E+03  0.00000000000E+00 0.  1.
<mgrwt>
<rscale>  0 0.74194199E+03</rscale>
<asrwt>0</asrwt>
<pdfrwt beam="1">  1        1 0.15674664E+00 0.74194199E+03</pdfrwt>
<pdfrwt beam="2">  1       -2 0.10177309E+00 0.74194199E+03</pdfrwt>
<totfact> 0.10415989E+01</totfact>
</mgrwt>
</event>
<event>
12    3  0.1201947E-007  0.6434292E+03  0.7818608E-02  0.9819188E-01
         -4   -1    0    0    0  501 -0.00000000000E+00  0.00000000000E+00  0.72674163872E+03  0.72674163872E+03  0.00000000000E+00 0.  1.
          1   -1    0    0  501    0  0.00000000000E+00 -0.00000000000E+00 -0.68949993762E+03  0.68949993762E+03  0.00000000000E+00 0. -1.
        -24    2    1    2    0    0 -0.50936594353E+03  0.16642770715E+02 -0.25621554719E+03  0.57608659204E+03  0.80614568586E+02 0.  0.
    5000000    2    1    2    0    0  0.50936594353E+03 -0.16642770715E+02  0.29345724829E+03  0.84015498430E+03  0.60001049560E+03 0.  0.
        -24    2    4    4    0    0  0.62280231980E+03 -0.57125507495E+02  0.17984813020E+03  0.65560151554E+03  0.79510653895E+02 0.  0.
         24    2    4    4    0    0 -0.11343637627E+03  0.40482736780E+02  0.11360911809E+03  0.18455346876E+03  0.81524767285E+02 0.  0.
         13    1    3    3    0    0 -0.94316039434E+02  0.21376282332E+02 -0.78529791564E+02  0.12457683936E+03  0.00000000000E+00 0. -1.
        -14    1    3    3    0    0 -0.41504990409E+03 -0.47335116164E+01 -0.17768575563E+03  0.45150975269E+03  0.00000000000E+00 0.  1.
         15    1    5    5    0    0  0.39605000686E+03  0.18660478621E+01  0.10758135968E+03  0.41040954758E+03  0.17770000000E+01 0. -1.
        -16    1    5    5    0    0  0.22675231294E+03 -0.58991555357E+02  0.72266770523E+02  0.24519196795E+03  0.00000000000E+00 0.  1.
          2    1    6    6  502    0 -0.87299639440E+02 -0.99967678522E+01  0.77856961128E+02  0.11740046341E+03  0.00000000000E+00 0. -1.
         -1    1    6    6    0  502 -0.26136736833E+02  0.50479504632E+02  0.35752156961E+02  0.67153005350E+02  0.00000000000E+00 0.  1.
<mgrwt>
<rscale>  0 0.64342921E+03</rscale>
<asrwt>0</asrwt>
<pdfrwt beam="1">  1        1 0.10607691E+00 0.64342921E+03</pdfrwt>
<pdfrwt beam="2">  1       -4 0.11180641E+00 0.64342921E+03</pdfrwt>
<totfact> 0.85374978E+00</totfact>
</mgrwt>
</event>
<event>
12    3  0.1201947E-007  0.6081574E+03  0.7818608E-02  0.9888625E-01
         -2   -1    0    0    0  501 -0.00000000000E+00  0.00000000000E+00  0.26485474013E+03  0.26485474013E+03  0.00000000000E+00 0.  1.
          1   -1    0    0  501    0  0.00000000000E+00 -0.00000000000E+00 -0.16624505803E+04  0.16624505803E+04  0.00000000000E+00 0. -1.
        -24    2    1    2    0    0 -0.27533589142E+03  0.38831612750E+03 -0.24070768656E+03  0.53975293361E+03  0.82424334905E+02 0.  0.
    5000000    2    1    2    0    0  0.27533589142E+03 -0.38831612750E+03 -0.11568881536E+04  0.13875523869E+04  0.60026007553E+03 0.  0.
        -24    2    4    4    0    0  0.10708710523E+03 -0.50200547328E+03 -0.96978258202E+03  0.11002030923E+04  0.80569501330E+02 0.  0.
         24    2    4    4    0    0  0.16824878619E+03  0.11368934578E+03 -0.18710557162E+03  0.28734929459E+03  0.79549989141E+02 0.  0.
         13    1    3    3    0    0 -0.11820919432E+03  0.23137321024E+03 -0.14873023408E+03  0.29937878777E+03  0.00000000000E+00 0. -1.
        -14    1    3    3    0    0 -0.15712669710E+03  0.15694291727E+03 -0.91977452479E+02  0.24037414584E+03  0.00000000000E+00 0.  1.
         15    1    5    5    0    0  0.11914272125E+03 -0.41835428834E+03 -0.81891371909E+03  0.92727457403E+03  0.17770000000E+01 0. -1.
        -16    1    5    5    0    0 -0.12055616020E+02 -0.83651184941E+02 -0.15086886293E+03  0.17292851824E+03  0.00000000000E+00 0.  1.
          2    1    6    6  502    0  0.10754375443E+03  0.30245186284E+02 -0.72729898940E+02  0.13330442082E+03  0.00000000000E+00 0. -1.
         -1    1    6    6    0  502  0.60705031767E+02  0.83444159494E+02 -0.11437567268E+03  0.15404487378E+03  0.00000000000E+00 0.  1.
<mgrwt>
<rscale>  0 0.60815744E+03</rscale>
<asrwt>0</asrwt>
<pdfrwt beam="1">  1        1 0.25576163E+00 0.60815744E+03</pdfrwt>
<pdfrwt beam="2">  1       -2 0.40746883E-01 0.60815744E+03</pdfrwt>
<totfact> 0.26610140E+01</totfact>
</mgrwt>
</event>
<event>
12    3  0.1201947E-007  0.1168312E+04  0.7818608E-02  0.9141054E-01
         -2   -1    0    0    0  501 -0.00000000000E+00  0.00000000000E+00  0.40511465862E+03  0.40511465862E+03  0.00000000000E+00 0.  1.
          1   -1    0    0  501    0  0.00000000000E+00 -0.00000000000E+00 -0.37775096525E+04  0.37775096525E+04  0.00000000000E+00 0. -1.
        -24    2    1    2    0    0 -0.11404786634E+04  0.21047384376E+03 -0.17411081248E+04  0.20931316686E+04  0.68933728332E+02 0.  0.
    5000000    2    1    2    0    0  0.11404786634E+04 -0.21047384376E+03 -0.16312868691E+04  0.20894926426E+04  0.59990985449E+03 0.  0.
        -24    2    4    4    0    0  0.26001299588E+03 -0.76635207660E+02 -0.87228194176E+03  0.91678708308E+03  0.78377654467E+02 0.  0.
         24    2    4    4    0    0  0.88046566757E+03 -0.13383863610E+03 -0.75900492730E+03  0.11727055595E+04  0.77571111240E+02 0.  0.
         11    1    3    3    0    0 -0.27693162849E+03  0.79144770306E+02 -0.41180885722E+03  0.50253512953E+03  0.00000000000E+00 0. -1.
        -12    1    3    3    0    0 -0.86354703496E+03  0.13132907345E+03 -0.13292992676E+04  0.15905965390E+04  0.00000000000E+00 0.  1.
         15    1    5    5    0    0  0.18114815153E+03 -0.14462436927E+02 -0.55696902648E+03  0.58586813283E+03  0.17770000000E+01 0. -1.
        -16    1    5    5    0    0  0.78864844344E+02 -0.62172770733E+02 -0.31531291528E+03  0.33091895025E+03  0.00000000000E+00 0.  1.
          2    1    6    6  502    0  0.13411611258E+03  0.31487213731E+01 -0.94957258200E+02  0.16435914025E+03  0.00000000000E+00 0. -1.
         -1    1    6    6    0  502  0.74634955499E+03 -0.13698735747E+03 -0.66404766910E+03  0.10083464192E+04  0.00000000000E+00 0.  1.
<mgrwt>
<rscale>  0 0.11683117E+04</rscale>
<asrwt>0</asrwt>
<pdfrwt beam="1">  1        1 0.58115533E+00 0.11683117E+04</pdfrwt>
<pdfrwt beam="2">  1       -2 0.62325332E-01 0.11683117E+04</pdfrwt>
<totfact> 0.31728434E-01</totfact>
</mgrwt>
</event>
<event>
12    3  0.1201947E-007  0.5635513E+03  0.7818608E-02  0.9984051E-01
         -2   -1    0    0    0  501 -0.00000000000E+00  0.00000000000E+00  0.27117415084E+03  0.27117415084E+03  0.00000000000E+00 0.  1.
          1   -1    0    0  501    0  0.00000000000E+00 -0.00000000000E+00 -0.17951645521E+04  0.17951645521E+04  0.00000000000E+00 0. -1.
        -24    2    1    2    0    0  0.40536038365E+03 -0.53826724148E+02 -0.44903765219E+02  0.41862436868E+03  0.77560666917E+02 0.  0.
    5000000    2    1    2    0    0 -0.40536038365E+03  0.53826724148E+02 -0.14790866361E+04  0.16477143343E+04  0.60004240979E+03 0.  0.
        -24    2    4    4    0    0 -0.16200944018E+03  0.31109823515E+03 -0.81751821335E+03  0.89284873691E+03  0.76247407995E+02 0.  0.
         24    2    4    4    0    0 -0.24335094347E+03 -0.25727151101E+03 -0.66156842273E+03  0.75486559739E+03  0.82103471889E+02 0.  0.
         11    1    3    3    0    0  0.24671919484E+03 -0.54756110013E+01 -0.53663712221E+02  0.25254729741E+03  0.00000000000E+00 0. -1.
        -12    1    3    3    0    0  0.15864118882E+03 -0.48351113147E+02  0.87599470017E+01  0.16607707127E+03  0.00000000000E+00 0.  1.
         15    1    5    5    0    0  0.82575785619E+01  0.16055651393E+02 -0.35861846041E+02  0.40189566754E+02  0.17770000000E+01 0. -1.
        -16    1    5    5    0    0 -0.17026701874E+03  0.29504258376E+03 -0.78165636731E+03  0.85265917016E+03  0.00000000000E+00 0.  1.
          4    1    6    6  502    0 -0.25790546575E+02 -0.44161116224E+02 -0.16105735553E+03  0.16898173939E+03  0.00000000000E+00 0. -1.
         -3    1    6    6    0  502 -0.21756039690E+03 -0.21311039478E+03 -0.50051106721E+03  0.58588385799E+03  0.00000000000E+00 0.  1.
<mgrwt>
<rscale>  0 0.56355135E+03</rscale>
<asrwt>0</asrwt>
<pdfrwt beam="1">  1        1 0.27617915E+00 0.56355135E+03</pdfrwt>
<pdfrwt beam="2">  1       -2 0.41719102E-01 0.56355135E+03</pdfrwt>
<totfact> 0.20871588E+01</totfact>
</mgrwt>
</event>
<event>
12    3  0.1201947E-007  0.7890208E+03  0.7818608E-02  0.9576046E-01
          1   -1    0    0  501    0  0.00000000000E+00  0.00000000000E+00  0.28330632120E+04  0.28330632120E+04  0.00000000000E+00 0. -1.
         -2   -1    0    0    0  501 -0.00000000000E+00 -0.00000000000E+00 -0.28689239507E+03  0.28689239507E+03  0.00000000000E+00 0.  1.
        -24    2    1    2    0    0  0.56716339319E+02  0.67325188985E+03  0.39569075722E+03  0.78724977318E+03  0.81891267494E+02 0.  0.
    5000000    2    1    2    0    0 -0.56716339319E+02 -0.67325188985E+03  0.21504800597E+04  0.23327058339E+04  0.60038918206E+03 0.  0.
        -24    2    4    4    0    0 -0.31029355520E+03 -0.27401256113E+03  0.10820097025E+04  0.11612394543E+04  0.79794108376E+02 0.  0.
         24    2    4    4    0    0  0.25357721588E+03 -0.39923932871E+03  0.10684703572E+04  0.11714663796E+04  0.83732481198E+02 0.  0.
         13    1    3    3    0    0 -0.15691941825E+02  0.25544927992E+03  0.16530009109E+03  0.30467144888E+03  0.00000000000E+00 0. -1.
        -14    1    3    3    0    0  0.72408281144E+02  0.41780260993E+03  0.23039066613E+03  0.48257832430E+03  0.00000000000E+00 0.  1.
         15    1    5    5    0    0 -0.23777680856E+03 -0.17045584339E+03  0.69382081474E+03  0.75298305820E+03  0.17770000000E+01 0. -1.
        -16    1    5    5    0    0 -0.72516746635E+02 -0.10355671774E+03  0.38818888778E+03  0.40825639606E+03  0.00000000000E+00 0.  1.
          4    1    6    6  502    0  0.11666979581E+03 -0.11613247061E+03  0.32821689332E+03  0.36718513185E+03  0.00000000000E+00 0. -1.
         -3    1    6    6    0  502  0.13690742007E+03 -0.28310685810E+03  0.74025346385E+03  0.80428124777E+03  0.00000000000E+00 0.  1.
<mgrwt>
<rscale>  0 0.78902077E+03</rscale>
<asrwt>0</asrwt>
<pdfrwt beam="1">  1        1 0.43585586E+00 0.78902077E+03</pdfrwt>
<pdfrwt beam="2">  1       -2 0.44137293E-01 0.78902077E+03</pdfrwt>
<totfact> 0.35625292E+00</totfact>
</mgrwt>
</event>
<event>
12    3  0.1201947E-007  0.4396929E+03  0.7818608E-02  0.1030841E+00
          1   -1    0    0  501    0  0.00000000000E+00  0.00000000000E+00  0.69536930791E+03  0.69536930791E+03  0.00000000000E+00 0. -1.
         -2   -1    0    0    0  501 -0.00000000000E+00 -0.00000000000E+00 -0.28798905274E+03  0.28798905274E+03  0.00000000000E+00 0.  1.
        -24    2    1    2    0    0  0.86883812730E+01 -0.23072578160E+03  0.53652634605E+02  0.24949473024E+03  0.77840484016E+02 0.  0.
    5000000    2    1    2    0    0 -0.86883812730E+01  0.23072578160E+03  0.35372762056E+03  0.73386363042E+03  0.60010226149E+03 0.  0.
        -24    2    4    4    0    0  0.16072123145E+03  0.36656329366E+03  0.24481236216E+03  0.47573037196E+03  0.78653236677E+02 0.  0.
         24    2    4    4    0    0 -0.16940961272E+03 -0.13583751206E+03  0.10891525840E+03  0.25813325846E+03  0.87285732201E+02 0.  0.
         13    1    3    3    0    0 -0.26909723099E+02 -0.11555516299E+03  0.28526337646E+01  0.11868136505E+03  0.00000000000E+00 0. -1.
        -14    1    3    3    0    0  0.35598104372E+02 -0.11517061861E+03  0.50800000841E+02  0.13081336518E+03  0.00000000000E+00 0.  1.
         15    1    5    5    0    0  0.52717221607E+02  0.20893808762E+03  0.14889623863E+03  0.26193029134E+03  0.17770000000E+01 0. -1.
        -16    1    5    5    0    0  0.10800400984E+03  0.15762520604E+03  0.95916123531E+02  0.21380008062E+03  0.00000000000E+00 0.  1.
          2    1    6    6  502    0 -0.53100504663E+02  0.21625829327E+01  0.31281143767E+02  0.61667254809E+02  0.00000000000E+00 0. -1.
         -1    1    6    6    0  502 -0.11630910806E+03 -0.13800009500E+03  0.77634114638E+02  0.19646600365E+03  0.00000000000E+00 0.  1.
<mgrwt>
<rscale>  0 0.43969285E+03</rscale>
<asrwt>0</asrwt>
<pdfrwt beam="1">  1        1 0.10697989E+00 0.43969285E+03</pdfrwt>
<pdfrwt beam="2">  1       -2 0.44306008E-01 0.43969285E+03</pdfrwt>
<totfact> 0.12109654E+02</totfact>
</mgrwt>
</event>
<event>
12    3  0.1201947E-007  0.9284162E+03  0.7818608E-02  0.9390741E-01
          1   -1    0    0  501    0  0.00000000000E+00  0.00000000000E+00  0.16669063225E+04  0.16669063225E+04  0.00000000000E+00 0. -1.
         -2   -1    0    0    0  501 -0.00000000000E+00 -0.00000000000E+00 -0.54715661499E+03  0.54715661499E+03  0.00000000000E+00 0.  1.
        -24    2    1    2    0    0 -0.84919717957E+03  0.12850701418E+03  0.50180632383E+03  0.99780560911E+03  0.78463650497E+02 0.  0.
    5000000    2    1    2    0    0  0.84919717957E+03 -0.12850701418E+03  0.61794338372E+03  0.12162573284E+04  0.59981493894E+03 0.  0.
        -24    2    4    4    0    0  0.15673426067E+03 -0.23517887644E+03  0.24437187771E+02  0.29473485425E+03  0.79979533458E+02 0.  0.
         24    2    4    4    0    0  0.69246291889E+03  0.10667186226E+03  0.59350619595E+03  0.92152247417E+03  0.77912037148E+02 0.  0.
         13    1    3    3    0    0 -0.37069928560E+03  0.48242870430E+02  0.26273922765E+03  0.45692147754E+03  0.00000000000E+00 0. -1.
        -14    1    3    3    0    0 -0.47849789397E+03  0.80264143750E+02  0.23906709618E+03  0.54088413157E+03  0.00000000000E+00 0.  1.
         15    1    5    5    0    0  0.37136146113E+02 -0.12525878035E+03  0.13700574820E+01  0.13066709682E+03  0.17770000000E+01 0. -1.
        -16    1    5    5    0    0  0.11959811456E+03 -0.10992009608E+03  0.23067130289E+02  0.16406775743E+03  0.00000000000E+00 0.  1.
          2    1    6    6  502    0  0.25924066466E+03  0.77251253247E+02  0.21657093559E+03  0.34652048783E+03  0.00000000000E+00 0. -1.
         -1    1    6    6    0  502  0.43322225423E+03  0.29420609009E+02  0.37693526036E+03  0.57500198634E+03  0.00000000000E+00 0.  1.
<mgrwt>
<rscale>  0 0.92841619E+03</rscale>
<asrwt>0</asrwt>
<pdfrwt beam="1">  1        1 0.25644713E+00 0.92841619E+03</pdfrwt>
<pdfrwt beam="2">  1       -2 0.84177941E-01 0.92841619E+03</pdfrwt>
<totfact> 0.54920005E+00</totfact>
</mgrwt>
</event>
<event>
12    3  0.1201947E-007  0.4981173E+03  0.7818608E-02  0.1014271E+00
         -2   -1    0    0    0  501 -0.00000000000E+00  0.00000000000E+00  0.33865355136E+03  0.33865355136E+03  0.00000000000E+00 0.  1.
          1   -1    0    0  501    0  0.00000000000E+00 -0.00000000000E+00 -0.79107131432E+03  0.79107131432E+03  0.00000000000E+00 0. -1.
        -24    2    1    2    0    0 -0.30339126015E+03  0.11670861633E+03 -0.52092714137E+02  0.33851760433E+03  0.78824867359E+02 0.  0.
    5000000    2    1    2    0    0  0.30339126015E+03 -0.11670861633E+03 -0.40032504882E+03  0.79120726134E+03  0.60006801933E+03 0.  0.
        -24    2    4    4    0    0  0.25965935649E+03  0.20847490081E+03 -0.17262503140E+03  0.38364984193E+03  0.80641391777E+02 0.  0.
         24    2    4    4    0    0  0.43731903663E+02 -0.32518351714E+03 -0.22770001743E+03  0.40755741941E+03  0.81233939714E+02 0.  0.
         13    1    3    3    0    0 -0.20857392390E+03  0.10673797963E+03 -0.10597142202E+02  0.23453864809E+03  0.00000000000E+00 0. -1.
        -14    1    3    3    0    0 -0.94817336252E+02  0.99706366979E+01 -0.41495571935E+02  0.10397895624E+03  0.00000000000E+00 0.  1.
         15    1    5    5    0    0  0.12955627036E+03  0.10065205808E+03 -0.13013791283E+03  0.20941513333E+03  0.17770000000E+01 0. -1.
        -16    1    5    5    0    0  0.13010308613E+03  0.10782284273E+03 -0.42487118569E+02  0.17423470860E+03  0.00000000000E+00 0.  1.
          4    1    6    6  502    0  0.12920265957E+02 -0.27030969612E+03 -0.20892844839E+03  0.34188501230E+03  0.00000000000E+00 0. -1.
         -3    1    6    6    0  502  0.30811637706E+02 -0.54873821018E+02 -0.18771569040E+02  0.65672407108E+02  0.00000000000E+00 0.  1.
<mgrwt>
<rscale>  0 0.49811733E+03</rscale>
<asrwt>0</asrwt>
<pdfrwt beam="1">  1        1 0.12170328E+00 0.49811733E+03</pdfrwt>
<pdfrwt beam="2">  1       -2 0.52100546E-01 0.49811733E+03</pdfrwt>
<totfact> 0.71450816E+01</totfact>
</mgrwt>
</event>
<event>
12    3  0.1201947E-007  0.6126150E+03  0.7818608E-02  0.9879574E-01
          1   -1    0    0  501    0  0.00000000000E+00  0.00000000000E+00  0.46744432094E+03  0.46744432094E+03  0.00000000000E+00 0. -1.
         -2   -1    0    0    0  501 -0.00000000000E+00 -0.00000000000E+00 -0.11449093956E+04  0.11449093956E+04  0.00000000000E+00 0.  1.
        -24    2    1    2    0    0  0.56158601114E+03 -0.33787642614E+02 -0.35267749879E+02  0.56876728383E+03  0.75709684168E+02 0.  0.
    5000000    2    1    2    0    0 -0.56158601114E+03  0.33787642614E+02 -0.64219732482E+03  0.10435864327E+04  0.60011231107E+03 0.  0.
        -24    2    4    4    0    0 -0.47501752022E+01  0.66536057294E+02 -0.42782294072E+03  0.44021671578E+03  0.79427181469E+02 0.  0.
         24    2    4    4    0    0 -0.55683583593E+03 -0.32748414679E+02 -0.21437438410E+03  0.60336971697E+03  0.83426805941E+02 0.  0.
         11    1    3    3    0    0  0.15290941902E+03 -0.41926956965E+02 -0.18979369136E+02  0.15968524227E+03  0.00000000000E+00 0. -1.
        -12    1    3    3    0    0  0.40867659211E+03  0.81393143503E+01 -0.16288380743E+02  0.40908204156E+03  0.00000000000E+00 0.  1.
         15    1    5    5    0    0  0.26225155632E+02  0.61637824171E+02 -0.34918408928E+03  0.35555543322E+03  0.17770000000E+01 0. -1.
        -16    1    5    5    0    0 -0.30975330835E+02  0.48982331230E+01 -0.78638851439E+02  0.84661282554E+02  0.00000000000E+00 0.  1.
          2    1    6    6  502    0 -0.52499935365E+03 -0.20377515161E+02 -0.18122219649E+03  0.55577068019E+03  0.00000000000E+00 0. -1.
         -1    1    6    6    0  502 -0.31836482288E+02 -0.12370899518E+02 -0.33152187605E+02  0.47599036780E+02  0.00000000000E+00 0.  1.
<mgrwt>
<rscale>  0 0.61261495E+03</rscale>
<asrwt>0</asrwt>
<pdfrwt beam="1">  1        1 0.71914512E-01 0.61261495E+03</pdfrwt>
<pdfrwt beam="2">  1       -2 0.17613991E+00 0.61261495E+03</pdfrwt>
<totfact> 0.85177646E+00</totfact>
</mgrwt>
</event>
<event>
12    3  0.1201947E-007  0.1060584E+04  0.7818608E-02  0.9244484E-01
          1   -1    0    0  501    0  0.00000000000E+00  0.00000000000E+00  0.10631937533E+04  0.10631937533E+04  0.00000000000E+00 0. -1.
         -2   -1    0    0    0  501 -0.00000000000E+00 -0.00000000000E+00 -0.11432505710E+04  0.11432505710E+04  0.00000000000E+00 0.  1.
        -24    2    1    2    0    0 -0.84137757877E+03  0.57363038825E+03 -0.82130996721E+01  0.10223384586E+04  0.90224257434E+02 0.  0.
    5000000    2    1    2    0    0  0.84137757877E+03 -0.57363038825E+03 -0.71843718026E+02  0.11841058656E+04  0.59998094030E+03 0.  0.
        -24    2    4    4    0    0  0.27847715012E+03 -0.43417238226E+03 -0.24447510472E+03  0.57591645799E+03  0.76527832203E+02 0.  0.
         24    2    4    4    0    0  0.56290042866E+03 -0.13945800599E+03  0.17263138669E+03  0.60818940761E+03  0.61541301852E+02 0.  0.
         13    1    3    3    0    0 -0.40834781224E+03  0.22654103523E+03  0.98065835404E+01  0.46708130501E+03  0.00000000000E+00 0. -1.
        -14    1    3    3    0    0 -0.43302976653E+03  0.34708935302E+03 -0.18019683212E+02  0.55525715364E+03  0.00000000000E+00 0.  1.
         15    1    5    5    0    0  0.22664081779E+03 -0.32946293961E+03 -0.15552498068E+03  0.42907233214E+03  0.17770000000E+01 0. -1.
        -16    1    5    5    0    0  0.51836332324E+02 -0.10470944265E+03 -0.88950124043E+02  0.14684412585E+03  0.00000000000E+00 0.  1.
          2    1    6    6  502    0  0.38697930265E+03 -0.12177054964E+03  0.10664173353E+03  0.41946812367E+03  0.00000000000E+00 0. -1.
         -1    1    6    6    0  502  0.17592112600E+03 -0.17687456351E+02  0.65989653168E+02  0.18872128394E+03  0.00000000000E+00 0.  1.
<mgrwt>
<rscale>  0 0.10605843E+04</rscale>
<asrwt>0</asrwt>
<pdfrwt beam="1">  1        1 0.16356827E+00 0.10605843E+04</pdfrwt>
<pdfrwt beam="2">  1       -2 0.17588470E+00 0.10605843E+04</pdfrwt>
<totfact> 0.22716160E+00</totfact>
</mgrwt>
</event>
<event>
12    3  0.1201947E-007  0.5207978E+03  0.7818608E-02  0.1008489E+00
         -2   -1    0    0    0  501 -0.00000000000E+00  0.00000000000E+00  0.12395679524E+04  0.12395679524E+04  0.00000000000E+00 0.  1.
          1   -1    0    0  501    0  0.00000000000E+00 -0.00000000000E+00 -0.67087886568E+03  0.67087886568E+03  0.00000000000E+00 0. -1.
        -24    2    1    2    0    0 -0.45355141131E+03  0.22094166900E+03 -0.41097256067E+03  0.65572092871E+03  0.80915925077E+02 0.  0.
    5000000    2    1    2    0    0  0.45355141131E+03 -0.22094166900E+03  0.97966164737E+03  0.12547258894E+04  0.60006333857E+03 0.  0.
        -24    2    4    4    0    0  0.10454635024E+03 -0.11808398506E+03  0.83703556122E+03  0.85548767657E+03  0.79729963897E+02 0.  0.
         24    2    4    4    0    0  0.34900506107E+03 -0.10285768394E+03  0.14262608616E+03  0.39923821279E+03  0.81637701475E+02 0.  0.
         11    1    3    3    0    0 -0.15494061273E+03  0.34012390827E+02 -0.13077196230E+03  0.20558390581E+03  0.00000000000E+00 0. -1.
        -12    1    3    3    0    0 -0.29861079858E+03  0.18692927817E+03 -0.28020059836E+03  0.45013702290E+03  0.00000000000E+00 0.  1.
         15    1    5    5    0    0  0.54536030032E+02 -0.27026019281E+02  0.47350915248E+03  0.47740827339E+03  0.17770000000E+01 0. -1.
        -16    1    5    5    0    0  0.50010320206E+02 -0.91057965776E+02  0.36352640874E+03  0.37807940318E+03  0.00000000000E+00 0.  1.
          2    1    6    6  502    0  0.31936666334E+03 -0.82229406858E+02  0.10269889474E+03  0.34540382740E+03  0.00000000000E+00 0. -1.
         -1    1    6    6    0  502  0.29638397734E+02 -0.20628277086E+02  0.39927191421E+02  0.53834385392E+02  0.00000000000E+00 0.  1.
<mgrwt>
<rscale>  0 0.52079780E+03</rscale>
<asrwt>0</asrwt>
<pdfrwt beam="1">  1        1 0.10321213E+00 0.52079780E+03</pdfrwt>
<pdfrwt beam="2">  1       -2 0.19070276E+00 0.52079780E+03</pdfrwt>
<totfact> 0.41496254E+00</totfact>
</mgrwt>
</event>
<event>
12    3  0.1201947E-007  0.6413296E+03  0.7818608E-02  0.9823186E-01
         -2   -1    0    0    0  501 -0.00000000000E+00  0.00000000000E+00  0.39042488508E+03  0.39042488508E+03  0.00000000000E+00 0.  1.
          1   -1    0    0  501    0  0.00000000000E+00 -0.00000000000E+00 -0.14978462270E+04  0.14978462270E+04  0.00000000000E+00 0. -1.
        -24    2    1    2    0    0  0.49650826700E+03 -0.96245451490E+02  0.21764073666E+02  0.51317671069E+03  0.84220041361E+02 0.  0.
    5000000    2    1    2    0    0 -0.49650826700E+03  0.96245451490E+02 -0.11291854156E+04  0.13750944014E+04  0.60003438555E+03 0.  0.
        -24    2    4    4    0    0 -0.15674685583E+02 -0.19670428471E+03 -0.25103303252E+03  0.32897325085E+03  0.79167827861E+02 0.  0.
         24    2    4    4    0    0 -0.48083358141E+03  0.29294973620E+03 -0.87815238308E+03  0.10461211506E+04  0.78723394080E+02 0.  0.
         13    1    3    3    0    0  0.26892736052E+03 -0.94480132887E+01  0.78215811376E+01  0.26920692287E+03  0.00000000000E+00 0. -1.
        -14    1    3    3    0    0  0.22758090648E+03 -0.86797438201E+02  0.13942492528E+02  0.24396978782E+03  0.00000000000E+00 0.  1.
         15    1    5    5    0    0  0.23253346328E+02 -0.61824314142E+02 -0.46106172319E+02  0.80572332655E+02  0.17770000000E+01 0. -1.
        -16    1    5    5    0    0 -0.38928031911E+02 -0.13487997056E+03 -0.20492686020E+03  0.24840091819E+03  0.00000000000E+00 0.  1.
          4    1    6    6  502    0 -0.19589223877E+03  0.13288874341E+03 -0.43836914491E+03  0.49819744535E+03  0.00000000000E+00 0. -1.
         -3    1    6    6    0  502 -0.28494134264E+03  0.16006099279E+03 -0.43978323816E+03  0.54792370521E+03  0.00000000000E+00 0.  1.
<mgrwt>
<rscale>  0 0.64132956E+03</rscale>
<asrwt>0</asrwt>
<pdfrwt beam="1">  1        1 0.23043788E+00 0.64132956E+03</pdfrwt>
<pdfrwt beam="2">  1       -2 0.60065366E-01 0.64132956E+03</pdfrwt>
<totfact> 0.15580507E+01</totfact>
</mgrwt>
</event>
<event>
12    3  0.1201947E-007  0.4557855E+03  0.7818608E-02  0.1026011E+00
          1   -1    0    0  501    0  0.00000000000E+00  0.00000000000E+00  0.45453956774E+03  0.45453956774E+03  0.00000000000E+00 0. -1.
         -2   -1    0    0    0  501 -0.00000000000E+00 -0.00000000000E+00 -0.18452958003E+04  0.18452958003E+04  0.00000000000E+00 0.  1.
        -24    2    1    2    0    0 -0.23316325043E+03  0.18668778202E+03  0.33036771659E+03  0.45284375294E+03  0.81897540291E+02 0.  0.
    5000000    2    1    2    0    0  0.23316325043E+03 -0.18668778202E+03 -0.17211239492E+04  0.18469916151E+04  0.59991078385E+03 0.  0.
        -24    2    4    4    0    0 -0.53399904459E+02 -0.28719602418E+03 -0.48393600209E+03  0.57086193914E+03  0.79725738266E+02 0.  0.
         24    2    4    4    0    0  0.28656315489E+03  0.10050824216E+03 -0.12371879471E+04  0.12761296760E+04  0.75183675121E+02 0.  0.
         11    1    3    3    0    0 -0.10298761978E+03  0.46427114220E+02  0.83420827107E+02  0.14043133966E+03  0.00000000000E+00 0. -1.
        -12    1    3    3    0    0 -0.13017563064E+03  0.14026066780E+03  0.24694688949E+03  0.31241241328E+03  0.00000000000E+00 0.  1.
         15    1    5    5    0    0 -0.61357411938E+02 -0.11447778460E+03 -0.20603892792E+03  0.24356742950E+03  0.17770000000E+01 0. -1.
        -16    1    5    5    0    0  0.79575074798E+01 -0.17271823958E+03 -0.27789707417E+03  0.32729450964E+03  0.00000000000E+00 0.  1.
          4    1    6    6  502    0  0.22059843437E+03  0.67580942228E+02 -0.10477291239E+04  0.10728313800E+04  0.00000000000E+00 0. -1.
         -3    1    6    6    0  502  0.65964720520E+02  0.32927299930E+02 -0.18945882320E+03  0.20329829592E+03  0.00000000000E+00 0.  1.
<mgrwt>
<rscale>  0 0.45578552E+03</rscale>
<asrwt>0</asrwt>
<pdfrwt beam="1">  1        1 0.69929163E-01 0.45578552E+03</pdfrwt>
<pdfrwt beam="2">  1       -2 0.28389167E+00 0.45578552E+03</pdfrwt>
<totfact> 0.19475058E+00</totfact>
</mgrwt>
</event>
<event>
12    3  0.1201947E-007  0.7044719E+03  0.7818608E-02  0.9709615E-01
          1   -1    0    0  501    0  0.00000000000E+00  0.00000000000E+00  0.54141612507E+03  0.54141612507E+03  0.00000000000E+00 0. -1.
         -2   -1    0    0    0  501 -0.00000000000E+00 -0.00000000000E+00 -0.14650339681E+04  0.14650339681E+04  0.00000000000E+00 0.  1.
        -24    2    1    2    0    0 -0.24719541069E+03  0.61252424632E+03  0.72324170173E+02  0.66920910837E+03  0.79489129684E+02 0.  0.
    5000000    2    1    2    0    0  0.24719541069E+03 -0.61252424632E+03 -0.99594201316E+03  0.13372409848E+04  0.60001786170E+03 0.  0.
        -24    2    4    4    0    0 -0.67435181325E+02 -0.22827962829E+03 -0.72664058416E+03  0.76879231526E+03  0.79849815830E+02 0.  0.
         24    2    4    4    0    0  0.31463059201E+03 -0.38424461803E+03 -0.26930142900E+03  0.56844866950E+03  0.63042004103E+02 0.  0.
         13    1    3    3    0    0 -0.30802524106E+02  0.72671299221E+02 -0.17117572150E+02  0.80764624051E+02  0.00000000000E+00 0. -1.
        -14    1    3    3    0    0 -0.21639288658E+03  0.53985294710E+03  0.89441742324E+02  0.58844448432E+03  0.00000000000E+00 0.  1.
         15    1    5    5    0    0 -0.15741261034E+02  0.69728798889E+00 -0.58706471126E+02  0.60810204658E+02  0.17770000000E+01 0. -1.
        -16    1    5    5    0    0 -0.51693920291E+02 -0.22897691628E+03 -0.66793411303E+03  0.70798211061E+03  0.00000000000E+00 0.  1.
          4    1    6    6  502    0  0.16007556867E+03 -0.22245280599E+03 -0.11824182393E+03  0.29848043068E+03  0.00000000000E+00 0. -1.
         -3    1    6    6    0  502  0.15455502334E+03 -0.16179181204E+03 -0.15105960507E+03  0.26996823881E+03  0.00000000000E+00 0.  1.
<mgrwt>
<rscale>  0 0.70447193E+03</rscale>
<asrwt>0</asrwt>
<pdfrwt beam="1">  1        1 0.83294790E-01 0.70447193E+03</pdfrwt>
<pdfrwt beam="2">  1       -2 0.22538984E+00 0.70447193E+03</pdfrwt>
<totfact> 0.32892492E+00</totfact>
</mgrwt>
</event>
<event>
12    3  0.1201947E-007  0.7289537E+03  0.7818608E-02  0.9668960E-01
         -2   -1    0    0    0  501 -0.00000000000E+00  0.00000000000E+00  0.67719659706E+03  0.67719659706E+03  0.00000000000E+00 0.  1.
          1   -1    0    0  501    0  0.00000000000E+00 -0.00000000000E+00 -0.12540636543E+04  0.12540636543E+04  0.00000000000E+00 0. -1.
        -24    2    1    2    0    0 -0.41545086101E+03  0.51587220359E+03 -0.76796856769E+03  0.10173541664E+04  0.80685999318E+02 0.  0.
    5000000    2    1    2    0    0  0.41545086101E+03 -0.51587220359E+03  0.19110151047E+03  0.91390608498E+03  0.59998416354E+03 0.  0.
        -24    2    4    4    0    0  0.33368706485E+03 -0.82863112688E+02  0.28628426367E+03  0.45625945440E+03  0.89446394074E+02 0.  0.
         24    2    4    4    0    0  0.81763796161E+02 -0.43300909090E+03 -0.95182753200E+02  0.45764663058E+03  0.78730494756E+02 0.  0.
         11    1    3    3    0    0 -0.11946836899E+03  0.17487857184E+03 -0.19535765411E+03  0.28813160031E+03  0.00000000000E+00 0. -1.
        -12    1    3    3    0    0 -0.29598249202E+03  0.34099363175E+03 -0.57261091357E+03  0.72922256604E+03  0.00000000000E+00 0.  1.
         15    1    5    5    0    0  0.31718044711E+03 -0.64867280138E+02  0.23690247836E+03  0.40116971726E+03  0.17770000000E+01 0. -1.
        -16    1    5    5    0    0  0.16506617742E+02 -0.17995832549E+02  0.49381785310E+02  0.55089737146E+02  0.00000000000E+00 0.  1.
          4    1    6    6  502    0  0.72618354122E+02 -0.19267592557E+03 -0.60792724492E+02  0.21469325327E+03  0.00000000000E+00 0. -1.
         -3    1    6    6    0  502  0.91454420394E+01 -0.24033316533E+03 -0.34390028708E+02  0.24295337731E+03  0.00000000000E+00 0.  1.
<mgrwt>
<rscale>  0 0.72895366E+03</rscale>
<asrwt>0</asrwt>
<pdfrwt beam="1">  1        1 0.19293287E+00 0.72895366E+03</pdfrwt>
<pdfrwt beam="2">  1       -2 0.10418409E+00 0.72895366E+03</pdfrwt>
<totfact> 0.66134144E+00</totfact>
</mgrwt>
</event>
<event>
12    3  0.1201947E-007  0.9356837E+03  0.7818608E-02  0.9382042E-01
         -2   -1    0    0    0  501 -0.00000000000E+00  0.00000000000E+00  0.51165002565E+03  0.51165002565E+03  0.00000000000E+00 0.  1.
          1   -1    0    0  501    0  0.00000000000E+00 -0.00000000000E+00 -0.18700448459E+04  0.18700448459E+04  0.00000000000E+00 0. -1.
        -24    2    1    2    0    0  0.80832366943E+02 -0.83701230761E+03 -0.94895795413E+03  0.12704835813E+04  0.80522400763E+02 0.  0.
    5000000    2    1    2    0    0 -0.80832366943E+02  0.83701230761E+03 -0.40943686611E+03  0.11112112902E+04  0.60002375752E+03 0.  0.
        -24    2    4    4    0    0 -0.24921089216E+03  0.80119401436E+03 -0.34907185526E+03  0.91218409683E+03  0.78808305131E+02 0.  0.
         24    2    4    4    0    0  0.16837852522E+03  0.35818293248E+02 -0.60365010851E+02  0.19902719341E+03  0.79583988935E+02 0.  0.
         13    1    3    3    0    0  0.13526141458E+02 -0.46233132178E+03 -0.48214260150E+03  0.66812775409E+03  0.00000000000E+00 0. -1.
        -14    1    3    3    0    0  0.67306225484E+02 -0.37468098582E+03 -0.46681535263E+03  0.60235582722E+03  0.00000000000E+00 0.  1.
         15    1    5    5    0    0 -0.20150978305E+03  0.54072842686E+03 -0.25865143319E+03  0.63237421350E+03  0.17770000000E+01 0. -1.
        -16    1    5    5    0    0 -0.47701109116E+02  0.26046558750E+03 -0.90420422066E+02  0.27980988333E+03  0.00000000000E+00 0.  1.
          4    1    6    6  502    0  0.67688641502E+02 -0.20768007607E+02 -0.41286454716E+02  0.81961171730E+02  0.00000000000E+00 0. -1.
         -3    1    6    6    0  502  0.10068988372E+03  0.56586300855E+02 -0.19078556134E+02  0.11706602168E+03  0.00000000000E+00 0.  1.
<mgrwt>
<rscale>  0 0.93568370E+03</rscale>
<asrwt>0</asrwt>
<pdfrwt beam="1">  1        1 0.28769921E+00 0.93568370E+03</pdfrwt>
<pdfrwt beam="2">  1       -2 0.78715388E-01 0.93568370E+03</pdfrwt>
<totfact> 0.46580464E+00</totfact>
</mgrwt>
</event>
<event>
12    3  0.1201947E-007  0.2647739E+04  0.7818608E-02  0.8352164E-01
         -2   -1    0    0    0  501 -0.00000000000E+00  0.00000000000E+00  0.17384900715E+04  0.17384900715E+04  0.00000000000E+00 0.  1.
          1   -1    0    0  501    0  0.00000000000E+00 -0.00000000000E+00 -0.40399446559E+04  0.40399446559E+04  0.00000000000E+00 0. -1.
        -24    2    1    2    0    0 -0.18188355207E+04  0.18796304670E+04 -0.11324451453E+04  0.28513291515E+04  0.80452341824E+02 0.  0.
    5000000    2    1    2    0    0  0.18188355207E+04 -0.18796304670E+04 -0.11690094391E+04  0.29271055759E+04  0.60015884540E+03 0.  0.
        -24    2    4    4    0    0  0.19466262454E+03 -0.50231501579E+03 -0.29696850216E+03  0.62456223922E+03  0.10804530025E+03 0.  0.
         24    2    4    4    0    0  0.16241728962E+04 -0.13773154512E+04 -0.87204093697E+03  0.23025433367E+04  0.79466802181E+02 0.  0.
         13    1    3    3    0    0 -0.11790951202E+04  0.12359020904E+04 -0.69978478920E+03  0.18459192915E+04  0.00000000000E+00 0. -1.
        -14    1    3    3    0    0 -0.63974040050E+03  0.64372837664E+03 -0.43266035605E+03  0.10054098600E+04  0.00000000000E+00 0.  1.
         15    1    5    5    0    0  0.12951275977E+03 -0.19093136758E+03 -0.11051628480E+03  0.25582288600E+03  0.17770000000E+01 0. -1.
        -16    1    5    5    0    0  0.65149864767E+02 -0.31138364821E+03 -0.18645221736E+03  0.36873935322E+03  0.00000000000E+00 0.  1.
          2    1    6    6  502    0  0.21215921259E+03 -0.21529842452E+03 -0.11694105909E+03  0.32409898856E+03  0.00000000000E+00 0. -1.
         -1    1    6    6    0  502  0.14120136836E+04 -0.11620170267E+04 -0.75509987788E+03  0.19784443481E+04  0.00000000000E+00 0.  1.
<mgrwt>
<rscale>  0 0.26477390E+04</rscale>
<asrwt>0</asrwt>
<pdfrwt beam="1">  1        1 0.62152994E+00 0.26477390E+04</pdfrwt>
<pdfrwt beam="2">  1       -2 0.26746001E+00 0.26477390E+04</pdfrwt>
<totfact> 0.32307820E-03</totfact>
</mgrwt>
</event>
<event>
12    3  0.1201947E-007  0.4925926E+03  0.7818608E-02  0.1015731E+00
          1   -1    0    0  501    0  0.00000000000E+00  0.00000000000E+00  0.33281892459E+04  0.33281892459E+04  0.00000000000E+00 0. -1.
         -2   -1    0    0    0  501 -0.00000000000E+00 -0.00000000000E+00 -0.96494760525E+02  0.96494760525E+02  0.00000000000E+00 0.  1.
        -24    2    1    2    0    0  0.21328567357E+03 -0.28248503654E+03  0.59416383911E+03  0.69668496670E+03  0.83968450617E+02 0.  0.
    5000000    2    1    2    0    0 -0.21328567357E+03  0.28248503654E+03  0.26375306463E+04  0.27279990398E+04  0.60010188832E+03 0.  0.
        -24    2    4    4    0    0 -0.20320390075E+03 -0.10987677644E+03  0.51258326248E+03  0.56554428471E+03  0.61106511202E+02 0.  0.
         24    2    4    4    0    0 -0.10081772820E+02  0.39236181298E+03  0.21249473838E+04  0.21624547551E+04  0.82217694165E+02 0.  0.
         13    1    3    3    0    0  0.19109689689E+03 -0.23230509464E+03  0.54735146470E+03  0.62456169183E+03  0.00000000000E+00 0. -1.
        -14    1    3    3    0    0  0.22188776683E+02 -0.50179941900E+02  0.46812374419E+02  0.72123274874E+02  0.00000000000E+00 0.  1.
         15    1    5    5    0    0 -0.90224500744E+02 -0.54492826138E+02  0.16411830499E+03  0.19505872039E+03  0.17770000000E+01 0. -1.
        -16    1    5    5    0    0 -0.11297940000E+03 -0.55383950303E+02  0.34846495749E+03  0.37048556432E+03  0.00000000000E+00 0.  1.
          4    1    6    6  502    0 -0.38059949150E+02  0.27492713137E+03  0.13590270075E+04  0.13870789071E+04  0.00000000000E+00 0. -1.
         -3    1    6    6    0  502  0.27978176330E+02  0.11743468161E+03  0.76592037632E+03  0.77537584800E+03  0.00000000000E+00 0.  1.
<mgrwt>
<rscale>  0 0.49259264E+03</rscale>
<asrwt>0</asrwt>
<pdfrwt beam="1">  1        1 0.51202903E+00 0.49259264E+03</pdfrwt>
<pdfrwt beam="2">  1       -2 0.14845350E-01 0.49259264E+03</pdfrwt>
<totfact> 0.12004864E+01</totfact>
</mgrwt>
</event>
<event>
12    3  0.1201947E-007  0.1440660E+04  0.7818608E-02  0.8924901E-01
          3   -1    0    0  501    0  0.00000000000E+00  0.00000000000E+00  0.26049034751E+04  0.26049034751E+04  0.00000000000E+00 0. -1.
         -4   -1    0    0    0  501 -0.00000000000E+00 -0.00000000000E+00 -0.19597620709E+04  0.19597620709E+04  0.00000000000E+00 0.  1.
        -24    2    1    2    0    0 -0.79320611806E+03 -0.11317191937E+04  0.20704874786E+04  0.24906505454E+04  0.80358329195E+02 0.  0.
    5000000    2    1    2    0    0  0.79320611806E+03  0.11317191937E+04 -0.14253460744E+04  0.20740150006E+04  0.59996875921E+03 0.  0.
        -24    2    4    4    0    0  0.15611897588E+03  0.71524472494E+03 -0.62936758223E+03  0.96877844112E+03  0.80498218840E+02 0.  0.
         24    2    4    4    0    0  0.63708714218E+03  0.41647446872E+03 -0.79597849213E+03  0.11052365595E+04  0.92925145498E+02 0.  0.
         11    1    3    3    0    0 -0.68717531189E+03 -0.93560206683E+03  0.17623654524E+04  0.21103300984E+04  0.00000000000E+00 0. -1.
        -12    1    3    3    0    0 -0.10603080617E+03 -0.19611712683E+03  0.30812202624E+03  0.38032044692E+03  0.00000000000E+00 0.  1.
         15    1    5    5    0    0  0.11976406234E+03  0.61623806877E+03 -0.56893925344E+03  0.84722359496E+03  0.17770000000E+01 0. -1.
        -16    1    5    5    0    0  0.36354913540E+02  0.99006656164E+02 -0.60428328795E+02  0.12155484616E+03  0.00000000000E+00 0.  1.
          2    1    6    6  502    0  0.43242922266E+03  0.24316762121E+03 -0.55847818356E+03  0.74700964259E+03  0.00000000000E+00 0. -1.
         -1    1    6    6    0  502  0.20465791952E+03  0.17330684751E+03 -0.23750030858E+03  0.35822691690E+03  0.00000000000E+00 0.  1.
<mgrwt>
<rscale>  0 0.14406603E+04</rscale>
<asrwt>0</asrwt>
<pdfrwt beam="1">  1        3 0.40075438E+00 0.14406603E+04</pdfrwt>
<pdfrwt beam="2">  1       -4 0.30150186E+00 0.14406603E+04</pdfrwt>
<totfact> 0.69614752E-04</totfact>
</mgrwt>
</event>
<event>
12    3  0.1201947E-007  0.3007021E+03  0.7818608E-02  0.1084890E+00
          1   -1    0    0  501    0  0.00000000000E+00  0.00000000000E+00  0.24805170774E+03  0.24805170774E+03  0.00000000000E+00 0. -1.
         -2   -1    0    0    0  501 -0.00000000000E+00 -0.00000000000E+00 -0.63154093875E+03  0.63154093875E+03  0.00000000000E+00 0.  1.
        -24    2    1    2    0    0  0.11983708967E+03 -0.93956210143E+02 -0.32891231006E+02  0.16816696064E+03  0.63321371492E+02 0.  0.
    5000000    2    1    2    0    0 -0.11983708967E+03  0.93956210143E+02 -0.35059800001E+03  0.71142568585E+03  0.60001570929E+03 0.  0.
        -24    2    4    4    0    0 -0.25657981546E+03  0.13023216681E+03 -0.43653009851E+03  0.52896108261E+03  0.80297453460E+02 0.  0.
         24    2    4    4    0    0  0.13674272579E+03 -0.36275956669E+02  0.85932098496E+02  0.18246460325E+03  0.76775567701E+02 0.  0.
         11    1    3    3    0    0  0.26510786060E+02 -0.41520749494E+02 -0.36095342515E+02  0.61071009221E+02  0.00000000000E+00 0. -1.
        -12    1    3    3    0    0  0.93326303611E+02 -0.52435460650E+02  0.32041115083E+01  0.10709595142E+03  0.00000000000E+00 0.  1.
         15    1    5    5    0    0 -0.77907668435E+02  0.78013550870E+02 -0.19506749462E+03  0.22407633544E+03  0.17770000000E+01 0. -1.
        -16    1    5    5    0    0 -0.17867214703E+03  0.52218615943E+02 -0.24146260389E+03  0.30488474716E+03  0.00000000000E+00 0.  1.
          2    1    6    6  502    0  0.56181472054E+02  0.80082584790E+01  0.18222276289E+00  0.56749653841E+02  0.00000000000E+00 0. -1.
         -1    1    6    6    0  502  0.80561253740E+02 -0.44284215148E+02  0.85749875733E+02  0.12571494940E+03  0.00000000000E+00 0.  1.
<mgrwt>
<rscale>  0 0.30070206E+03</rscale>
<asrwt>0</asrwt>
<pdfrwt beam="1">  1        1 0.38161801E-01 0.30070206E+03</pdfrwt>
<pdfrwt beam="2">  1       -2 0.97160146E-01 0.30070206E+03</pdfrwt>
<totfact> 0.90372532E+01</totfact>
</mgrwt>
</event>
<event>
12    3  0.1201947E-007  0.5440263E+03  0.7818608E-02  0.1002886E+00
         -2   -1    0    0    0  501 -0.00000000000E+00  0.00000000000E+00  0.46924307223E+03  0.46924307223E+03  0.00000000000E+00 0.  1.
          1   -1    0    0  501    0  0.00000000000E+00 -0.00000000000E+00 -0.10116159919E+04  0.10116159919E+04  0.00000000000E+00 0. -1.
        -24    2    1    2    0    0  0.53720906219E+03  0.17960580637E+02 -0.37037079834E+03  0.65718550833E+03  0.76171550758E+02 0.  0.
    5000000    2    1    2    0    0 -0.53720906219E+03 -0.17960580637E+02 -0.17200212130E+03  0.82367355576E+03  0.59994769586E+03 0.  0.
        -24    2    4    4    0    0 -0.29557275922E+03 -0.78622722087E+01  0.20405132406E+03  0.36941041664E+03  0.86035119316E+02 0.  0.
         24    2    4    4    0    0 -0.24163630298E+03 -0.10098308428E+02 -0.37605344535E+03  0.45426313912E+03  0.80303966587E+02 0.  0.
         13    1    3    3    0    0  0.22972560116E+03  0.59265351472E+01 -0.11329082377E+03  0.25621043382E+03  0.00000000000E+00 0. -1.
        -14    1    3    3    0    0  0.30748346103E+03  0.12034045490E+02 -0.25707997456E+03  0.40097507451E+03  0.00000000000E+00 0.  1.
         15    1    5    5    0    0 -0.62491398099E+02  0.33907622380E+02  0.45133647955E+02  0.84232449796E+02  0.17770000000E+01 0. -1.
        -16    1    5    5    0    0 -0.23308136112E+03 -0.41769894589E+02  0.15891767610E+03  0.28517796684E+03  0.00000000000E+00 0.  1.
          4    1    6    6  502    0 -0.11478787936E+03  0.48543777786E+01 -0.24839559407E+03  0.27367899697E+03  0.00000000000E+00 0. -1.
         -3    1    6    6    0  502 -0.12684842362E+03 -0.14952686207E+02 -0.12765785128E+03  0.18058414214E+03  0.00000000000E+00 0.  1.
<mgrwt>
<rscale>  0 0.54402631E+03</rscale>
<asrwt>0</asrwt>
<pdfrwt beam="1">  1        1 0.15563323E+00 0.54402631E+03</pdfrwt>
<pdfrwt beam="2">  1       -2 0.72191243E-01 0.54402631E+03</pdfrwt>
<totfact> 0.23680103E+01</totfact>
</mgrwt>
</event>
<event>
12    3  0.1201947E-007  0.9140147E+03  0.7818608E-02  0.9408230E-01
         -2   -1    0    0    0  501 -0.00000000000E+00  0.00000000000E+00  0.23402477469E+03  0.23402477469E+03  0.00000000000E+00 0.  1.
          1   -1    0    0  501    0  0.00000000000E+00 -0.00000000000E+00 -0.39978516901E+04  0.39978516901E+04  0.00000000000E+00 0. -1.
        -24    2    1    2    0    0  0.12286970254E+03 -0.81840973239E+03 -0.11016464574E+04  0.13801981451E+04  0.80190701910E+02 0.  0.
    5000000    2    1    2    0    0 -0.12286970254E+03  0.81840973239E+03 -0.26621804580E+04  0.28516783197E+04  0.59997749486E+03 0.  0.
        -24    2    4    4    0    0  0.20609820337E+02 -0.71224390236E+02 -0.21477425206E+03  0.24243479879E+03  0.84551604688E+02 0.  0.
         24    2    4    4    0    0 -0.14347952287E+03  0.88963412262E+03 -0.24474062059E+04  0.26092435209E+04  0.79494459225E+02 0.  0.
         13    1    3    3    0    0  0.11672520635E+03 -0.56478663736E+03 -0.79631530054E+03  0.98322264895E+03  0.00000000000E+00 0. -1.
        -14    1    3    3    0    0  0.61444961846E+01 -0.25362309503E+03 -0.30533115684E+03  0.39697549610E+03  0.00000000000E+00 0.  1.
         15    1    5    5    0    0  0.34591125891E+02 -0.72997016927E+02 -0.10876071964E+03  0.13548860593E+03  0.17770000000E+01 0. -1.
        -16    1    5    5    0    0 -0.13981305555E+02  0.17726266909E+01 -0.10601353243E+03  0.10694619286E+03  0.00000000000E+00 0.  1.
          2    1    6    6  502    0 -0.10850503955E+03  0.78332200947E+03 -0.20840821414E+04  0.22290726965E+04  0.00000000000E+00 0. -1.
         -3    1    6    6    0  502 -0.34974483327E+02  0.10631211315E+03 -0.36332406449E+03  0.38017082440E+03  0.00000000000E+00 0.  1.
<mgrwt>
<rscale>  0 0.91401472E+03</rscale>
<asrwt>0</asrwt>
<pdfrwt beam="1">  1        1 0.61505405E+00 0.91401472E+03</pdfrwt>
<pdfrwt beam="2">  1       -2 0.36003815E-01 0.91401472E+03</pdfrwt>
<totfact> 0.65586016E-01</totfact>
</mgrwt>
</event>
<event>
12    3  0.1201947E-007  0.3825728E+03  0.7818608E-02  0.1049987E+00
         -2   -1    0    0    0  501 -0.00000000000E+00  0.00000000000E+00  0.55792239109E+03  0.55792239109E+03  0.00000000000E+00 0.  1.
          1   -1    0    0  501    0  0.00000000000E+00 -0.00000000000E+00 -0.50411257420E+03  0.50411257420E+03  0.00000000000E+00 0. -1.
        -24    2    1    2    0    0 -0.25880002492E+03 -0.14904050708E+03  0.20869540375E+03  0.37403782333E+03  0.84616760079E+02 0.  0.
    5000000    2    1    2    0    0  0.25880002492E+03  0.14904050708E+03 -0.15488558686E+03  0.68799714195E+03  0.60013331574E+03 0.  0.
        -24    2    4    4    0    0  0.19229486689E+03 -0.73553638708E+02  0.17263622458E+03  0.27914698085E+03  0.75712068283E+02 0.  0.
         24    2    4    4    0    0  0.66505158030E+02  0.22259414579E+03 -0.32752181144E+03  0.40885016110E+03  0.76920917029E+02 0.  0.
         11    1    3    3    0    0 -0.13258482012E+03 -0.11927579906E+03  0.14343694864E+03  0.22886591927E+03  0.00000000000E+00 0. -1.
        -12    1    3    3    0    0 -0.12621520480E+03 -0.29764708024E+02  0.65258455114E+02  0.14517190406E+03  0.00000000000E+00 0.  1.
         15    1    5    5    0    0  0.79211588887E+02  0.43831166895E+01  0.42837899919E+02  0.90177219542E+02  0.17770000000E+01 0. -1.
        -16    1    5    5    0    0  0.11308327800E+03 -0.77936755398E+02  0.12979832466E+03  0.18896976131E+03  0.00000000000E+00 0.  1.
          4    1    6    6  502    0  0.54614116147E+02  0.77248114722E+02 -0.16732071581E+03  0.19221392990E+03  0.00000000000E+00 0. -1.
         -3    1    6    6    0  502  0.11891041882E+02  0.14534603107E+03 -0.16020109563E+03  0.21663623120E+03  0.00000000000E+00 0.  1.
<mgrwt>
<rscale>  0 0.38257282E+03</rscale>
<asrwt>0</asrwt>
<pdfrwt beam="1">  1        1 0.77555781E-01 0.38257282E+03</pdfrwt>
<pdfrwt beam="2">  1       -2 0.85834214E-01 0.38257282E+03</pdfrwt>
<totfact> 0.47577089E+01</totfact>
</mgrwt>
</event>
<event>
12    3  0.1201947E-007  0.1266042E+04  0.7818608E-02  0.9056936E-01
          1   -1    0    0  501    0  0.00000000000E+00  0.00000000000E+00  0.47977194632E+04  0.47977194632E+04  0.00000000000E+00 0. -1.
         -2   -1    0    0    0  501 -0.00000000000E+00 -0.00000000000E+00 -0.37492608610E+03  0.37492608610E+03  0.00000000000E+00 0.  1.
        -24    2    1    2    0    0 -0.14716141536E+02 -0.12071181003E+04  0.13258516712E+04  0.17950180262E+04  0.82803306937E+02 0.  0.
    5000000    2    1    2    0    0  0.14716141536E+02  0.12071181003E+04  0.30969417059E+04  0.33776275231E+04  0.59997423443E+03 0.  0.
        -24    2    4    4    0    0 -0.13362798004E+03  0.33544364607E+02  0.46542371908E+03  0.49135582751E+03  0.76352141424E+02 0.  0.
         24    2    4    4    0    0  0.14834412157E+03  0.11735737357E+04  0.26315179868E+04  0.28862716955E+04  0.79975584648E+02 0.  0.
         13    1    3    3    0    0  0.25497394443E+02 -0.23147475859E+03  0.27981963133E+03  0.36404629797E+03  0.00000000000E+00 0. -1.
        -14    1    3    3    0    0 -0.40213535978E+02 -0.97564334168E+03  0.10460320398E+04  0.14309717282E+04  0.00000000000E+00 0.  1.
         15    1    5    5    0    0 -0.77211206542E+02  0.25982187145E+02  0.38045330895E+03  0.38908163987E+03  0.17770000000E+01 0. -1.
        -16    1    5    5    0    0 -0.56416773495E+02  0.75621774625E+01  0.84970410129E+02  0.10227418764E+03  0.00000000000E+00 0.  1.
          2    1    6    6  502    0  0.24384634526E+02  0.41330687688E+03  0.85683223059E+03  0.95161896590E+03  0.00000000000E+00 0. -1.
         -1    1    6    6    0  502  0.12395948705E+03  0.76026685878E+03  0.17746857562E+04  0.19346527296E+04  0.00000000000E+00 0.  1.
<mgrwt>
<rscale>  0 0.12660423E+04</rscale>
<asrwt>0</asrwt>
<pdfrwt beam="1">  1        1 0.73811064E+00 0.12660423E+04</pdfrwt>
<pdfrwt beam="2">  1       -2 0.57680940E-01 0.12660423E+04</pdfrwt>
<totfact> 0.38824649E-02</totfact>
</mgrwt>
</event>
<event>
12    3  0.1201947E-007  0.1269097E+04  0.7818608E-02  0.9054437E-01
         -2   -1    0    0    0  501 -0.00000000000E+00  0.00000000000E+00  0.13242390013E+04  0.13242390013E+04  0.00000000000E+00 0.  1.
          1   -1    0    0  501    0  0.00000000000E+00 -0.00000000000E+00 -0.12564502272E+04  0.12564502272E+04  0.00000000000E+00 0. -1.
        -24    2    1    2    0    0 -0.93023734361E+03  0.78545306495E+03 -0.23642188205E+02  0.12203073224E+04  0.79454233659E+02 0.  0.
    5000000    2    1    2    0    0  0.93023734361E+03 -0.78545306495E+03  0.91430962314E+02  0.13603819062E+04  0.60000106430E+03 0.  0.
        -24    2    4    4    0    0  0.71722905283E+03 -0.81774695551E+03  0.19606138642E+03  0.11079303473E+04  0.77084303541E+02 0.  0.
         24    2    4    4    0    0  0.21300829079E+03  0.32293890563E+02 -0.10463042411E+03  0.25245155886E+03  0.79804991138E+02 0.  0.
         13    1    3    3    0    0 -0.26050226655E+03  0.17727503881E+03 -0.18146259281E+02  0.31562185759E+03  0.00000000000E+00 0. -1.
        -14    1    3    3    0    0 -0.66973507707E+03  0.60817802614E+03 -0.54959289236E+01  0.90468546477E+03  0.00000000000E+00 0.  1.
         15    1    5    5    0    0  0.91638738631E+02 -0.70685733231E+02  0.28783381378E+02  0.11927184107E+03  0.17770000000E+01 0. -1.
        -16    1    5    5    0    0  0.62559031420E+03 -0.74706122228E+03  0.16727800504E+03  0.98865850627E+03  0.00000000000E+00 0.  1.
          4    1    6    6  502    0  0.21931212340E+03  0.29182811701E+02 -0.10593932931E+03  0.24530100991E+03  0.00000000000E+00 0. -1.
         -3    1    6    6    0  502 -0.63038326177E+01  0.31110788619E+01  0.13089052055E+01  0.71505489435E+01  0.00000000000E+00 0.  1.
<mgrwt>
<rscale>  0 0.12690972E+04</rscale>
<asrwt>0</asrwt>
<pdfrwt beam="1">  1        1 0.19330004E+00 0.12690972E+04</pdfrwt>
<pdfrwt beam="2">  1       -2 0.20372908E+00 0.12690972E+04</pdfrwt>
<totfact> 0.10365764E+00</totfact>
</mgrwt>
</event>
<event>
12    3  0.1201947E-007  0.6664550E+03  0.7818608E-02  0.9776383E-01
          1   -1    0    0  501    0  0.00000000000E+00  0.00000000000E+00  0.25496599696E+03  0.25496599696E+03  0.00000000000E+00 0. -1.
         -2   -1    0    0    0  501 -0.00000000000E+00 -0.00000000000E+00 -0.25605127618E+04  0.25605127618E+04  0.00000000000E+00 0.  1.
        -24    2    1    2    0    0  0.97128320287E+02 -0.59766371277E+03 -0.15868221050E+04  0.17004739630E+04  0.83495399742E+02 0.  0.
    5000000    2    1    2    0    0 -0.97128320287E+02  0.59766371277E+03 -0.71872465982E+03  0.11150047957E+04  0.60002894404E+03 0.  0.
        -24    2    4    4    0    0 -0.75968574638E+02 -0.12916539830E+02 -0.41231284188E+03  0.42711244414E+03  0.80530112536E+02 0.  0.
         24    2    4    4    0    0 -0.21159745649E+02  0.61058025260E+03 -0.30641181794E+03  0.68789235158E+03  0.77792708445E+02 0.  0.
         13    1    3    3    0    0  0.13978432848E+02 -0.16591779956E+03 -0.34418955962E+03  0.38234874885E+03  0.00000000000E+00 0. -1.
        -14    1    3    3    0    0  0.83149887438E+02 -0.43174591322E+03 -0.12426325454E+04  0.13181252141E+04  0.00000000000E+00 0.  1.
         15    1    5    5    0    0 -0.86326486487E+02 -0.29903710020E+02 -0.32866295073E+03  0.34112898888E+03  0.17770000000E+01 0. -1.
        -16    1    5    5    0    0  0.10357911849E+02  0.16987170190E+02 -0.83649891146E+02  0.85983455256E+02  0.00000000000E+00 0.  1.
          4    1    6    6  502    0  0.26908062028E+02  0.15240054268E+03 -0.88275918696E+02  0.17816455044E+03  0.00000000000E+00 0. -1.
         -3    1    6    6    0  502 -0.48067807677E+02  0.45817970992E+03 -0.21813589924E+03  0.50972780114E+03  0.00000000000E+00 0.  1.
<mgrwt>
<rscale>  0 0.66645496E+03</rscale>
<asrwt>0</asrwt>
<pdfrwt beam="1">  1        1 0.39225536E-01 0.66645496E+03</pdfrwt>
<pdfrwt beam="2">  1       -2 0.39392506E+00 0.66645496E+03</pdfrwt>
<totfact> 0.83230674E-01</totfact>
</mgrwt>
</event>
<event>
12    3  0.1201947E-007  0.6060607E+03  0.7818608E-02  0.9892911E-01
         -4   -1    0    0    0  501 -0.00000000000E+00  0.00000000000E+00  0.38782363387E+03  0.38782363387E+03  0.00000000000E+00 0.  1.
          1   -1    0    0  501    0  0.00000000000E+00 -0.00000000000E+00 -0.10992282386E+04  0.10992282386E+04  0.00000000000E+00 0. -1.
        -24    2    1    2    0    0  0.11793214876E+02 -0.50666807143E+03 -0.35840239422E+03  0.62561519399E+03  0.78041528990E+02 0.  0.
    5000000    2    1    2    0    0 -0.11793214876E+02  0.50666807143E+03 -0.35300221048E+03  0.86143667844E+03  0.60050893069E+03 0.  0.
        -24    2    4    4    0    0 -0.35829668573E+02 -0.84893141414E+02 -0.21445314381E+03  0.24791117729E+03  0.83541548481E+02 0.  0.
         24    2    4    4    0    0  0.24036453697E+02  0.59156121284E+03 -0.13854906667E+03  0.61352550116E+03  0.81824672648E+02 0.  0.
         11    1    3    3    0    0 -0.52543962769E+01 -0.28594000621E+03 -0.24647740355E+03  0.37754523741E+03  0.00000000000E+00 0. -1.
        -12    1    3    3    0    0  0.17047611152E+02 -0.22072806521E+03 -0.11192499067E+03  0.24806995657E+03  0.00000000000E+00 0.  1.
         15    1    5    5    0    0 -0.21074214290E+02 -0.92108455889E+02 -0.12362439971E+03  0.15560925450E+03  0.17770000000E+01 0. -1.
        -16    1    5    5    0    0 -0.14755454282E+02  0.72153144744E+01 -0.90828744106E+02  0.92301922785E+02  0.00000000000E+00 0.  1.
          2    1    6    6  502    0 -0.11105305798E+02  0.29046718051E+03 -0.33041179526E+02  0.29255124391E+03  0.00000000000E+00 0. -1.
         -1    1    6    6    0  502  0.35141759495E+02  0.30109403233E+03 -0.10550788714E+03  0.32097425725E+03  0.00000000000E+00 0.  1.
<mgrwt>
<rscale>  0 0.60606066E+03</rscale>
<asrwt>0</asrwt>
<pdfrwt beam="1">  1        1 0.16911204E+00 0.60606066E+03</pdfrwt>
<pdfrwt beam="2">  1       -4 0.59665175E-01 0.60606066E+03</pdfrwt>
<totfact> 0.16644648E+01</totfact>
</mgrwt>
</event>
<event>
12    3  0.1201947E-007  0.1170620E+04  0.7818608E-02  0.9138969E-01
          1   -1    0    0  501    0  0.00000000000E+00  0.00000000000E+00  0.93283724035E+03  0.93283724035E+03  0.00000000000E+00 0. -1.
         -2   -1    0    0    0  501 -0.00000000000E+00 -0.00000000000E+00 -0.19726113610E+04  0.19726113610E+04  0.00000000000E+00 0.  1.
        -24    2    1    2    0    0 -0.18572828118E+03 -0.10782545153E+04  0.23476433702E+03  0.11217109201E+04  0.77416407812E+02 0.  0.
    5000000    2    1    2    0    0  0.18572828118E+03  0.10782545153E+04 -0.12745384577E+04  0.17837376813E+04  0.60012002242E+03 0.  0.
        -24    2    4    4    0    0  0.33735291184E+03  0.32573360167E+03 -0.50796593218E+03  0.69586692751E+03  0.79322292943E+02 0.  0.
         24    2    4    4    0    0 -0.15162463066E+03  0.75252091360E+03 -0.76657252552E+03  0.10878707538E+04  0.80941867990E+02 0.  0.
         11    1    3    3    0    0 -0.13968784552E+03 -0.60533957427E+03  0.11673436829E+03  0.63211993095E+03  0.00000000000E+00 0. -1.
        -12    1    3    3    0    0 -0.46040435665E+02 -0.47291494100E+03  0.11802996873E+03  0.48959098915E+03  0.00000000000E+00 0.  1.
         15    1    5    5    0    0  0.15711448461E+03  0.20651914167E+03 -0.27459669424E+03  0.37781161889E+03  0.17770000000E+01 0. -1.
        -16    1    5    5    0    0  0.18023842723E+03  0.11921446000E+03 -0.23336923794E+03  0.31805530862E+03  0.00000000000E+00 0.  1.
          2    1    6    6  502    0 -0.71142556179E+02  0.47480311419E+03 -0.43413172731E+03  0.64727862409E+03  0.00000000000E+00 0. -1.
         -1    1    6    6    0  502 -0.80482074478E+02  0.27771779941E+03 -0.33244079821E+03  0.44059212968E+03  0.00000000000E+00 0.  1.
<mgrwt>
<rscale>  0 0.11706198E+04</rscale>
<asrwt>0</asrwt>
<pdfrwt beam="1">  1        1 0.14351342E+00 0.11706198E+04</pdfrwt>
<pdfrwt beam="2">  1       -2 0.30347866E+00 0.11706198E+04</pdfrwt>
<totfact> 0.44734926E-01</totfact>
</mgrwt>
</event>
<event>
12    3  0.1201947E-007  0.1099058E+04  0.7818608E-02  0.9206110E-01
          1   -1    0    0  501    0  0.00000000000E+00  0.00000000000E+00  0.15094932880E+04  0.15094932880E+04  0.00000000000E+00 0. -1.
         -2   -1    0    0    0  501 -0.00000000000E+00 -0.00000000000E+00 -0.86481651567E+03  0.86481651567E+03  0.00000000000E+00 0.  1.
        -24    2    1    2    0    0 -0.96447610228E+03  0.44076184752E+03  0.23664285769E+03  0.10894195848E+04  0.79687085096E+02 0.  0.
    5000000    2    1    2    0    0  0.96447610228E+03 -0.44076184752E+03  0.40803391468E+03  0.12848902189E+04  0.59997170022E+03 0.  0.
        -24    2    4    4    0    0  0.72634648800E+03 -0.51221155275E+03  0.12486450174E+03  0.90102684451E+03  0.79487957167E+02 0.  0.
         24    2    4    4    0    0  0.23812961428E+03  0.71449705234E+02  0.28316941294E+03  0.38386337442E+03  0.73180599997E+02 0.  0.
         13    1    3    3    0    0 -0.20433097424E+03  0.92173839572E+02  0.83765422259E+02  0.23929857856E+03  0.00000000000E+00 0. -1.
        -14    1    3    3    0    0 -0.76014512805E+03  0.34858800794E+03  0.15287743543E+03  0.85012100623E+03  0.00000000000E+00 0.  1.
         15    1    5    5    0    0  0.23918777556E+03 -0.17046938959E+03  0.37161218652E+01  0.29374746306E+03  0.17770000000E+01 0. -1.
        -16    1    5    5    0    0  0.48715871244E+03 -0.34174216316E+03  0.12114837987E+03  0.60727938145E+03  0.00000000000E+00 0.  1.
          4    1    6    6  502    0  0.44424371445E+02  0.85721959942E+01  0.10080051175E+03  0.11048868942E+03  0.00000000000E+00 0. -1.
         -3    1    6    6    0  502  0.19370524284E+03  0.62877509240E+02  0.18236890120E+03  0.27337468499E+03  0.00000000000E+00 0.  1.
<mgrwt>
<rscale>  0 0.10990580E+04</rscale>
<asrwt>0</asrwt>
<pdfrwt beam="1">  1        1 0.23222974E+00 0.10990580E+04</pdfrwt>
<pdfrwt beam="2">  1       -2 0.13304869E+00 0.10990580E+04</pdfrwt>
<totfact> 0.22855906E+00</totfact>
</mgrwt>
</event>
<event>
12    3  0.1201947E-007  0.1613506E+04  0.7818608E-02  0.8812293E-01
         -2   -1    0    0    0  501 -0.00000000000E+00  0.00000000000E+00  0.15108327585E+04  0.15108327585E+04  0.00000000000E+00 0.  1.
          1   -1    0    0  501    0  0.00000000000E+00 -0.00000000000E+00 -0.17784190834E+04  0.17784190834E+04  0.00000000000E+00 0. -1.
        -24    2    1    2    0    0 -0.40807250371E+03  0.15293351678E+04 -0.93569242660E+02  0.15875911871E+04  0.79381046582E+02 0.  0.
    5000000    2    1    2    0    0  0.40807250371E+03 -0.15293351678E+04 -0.17401708225E+03  0.17016606548E+04  0.59998151249E+03 0.  0.
        -24    2    4    4    0    0  0.47607299942E+03 -0.14034711957E+04 -0.30953804900E+02  0.14834740256E+04  0.57966790702E+02 0.  0.
         24    2    4    4    0    0 -0.68000495712E+02 -0.12586397214E+03 -0.14306327735E+03  0.21818662915E+03  0.81685353113E+02 0.  0.
         13    1    3    3    0    0 -0.14643755086E+03  0.43264672056E+03 -0.70609899001E+01  0.45681177600E+03  0.00000000000E+00 0. -1.
        -14    1    3    3    0    0 -0.26163495285E+03  0.10966884472E+04 -0.86508252760E+02  0.11307794111E+04  0.00000000000E+00 0.  1.
         15    1    5    5    0    0  0.37837470424E+03 -0.10795723245E+04 -0.45296253879E+02  0.11448575147E+04  0.17770000000E+01 0. -1.
        -16    1    5    5    0    0  0.97698295178E+02 -0.32389887117E+03  0.14342448979E+02  0.33861651092E+03  0.00000000000E+00 0.  1.
          4    1    6    6  502    0  0.85176753809E+01 -0.56813292844E+02 -0.75807199567E+02  0.95115890071E+02  0.00000000000E+00 0. -1.
         -3    1    6    6    0  502 -0.76518171093E+02 -0.69050679293E+02 -0.67256077786E+02  0.12307073908E+03  0.00000000000E+00 0.  1.
<mgrwt>
<rscale>  0 0.16135064E+04</rscale>
<asrwt>0</asrwt>
<pdfrwt beam="1">  1        1 0.27360294E+00 0.16135064E+04</pdfrwt>
<pdfrwt beam="2">  1       -2 0.23243581E+00 0.16135064E+04</pdfrwt>
<totfact> 0.28374659E-01</totfact>
</mgrwt>
</event>
<event>
12    3  0.1201947E-007  0.1237730E+04  0.7818608E-02  0.9080457E-01
         -2   -1    0    0    0  501 -0.00000000000E+00  0.00000000000E+00  0.20660134724E+04  0.20660134724E+04  0.00000000000E+00 0.  1.
          1   -1    0    0  501    0  0.00000000000E+00 -0.00000000000E+00 -0.82978316685E+03  0.82978316685E+03  0.00000000000E+00 0. -1.
        -24    2    1    2    0    0  0.99825422401E+03  0.69272240978E+03  0.31736795915E+03  0.12584017976E+04  0.80478754630E+02 0.  0.
    5000000    2    1    2    0    0 -0.99825422401E+03 -0.69272240978E+03  0.91886234645E+03  0.16373948417E+04  0.60031493662E+03 0.  0.
        -24    2    4    4    0    0 -0.44098592192E+03 -0.12975773934E+03  0.66922826550E+02  0.47138390044E+03  0.80115308371E+02 0.  0.
         24    2    4    4    0    0 -0.55726830209E+03 -0.56296467044E+03  0.85193951990E+03  0.11660109413E+04  0.79393884378E+02 0.  0.
         13    1    3    3    0    0  0.73411870112E+03  0.47119028390E+03  0.20870238200E+03  0.89694327314E+03  0.00000000000E+00 0. -1.
        -14    1    3    3    0    0  0.26413552289E+03  0.22153212588E+03  0.10866557715E+03  0.36145852446E+03  0.00000000000E+00 0.  1.
         15    1    5    5    0    0 -0.42782002341E+03 -0.10879925105E+03  0.58832392360E+02  0.44534442579E+03  0.17770000000E+01 0. -1.
        -16    1    5    5    0    0 -0.13165898510E+02 -0.20958488294E+02  0.80904341903E+01  0.26039474659E+02  0.00000000000E+00 0.  1.
          4    1    6    6  502    0 -0.39840019015E+03 -0.40927379749E+03  0.66413499872E+03  0.87595836051E+03  0.00000000000E+00 0. -1.
         -3    1    6    6    0  502 -0.15886811194E+03 -0.15369087295E+03  0.18780452118E+03  0.29005258074E+03  0.00000000000E+00 0.  1.
<mgrwt>
<rscale>  0 0.12377304E+04</rscale>
<asrwt>0</asrwt>
<pdfrwt beam="1">  1        1 0.12765895E+00 0.12377304E+04</pdfrwt>
<pdfrwt beam="2">  1       -2 0.31784823E+00 0.12377304E+04</pdfrwt>
<totfact> 0.44178181E-01</totfact>
</mgrwt>
</event>
<event>
12    3  0.1201947E-007  0.4047879E+03  0.7818608E-02  0.1042134E+00
          3   -1    0    0  501    0  0.00000000000E+00  0.00000000000E+00  0.17399560675E+03  0.17399560675E+03  0.00000000000E+00 0. -1.
         -4   -1    0    0    0  501 -0.00000000000E+00 -0.00000000000E+00 -0.19571731047E+04  0.19571731047E+04  0.00000000000E+00 0.  1.
        -24    2    1    2    0    0  0.16222944387E+03 -0.34960147650E+03 -0.98540478032E+03  0.10612120210E+04  0.81294449883E+02 0.  0.
    5000000    2    1    2    0    0 -0.16222944387E+03  0.34960147650E+03 -0.79777271760E+03  0.10699566904E+04  0.59985533724E+03 0.  0.
        -24    2    4    4    0    0 -0.24774596835E+02  0.83481835546E+02  0.82196962652E+02  0.13696194097E+03  0.66477327644E+02 0.  0.
         24    2    4    4    0    0 -0.13745484703E+03  0.26611964095E+03 -0.87996968025E+03  0.93299474946E+03  0.80119074367E+02 0.  0.
         11    1    3    3    0    0  0.10611469628E+03 -0.14522594762E+03 -0.39843765450E+03  0.43715382779E+03  0.00000000000E+00 0. -1.
        -12    1    3    3    0    0  0.56114747587E+02 -0.20437552888E+03 -0.58696712582E+03  0.62405819320E+03  0.00000000000E+00 0.  1.
         15    1    5    5    0    0 -0.26831044887E+02  0.93606277152E+02  0.65643096521E+02  0.11744877156E+03  0.17770000000E+01 0. -1.
        -16    1    5    5    0    0  0.20564480519E+01 -0.10124441606E+02  0.16553866131E+02  0.19513169407E+02  0.00000000000E+00 0.  1.
          4    1    6    6  502    0 -0.58273904126E+02  0.19533527122E+03 -0.57673307022E+03  0.61169661629E+03  0.00000000000E+00 0. -1.
         -3    1    6    6    0  502 -0.79180942907E+02  0.70784369731E+02 -0.30323661003E+03  0.32129813317E+03  0.00000000000E+00 0.  1.
<mgrwt>
<rscale>  0 0.40478794E+03</rscale>
<asrwt>0</asrwt>
<pdfrwt beam="1">  1        3 0.26768556E-01 0.40478794E+03</pdfrwt>
<pdfrwt beam="2">  1       -4 0.30110354E+00 0.40478794E+03</pdfrwt>
<totfact> 0.98212729E-01</totfact>
</mgrwt>
</event>
<event>
12    3  0.1201947E-007  0.1432375E+04  0.7818608E-02  0.8930712E-01
         -2   -1    0    0    0  501 -0.00000000000E+00  0.00000000000E+00  0.80180774108E+03  0.80180774108E+03  0.00000000000E+00 0.  1.
          1   -1    0    0  501    0  0.00000000000E+00 -0.00000000000E+00 -0.26971475054E+04  0.26971475054E+04  0.00000000000E+00 0. -1.
        -24    2    1    2    0    0  0.63156130755E+03 -0.12309956897E+04 -0.59567577165E+03  0.15080813637E+04  0.72523799370E+02 0.  0.
    5000000    2    1    2    0    0 -0.63156130755E+03  0.12309956897E+04 -0.12996639926E+04  0.19908738828E+04  0.60019351055E+03 0.  0.
        -24    2    4    4    0    0 -0.69095038407E+02  0.69239791871E+03 -0.79475512711E+03  0.10593518294E+04  0.80009900687E+02 0.  0.
         24    2    4    4    0    0 -0.56246626914E+03  0.53859777094E+03 -0.50490886553E+03  0.93152205336E+03  0.79652436295E+02 0.  0.
         13    1    3    3    0    0  0.80280378622E+02 -0.21256069546E+03 -0.10649114485E+03  0.25093296391E+03  0.00000000000E+00 0. -1.
        -14    1    3    3    0    0  0.55128092893E+03 -0.10184349942E+04 -0.48918462680E+03  0.12571483998E+04  0.00000000000E+00 0.  1.
         15    1    5    5    0    0 -0.39821998359E+02  0.18681007246E+03 -0.17566953284E+03  0.25951249916E+03  0.17770000000E+01 0. -1.
        -16    1    5    5    0    0 -0.29273040048E+02  0.50558784625E+03 -0.61908559427E+03  0.79983933023E+03  0.00000000000E+00 0.  1.
          2    1    6    6  502    0 -0.53302169537E+03  0.48396751875E+03 -0.47581179425E+03  0.86297946122E+03  0.00000000000E+00 0. -1.
         -1    1    6    6    0  502 -0.29444573770E+02  0.54630252199E+02 -0.29097071284E+02  0.68542592139E+02  0.00000000000E+00 0.  1.
<mgrwt>
<rscale>  0 0.14323748E+04</rscale>
<asrwt>0</asrwt>
<pdfrwt beam="1">  1        1 0.41494576E+00 0.14323748E+04</pdfrwt>
<pdfrwt beam="2">  1       -2 0.12335504E+00 0.14323748E+04</pdfrwt>
<totfact> 0.41099838E-01</totfact>
</mgrwt>
</event>
<event>
12    3  0.1201947E-007  0.6856444E+03  0.7818608E-02  0.9742102E-01
          1   -1    0    0  501    0  0.00000000000E+00  0.00000000000E+00  0.11475348136E+04  0.11475348136E+04  0.00000000000E+00 0. -1.
         -2   -1    0    0    0  501 -0.00000000000E+00 -0.00000000000E+00 -0.48794351580E+03  0.48794351580E+03  0.00000000000E+00 0.  1.
        -24    2    1    2    0    0  0.20069980406E+03 -0.55954609839E+03  0.67315787289E+02  0.60389855334E+03  0.82400242327E+02 0.  0.
    5000000    2    1    2    0    0 -0.20069980406E+03  0.55954609839E+03  0.59227551051E+03  0.10315797761E+04  0.59999525536E+03 0.  0.
        -24    2    4    4    0    0 -0.19887783300E+03  0.64620905697E+03  0.35429553311E+03  0.76744727352E+03  0.79444666775E+02 0.  0.
         24    2    4    4    0    0 -0.18219710557E+01 -0.86662958579E+02  0.23797997741E+03  0.26413250255E+03  0.74951459547E+02 0.  0.
         11    1    3    3    0    0  0.11974286306E+03 -0.41094974681E+03  0.74746066801E+02  0.43451699870E+03  0.00000000000E+00 0. -1.
        -12    1    3    3    0    0  0.80956940997E+02 -0.14859635158E+03 -0.74302795122E+01  0.16938155464E+03  0.00000000000E+00 0.  1.
         15    1    5    5    0    0 -0.99741366072E+02  0.20908601271E+03  0.10234323637E+03  0.25326388723E+03  0.17770000000E+01 0. -1.
        -16    1    5    5    0    0 -0.99136466928E+02  0.43712304427E+03  0.25195229674E+03  0.51418338629E+03  0.00000000000E+00 0.  1.
          4    1    6    6  502    0 -0.19282075620E+02 -0.47414035332E+02  0.20111253568E+03  0.20752383283E+03  0.00000000000E+00 0. -1.
         -3    1    6    6    0  502  0.17460104565E+02 -0.39248923247E+02  0.36867441729E+02  0.56608669717E+02  0.00000000000E+00 0.  1.
<mgrwt>
<rscale>  0 0.68564442E+03</rscale>
<asrwt>0</asrwt>
<pdfrwt beam="1">  1        1 0.17654382E+00 0.68564442E+03</pdfrwt>
<pdfrwt beam="2">  1       -2 0.75068234E-01 0.68564442E+03</pdfrwt>
<totfact> 0.16874230E+01</totfact>
</mgrwt>
</event>
<event>
12    3  0.1201947E-007  0.2131487E+04  0.7818608E-02  0.8547499E-01
         -2   -1    0    0    0  501 -0.00000000000E+00  0.00000000000E+00  0.15952942319E+04  0.15952942319E+04  0.00000000000E+00 0.  1.
          1   -1    0    0  501    0  0.00000000000E+00 -0.00000000000E+00 -0.29257073705E+04  0.29257073705E+04  0.00000000000E+00 0. -1.
        -24    2    1    2    0    0  0.21516060024E+03  0.20913001097E+04 -0.92033079380E+03  0.22965940133E+04  0.86631746059E+02 0.  0.
    5000000    2    1    2    0    0 -0.21516060024E+03 -0.20913001097E+04 -0.41008234484E+03  0.22244075891E+04  0.59999280021E+03 0.  0.
        -24    2    4    4    0    0  0.15431526754E+03 -0.83860330949E+03 -0.11358872466E+02  0.85672548934E+03  0.82345780826E+02 0.  0.
         24    2    4    4    0    0 -0.36947586778E+03 -0.12526968002E+04 -0.39872347237E+03  0.13676820998E+04  0.76237973054E+02 0.  0.
         13    1    3    3    0    0  0.12139732482E+03  0.77180795214E+03 -0.33884622281E+03  0.85161117194E+03  0.00000000000E+00 0. -1.
        -14    1    3    3    0    0  0.93763275424E+02  0.13194921575E+04 -0.58148457099E+03  0.14449828414E+04  0.00000000000E+00 0.  1.
         15    1    5    5    0    0  0.50059219219E+02 -0.29623885026E+03 -0.43103277269E+02  0.30352006864E+03  0.17770000000E+01 0. -1.
        -16    1    5    5    0    0  0.10425604832E+03 -0.54236445923E+03  0.31744404803E+02  0.55320542070E+03  0.00000000000E+00 0.  1.
          2    1    6    6  502    0 -0.14180974139E+03 -0.45755296105E+03 -0.18420140051E+03  0.51322009983E+03  0.00000000000E+00 0. -1.
         -1    1    6    6    0  502 -0.22766612639E+03 -0.79514383914E+03 -0.21452207186E+03  0.85446199994E+03  0.00000000000E+00 0.  1.
<mgrwt>
<rscale>  0 0.21314867E+04</rscale>
<asrwt>0</asrwt>
<pdfrwt beam="1">  1        1 0.45010882E+00 0.21314867E+04</pdfrwt>
<pdfrwt beam="2">  1       -2 0.24542988E+00 0.21314867E+04</pdfrwt>
<totfact> 0.35711267E-02</totfact>
</mgrwt>
</event>
<event>
12    3  0.1201947E-007  0.3971118E+03  0.7818608E-02  0.1044784E+00
          1   -1    0    0  501    0  0.00000000000E+00  0.00000000000E+00  0.11530089117E+04  0.11530089117E+04  0.00000000000E+00 0. -1.
         -2   -1    0    0    0  501 -0.00000000000E+00 -0.00000000000E+00 -0.35384274861E+03  0.35384274861E+03  0.00000000000E+00 0.  1.
        -24    2    1    2    0    0  0.36976093037E+03 -0.34976616295E+02 -0.67954963553E+02  0.38881804392E+03  0.92817481616E+02 0.  0.
    5000000    2    1    2    0    0 -0.36976093037E+03  0.34976616295E+02  0.86712112667E+03  0.11180336164E+04  0.60012799454E+03 0.  0.
        -24    2    4    4    0    0 -0.23975381721E+03 -0.32797764205E+02  0.91271404344E+03  0.94741027565E+03  0.77341574272E+02 0.  0.
         24    2    4    4    0    0 -0.13000711316E+03  0.67774380501E+02 -0.45592916766E+02  0.17062334078E+03  0.74420388580E+02 0.  0.
         11    1    3    3    0    0  0.17006731354E+03 -0.61432743893E+02 -0.21539088898E+02  0.18210108596E+03  0.00000000000E+00 0. -1.
        -12    1    3    3    0    0  0.19969361682E+03  0.26456127598E+02 -0.46415874655E+02  0.20671695796E+03  0.00000000000E+00 0.  1.
         15    1    5    5    0    0 -0.36539034165E+02  0.22408297700E+02  0.17955702591E+03  0.18461071503E+03  0.17770000000E+01 0. -1.
        -16    1    5    5    0    0 -0.20321478304E+03 -0.55206061906E+02  0.73315701753E+03  0.76279956062E+03  0.00000000000E+00 0.  1.
          2    1    6    6  502    0 -0.50934331933E+02 -0.47913182932E+01 -0.36641446929E+02  0.62927406855E+02  0.00000000000E+00 0. -1.
         -1    1    6    6    0  502 -0.79072781225E+02  0.72565698794E+02 -0.89514698372E+01  0.10769593393E+03  0.00000000000E+00 0.  1.
<mgrwt>
<rscale>  0 0.39711178E+03</rscale>
<asrwt>0</asrwt>
<pdfrwt beam="1">  1        1 0.17738598E+00 0.39711178E+03</pdfrwt>
<pdfrwt beam="2">  1       -2 0.54437346E-01 0.39711178E+03</pdfrwt>
<totfact> 0.34652383E+01</totfact>
</mgrwt>
</event>
<event>
12    3  0.1201947E-007  0.8341778E+03  0.7818608E-02  0.9511822E-01
         -2   -1    0    0    0  501 -0.00000000000E+00  0.00000000000E+00  0.99265549137E+03  0.99265549137E+03  0.00000000000E+00 0.  1.
          1   -1    0    0  501    0  0.00000000000E+00 -0.00000000000E+00 -0.74483730080E+03  0.74483730080E+03  0.00000000000E+00 0. -1.
        -24    2    1    2    0    0  0.49178306273E+03 -0.55183684134E+03  0.25425742612E+03  0.78574906592E+03  0.79876627373E+02 0.  0.
    5000000    2    1    2    0    0 -0.49178306273E+03  0.55183684134E+03 -0.64392355495E+01  0.95174372626E+03  0.59949993867E+03 0.  0.
        -24    2    4    4    0    0 -0.43829890515E+03  0.66088272968E+03  0.44233287596E+02  0.79831242769E+03  0.80462636294E+02 0.  0.
         24    2    4    4    0    0 -0.53484157579E+02 -0.10904588833E+03 -0.50672523145E+02  0.15343129856E+03  0.78879007999E+02 0.  0.
         13    1    3    3    0    0  0.12428104867E+03 -0.17937200782E+03  0.48802832360E+02  0.22361085102E+03  0.00000000000E+00 0. -1.
        -14    1    3    3    0    0  0.36750201406E+03 -0.37246483353E+03  0.20545459376E+03  0.56213821490E+03  0.00000000000E+00 0.  1.
         15    1    5    5    0    0 -0.26890345791E+03  0.41687673486E+03  0.66097924167E+02  0.50046715682E+03  0.17770000000E+01 0. -1.
        -16    1    5    5    0    0 -0.16939544724E+03  0.24400599481E+03 -0.21864636572E+02  0.29784527087E+03  0.00000000000E+00 0.  1.
          4    1    6    6  502    0 -0.65451874645E+02 -0.90395615229E+02 -0.16664622317E+02  0.11284070535E+03  0.00000000000E+00 0. -1.
         -3    1    6    6    0  502  0.11967717066E+02 -0.18650273103E+02 -0.34007900828E+02  0.40590593212E+02  0.00000000000E+00 0.  1.
<mgrwt>
<rscale>  0 0.83417781E+03</rscale>
<asrwt>0</asrwt>
<pdfrwt beam="1">  1        1 0.11459035E+00 0.83417781E+03</pdfrwt>
<pdfrwt beam="2">  1       -2 0.15271623E+00 0.83417781E+03</pdfrwt>
<totfact> 0.62747642E+00</totfact>
</mgrwt>
</event>
<event>
12    3  0.1201947E-007  0.1102417E+04  0.7818608E-02  0.9202839E-01
          1   -1    0    0  501    0  0.00000000000E+00  0.00000000000E+00  0.25183749825E+04  0.25183749825E+04  0.00000000000E+00 0. -1.
         -2   -1    0    0    0  501 -0.00000000000E+00 -0.00000000000E+00 -0.97838361717E+03  0.97838361717E+03  0.00000000000E+00 0.  1.
        -24    2    1    2    0    0 -0.99683421142E+03 -0.22283174296E+03  0.19829549606E+04  0.22321014698E+04  0.82669008526E+02 0.  0.
    5000000    2    1    2    0    0  0.99683421142E+03  0.22283174296E+03 -0.44296359527E+03  0.12646571299E+04  0.59984037766E+03 0.  0.
        -24    2    4    4    0    0  0.99399295147E+02  0.25125230453E+03 -0.10707540792E+03  0.30259883348E+03  0.84219775787E+02 0.  0.
         24    2    4    4    0    0  0.89743491628E+03 -0.28420561571E+02 -0.33588818735E+03  0.96205829639E+03  0.80858728578E+02 0.  0.
         13    1    3    3    0    0 -0.86116830345E+03 -0.20633441261E+03  0.16602931461E+04  0.18816902156E+04  0.00000000000E+00 0. -1.
        -14    1    3    3    0    0 -0.13566590797E+03 -0.16497330349E+02  0.32266181452E+03  0.35041125416E+03  0.00000000000E+00 0.  1.
         15    1    5    5    0    0  0.58164166352E+02  0.50576175034E+02 -0.17819249260E+02  0.79130923801E+02  0.17770000000E+01 0. -1.
        -16    1    5    5    0    0  0.41235128795E+02  0.20067612950E+03 -0.89256158662E+02  0.22346790968E+03  0.00000000000E+00 0.  1.
          4    1    6    6  502    0  0.33362112480E+03 -0.44750166750E+02 -0.10529858526E+03  0.35269451994E+03  0.00000000000E+00 0. -1.
         -3    1    6    6    0  502  0.56381379148E+03  0.16329605179E+02 -0.23058960209E+03  0.60936377646E+03  0.00000000000E+00 0.  1.
<mgrwt>
<rscale>  0 0.11024170E+04</rscale>
<asrwt>0</asrwt>
<pdfrwt beam="1">  1        1 0.38744230E+00 0.11024170E+04</pdfrwt>
<pdfrwt beam="2">  1       -2 0.15052056E+00 0.11024170E+04</pdfrwt>
<totfact> 0.34098840E-01</totfact>
</mgrwt>
</event>
<event>
12    3  0.1201947E-007  0.1286587E+04  0.7818608E-02  0.9040270E-01
          1   -1    0    0  501    0  0.00000000000E+00  0.00000000000E+00  0.29745655985E+04  0.29745655985E+04  0.00000000000E+00 0. -1.
         -2   -1    0    0    0  501 -0.00000000000E+00 -0.00000000000E+00 -0.79413019577E+03  0.79413019577E+03  0.00000000000E+00 0.  1.
        -24    2    1    2    0    0 -0.31284133839E+03 -0.12405979586E+04  0.19548264293E+04  0.23376418171E+04  0.79182689783E+02 0.  0.
    5000000    2    1    2    0    0  0.31284133839E+03  0.12405979586E+04  0.22560897347E+03  0.14310539772E+04  0.60005256360E+03 0.  0.
        -24    2    4    4    0    0  0.15773903642E+02  0.31841863249E+03 -0.18350182788E+03  0.37642502677E+03  0.79897674503E+02 0.  0.
         24    2    4    4    0    0  0.29706743475E+03  0.92217932608E+03  0.40911080135E+03  0.10546289505E+04  0.78783279745E+02 0.  0.
         13    1    3    3    0    0 -0.58758707855E+02 -0.38151718034E+03  0.58839241249E+03  0.70371412926E+03  0.00000000000E+00 0. -1.
        -14    1    3    3    0    0 -0.25408263054E+03 -0.85908077822E+03  0.13664340168E+04  0.16339276878E+04  0.00000000000E+00 0.  1.
         15    1    5    5    0    0 -0.53871876200E+01  0.19221546495E+03 -0.15072325727E+03  0.24432859998E+03  0.17770000000E+01 0. -1.
        -16    1    5    5    0    0  0.21161091262E+02  0.12620316753E+03 -0.32778570614E+02  0.13209642679E+03  0.00000000000E+00 0.  1.
          4    1    6    6  502    0  0.22643306037E+03  0.60269288335E+03  0.29392705164E+03  0.70774554337E+03  0.00000000000E+00 0. -1.
         -1    1    6    6    0  502  0.70634374382E+02  0.31948644273E+03  0.11518374971E+03  0.34688340711E+03  0.00000000000E+00 0.  1.
<mgrwt>
<rscale>  0 0.12865866E+04</rscale>
<asrwt>0</asrwt>
<pdfrwt beam="1">  1        1 0.45762547E+00 0.12865866E+04</pdfrwt>
<pdfrwt beam="2">  1       -2 0.12217388E+00 0.12865866E+04</pdfrwt>
<totfact> 0.27177444E-01</totfact>
</mgrwt>
</event>
<event>
12    3  0.1201947E-007  0.7058886E+03  0.7818608E-02  0.9707215E-01
          1   -1    0    0  501    0  0.00000000000E+00  0.00000000000E+00  0.17523824039E+04  0.17523824039E+04  0.00000000000E+00 0. -1.
         -2   -1    0    0    0  501 -0.00000000000E+00 -0.00000000000E+00 -0.33106677085E+03  0.33106677085E+03  0.00000000000E+00 0.  1.
        -24    2    1    2    0    0  0.54590827774E+03  0.22065987373E+03  0.25704502919E+03  0.64736794895E+03  0.79413391305E+02 0.  0.
    5000000    2    1    2    0    0 -0.54590827774E+03 -0.22065987373E+03  0.11642706039E+04  0.14360812258E+04  0.60008051171E+03 0.  0.
        -24    2    4    4    0    0  0.11795931861E+03 -0.15150043658E+02  0.22142049085E+03  0.26206342987E+03  0.74204331649E+02 0.  0.
         24    2    4    4    0    0 -0.66386759634E+03 -0.20550983007E+03  0.94285011305E+03  0.11740177960E+04  0.79981084365E+02 0.  0.
         13    1    3    3    0    0  0.94153036868E+02  0.27961301389E+02  0.74998264601E+02  0.12357737827E+03  0.00000000000E+00 0. -1.
        -14    1    3    3    0    0  0.45175524087E+03  0.19269857234E+03  0.18204676458E+03  0.52379057068E+03  0.00000000000E+00 0.  1.
         15    1    5    5    0    0  0.80128254441E+02 -0.31327739934E+02  0.90725867533E+02  0.12504521269E+03  0.17770000000E+01 0. -1.
        -16    1    5    5    0    0  0.37831064166E+02  0.16177696276E+02  0.13069462332E+03  0.13701821717E+03  0.00000000000E+00 0.  1.
          2    1    6    6  502    0 -0.54332252372E+03 -0.16023268929E+03  0.81533247630E+03  0.99279450362E+03  0.00000000000E+00 0. -1.
         -1    1    6    6    0  502 -0.12054507262E+03 -0.45277140788E+02  0.12751763675E+03  0.18122329236E+03  0.00000000000E+00 0.  1.
<mgrwt>
<rscale>  0 0.70588863E+03</rscale>
<asrwt>0</asrwt>
<pdfrwt beam="1">  1        1 0.26959729E+00 0.70588863E+03</pdfrwt>
<pdfrwt beam="2">  1       -2 0.50933350E-01 0.70588863E+03</pdfrwt>
<totfact> 0.14629690E+01</totfact>
</mgrwt>
</event>
<event>
12    3  0.1201947E-007  0.1111565E+04  0.7818608E-02  0.9193993E-01
          1   -1    0    0  501    0  0.00000000000E+00  0.00000000000E+00  0.19885785809E+04  0.19885785809E+04  0.00000000000E+00 0. -1.
         -2   -1    0    0    0  501 -0.00000000000E+00 -0.00000000000E+00 -0.85215264728E+03  0.85215264728E+03  0.00000000000E+00 0.  1.
        -24    2    1    2    0    0 -0.10567484251E+03  0.10687054985E+04 -0.11892479662E+03  0.10832309858E+04  0.77120985212E+02 0.  0.
    5000000    2    1    2    0    0  0.10567484251E+03 -0.10687054985E+04  0.12553507302E+04  0.17575002424E+04  0.59966910149E+03 0.  0.
        -24    2    4    4    0    0 -0.14339430802E+03 -0.31756197682E+03  0.70372668135E+03  0.78937502799E+03  0.80462140602E+02 0.  0.
         24    2    4    4    0    0  0.24906915052E+03 -0.75114352170E+03  0.55162404889E+03  0.96812521443E+03  0.82007972616E+02 0.  0.
         13    1    3    3    0    0 -0.65174034521E+02  0.65354993982E+03 -0.34846835046E+02  0.65771534916E+03  0.00000000000E+00 0. -1.
        -14    1    3    3    0    0 -0.40500807984E+02  0.41515555871E+03 -0.84077961574E+02  0.42551563660E+03  0.00000000000E+00 0.  1.
         15    1    5    5    0    0 -0.11926906042E+03 -0.30939882858E+03  0.64140578596E+03  0.72205074884E+03  0.17770000000E+01 0. -1.
        -16    1    5    5    0    0 -0.24125247598E+02 -0.81631482339E+01  0.62320895388E+02  0.67324279147E+02  0.00000000000E+00 0.  1.
          4    1    6    6  502    0  0.15729052123E+03 -0.41876825709E+03  0.26653409399E+03  0.52071833506E+03  0.00000000000E+00 0. -1.
         -3    1    6    6    0  502  0.91778629286E+02 -0.33237526462E+03  0.28508995490E+03  0.44740687937E+03  0.00000000000E+00 0.  1.
<mgrwt>
<rscale>  0 0.11115651E+04</rscale>
<asrwt>0</asrwt>
<pdfrwt beam="1">  1        1 0.30593517E+00 0.11115651E+04</pdfrwt>
<pdfrwt beam="2">  1       -2 0.13110041E+00 0.11115651E+04</pdfrwt>
<totfact> 0.11195561E+00</totfact>
</mgrwt>
</event>
<event>
12    3  0.1201947E-007  0.3785693E+03  0.7818608E-02  0.1051464E+00
          1   -1    0    0  501    0  0.00000000000E+00  0.00000000000E+00  0.93598404453E+03  0.93598404453E+03  0.00000000000E+00 0. -1.
         -2   -1    0    0    0  501 -0.00000000000E+00 -0.00000000000E+00 -0.23748577698E+03  0.23748577698E+03  0.00000000000E+00 0.  1.
        -24    2    1    2    0    0 -0.81947473120E+02  0.20674096480E+03  0.40644057441E+03  0.47007301792E+03  0.79482619275E+02 0.  0.
    5000000    2    1    2    0    0  0.81947473120E+02 -0.20674096480E+03  0.29205769314E+03  0.70339680359E+03  0.60001012683E+03 0.  0.
        -24    2    4    4    0    0  0.17927632039E+03 -0.31474468826E+03  0.15659093941E+01  0.37102728360E+03  0.80340371312E+02 0.  0.
         24    2    4    4    0    0 -0.97328847273E+02  0.10800372346E+03  0.29049178375E+03  0.33236951999E+03  0.70330026312E+02 0.  0.
         11    1    3    3    0    0 -0.68747090324E+02  0.78140217372E+02  0.21775696622E+03  0.24135068332E+03  0.00000000000E+00 0. -1.
        -12    1    3    3    0    0 -0.13200382796E+02  0.12860074743E+03  0.18868360819E+03  0.22872233460E+03  0.00000000000E+00 0.  1.
         15    1    5    5    0    0  0.45568946302E+01 -0.14292160597E+02  0.17479266241E+02  0.23102242760E+02  0.17770000000E+01 0. -1.
        -16    1    5    5    0    0  0.17471942576E+03 -0.30045252767E+03 -0.15913356847E+02  0.34792504084E+03  0.00000000000E+00 0.  1.
          4    1    6    6  502    0 -0.22771697016E+02 -0.72091540971E+01  0.51748421352E+02  0.56994922583E+02  0.00000000000E+00 0. -1.
         -3    1    6    6    0  502 -0.74557150256E+02  0.11521287756E+03  0.23874336240E+03  0.27537459741E+03  0.00000000000E+00 0.  1.
<mgrwt>
<rscale>  0 0.37856932E+03</rscale>
<asrwt>0</asrwt>
<pdfrwt beam="1">  1        1 0.14399754E+00 0.37856932E+03</pdfrwt>
<pdfrwt beam="2">  1       -2 0.36536274E-01 0.37856932E+03</pdfrwt>
<totfact> 0.11083145E+02</totfact>
</mgrwt>
</event>
<event>
12    3  0.1201947E-007  0.6705754E+03  0.7818608E-02  0.9768919E-01
         -2   -1    0    0    0  501 -0.00000000000E+00  0.00000000000E+00  0.73996072978E+03  0.73996072978E+03  0.00000000000E+00 0.  1.
          1   -1    0    0  501    0  0.00000000000E+00 -0.00000000000E+00 -0.64138289516E+03  0.64138289516E+03  0.00000000000E+00 0. -1.
        -24    2    1    2    0    0  0.53426607728E+03  0.11845273930E+03 -0.46227722439E+02  0.55648269245E+03  0.89803629626E+02 0.  0.
    5000000    2    1    2    0    0 -0.53426607728E+03 -0.11845273930E+03  0.14480555706E+03  0.82486093249E+03  0.59996301203E+03 0.  0.
        -24    2    4    4    0    0 -0.64361081999E+03 -0.28059290107E+02  0.98338131188E+02  0.65669370483E+03  0.80956917854E+02 0.  0.
         24    2    4    4    0    0  0.10934474271E+03 -0.90393449197E+02  0.46467425874E+02  0.16816722766E+03  0.77419289426E+02 0.  0.
         11    1    3    3    0    0  0.43502835539E+03  0.59409404231E+02 -0.38474284412E+02  0.44074870149E+03  0.00000000000E+00 0. -1.
        -12    1    3    3    0    0  0.99237721895E+02  0.59043335072E+02 -0.77534380263E+01  0.11573399096E+03  0.00000000000E+00 0.  1.
         15    1    5    5    0    0 -0.41966715760E+03 -0.29782771223E+02  0.10119484515E+03  0.43272519113E+03  0.17770000000E+01 0. -1.
        -16    1    5    5    0    0 -0.22394366239E+03  0.17234811164E+01 -0.28567139604E+01  0.22396851370E+03  0.00000000000E+00 0.  1.
          2    1    6    6  502    0  0.34436277479E+02 -0.25937048117E+02  0.53952837972E+02  0.69061540649E+02  0.00000000000E+00 0. -1.
         -1    1    6    6    0  502  0.74908465230E+02 -0.64456401080E+02 -0.74854120982E+01  0.99105687009E+02  0.00000000000E+00 0.  1.
<mgrwt>
<rscale>  0 0.67057541E+03</rscale>
<asrwt>0</asrwt>
<pdfrwt beam="1">  1        1 0.98674292E-01 0.67057541E+03</pdfrwt>
<pdfrwt beam="2">  1       -2 0.11384011E+00 0.67057541E+03</pdfrwt>
<totfact> 0.16896788E+01</totfact>
</mgrwt>
</event>
<event>
12    3  0.1201947E-007  0.4630846E+03  0.7818608E-02  0.1023890E+00
         -2   -1    0    0    0  501 -0.00000000000E+00  0.00000000000E+00  0.34122017730E+03  0.34122017730E+03  0.00000000000E+00 0.  1.
          1   -1    0    0  501    0  0.00000000000E+00 -0.00000000000E+00 -0.10128046837E+04  0.10128046837E+04  0.00000000000E+00 0. -1.
        -24    2    1    2    0    0 -0.18682812573E+03 -0.28323599419E+03  0.52619231791E+02  0.35427300726E+03  0.87253671257E+02 0.  0.
    5000000    2    1    2    0    0  0.18682812573E+03  0.28323599419E+03 -0.72420373821E+03  0.99975185376E+03  0.59992110956E+03 0.  0.
        -24    2    4    4    0    0  0.17325458258E+03 -0.85770705828E+02 -0.54069167756E+03  0.57974267180E+03  0.79876848687E+02 0.  0.
         24    2    4    4    0    0  0.13573543150E+02  0.36900670002E+03 -0.18351206065E+03  0.42000918197E+03  0.79880227837E+02 0.  0.
         11    1    3    3    0    0 -0.67366337745E+02 -0.93564809074E+02 -0.23269782741E+02  0.11761836484E+03  0.00000000000E+00 0. -1.
        -12    1    3    3    0    0 -0.11946178799E+03 -0.18967118512E+03  0.75889014532E+02  0.23665464242E+03  0.00000000000E+00 0.  1.
         15    1    5    5    0    0  0.11083232789E+03 -0.95109070442E+02 -0.37821731382E+03  0.40543931037E+03  0.17770000000E+01 0. -1.
        -16    1    5    5    0    0  0.62422254690E+02  0.93383646137E+01 -0.16247436374E+03  0.17430336143E+03  0.00000000000E+00 0.  1.
          4    1    6    6  502    0 -0.12564145847E+02  0.33200422325E+03 -0.16639453243E+03  0.37158014268E+03  0.00000000000E+00 0. -1.
         -3    1    6    6    0  502  0.26137688997E+02  0.37002476775E+02 -0.17117528214E+02  0.48429039281E+02  0.00000000000E+00 0.  1.
<mgrwt>
<rscale>  0 0.46308464E+03</rscale>
<asrwt>0</asrwt>
<pdfrwt beam="1">  1        1 0.15581610E+00 0.46308464E+03</pdfrwt>
<pdfrwt beam="2">  1       -2 0.52495413E-01 0.46308464E+03</pdfrwt>
<totfact> 0.46855803E+01</totfact>
</mgrwt>
</event>
<event>
12    3  0.1201947E-007  0.1649581E+04  0.7818608E-02  0.8790654E-01
         -2   -1    0    0    0  501 -0.00000000000E+00  0.00000000000E+00  0.13549282672E+04  0.13549282672E+04  0.00000000000E+00 0.  1.
          1   -1    0    0  501    0  0.00000000000E+00 -0.00000000000E+00 -0.26501226784E+04  0.26501226784E+04  0.00000000000E+00 0. -1.
        -24    2    1    2    0    0  0.69974593501E+03 -0.14854923039E+04  0.26093924003E+03  0.16645764245E+04  0.79960161947E+02 0.  0.
    5000000    2    1    2    0    0 -0.69974593501E+03  0.14854923039E+04 -0.15561336513E+04  0.23404745212E+04  0.59994773543E+03 0.  0.
        -24    2    4    4    0    0 -0.31285728825E+03  0.87632431080E+03 -0.12313139645E+04  0.15453494249E+04  0.78401436093E+02 0.  0.
         24    2    4    4    0    0 -0.38688864676E+03  0.60916799308E+03 -0.32481968674E+03  0.79512509632E+03  0.77120821582E+02 0.  0.
         13    1    3    3    0    0  0.42410871629E+03 -0.87112015834E+03  0.19166852435E+03  0.98765143484E+03  0.00000000000E+00 0. -1.
        -14    1    3    3    0    0  0.27563721872E+03 -0.61437214554E+03  0.69270715679E+02  0.67692498965E+03  0.00000000000E+00 0.  1.
         15    1    5    5    0    0 -0.24459960752E+03  0.58639392220E+03 -0.81285626032E+03  0.10317098709E+04  0.17770000000E+01 0. -1.
        -16    1    5    5    0    0 -0.68257680729E+02  0.28993038860E+03 -0.41845770419E+03  0.51363955397E+03  0.00000000000E+00 0.  1.
          4    1    6    6  502    0 -0.15180302808E+03  0.19104137241E+03 -0.13812865745E+03  0.28039345804E+03  0.00000000000E+00 0. -1.
         -3    1    6    6    0  502 -0.23508561867E+03  0.41812662068E+03 -0.18669102930E+03  0.51473163828E+03  0.00000000000E+00 0.  1.
<mgrwt>
<rscale>  0 0.16495808E+04</rscale>
<asrwt>0</asrwt>
<pdfrwt beam="1">  1        1 0.40771118E+00 0.16495808E+04</pdfrwt>
<pdfrwt beam="2">  1       -2 0.20845050E+00 0.16495808E+04</pdfrwt>
<totfact> 0.10121011E-01</totfact>
</mgrwt>
</event>
<event>
12    3  0.1201947E-007  0.1204956E+04  0.7818608E-02  0.9108530E-01
         -2   -1    0    0    0  501 -0.00000000000E+00  0.00000000000E+00  0.21513135366E+04  0.21513135366E+04  0.00000000000E+00 0.  1.
          1   -1    0    0  501    0  0.00000000000E+00 -0.00000000000E+00 -0.69404840112E+03  0.69404840112E+03  0.00000000000E+00 0. -1.
        -24    2    1    2    0    0 -0.46917678616E+02 -0.11452940237E+04  0.64362581919E+03  0.13169789600E+04  0.79244662766E+02 0.  0.
    5000000    2    1    2    0    0  0.46917678616E+02  0.11452940237E+04  0.81363931630E+03  0.15283829778E+04  0.60003826577E+03 0.  0.
        -24    2    4    4    0    0 -0.96634423426E+02  0.10817274249E+04  0.57453416514E+03  0.12315207211E+04  0.84150733828E+02 0.  0.
         24    2    4    4    0    0  0.14355210204E+03  0.63566598761E+02  0.23910515117E+03  0.29686225663E+03  0.79422966585E+02 0.  0.
         13    1    3    3    0    0 -0.25413509942E+01 -0.87857451947E+03  0.48836141882E+03  0.10051848189E+04  0.00000000000E+00 0. -1.
        -14    1    3    3    0    0 -0.44376327622E+02 -0.26671950423E+03  0.15526440037E+03  0.31179414108E+03  0.00000000000E+00 0.  1.
         15    1    5    5    0    0 -0.67081977423E+02  0.53330675159E+03  0.24198209285E+03  0.58946973966E+03  0.17770000000E+01 0. -1.
        -16    1    5    5    0    0 -0.29552446003E+02  0.54842067335E+03  0.33255207229E+03  0.64205098147E+03  0.00000000000E+00 0.  1.
          2    1    6    6  502    0  0.55163813620E+02 -0.13678139255E+02  0.59351829736E+02  0.82175285333E+02  0.00000000000E+00 0. -1.
         -3    1    6    6    0  502  0.88388288422E+02  0.77244738016E+02  0.17975332143E+03  0.21468697130E+03  0.00000000000E+00 0.  1.
<mgrwt>
<rscale>  0 0.12049559E+04</rscale>
<asrwt>0</asrwt>
<pdfrwt beam="1">  1        1 0.10677668E+00 0.12049559E+04</pdfrwt>
<pdfrwt beam="2">  1       -2 0.33097131E+00 0.12049559E+04</pdfrwt>
<totfact> 0.48852713E-01</totfact>
</mgrwt>
</event>
<event>
12    3  0.1201947E-007  0.9063772E+03  0.7818608E-02  0.9417645E-01
          1   -1    0    0  501    0  0.00000000000E+00  0.00000000000E+00  0.87022902017E+03  0.87022902017E+03  0.00000000000E+00 0. -1.
         -2   -1    0    0    0  501 -0.00000000000E+00 -0.00000000000E+00 -0.99884312345E+03  0.99884312345E+03  0.00000000000E+00 0.  1.
        -24    2    1    2    0    0 -0.48656824416E+03  0.66519543335E+03  0.68187885798E+02  0.83078731662E+03  0.79525825475E+02 0.  0.
    5000000    2    1    2    0    0  0.48656824416E+03 -0.66519543335E+03 -0.19680198908E+03  0.10382848270E+04  0.60005894568E+03 0.  0.
        -24    2    4    4    0    0  0.42866930091E+03 -0.13127587345E+03 -0.19526289869E+03  0.49555690492E+03  0.80363685342E+02 0.  0.
         24    2    4    4    0    0  0.57898943250E+02 -0.53391955990E+03 -0.15390903840E+01  0.54272792207E+03  0.78286937101E+02 0.  0.
         13    1    3    3    0    0 -0.16639962493E+03  0.21549917135E+03 -0.14247061802E+02  0.27263841769E+03  0.00000000000E+00 0. -1.
        -14    1    3    3    0    0 -0.32016861922E+03  0.44969626201E+03  0.82434947600E+02  0.55814889894E+03  0.00000000000E+00 0.  1.
         15    1    5    5    0    0  0.26034953543E+03 -0.83571624136E+02 -0.75936041995E+02  0.28378783829E+03  0.17770000000E+01 0. -1.
        -16    1    5    5    0    0  0.16831976548E+03 -0.47704249317E+02 -0.11932685670E+03  0.21176906663E+03  0.00000000000E+00 0.  1.
          4    1    6    6  502    0  0.57697086121E+02 -0.26747376868E+03  0.26021258524E+02  0.27486046746E+03  0.00000000000E+00 0. -1.
         -3    1    6    6    0  502  0.20185712881E+00 -0.26644579122E+03 -0.27560348908E+02  0.26786745461E+03  0.00000000000E+00 0.  1.
<mgrwt>
<rscale>  0 0.90637723E+03</rscale>
<asrwt>0</asrwt>
<pdfrwt beam="1">  1        1 0.13388139E+00 0.90637723E+03</pdfrwt>
<pdfrwt beam="2">  1       -2 0.15366817E+00 0.90637723E+03</pdfrwt>
<totfact> 0.47682587E+00</totfact>
</mgrwt>
</event>
<event>
12    3  0.1201947E-007  0.5791052E+03  0.7818608E-02  0.9949730E-01
          1   -1    0    0  501    0  0.00000000000E+00  0.00000000000E+00  0.15676458825E+04  0.15676458825E+04  0.00000000000E+00 0. -1.
         -2   -1    0    0    0  501 -0.00000000000E+00 -0.00000000000E+00 -0.28964436030E+03  0.28964436030E+03  0.00000000000E+00 0.  1.
        -24    2    1    2    0    0 -0.50041266411E+03 -0.19344179407E+03  0.48515136318E+03  0.72751274364E+03  0.77912674615E+02 0.  0.
    5000000    2    1    2    0    0  0.50041266411E+03  0.19344179407E+03  0.79285015905E+03  0.11297774992E+04  0.59996104947E+03 0.  0.
        -24    2    4    4    0    0  0.73490527424E+02  0.17157442152E+03  0.63543484531E+03  0.66720408573E+03  0.80902469928E+02 0.  0.
         24    2    4    4    0    0  0.42692213669E+03  0.21867372549E+02  0.15741531373E+03  0.46257341346E+03  0.80336100628E+02 0.  0.
         11    1    3    3    0    0 -0.42408485064E+03 -0.19250207396E+03  0.41290395411E+03  0.62241038258E+03  0.00000000000E+00 0. -1.
        -12    1    3    3    0    0 -0.76327813472E+02 -0.93972010966E+00  0.72247409072E+02  0.10510236106E+03  0.00000000000E+00 0.  1.
         15    1    5    5    0    0  0.48588152788E+02  0.96592017141E+02  0.23014378192E+03  0.25428359060E+03  0.17770000000E+01 0. -1.
        -16    1    5    5    0    0  0.24902374635E+02  0.74982404382E+02  0.40529106339E+03  0.41292049513E+03  0.00000000000E+00 0.  1.
          2    1    6    6  502    0  0.15583195668E+03 -0.93741089340E+01  0.21090560331E+02  0.15753185194E+03  0.00000000000E+00 0. -1.
         -1    1    6    6    0  502  0.27109018000E+03  0.31241481483E+02  0.13632475340E+03  0.30504156151E+03  0.00000000000E+00 0.  1.
<mgrwt>
<rscale>  0 0.57910523E+03</rscale>
<asrwt>0</asrwt>
<pdfrwt beam="1">  1        1 0.24117629E+00 0.57910523E+03</pdfrwt>
<pdfrwt beam="2">  1       -2 0.44560672E-01 0.57910523E+03</pdfrwt>
<totfact> 0.25961545E+01</totfact>
</mgrwt>
</event>
<event>
12    3  0.1201947E-007  0.9799072E+03  0.7818608E-02  0.9330861E-01
          1   -1    0    0  501    0  0.00000000000E+00  0.00000000000E+00  0.19082381832E+04  0.19082381832E+04  0.00000000000E+00 0. -1.
         -2   -1    0    0    0  501 -0.00000000000E+00 -0.00000000000E+00 -0.57878858696E+03  0.57878858696E+03  0.00000000000E+00 0.  1.
        -24    2    1    2    0    0 -0.30359316653E+03 -0.85189491346E+03  0.10046794085E+04  0.13541519374E+04  0.80330576687E+02 0.  0.
    5000000    2    1    2    0    0  0.30359316653E+03  0.85189491346E+03  0.32477018778E+03  0.11328748327E+04  0.60002996375E+03 0.  0.
        -24    2    4    4    0    0  0.27872120528E+03  0.92466039876E+03  0.25738442143E+03  0.10027591067E+04  0.81220209354E+02 0.  0.
         24    2    4    4    0    0  0.24871961255E+02 -0.72765485301E+02  0.67385766352E+02  0.13011572600E+03  0.80472544007E+02 0.  0.
         13    1    3    3    0    0 -0.16835861519E+03 -0.35958839981E+03  0.42111135708E+03  0.57877734549E+03  0.00000000000E+00 0. -1.
        -14    1    3    3    0    0 -0.13523455134E+03 -0.49230651365E+03  0.58356805137E+03  0.77537459194E+03  0.00000000000E+00 0.  1.
         15    1    5    5    0    0  0.10100699745E+03  0.38670367909E+03  0.68213703183E+02  0.40546074531E+03  0.17770000000E+01 0. -1.
        -16    1    5    5    0    0  0.17771420783E+03  0.53795671967E+03  0.18917071824E+03  0.59729836141E+03  0.00000000000E+00 0.  1.
          4    1    6    6  502    0 -0.32756723069E+01 -0.49117118996E+02 -0.44421980833E+01  0.49426253463E+02  0.00000000000E+00 0. -1.
         -3    1    6    6    0  502  0.28147633562E+02 -0.23648366304E+02  0.71827964435E+02  0.80689472541E+02  0.00000000000E+00 0.  1.
<mgrwt>
<rscale>  0 0.97990716E+03</rscale>
<asrwt>0</asrwt>
<pdfrwt beam="1">  1        1 0.29357510E+00 0.97990716E+03</pdfrwt>
<pdfrwt beam="2">  1       -2 0.89044399E-01 0.97990716E+03</pdfrwt>
<totfact> 0.32967900E+00</totfact>
</mgrwt>
</event>
<event>
12    3  0.1201947E-007  0.6308215E+03  0.7818608E-02  0.9843447E-01
          1   -1    0    0  501    0  0.00000000000E+00  0.00000000000E+00  0.74276767269E+03  0.74276767269E+03  0.00000000000E+00 0. -1.
         -2   -1    0    0    0  501 -0.00000000000E+00 -0.00000000000E+00 -0.88259094126E+03  0.88259094126E+03  0.00000000000E+00 0.  1.
        -24    2    1    2    0    0 -0.14513994475E+03 -0.52309718876E+03  0.37647242009E+03  0.66548616533E+03  0.80275031617E+02 0.  0.
    5000000    2    1    2    0    0  0.14513994475E+03  0.52309718876E+03 -0.51629568866E+03  0.95987244863E+03  0.60008133369E+03 0.  0.
        -24    2    4    4    0    0 -0.59207121526E+02  0.48522924077E+03 -0.54396883986E+03  0.73554239754E+03  0.78534199523E+02 0.  0.
         24    2    4    4    0    0  0.20434706627E+03  0.37867947991E+02  0.27673151205E+02  0.22433005109E+03  0.79790121838E+02 0.  0.
         13    1    3    3    0    0 -0.12214765794E+03 -0.30228697908E+03  0.24066832556E+03  0.40523907881E+03  0.00000000000E+00 0. -1.
        -14    1    3    3    0    0 -0.22992286804E+02 -0.22081020968E+03  0.13580409453E+03  0.26024708652E+03  0.00000000000E+00 0.  1.
         15    1    5    5    0    0 -0.63730600636E+02  0.34633889114E+03 -0.43013693216E+03  0.55590750589E+03  0.17770000000E+01 0. -1.
        -16    1    5    5    0    0  0.45234791099E+01  0.13889034964E+03 -0.11383190771E+03  0.17963489165E+03  0.00000000000E+00 0.  1.
          4    1    6    6  502    0  0.43630915170E+02 -0.24560565528E+02  0.94718862571E+01  0.50956793138E+02  0.00000000000E+00 0. -1.
         -3    1    6    6    0  502  0.16071615110E+03  0.62428513519E+02  0.18201264948E+02  0.17337325795E+03  0.00000000000E+00 0.  1.
<mgrwt>
<rscale>  0 0.63082153E+03</rscale>
<asrwt>0</asrwt>
<pdfrwt beam="1">  1        1 0.11427195E+00 0.63082153E+03</pdfrwt>
<pdfrwt beam="2">  1       -2 0.13578322E+00 0.63082153E+03</pdfrwt>
<totfact> 0.87780868E+00</totfact>
</mgrwt>
</event>
<event>
12    3  0.1201947E-007  0.8770442E+03  0.7818608E-02  0.9454741E-01
         -2   -1    0    0    0  501 -0.00000000000E+00  0.00000000000E+00  0.36983201811E+03  0.36983201811E+03  0.00000000000E+00 0.  1.
          1   -1    0    0  501    0  0.00000000000E+00 -0.00000000000E+00 -0.25050123520E+04  0.25050123520E+04  0.00000000000E+00 0. -1.
        -24    2    1    2    0    0 -0.73717826076E+03  0.25333066998E+03 -0.39893149274E+03  0.87931057214E+03  0.80203054055E+02 0.  0.
    5000000    2    1    2    0    0  0.73717826076E+03 -0.25333066998E+03 -0.17362488411E+04  0.19955337980E+04  0.59998906990E+03 0.  0.
        -24    2    4    4    0    0  0.35004664612E+03  0.17099984777E+03 -0.81750973357E+03  0.90900711747E+03  0.78728474756E+02 0.  0.
         24    2    4    4    0    0  0.38713161464E+03 -0.42433051775E+03 -0.91873910756E+03  0.10865266805E+04  0.80817104042E+02 0.  0.
         13    1    3    3    0    0 -0.29786773921E+03  0.86081805780E+02 -0.11839567132E+03  0.33189275728E+03  0.00000000000E+00 0. -1.
        -14    1    3    3    0    0 -0.43931052155E+03  0.16724886420E+03 -0.28053582142E+03  0.54741781485E+03  0.00000000000E+00 0.  1.
         15    1    5    5    0    0  0.23882379787E+03  0.80518046764E+02 -0.56416633400E+03  0.61790514841E+03  0.17770000000E+01 0. -1.
        -16    1    5    5    0    0  0.11122284825E+03  0.90481801011E+02 -0.25334339957E+03  0.29110196906E+03  0.00000000000E+00 0.  1.
          2    1    6    6  502    0  0.23608672965E+03 -0.30701567411E+03 -0.57740068249E+03  0.69526046645E+03  0.00000000000E+00 0. -1.
         -1    1    6    6    0  502  0.15104488499E+03 -0.11731484364E+03 -0.34133842507E+03  0.39126621404E+03  0.00000000000E+00 0.  1.
<mgrwt>
<rscale>  0 0.87704417E+03</rscale>
<asrwt>0</asrwt>
<pdfrwt beam="1">  1        1 0.38538652E+00 0.87704417E+03</pdfrwt>
<pdfrwt beam="2">  1       -2 0.56897233E-01 0.87704417E+03</pdfrwt>
<totfact> 0.35340103E+00</totfact>
</mgrwt>
</event>
<event>
12    3  0.1201947E-007  0.8492175E+03  0.7818608E-02  0.9491388E-01
         -2   -1    0    0    0  501 -0.00000000000E+00  0.00000000000E+00  0.99162743457E+03  0.99162743457E+03  0.00000000000E+00 0.  1.
          1   -1    0    0  501    0  0.00000000000E+00 -0.00000000000E+00 -0.83425531578E+03  0.83425531578E+03  0.00000000000E+00 0. -1.
        -24    2    1    2    0    0 -0.22641553632E+03  0.71078144152E+03 -0.24229674311E+03  0.78843203484E+03  0.80268980001E+02 0.  0.
    5000000    2    1    2    0    0  0.22641553632E+03 -0.71078144152E+03  0.39966886190E+03  0.10374507155E+04  0.60007877420E+03 0.  0.
        -24    2    4    4    0    0  0.41747200790E+03 -0.51507074582E+03  0.24433185013E+03  0.71280575114E+03  0.93878833031E+02 0.  0.
         24    2    4    4    0    0 -0.19105647158E+03 -0.19571069570E+03  0.15533701177E+03  0.32464496437E+03  0.80371101287E+02 0.  0.
         11    1    3    3    0    0 -0.16619355584E+03  0.49847290851E+03 -0.20790408787E+03  0.56508375333E+03  0.00000000000E+00 0. -1.
        -12    1    3    3    0    0 -0.60221980482E+02  0.21230853301E+03 -0.34392655236E+02  0.22334828151E+03  0.00000000000E+00 0.  1.
         15    1    5    5    0    0  0.57336976062E+02 -0.13121128061E+03  0.48095111420E+02  0.15106365035E+03  0.17770000000E+01 0. -1.
        -16    1    5    5    0    0  0.36013503184E+03 -0.38385946520E+03  0.19623673871E+03  0.56174210079E+03  0.00000000000E+00 0.  1.
          4    1    6    6  502    0 -0.16245589367E+02 -0.57937874879E+02  0.16791907038E+02  0.62471470779E+02  0.00000000000E+00 0. -1.
         -3    1    6    6    0  502 -0.17481088221E+03 -0.13777282082E+03  0.13854510473E+03  0.26217349359E+03  0.00000000000E+00 0.  1.
<mgrwt>
<rscale>  0 0.84921745E+03</rscale>
<asrwt>0</asrwt>
<pdfrwt beam="1">  1        1 0.12834697E+00 0.84921745E+03</pdfrwt>
<pdfrwt beam="2">  1       -2 0.15255807E+00 0.84921745E+03</pdfrwt>
<totfact> 0.52447971E+00</totfact>
</mgrwt>
</event>
<event>
12    3  0.1201947E-007  0.7071728E+03  0.7818608E-02  0.9705044E-01
          1   -1    0    0  501    0  0.00000000000E+00  0.00000000000E+00  0.87144979566E+03  0.87144979566E+03  0.00000000000E+00 0. -1.
         -2   -1    0    0    0  501 -0.00000000000E+00 -0.00000000000E+00 -0.58599123010E+03  0.58599123010E+03  0.00000000000E+00 0.  1.
        -24    2    1    2    0    0  0.31904233641E+03  0.49021330902E+03  0.14510522182E+03  0.60783387999E+03  0.79431728538E+02 0.  0.
    5000000    2    1    2    0    0 -0.31904233641E+03 -0.49021330902E+03  0.14035334373E+03  0.84960714577E+03  0.60003011615E+03 0.  0.
        -24    2    4    4    0    0 -0.18487363254E+03 -0.60949281320E+03  0.11307738757E+03  0.65161735669E+03  0.78478879946E+02 0.  0.
         24    2    4    4    0    0 -0.13416870387E+03  0.11927950418E+03  0.27275956160E+02  0.19798978909E+03  0.78912214419E+02 0.  0.
         13    1    3    3    0    0  0.17945190325E+03  0.25507945662E+03  0.38108849506E+02  0.31419866196E+03  0.00000000000E+00 0. -1.
        -14    1    3    3    0    0  0.13959043315E+03  0.23513385241E+03  0.10699637232E+03  0.29363521802E+03  0.00000000000E+00 0.  1.
         15    1    5    5    0    0 -0.15395586917E+03 -0.38883322321E+03  0.88320664364E+02  0.42743114370E+03  0.17770000000E+01 0. -1.
        -16    1    5    5    0    0 -0.30917763375E+02 -0.22065959000E+03  0.24756723208E+02  0.22418621299E+03  0.00000000000E+00 0.  1.
          2    1    6    6  502    0 -0.23360200682E+02  0.55331578282E+02  0.35536776424E+02  0.69786424251E+02  0.00000000000E+00 0. -1.
         -1    1    6    6    0  502 -0.11080850318E+03  0.63947925898E+02 -0.82608202633E+01  0.12820336484E+03  0.00000000000E+00 0.  1.
<mgrwt>
<rscale>  0 0.70717284E+03</rscale>
<asrwt>0</asrwt>
<pdfrwt beam="1">  1        1 0.13406920E+00 0.70717284E+03</pdfrwt>
<pdfrwt beam="2">  1       -2 0.90152497E-01 0.70717284E+03</pdfrwt>
<totfact> 0.18196579E+01</totfact>
</mgrwt>
</event>
<event>
12    3  0.1201947E-007  0.6705693E+03  0.7818608E-02  0.9768930E-01
         -2   -1    0    0    0  501 -0.00000000000E+00  0.00000000000E+00  0.22519385693E+03  0.22519385693E+03  0.00000000000E+00 0.  1.
          1   -1    0    0  501    0  0.00000000000E+00 -0.00000000000E+00 -0.23246842256E+04  0.23246842256E+04  0.00000000000E+00 0. -1.
        -24    2    1    2    0    0  0.51882894194E+03 -0.25429362249E+03 -0.11315862270E+04  0.12729675283E+04  0.78167905852E+02 0.  0.
    5000000    2    1    2    0    0 -0.51882894194E+03  0.25429362249E+03 -0.96790414169E+03  0.12769105543E+04  0.59984449540E+03 0.  0.
        -24    2    4    4    0    0 -0.42291628177E+03  0.38869243438E+03 -0.47166743215E+03  0.74770414520E+03  0.81555700451E+02 0.  0.
         24    2    4    4    0    0 -0.95912660172E+02 -0.13439881189E+03 -0.49623670954E+03  0.52920640906E+03  0.80909038299E+02 0.  0.
         13    1    3    3    0    0  0.16655197133E+03 -0.52837460757E+02 -0.39674572371E+03  0.43351877202E+03  0.00000000000E+00 0. -1.
        -14    1    3    3    0    0  0.35227697060E+03 -0.20145616173E+03 -0.73484050332E+03  0.83944875629E+03  0.00000000000E+00 0.  1.
         15    1    5    5    0    0 -0.36641503170E+03  0.30928066257E+03 -0.36072998755E+03  0.60003648667E+03  0.17770000000E+01 0. -1.
        -16    1    5    5    0    0 -0.56501250071E+02  0.79411771812E+02 -0.11093744460E+03  0.14766765853E+03  0.00000000000E+00 0.  1.
          2    1    6    6  502    0 -0.17711997675E+02 -0.93928045160E+02 -0.24490038684E+03  0.26289235821E+03  0.00000000000E+00 0. -1.
         -1    1    6    6    0  502 -0.78200662497E+02 -0.40470766733E+02 -0.25133632270E+03  0.26631405086E+03  0.00000000000E+00 0.  1.
<mgrwt>
<rscale>  0 0.67056929E+03</rscale>
<asrwt>0</asrwt>
<pdfrwt beam="1">  1        1 0.35764372E+00 0.67056929E+03</pdfrwt>
<pdfrwt beam="2">  1       -2 0.34645209E-01 0.67056929E+03</pdfrwt>
<totfact> 0.13004259E+01</totfact>
</mgrwt>
</event>
<event>
12    3  0.1201947E-007  0.1200106E+04  0.7818608E-02  0.9112764E-01
          1   -1    0    0  501    0  0.00000000000E+00  0.00000000000E+00  0.15335371500E+04  0.15335371500E+04  0.00000000000E+00 0. -1.
         -2   -1    0    0    0  501 -0.00000000000E+00 -0.00000000000E+00 -0.12424593555E+04  0.12424593555E+04  0.00000000000E+00 0.  1.
        -24    2    1    2    0    0 -0.11542205039E+03  0.11730554084E+04 -0.44513990798E+03  0.12622687455E+04  0.76102610142E+02 0.  0.
    5000000    2    1    2    0    0  0.11542205039E+03 -0.11730554084E+04  0.73621770247E+03  0.15137277601E+04  0.59997832063E+03 0.  0.
        -24    2    4    4    0    0  0.20175346664E+02 -0.18023311965E+02 -0.60845121798E+02  0.10508157032E+03  0.81290363431E+02 0.  0.
         24    2    4    4    0    0  0.95246703725E+02 -0.11550320965E+04  0.79706282427E+03  0.14086461898E+04  0.76183092925E+02 0.  0.
         13    1    3    3    0    0 -0.15207455264E+02  0.52104232340E+03 -0.18384730317E+03  0.55273519913E+03  0.00000000000E+00 0. -1.
        -14    1    3    3    0    0 -0.10021459512E+03  0.65201308503E+03 -0.26129260482E+03  0.70953354639E+03  0.00000000000E+00 0.  1.
         15    1    5    5    0    0  0.16979344887E+02 -0.36320155711E+02  0.13672700121E+01  0.40155684778E+02  0.17770000000E+01 0. -1.
        -16    1    5    5    0    0  0.31960017766E+01  0.18296843746E+02 -0.62212391810E+02  0.64925885540E+02  0.00000000000E+00 0.  1.
          2    1    6    6  502    0  0.96778438254E+02 -0.84310855415E+03  0.55822383416E+03  0.10157814476E+04  0.00000000000E+00 0. -1.
         -1    1    6    6    0  502 -0.15317345285E+01 -0.31192354231E+03  0.23883899011E+03  0.39286474219E+03  0.00000000000E+00 0.  1.
<mgrwt>
<rscale>  0 0.12001061E+04</rscale>
<asrwt>0</asrwt>
<pdfrwt beam="1">  1        1 0.23592879E+00 0.12001061E+04</pdfrwt>
<pdfrwt beam="2">  1       -2 0.19114759E+00 0.12001061E+04</pdfrwt>
<totfact> 0.80665157E-01</totfact>
</mgrwt>
</event>
<event>
12    3  0.1201947E-007  0.6369013E+03  0.7818608E-02  0.9831673E-01
          1   -1    0    0  501    0  0.00000000000E+00  0.00000000000E+00  0.57008617099E+03  0.57008617099E+03  0.00000000000E+00 0. -1.
         -2   -1    0    0    0  501 -0.00000000000E+00 -0.00000000000E+00 -0.85278480665E+03  0.85278480665E+03  0.00000000000E+00 0.  1.
        -24    2    1    2    0    0  0.38485636565E+03  0.38835333813E+03 -0.25975151022E+03  0.61070734805E+03  0.80993089154E+02 0.  0.
    5000000    2    1    2    0    0 -0.38485636565E+03 -0.38835333813E+03 -0.22947125443E+02  0.81216362959E+03  0.60012536461E+03 0.  0.
        -24    2    4    4    0    0 -0.44690884825E+03 -0.44010779120E+03 -0.14159680221E+03  0.64777196264E+03  0.78335653890E+02 0.  0.
         24    2    4    4    0    0  0.62052482599E+02  0.51754453071E+02  0.11864967676E+03  0.16439166695E+03  0.80111424638E+02 0.  0.
         11    1    3    3    0    0  0.14129889228E+03  0.15077859279E+03 -0.55866614276E+02  0.21405756140E+03  0.00000000000E+00 0. -1.
        -12    1    3    3    0    0  0.24355747336E+03  0.23757474534E+03 -0.20388489595E+03  0.39664978665E+03  0.00000000000E+00 0.  1.
         15    1    5    5    0    0 -0.32396111419E+03 -0.35121593344E+03 -0.82151499943E+02  0.48482518714E+03  0.17770000000E+01 0. -1.
        -16    1    5    5    0    0 -0.12294773405E+03 -0.88891857756E+02 -0.59445302264E+02  0.16294677550E+03  0.00000000000E+00 0.  1.
          4    1    6    6  502    0  0.56469460713E+02  0.12617806918E+02  0.10944843383E+03  0.12380213533E+03  0.00000000000E+00 0. -1.
         -3    1    6    6    0  502  0.55830218864E+01  0.39136646153E+02  0.92012429303E+01  0.40589531618E+02  0.00000000000E+00 0.  1.
<mgrwt>
<rscale>  0 0.63690133E+03</rscale>
<asrwt>0</asrwt>
<pdfrwt beam="1">  1        1 0.87705565E-01 0.63690133E+03</pdfrwt>
<pdfrwt beam="2">  1       -2 0.13119766E+00 0.63690133E+03</pdfrwt>
<totfact> 0.14121137E+01</totfact>
</mgrwt>
</event>
<event>
12    3  0.1201947E-007  0.1305512E+04  0.7818608E-02  0.9025205E-01
          1   -1    0    0  501    0  0.00000000000E+00  0.00000000000E+00  0.83531852847E+03  0.83531852847E+03  0.00000000000E+00 0. -1.
         -2   -1    0    0    0  501 -0.00000000000E+00 -0.00000000000E+00 -0.23384898923E+04  0.23384898923E+04  0.00000000000E+00 0.  1.
        -24    2    1    2    0    0  0.55055190441E+03  0.11207479329E+04 -0.18930162276E+03  0.12646533837E+04  0.65800819864E+02 0.  0.
    5000000    2    1    2    0    0 -0.55055190441E+03 -0.11207479329E+04 -0.13138697411E+04  0.19091550371E+04  0.59952975781E+03 0.  0.
        -24    2    4    4    0    0 -0.36801033623E+03 -0.20893892519E+03 -0.26830495267E+03  0.50709039031E+03  0.77884750008E+02 0.  0.
         24    2    4    4    0    0 -0.18254156819E+03 -0.91180900773E+03 -0.10455647884E+04  0.14020646468E+04  0.88670492761E+02 0.  0.
         13    1    3    3    0    0  0.22454312547E+03  0.50633895269E+03 -0.10865240521E+03  0.56445025943E+03  0.00000000000E+00 0. -1.
        -14    1    3    3    0    0  0.32600877895E+03  0.61440898024E+03 -0.80649217552E+02  0.70020312427E+03  0.00000000000E+00 0.  1.
         15    1    5    5    0    0 -0.16563449054E+03 -0.59922791119E+02 -0.13942768145E+03  0.22465253490E+03  0.17770000000E+01 0. -1.
        -16    1    5    5    0    0 -0.20237584569E+03 -0.14901613408E+03 -0.12887727122E+03  0.28243785541E+03  0.00000000000E+00 0.  1.
          2    1    6    6  502    0 -0.11929697987E+03 -0.37308578976E+03 -0.43987068819E+03  0.58899150950E+03  0.00000000000E+00 0. -1.
         -1    1    6    6    0  502 -0.63244588318E+02 -0.53872321797E+03 -0.60569410024E+03  0.81307313730E+03  0.00000000000E+00 0.  1.
<mgrwt>
<rscale>  0 0.13055123E+04</rscale>
<asrwt>0</asrwt>
<pdfrwt beam="1">  1        1 0.12851054E+00 0.13055123E+04</pdfrwt>
<pdfrwt beam="2">  1       -2 0.35976767E+00 0.13055123E+04</pdfrwt>
<totfact> 0.23762384E-01</totfact>
</mgrwt>
</event>
<event>
12    3  0.1201947E-007  0.9596705E+03  0.7818608E-02  0.9353918E-01
          1   -1    0    0  501    0  0.00000000000E+00  0.00000000000E+00  0.58254777819E+03  0.58254777819E+03  0.00000000000E+00 0. -1.
         -2   -1    0    0    0  501 -0.00000000000E+00 -0.00000000000E+00 -0.18476760932E+04  0.18476760932E+04  0.00000000000E+00 0.  1.
        -24    2    1    2    0    0 -0.37530221509E+03  0.86760066941E+03 -0.68785329148E+03  0.11705182345E+04  0.58207494765E+02 0.  0.
    5000000    2    1    2    0    0  0.37530221509E+03 -0.86760066941E+03 -0.57727502354E+03  0.12597056369E+04  0.60002430339E+03 0.  0.
        -24    2    4    4    0    0  0.10972492992E+03 -0.11922237032E+03 -0.40534545402E+03  0.44371554123E+03  0.79529935234E+02 0.  0.
         24    2    4    4    0    0  0.26557728517E+03 -0.74837829909E+03 -0.17192956951E+03  0.81599009569E+03  0.75357059656E+02 0.  0.
         13    1    3    3    0    0 -0.63707243541E+02  0.19969349326E+03 -0.13733437868E+03  0.25059296817E+03  0.00000000000E+00 0. -1.
        -14    1    3    3    0    0 -0.31159497155E+03  0.66790717615E+03 -0.55051891281E+03  0.91992526631E+03  0.00000000000E+00 0.  1.
         15    1    5    5    0    0  0.10163325121E+03 -0.65083763877E+02 -0.32319793358E+03  0.34500040011E+03  0.17770000000E+01 0. -1.
        -16    1    5    5    0    0  0.80916787063E+01 -0.54138606443E+02 -0.82147520441E+02  0.98715141121E+02  0.00000000000E+00 0.  1.
          4    1    6    6  502    0  0.10741083409E+03 -0.40871646596E+03 -0.78314775397E+02  0.42978999625E+03  0.00000000000E+00 0. -1.
         -3    1    6    6    0  502  0.15816645108E+03 -0.33966183313E+03 -0.93614794115E+02  0.38620009944E+03  0.00000000000E+00 0.  1.
<mgrwt>
<rscale>  0 0.95967050E+03</rscale>
<asrwt>0</asrwt>
<pdfrwt beam="1">  1        1 0.89622735E-01 0.95967050E+03</pdfrwt>
<pdfrwt beam="2">  1       -2 0.28425786E+00 0.95967050E+03</pdfrwt>
<totfact> 0.12569858E+00</totfact>
</mgrwt>
</event>
<event>
12    3  0.1201947E-007  0.4416373E+03  0.7818608E-02  0.1030246E+00
         -2   -1    0    0    0  501 -0.00000000000E+00  0.00000000000E+00  0.77067899933E+03  0.77067899933E+03  0.00000000000E+00 0.  1.
          1   -1    0    0  501    0  0.00000000000E+00 -0.00000000000E+00 -0.17117573058E+04  0.17117573058E+04  0.00000000000E+00 0. -1.
        -24    2    1    2    0    0  0.26444235674E+03  0.33042639509E+03 -0.14993929491E+04  0.15600214709E+04  0.79852433313E+02 0.  0.
    5000000    2    1    2    0    0 -0.26444235674E+03 -0.33042639509E+03  0.55831464264E+03  0.92241483427E+03  0.60001876944E+03 0.  0.
        -24    2    4    4    0    0 -0.16803932957E+03 -0.24036338148E+03 -0.36892668570E+02  0.30673596894E+03  0.81939698585E+02 0.  0.
         24    2    4    4    0    0 -0.96403027165E+02 -0.90063013610E+02  0.59520731121E+03  0.61567886533E+03  0.85929225681E+02 0.  0.
         13    1    3    3    0    0  0.16225807694E+03  0.14058836655E+03 -0.71459722533E+03  0.74615143691E+03  0.00000000000E+00 0. -1.
        -14    1    3    3    0    0  0.10218427980E+03  0.18983802854E+03 -0.78479572378E+03  0.81387003397E+03  0.00000000000E+00 0.  1.
         15    1    5    5    0    0 -0.12304649504E+03 -0.14103034861E+03  0.11303190385E+02  0.18751245029E+03  0.17770000000E+01 0. -1.
        -16    1    5    5    0    0 -0.44992834535E+02 -0.99333032874E+02 -0.48195858954E+02  0.11922351865E+03  0.00000000000E+00 0.  1.
          4    1    6    6  502    0 -0.39646642781E+02  0.10750687661E+02  0.18222195399E+03  0.18679473784E+03  0.00000000000E+00 0. -1.
         -3    1    6    6    0  502 -0.56756384384E+02 -0.10081370127E+03  0.41298535722E+03  0.42888412749E+03  0.00000000000E+00 0.  1.
<mgrwt>
<rscale>  0 0.44163726E+03</rscale>
<asrwt>0</asrwt>
<pdfrwt beam="1">  1        1 0.26334727E+00 0.44163726E+03</pdfrwt>
<pdfrwt beam="2">  1       -2 0.11856600E+00 0.44163726E+03</pdfrwt>
<totfact> 0.24963543E+00</totfact>
</mgrwt>
</event>
<event>
12    3  0.1201947E-007  0.1110031E+04  0.7818608E-02  0.9195470E-01
         -2   -1    0    0    0  501 -0.00000000000E+00  0.00000000000E+00  0.16254996491E+04  0.16254996491E+04  0.00000000000E+00 0.  1.
          1   -1    0    0  501    0  0.00000000000E+00 -0.00000000000E+00 -0.91105290283E+03  0.91105290283E+03  0.00000000000E+00 0. -1.
        -24    2    1    2    0    0 -0.70681137010E+03 -0.80060912476E+03  0.75571066017E+03  0.13108323188E+04  0.81397067275E+02 0.  0.
    5000000    2    1    2    0    0  0.70681137010E+03  0.80060912476E+03 -0.41263913921E+02  0.12257202331E+04  0.60010840331E+03 0.  0.
        -24    2    4    4    0    0  0.74097967524E+03  0.71808516595E+03 -0.16091693124E+03  0.10474268329E+04  0.80694032605E+02 0.  0.
         24    2    4    4    0    0 -0.34168305146E+02  0.82523958813E+02  0.11965301732E+03  0.17829340019E+03  0.97437236934E+02 0.  0.
         11    1    3    3    0    0 -0.20519465384E+03 -0.28733563839E+03  0.23464421257E+03  0.42393928993E+03  0.00000000000E+00 0. -1.
        -12    1    3    3    0    0 -0.50161671626E+03 -0.51327348637E+03  0.52106644760E+03  0.88689302887E+03  0.00000000000E+00 0.  1.
         15    1    5    5    0    0  0.22016031283E+03  0.18484015550E+03 -0.75073340773E+02  0.29711211798E+03  0.17770000000E+01 0. -1.
        -16    1    5    5    0    0  0.52081936242E+03  0.53324501045E+03 -0.85843590470E+02  0.75031471495E+03  0.00000000000E+00 0.  1.
          2    1    6    6  502    0  0.22956166314E+02  0.36323225215E+02  0.88719972616E+02  0.98577866699E+02  0.00000000000E+00 0. -1.
         -1    1    6    6    0  502 -0.57124471460E+02  0.46200733598E+02  0.30933044705E+02  0.79715533488E+02  0.00000000000E+00 0.  1.
<mgrwt>
<rscale>  0 0.11100310E+04</rscale>
<asrwt>0</asrwt>
<pdfrwt beam="1">  1        1 0.14016199E+00 0.11100310E+04</pdfrwt>
<pdfrwt beam="2">  1       -2 0.25007687E+00 0.11100310E+04</pdfrwt>
<totfact> 0.99062105E-01</totfact>
</mgrwt>
</event>
<event>
12    3  0.1201947E-007  0.9971690E+03  0.7818608E-02  0.9311655E-01
          1   -1    0    0  501    0  0.00000000000E+00  0.00000000000E+00  0.86960773266E+03  0.86960773266E+03  0.00000000000E+00 0. -1.
         -2   -1    0    0    0  501 -0.00000000000E+00 -0.00000000000E+00 -0.14908645301E+04  0.14908645301E+04  0.00000000000E+00 0.  1.
        -24    2    1    2    0    0 -0.88531991216E+03 -0.23657369027E+03 -0.83759959861E+03  0.12439797537E+04  0.78447959023E+02 0.  0.
    5000000    2    1    2    0    0  0.88531991216E+03  0.23657369027E+03  0.21634280121E+03  0.11164925090E+04  0.59999404767E+03 0.  0.
        -24    2    4    4    0    0  0.43039552765E+03  0.40005040971E+03  0.20226031234E+03  0.62633747263E+03  0.78158525668E+02 0.  0.
         24    2    4    4    0    0  0.45492438451E+03 -0.16347671944E+03  0.14082488869E+02  0.49015503638E+03  0.79829880230E+02 0.  0.
         13    1    3    3    0    0 -0.47037841380E+03 -0.13373565396E+03 -0.49859685467E+03  0.69838377759E+03  0.00000000000E+00 0. -1.
        -14    1    3    3    0    0 -0.41494149836E+03 -0.10283803631E+03 -0.33900274394E+03  0.54559597613E+03  0.00000000000E+00 0.  1.
         15    1    5    5    0    0  0.22351814302E+02  0.56847478617E+01 -0.20132991255E+01  0.23219196007E+02  0.17770000000E+01 0. -1.
        -16    1    5    5    0    0  0.40804371335E+03  0.39436566185E+03  0.20427361146E+03  0.60311827662E+03  0.00000000000E+00 0.  1.
          2    1    6    6  502    0  0.14275817719E+03 -0.21822506677E+02 -0.19432170242E+02  0.14571797484E+03  0.00000000000E+00 0. -1.
         -1    1    6    6    0  502  0.31216620732E+03 -0.14165421276E+03  0.33514659111E+02  0.34443706154E+03  0.00000000000E+00 0.  1.
<mgrwt>
<rscale>  0 0.99716905E+03</rscale>
<asrwt>0</asrwt>
<pdfrwt beam="1">  1        1 0.13378581E+00 0.99716905E+03</pdfrwt>
<pdfrwt beam="2">  1       -2 0.22936377E+00 0.99716905E+03</pdfrwt>
<totfact> 0.14576215E+00</totfact>
</mgrwt>
</event>
<event>
12    3  0.1201947E-007  0.6188693E+03  0.7818608E-02  0.9867014E-01
         -2   -1    0    0    0  501 -0.00000000000E+00  0.00000000000E+00  0.14001072073E+04  0.14001072073E+04  0.00000000000E+00 0.  1.
          1   -1    0    0  501    0  0.00000000000E+00 -0.00000000000E+00 -0.80079923085E+03  0.80079923085E+03  0.00000000000E+00 0. -1.
        -24    2    1    2    0    0 -0.28831021130E+03 -0.37624187184E+03 -0.60647257754E+03  0.77307980104E+03  0.71851704268E+02 0.  0.
    5000000    2    1    2    0    0  0.28831021130E+03  0.37624187184E+03  0.12057805540E+04  0.14278266371E+04  0.60008452507E+03 0.  0.
        -24    2    4    4    0    0 -0.16459605271E+03  0.20465253613E+03  0.44273473463E+03  0.52064175486E+03  0.77969677089E+02 0.  0.
         24    2    4    4    0    0  0.45290626401E+03  0.17158933571E+03  0.76304581936E+03  0.90718488227E+03  0.78603460844E+02 0.  0.
         13    1    3    3    0    0 -0.13836968181E+03 -0.16354067072E+03 -0.21924130647E+03  0.30652645936E+03  0.00000000000E+00 0. -1.
        -14    1    3    3    0    0 -0.14994052949E+03 -0.21270120112E+03 -0.38723127107E+03  0.46655334168E+03  0.00000000000E+00 0.  1.
         15    1    5    5    0    0 -0.10811837066E+03  0.18273743739E+03  0.32460882075E+03  0.38788735135E+03  0.17770000000E+01 0. -1.
        -16    1    5    5    0    0 -0.56477682050E+02  0.21915098743E+02  0.11812591388E+03  0.13275440351E+03  0.00000000000E+00 0.  1.
          2    1    6    6  502    0  0.40472838761E+03  0.17727486441E+03  0.67777040162E+03  0.80907611669E+03  0.00000000000E+00 0. -1.
         -1    1    6    6    0  502  0.48177876396E+02 -0.56855287061E+01  0.85275417745E+02  0.98108765573E+02  0.00000000000E+00 0.  1.
<mgrwt>
<rscale>  0 0.61886926E+03</rscale>
<asrwt>0</asrwt>
<pdfrwt beam="1">  1        1 0.12319988E+00 0.61886926E+03</pdfrwt>
<pdfrwt beam="2">  1       -2 0.21540111E+00 0.61886926E+03</pdfrwt>
<totfact> 0.21567485E+00</totfact>
</mgrwt>
</event>
<event>
12    3  0.1201947E-007  0.1016108E+04  0.7818608E-02  0.9291052E-01
          1   -1    0    0  501    0  0.00000000000E+00  0.00000000000E+00  0.90532555585E+03  0.90532555585E+03  0.00000000000E+00 0. -1.
         -2   -1    0    0    0  501 -0.00000000000E+00 -0.00000000000E+00 -0.19372556384E+04  0.19372556384E+04  0.00000000000E+00 0.  1.
        -24    2    1    2    0    0  0.72436202438E+03  0.59948408210E+03 -0.13820800521E+04  0.16734875716E+04  0.79585644911E+02 0.  0.
    5000000    2    1    2    0    0 -0.72436202438E+03 -0.59948408210E+03  0.35014996957E+03  0.11690936226E+04  0.60007782011E+03 0.  0.
        -24    2    4    4    0    0 -0.76663560438E+03 -0.64612951454E+03  0.28194219898E+03  0.10446085246E+04  0.80635392826E+02 0.  0.
         24    2    4    4    0    0  0.42273579997E+02  0.46645432442E+02  0.68207770593E+02  0.12448509804E+03  0.82954130288E+02 0.  0.
         11    1    3    3    0    0  0.45166891369E+03  0.40392349654E+03 -0.83495977688E+03  0.10316573208E+04  0.00000000000E+00 0. -1.
        -12    1    3    3    0    0  0.27269311070E+03  0.19556058556E+03 -0.54712027520E+03  0.64183025075E+03  0.00000000000E+00 0.  1.
         15    1    5    5    0    0 -0.42251299199E+03 -0.36529098883E+03  0.19788491320E+03  0.59255069954E+03  0.17770000000E+01 0. -1.
        -16    1    5    5    0    0 -0.34412261239E+03 -0.28083852571E+03  0.84057285779E+02  0.45205782503E+03  0.00000000000E+00 0.  1.
          4    1    6    6  502    0  0.17334209605E+02  0.58049992452E+02  0.74823818476E+02  0.96275024059E+02  0.00000000000E+00 0. -1.
         -3    1    6    6    0  502  0.24939370392E+02 -0.11404560010E+02 -0.66160478823E+01  0.28210073983E+02  0.00000000000E+00 0.  1.
<mgrwt>
<rscale>  0 0.10161080E+04</rscale>
<asrwt>0</asrwt>
<pdfrwt beam="1">  1        1 0.13928086E+00 0.10161080E+04</pdfrwt>
<pdfrwt beam="2">  1       -2 0.29803933E+00 0.10161080E+04</pdfrwt>
<totfact> 0.51896646E-01</totfact>
</mgrwt>
</event>
<event>
12    3  0.1201947E-007  0.1148921E+04  0.7818608E-02  0.9158780E-01
          1   -1    0    0  501    0  0.00000000000E+00  0.00000000000E+00  0.17488917738E+04  0.17488917738E+04  0.00000000000E+00 0. -1.
         -2   -1    0    0    0  501 -0.00000000000E+00 -0.00000000000E+00 -0.11727201561E+04  0.11727201561E+04  0.00000000000E+00 0.  1.
        -24    2    1    2    0    0 -0.90581915749E+02 -0.10750246031E+04  0.11337894095E+04  0.15670742253E+04  0.79751000229E+02 0.  0.
    5000000    2    1    2    0    0  0.90581915749E+02  0.10750246031E+04 -0.55761779176E+03  0.13545377046E+04  0.59995984106E+03 0.  0.
        -24    2    4    4    0    0  0.30629876224E+03  0.81862965538E+03 -0.48500328746E+03  0.10032559934E+04  0.85562580158E+02 0.  0.
         24    2    4    4    0    0 -0.21571684649E+03  0.25639494771E+03 -0.72614504300E+02  0.35128171119E+03  0.76510439227E+02 0.  0.
         11    1    3    3    0    0 -0.80225128088E+02 -0.48343145019E+03  0.50605122966E+03  0.70443586312E+03  0.00000000000E+00 0. -1.
        -12    1    3    3    0    0 -0.10356787661E+02 -0.59159315290E+03  0.62773817980E+03  0.86263836222E+03  0.00000000000E+00 0.  1.
         15    1    5    5    0    0  0.94547821008E+02  0.33314765302E+03 -0.22727836311E+03  0.41422851331E+03  0.17770000000E+01 0. -1.
        -16    1    5    5    0    0  0.21175094123E+03  0.48548200235E+03 -0.25772492435E+03  0.58902748013E+03  0.00000000000E+00 0.  1.
          4    1    6    6  502    0 -0.15618523278E+03  0.22188658470E+03 -0.77798266471E+02  0.28227655530E+03  0.00000000000E+00 0. -1.
         -3    1    6    6    0  502 -0.59531613711E+02  0.34508363010E+02  0.51837621703E+01  0.69005155886E+02  0.00000000000E+00 0.  1.
<mgrwt>
<rscale>  0 0.11489208E+04</rscale>
<asrwt>0</asrwt>
<pdfrwt beam="1">  1        1 0.26906027E+00 0.11489208E+04</pdfrwt>
<pdfrwt beam="2">  1       -2 0.18041849E+00 0.11489208E+04</pdfrwt>
<totfact> 0.68402324E-01</totfact>
</mgrwt>
</event>
<event>
12    3  0.1201947E-007  0.1154838E+04  0.7818608E-02  0.9153331E-01
          1   -1    0    0  501    0  0.00000000000E+00  0.00000000000E+00  0.28035990878E+04  0.28035990878E+04  0.00000000000E+00 0. -1.
         -2   -1    0    0    0  501 -0.00000000000E+00 -0.00000000000E+00 -0.99968859325E+03  0.99968859325E+03  0.00000000000E+00 0.  1.
        -24    2    1    2    0    0 -0.10875498979E+03 -0.11475687269E+04  0.21654464496E+04  0.24544224492E+04  0.79307013552E+02 0.  0.
    5000000    2    1    2    0    0  0.10875498979E+03  0.11475687269E+04 -0.36153595507E+03  0.13488652318E+04  0.59998961335E+03 0.  0.
        -24    2    4    4    0    0  0.47935291318E+02  0.60221445413E+03  0.11192244283E+03  0.62001634124E+03  0.83268176874E+02 0.  0.
         24    2    4    4    0    0  0.60819698471E+02  0.54535427273E+03 -0.47345839790E+03  0.72884889058E+03  0.77120245359E+02 0.  0.
         13    1    3    3    0    0 -0.63945902581E+02 -0.45707635575E+03  0.93724189372E+03  0.10447153875E+04  0.00000000000E+00 0. -1.
        -14    1    3    3    0    0 -0.44809087208E+02 -0.69049237112E+03  0.12282045559E+04  0.14097070617E+04  0.00000000000E+00 0.  1.
         15    1    5    5    0    0  0.42881581246E+02  0.46946193469E+03  0.52000855575E+02  0.47427901581E+03  0.17770000000E+01 0. -1.
        -16    1    5    5    0    0  0.50537100721E+01  0.13275251945E+03  0.59921587256E+02  0.14573732543E+03  0.00000000000E+00 0.  1.
          4    1    6    6  502    0  0.70139078897E+02  0.38677092119E+03 -0.30704898149E+03  0.49878884601E+03  0.00000000000E+00 0. -1.
         -3    1    6    6    0  502 -0.93193804260E+01  0.15858335154E+03 -0.16640941641E+03  0.23006004457E+03  0.00000000000E+00 0.  1.
<mgrwt>
<rscale>  0 0.11548385E+04</rscale>
<asrwt>0</asrwt>
<pdfrwt beam="1">  1        1 0.43132293E+00 0.11548385E+04</pdfrwt>
<pdfrwt beam="2">  1       -2 0.15379825E+00 0.11548385E+04</pdfrwt>
<totfact> 0.20191525E-01</totfact>
</mgrwt>
</event>
<event>
12    3  0.1201947E-007  0.5024860E+03  0.7818608E-02  0.1013132E+00
          1   -1    0    0  501    0  0.00000000000E+00  0.00000000000E+00  0.10496329418E+04  0.10496329418E+04  0.00000000000E+00 0. -1.
         -2   -1    0    0    0  501 -0.00000000000E+00 -0.00000000000E+00 -0.40016506650E+03  0.40016506650E+03  0.00000000000E+00 0.  1.
        -24    2    1    2    0    0 -0.36210146543E+03  0.33111417731E+03  0.39221776969E+03  0.63316785024E+03  0.79452363326E+02 0.  0.
    5000000    2    1    2    0    0  0.36210146543E+03 -0.33111417731E+03  0.25725010565E+03  0.81663015810E+03  0.59996093922E+03 0.  0.
        -24    2    4    4    0    0  0.51196289490E+02 -0.32555904545E+02 -0.17406167254E+03  0.20153936084E+03  0.81484361345E+02 0.  0.
         24    2    4    4    0    0  0.31090517594E+03 -0.29855827276E+03  0.43131177819E+03  0.61509079726E+03  0.80670739460E+02 0.  0.
         11    1    3    3    0    0 -0.25189827993E+03  0.17905814828E+03  0.23496658029E+03  0.38823170627E+03  0.00000000000E+00 0. -1.
        -12    1    3    3    0    0 -0.11020318550E+03  0.15205602902E+03  0.15725118940E+03  0.24493614397E+03  0.00000000000E+00 0.  1.
         15    1    5    5    0    0  0.48267073450E+02 -0.97609889477E+01 -0.34633511201E+02  0.60229769315E+02  0.17770000000E+01 0. -1.
        -16    1    5    5    0    0  0.29292160403E+01 -0.22794915597E+02 -0.13942816134E+03  0.14130959153E+03  0.00000000000E+00 0.  1.
          4    1    6    6  502    0  0.13469199896E+03 -0.86173927724E+02  0.12630245921E+03  0.20376504019E+03  0.00000000000E+00 0. -1.
         -3    1    6    6    0  502  0.17621317698E+03 -0.21238434504E+03  0.30500931898E+03  0.41132575707E+03  0.00000000000E+00 0.  1.
<mgrwt>
<rscale>  0 0.50248603E+03</rscale>
<asrwt>0</asrwt>
<pdfrwt beam="1">  1        1 0.16148199E+00 0.50248603E+03</pdfrwt>
<pdfrwt beam="2">  1       -2 0.61563857E-01 0.50248603E+03</pdfrwt>
<totfact> 0.31391242E+01</totfact>
</mgrwt>
</event>
<event>
12    3  0.1201947E-007  0.8506924E+03  0.7818608E-02  0.9489408E-01
          1   -1    0    0  501    0  0.00000000000E+00  0.00000000000E+00  0.15011586592E+04  0.15011586592E+04  0.00000000000E+00 0. -1.
         -2   -1    0    0    0  501 -0.00000000000E+00 -0.00000000000E+00 -0.89907810696E+03  0.89907810696E+03  0.00000000000E+00 0.  1.
        -24    2    1    2    0    0  0.77874596302E+03 -0.12238219686E+03 -0.48551240245E+03  0.92907493495E+03  0.77686966642E+02 0.  0.
    5000000    2    1    2    0    0 -0.77874596302E+03  0.12238219686E+03  0.10875929547E+04  0.14711618312E+04  0.60003001713E+03 0.  0.
        -24    2    4    4    0    0  0.51985532734E+02  0.55469314908E+02  0.30895372103E+03  0.32792478848E+03  0.79390960745E+02 0.  0.
         24    2    4    4    0    0 -0.83073149576E+03  0.66912881948E+02  0.77863923363E+03  0.11432370427E+04  0.78228689405E+02 0.  0.
         13    1    3    3    0    0  0.39537834488E+03 -0.46669004336E+02 -0.28688459933E+03  0.49071866165E+03  0.00000000000E+00 0. -1.
        -14    1    3    3    0    0  0.38336761815E+03 -0.75713192520E+02 -0.19862780312E+03  0.43835627330E+03  0.00000000000E+00 0.  1.
         15    1    5    5    0    0  0.40115081068E+02  0.33257739390E+02  0.29410064844E+03  0.29868653485E+03  0.17770000000E+01 0. -1.
        -16    1    5    5    0    0  0.11870451666E+02  0.22211575517E+02  0.14853072590E+02  0.29238253625E+02  0.00000000000E+00 0.  1.
          4    1    6    6  502    0 -0.41371357896E+03  0.60381655724E+02  0.42848556584E+03  0.59866914894E+03  0.00000000000E+00 0. -1.
         -3    1    6    6    0  502 -0.41701791680E+03  0.65312262247E+01  0.35015366779E+03  0.54456789376E+03  0.00000000000E+00 0.  1.
<mgrwt>
<rscale>  0 0.85069243E+03</rscale>
<asrwt>0</asrwt>
<pdfrwt beam="1">  1        1 0.23094749E+00 0.85069243E+03</pdfrwt>
<pdfrwt beam="2">  1       -2 0.13831971E+00 0.85069243E+03</pdfrwt>
<totfact> 0.21622457E+00</totfact>
</mgrwt>
</event>
<event>
12    3  0.1201947E-007  0.1239209E+04  0.7818608E-02  0.9079213E-01
         -2   -1    0    0    0  501 -0.00000000000E+00  0.00000000000E+00  0.22925598352E+04  0.22925598352E+04  0.00000000000E+00 0.  1.
          1   -1    0    0  501    0  0.00000000000E+00 -0.00000000000E+00 -0.72653276589E+03  0.72653276589E+03  0.00000000000E+00 0. -1.
        -24    2    1    2    0    0  0.12150495395E+04 -0.96666825829E+02  0.69744664498E+03  0.14065910755E+04  0.79854696400E+02 0.  0.
    5000000    2    1    2    0    0 -0.12150495395E+04  0.96666825829E+02  0.86858042436E+03  0.16125015256E+04  0.60003279722E+03 0.  0.
        -24    2    4    4    0    0 -0.48960834387E+03 -0.10294995848E+03  0.66008108317E+02  0.50961498660E+03  0.70960128755E+02 0.  0.
         24    2    4    4    0    0 -0.72544119563E+03  0.19961678431E+03  0.80257231604E+03  0.11028865390E+04  0.78259864957E+02 0.  0.
         11    1    3    3    0    0  0.82817520250E+03 -0.29185254357E+02  0.46490192468E+03  0.95018932044E+03  0.00000000000E+00 0. -1.
        -12    1    3    3    0    0  0.38687433700E+03 -0.67481571473E+02  0.23254472030E+03  0.45640175510E+03  0.00000000000E+00 0.  1.
         15    1    5    5    0    0 -0.21290709974E+03 -0.34471929544E+02 -0.54124800367E+01  0.21575495293E+03  0.17770000000E+01 0. -1.
        -16    1    5    5    0    0 -0.27670124413E+03 -0.68478028932E+02  0.71420588353E+02  0.29386003367E+03  0.00000000000E+00 0.  1.
          2    1    6    6  502    0 -0.23798968278E+03  0.10309725391E+03  0.26367235390E+03  0.36985300200E+03  0.00000000000E+00 0. -1.
         -1    1    6    6    0  502 -0.48745151285E+03  0.96519530391E+02  0.53889996214E+03  0.73303353697E+03  0.00000000000E+00 0.  1.
<mgrwt>
<rscale>  0 0.12392086E+04</rscale>
<asrwt>0</asrwt>
<pdfrwt beam="1">  1        1 0.11177427E+00 0.12392086E+04</pdfrwt>
<pdfrwt beam="2">  1       -2 0.35270151E+00 0.12392086E+04</pdfrwt>
<totfact> 0.33190639E-01</totfact>
</mgrwt>
</event>
<event>
12    3  0.1201947E-007  0.7247883E+03  0.7818608E-02  0.9675755E-01
         -2   -1    0    0    0  501 -0.00000000000E+00  0.00000000000E+00  0.27528782456E+03  0.27528782456E+03  0.00000000000E+00 0.  1.
          1   -1    0    0  501    0  0.00000000000E+00 -0.00000000000E+00 -0.22992324905E+04  0.22992324905E+04  0.00000000000E+00 0. -1.
        -24    2    1    2    0    0 -0.60286723401E+03  0.10438885913E+03 -0.13503164850E+04  0.14845352017E+04  0.78385073590E+02 0.  0.
    5000000    2    1    2    0    0  0.60286723401E+03 -0.10438885913E+03 -0.67362818095E+03  0.10899851134E+04  0.59995556952E+03 0.  0.
        -24    2    4    4    0    0  0.45758057895E+02  0.19664519966E+03 -0.20162010323E+03  0.29585094252E+03  0.78191941755E+02 0.  0.
         24    2    4    4    0    0  0.55710917611E+03 -0.30103405878E+03 -0.47200807773E+03  0.79413417083E+03  0.82857209595E+02 0.  0.
         13    1    3    3    0    0 -0.50475619109E+03  0.87533961118E+02 -0.11933566835E+04  0.12986690036E+04  0.00000000000E+00 0. -1.
        -14    1    3    3    0    0 -0.98111042915E+02  0.16854898007E+02 -0.15695980148E+03  0.18586619814E+03  0.00000000000E+00 0.  1.
         15    1    5    5    0    0 -0.41022844570E+01  0.23650638585E+02 -0.66581376698E+02  0.70798438509E+02  0.17770000000E+01 0. -1.
        -16    1    5    5    0    0  0.49860342352E+02  0.17299456107E+03 -0.13503872653E+03  0.22505250401E+03  0.00000000000E+00 0.  1.
          2    1    6    6  502    0  0.19992828551E+03 -0.95936603831E+02 -0.21365958959E+03  0.30793760979E+03  0.00000000000E+00 0. -1.
         -1    1    6    6    0  502  0.35718089060E+03 -0.20509745495E+03 -0.25834848814E+03  0.48619656104E+03  0.00000000000E+00 0.  1.
<mgrwt>
<rscale>  0 0.72478831E+03</rscale>
<asrwt>0</asrwt>
<pdfrwt beam="1">  1        1 0.35372808E+00 0.72478831E+03</pdfrwt>
<pdfrwt beam="2">  1       -2 0.42351973E-01 0.72478831E+03</pdfrwt>
<totfact> 0.90931944E+00</totfact>
</mgrwt>
</event>
<event>
12    3  0.1201947E-007  0.4663010E+03  0.7818608E-02  0.1022969E+00
          1   -1    0    0  501    0  0.00000000000E+00  0.00000000000E+00  0.54426511361E+03  0.54426511361E+03  0.00000000000E+00 0. -1.
         -2   -1    0    0    0  501 -0.00000000000E+00 -0.00000000000E+00 -0.58023356935E+03  0.58023356935E+03  0.00000000000E+00 0.  1.
        -24    2    1    2    0    0  0.66991141523E+02  0.29549786500E+03 -0.26653639838E+03  0.41403948032E+03  0.92629575952E+02 0.  0.
    5000000    2    1    2    0    0 -0.66991141523E+02 -0.29549786500E+03  0.23056794264E+03  0.71045920264E+03  0.59981989062E+03 0.  0.
        -24    2    4    4    0    0 -0.22113333874E+03  0.63916725911E+02 -0.92975982370E+01  0.24469237266E+03  0.82477939766E+02 0.  0.
         24    2    4    4    0    0  0.15414219722E+03 -0.35941459091E+03  0.23986554087E+03  0.46576682998E+03  0.80402718172E+02 0.  0.
         13    1    3    3    0    0  0.21400175314E+02  0.19245477262E+03 -0.21733805282E+03  0.29108870849E+03  0.00000000000E+00 0. -1.
        -14    1    3    3    0    0  0.45590966209E+02  0.10304309238E+03 -0.49198345553E+02  0.12295077182E+03  0.00000000000E+00 0.  1.
         15    1    5    5    0    0 -0.14500805172E+03  0.65141346761E+02  0.25451581571E+02  0.16100208338E+03  0.17770000000E+01 0. -1.
        -16    1    5    5    0    0 -0.76125287028E+02 -0.12246208502E+01 -0.34749179808E+02  0.83690289273E+02  0.00000000000E+00 0.  1.
          4    1    6    6  502    0  0.70917848868E+02 -0.15444988444E+03  0.15108436488E+03  0.22739963369E+03  0.00000000000E+00 0. -1.
         -3    1    6    6    0  502  0.83224348353E+02 -0.20496470646E+03  0.88781175994E+02  0.23836719629E+03  0.00000000000E+00 0.  1.
<mgrwt>
<rscale>  0 0.46630100E+03</rscale>
<asrwt>0</asrwt>
<pdfrwt beam="1">  1        1 0.83733095E-01 0.46630100E+03</pdfrwt>
<pdfrwt beam="2">  1       -2 0.89266703E-01 0.46630100E+03</pdfrwt>
<totfact> 0.38784523E+01</totfact>
</mgrwt>
</event>
<event>
12    3  0.1201947E-007  0.4947268E+03  0.7818608E-02  0.1015165E+00
          1   -1    0    0  501    0  0.00000000000E+00  0.00000000000E+00  0.14630558540E+04  0.14630558540E+04  0.00000000000E+00 0. -1.
         -2   -1    0    0    0  501 -0.00000000000E+00 -0.00000000000E+00 -0.17819273847E+03  0.17819273847E+03  0.00000000000E+00 0.  1.
        -24    2    1    2    0    0 -0.21767224189E+03 -0.24516617843E+03  0.41108824285E+03  0.53181934782E+03  0.79690748299E+02 0.  0.
    5000000    2    1    2    0    0  0.21767224189E+03  0.24516617843E+03  0.87377487268E+03  0.11094292447E+04  0.59988587317E+03 0.  0.
        -24    2    4    4    0    0 -0.62786603336E+02 -0.15673088247E+03  0.21425143276E+03  0.28412216238E+03  0.79466972008E+02 0.  0.
         24    2    4    4    0    0  0.28045884523E+03  0.40189706090E+03  0.65952343992E+03  0.82530708227E+03  0.77344688347E+02 0.  0.
         13    1    3    3    0    0 -0.17758186169E+03 -0.21045821407E+03  0.38327584951E+03  0.47194104959E+03  0.00000000000E+00 0. -1.
        -14    1    3    3    0    0 -0.40090380200E+02 -0.34707964366E+02  0.27812393335E+02  0.59878298222E+02  0.00000000000E+00 0.  1.
         15    1    5    5    0    0 -0.35235796288E+02 -0.71063052950E+02  0.41974606211E+02  0.89758253828E+02  0.17770000000E+01 0. -1.
        -16    1    5    5    0    0 -0.27550807047E+02 -0.85667829518E+02  0.17227682655E+03  0.19436390856E+03  0.00000000000E+00 0.  1.
          4    1    6    6  502    0  0.11862608621E+03  0.13610099621E+03  0.19070619629E+03  0.26261089619E+03  0.00000000000E+00 0. -1.
         -3    1    6    6    0  502  0.16183275903E+03  0.26579606469E+03  0.46881724363E+03  0.56269618607E+03  0.00000000000E+00 0.  1.
<mgrwt>
<rscale>  0 0.49472683E+03</rscale>
<asrwt>0</asrwt>
<pdfrwt beam="1">  1        1 0.22508551E+00 0.49472683E+03</pdfrwt>
<pdfrwt beam="2">  1       -2 0.27414268E-01 0.49472683E+03</pdfrwt>
<totfact> 0.77716880E+01</totfact>
</mgrwt>
</event>
<event>
12    3  0.1201947E-007  0.7974544E+03  0.7818608E-02  0.9563709E-01
          1   -1    0    0  501    0  0.00000000000E+00  0.00000000000E+00  0.25452863183E+04  0.25452863183E+04  0.00000000000E+00 0. -1.
         -2   -1    0    0    0  501 -0.00000000000E+00 -0.00000000000E+00 -0.31773294724E+03  0.31773294724E+03  0.00000000000E+00 0.  1.
        -24    2    1    2    0    0 -0.15949666648E+03  0.76770624308E+03  0.76588312927E+03  0.10990528256E+04  0.80796555974E+02 0.  0.
    5000000    2    1    2    0    0  0.15949666648E+03 -0.76770624308E+03  0.14616702418E+04  0.17639664400E+04  0.60023798885E+03 0.  0.
        -24    2    4    4    0    0  0.17289897079E+03 -0.62070539755E+03  0.59341888381E+03  0.87967018620E+03  0.80649985577E+02 0.  0.
         24    2    4    4    0    0 -0.13402304311E+02 -0.14700084553E+03  0.86825135802E+03  0.88429625379E+03  0.79564900648E+02 0.  0.
         11    1    3    3    0    0 -0.14944142434E+03  0.59355470977E+03  0.56480722785E+03  0.83285481174E+03  0.00000000000E+00 0. -1.
        -12    1    3    3    0    0 -0.10055242140E+02  0.17415153330E+03  0.20107590142E+03  0.26619801385E+03  0.00000000000E+00 0.  1.
         15    1    5    5    0    0  0.96286596376E+02 -0.38469348187E+03  0.41527318702E+03  0.57420829080E+03  0.17770000000E+01 0. -1.
        -16    1    5    5    0    0  0.76612374415E+02 -0.23601191567E+03  0.17814569680E+03  0.30546189540E+03  0.00000000000E+00 0.  1.
          4    1    6    6  502    0  0.28851303537E+02 -0.47306923531E+02  0.39161423200E+03  0.39551491683E+03  0.00000000000E+00 0. -1.
         -3    1    6    6    0  502 -0.42253607848E+02 -0.99693922000E+02  0.47663712602E+03  0.48878133696E+03  0.00000000000E+00 0.  1.
<mgrwt>
<rscale>  0 0.79745440E+03</rscale>
<asrwt>0</asrwt>
<pdfrwt beam="1">  1        1 0.39158250E+00 0.79745440E+03</pdfrwt>
<pdfrwt beam="2">  1       -2 0.48881994E-01 0.79745440E+03</pdfrwt>
<totfact> 0.45918290E+00</totfact>
</mgrwt>
</event>
<event>
12    3  0.1201947E-007  0.1326086E+04  0.7818608E-02  0.9009131E-01
         -2   -1    0    0    0  501 -0.00000000000E+00  0.00000000000E+00  0.11009558543E+04  0.11009558543E+04  0.00000000000E+00 0.  1.
          1   -1    0    0  501    0  0.00000000000E+00 -0.00000000000E+00 -0.31175943581E+04  0.31175943581E+04  0.00000000000E+00 0. -1.
        -24    2    1    2    0    0  0.12389912641E+04 -0.31889836557E+03 -0.24289852753E+04  0.27465506202E+04  0.82312341596E+02 0.  0.
    5000000    2    1    2    0    0 -0.12389912641E+04  0.31889836557E+03  0.41234677145E+03  0.14719995922E+04  0.59996451520E+03 0.  0.
        -24    2    4    4    0    0 -0.10666328363E+04  0.74268875217E+02  0.44657325001E+03  0.11615613373E+04  0.81090068735E+02 0.  0.
         24    2    4    4    0    0 -0.17235842779E+03  0.24462949035E+03 -0.34226478560E+02  0.31043825497E+03  0.75162777589E+02 0.  0.
         13    1    3    3    0    0  0.41294627406E+03 -0.14040353624E+03 -0.87169960527E+03  0.97472969591E+03  0.00000000000E+00 0. -1.
        -14    1    3    3    0    0  0.82604499005E+03 -0.17849482933E+03 -0.15572856700E+04  0.17718209243E+04  0.00000000000E+00 0.  1.
         15    1    5    5    0    0 -0.33154796070E+03  0.56469850069E+02  0.12137125141E+03  0.35755703407E+03  0.17770000000E+01 0. -1.
        -16    1    5    5    0    0 -0.73508487562E+03  0.17799025148E+02  0.32520199860E+03  0.80400430320E+03  0.00000000000E+00 0.  1.
          4    1    6    6  502    0 -0.90631121192E+02  0.12556566914E+03  0.20073376979E+02  0.15615273888E+03  0.00000000000E+00 0. -1.
         -3    1    6    6    0  502 -0.81727306602E+02  0.11906382121E+03 -0.54299855539E+02  0.15428551610E+03  0.00000000000E+00 0.  1.
<mgrwt>
<rscale>  0 0.13260859E+04</rscale>
<asrwt>0</asrwt>
<pdfrwt beam="1">  1        1 0.47962990E+00 0.13260859E+04</pdfrwt>
<pdfrwt beam="2">  1       -2 0.16937782E+00 0.13260859E+04</pdfrwt>
<totfact> 0.89668181E-02</totfact>
</mgrwt>
</event>
<event>
12    3  0.1260436E-007  0.7159007E+03  0.7818608E-02  0.9690420E-01
         -2   -1    0    0    0  501 -0.00000000000E+00  0.00000000000E+00  0.35285973214E+03  0.35285973214E+03  0.00000000000E+00 0.  1.
          1   -1    0    0  501    0  0.00000000000E+00 -0.00000000000E+00 -0.17280044355E+04  0.17280044355E+04  0.00000000000E+00 0. -1.
        -24    2    1    2    0    0  0.12128733328E+03  0.62701719613E+03 -0.82452115303E+03  0.10459853477E+04  0.79931435125E+02 0.  0.
    5000000    2    1    2    0    0 -0.12128733328E+03 -0.62701719613E+03 -0.55062355036E+03  0.10348788200E+04  0.59993891056E+03 0.  0.
        -24    2    4    4    0    0 -0.24558655368E+03 -0.61088012569E+03 -0.58280253248E+03  0.88291018114E+03  0.79901894788E+02 0.  0.
         24    2    4    4    0    0  0.12429922040E+03 -0.16137070438E+02  0.32178982117E+02  0.15196863885E+03  0.79676088444E+02 0.  0.
         11    1    3    3    0    0  0.93472790727E+01  0.23840386215E+03 -0.28394472956E+03  0.37087515764E+03  0.00000000000E+00 0. -1.
        -12    1    3    3    0    0  0.11194005421E+03  0.38861333398E+03 -0.54057642347E+03  0.67511019004E+03  0.00000000000E+00 0.  1.
         15    1    5    5    0    0 -0.11215196844E+03 -0.38242231663E+03 -0.34185821978E+03  0.52506675046E+03  0.17770000000E+01 0. -1.
        -16    1    5    5    0    0 -0.13343458525E+03 -0.22845780907E+03 -0.24094431270E+03  0.35784343068E+03  0.00000000000E+00 0.  1.
          2    1    6    6  502    0  0.98743301091E+02 -0.89424472062E+01 -0.12565436399E+02  0.99940467601E+02  0.00000000000E+00 0. -1.
         -1    1    6    6    0  502  0.25555919307E+02 -0.71946232315E+01  0.44744418516E+02  0.52028171248E+02  0.00000000000E+00 0.  1.
<mgrwt>
<rscale>  0 0.71590066E+03</rscale>
<asrwt>0</asrwt>
<pdfrwt beam="1">  1        1 0.26584684E+00 0.71590066E+03</pdfrwt>
<pdfrwt beam="2">  1       -2 0.54286112E-01 0.71590066E+03</pdfrwt>
<totfact> 0.13306791E+01</totfact>
</mgrwt>
</event>
<event>
12    3  0.1201947E-007  0.4426185E+03  0.7818608E-02  0.1029946E+00
         -2   -1    0    0    0  501 -0.00000000000E+00  0.00000000000E+00  0.32509011902E+03  0.32509011902E+03  0.00000000000E+00 0.  1.
          1   -1    0    0  501    0  0.00000000000E+00 -0.00000000000E+00 -0.21421677244E+04  0.21421677244E+04  0.00000000000E+00 0. -1.
        -24    2    1    2    0    0  0.75481293166E+02 -0.42896916571E+03 -0.16486740064E+04  0.17070968054E+04  0.79633867745E+02 0.  0.
    5000000    2    1    2    0    0 -0.75481293166E+02  0.42896916571E+03 -0.16840359902E+03  0.76016103806E+03  0.59981085425E+03 0.  0.
        -24    2    4    4    0    0 -0.28277575165E+02  0.18985024722E+03 -0.37673317788E+03  0.43003821238E+03  0.78499931025E+02 0.  0.
         24    2    4    4    0    0 -0.47203718001E+02  0.23911891849E+03  0.20832957886E+03  0.33012282568E+03  0.78573649730E+02 0.  0.
         11    1    3    3    0    0  0.51018897509E+02 -0.38585432213E+03 -0.15243530120E+04  0.15732573188E+04  0.00000000000E+00 0. -1.
        -12    1    3    3    0    0  0.24462395657E+02 -0.43114843582E+02 -0.12432099434E+03  0.13383948660E+03  0.00000000000E+00 0.  1.
         15    1    5    5    0    0 -0.18267682208E+02  0.15417885536E+03 -0.35404195548E+03  0.38659241019E+03  0.17770000000E+01 0. -1.
        -16    1    5    5    0    0 -0.10009892957E+02  0.35671391853E+02 -0.22691222403E+02  0.43445802189E+02  0.00000000000E+00 0.  1.
          4    1    6    6  502    0 -0.23928273907E+02  0.22630586547E+03  0.19789508860E+03  0.30157813769E+03  0.00000000000E+00 0. -1.
         -3    1    6    6    0  502 -0.23275444094E+02  0.12813053023E+02  0.10434490255E+02  0.28544687990E+02  0.00000000000E+00 0.  1.
<mgrwt>
<rscale>  0 0.44261852E+03</rscale>
<asrwt>0</asrwt>
<pdfrwt beam="1">  1        1 0.32956426E+00 0.44261852E+03</pdfrwt>
<pdfrwt beam="2">  1       -2 0.50013865E-01 0.44261852E+03</pdfrwt>
<totfact> 0.88050440E+00</totfact>
</mgrwt>
</event>
<event>
12    3  0.1201947E-007  0.9761016E+03  0.7818608E-02  0.9335152E-01
         -2   -1    0    0    0  501 -0.00000000000E+00  0.00000000000E+00  0.17411897820E+04  0.17411897820E+04  0.00000000000E+00 0.  1.
          1   -1    0    0  501    0  0.00000000000E+00 -0.00000000000E+00 -0.14210025250E+04  0.14210025250E+04  0.00000000000E+00 0. -1.
        -24    2    1    2    0    0 -0.19637806028E+03 -0.92178204206E+03  0.13461950414E+04  0.16453122426E+04  0.81023519402E+02 0.  0.
    5000000    2    1    2    0    0  0.19637806028E+03  0.92178204206E+03 -0.10260077843E+04  0.15168800644E+04  0.59998890037E+03 0.  0.
        -24    2    4    4    0    0  0.64304642115E+02  0.81877569486E+03 -0.51393063034E+03  0.97214851027E+03  0.80120582459E+02 0.  0.
         24    2    4    4    0    0  0.13207341817E+03  0.10300634720E+03 -0.51207715399E+03  0.54473155410E+03  0.80347738292E+02 0.  0.
         11    1    3    3    0    0 -0.96133315966E+02 -0.27977700788E+03  0.40123457699E+03  0.49850373554E+03  0.00000000000E+00 0. -1.
        -12    1    3    3    0    0 -0.10024474431E+03 -0.64200503418E+03  0.94496046438E+03  0.11468085071E+04  0.00000000000E+00 0.  1.
         15    1    5    5    0    0  0.29862228837E+02  0.30141077276E+03 -0.23507029066E+03  0.38340762372E+03  0.17770000000E+01 0. -1.
        -16    1    5    5    0    0  0.34442413278E+02  0.51736492210E+03 -0.27886033968E+03  0.58874088655E+03  0.00000000000E+00 0.  1.
          4    1    6    6  502    0  0.21624289179E+01  0.41312301977E+02 -0.97303567655E+02  0.10573252419E+03  0.00000000000E+00 0. -1.
         -3    1    6    6    0  502  0.12991098925E+03  0.61694045225E+02 -0.41477358633E+03  0.43899902991E+03  0.00000000000E+00 0.  1.
<mgrwt>
<rscale>  0 0.97610156E+03</rscale>
<asrwt>0</asrwt>
<pdfrwt beam="1">  1        1 0.21861577E+00 0.97610156E+03</pdfrwt>
<pdfrwt beam="2">  1       -2 0.26787535E+00 0.97610156E+03</pdfrwt>
<totfact> 0.32840242E-01</totfact>
</mgrwt>
</event>
<event>
12    3  0.1201947E-007  0.8730701E+03  0.7818608E-02  0.9459886E-01
         -2   -1    0    0    0  501 -0.00000000000E+00  0.00000000000E+00  0.19835227970E+04  0.19835227970E+04  0.00000000000E+00 0.  1.
          1   -1    0    0  501    0  0.00000000000E+00 -0.00000000000E+00 -0.12011480781E+04  0.12011480781E+04  0.00000000000E+00 0. -1.
        -24    2    1    2    0    0  0.62388097651E+03  0.59971683469E+03  0.16204727705E+04  0.18388063001E+04  0.79930310920E+02 0.  0.
    5000000    2    1    2    0    0 -0.62388097651E+03 -0.59971683469E+03 -0.83809805156E+03  0.13458645751E+04  0.60004612799E+03 0.  0.
        -24    2    4    4    0    0 -0.18241257466E+03 -0.14940644067E+03 -0.62939996465E+03  0.67685093606E+03  0.79913967743E+02 0.  0.
         24    2    4    4    0    0 -0.44146840186E+03 -0.45031039401E+03 -0.20869808691E+03  0.66901363900E+03  0.79690381400E+02 0.  0.
         13    1    3    3    0    0  0.12793496711E+03  0.97337140560E+02  0.35624347191E+03  0.39083409015E+03  0.00000000000E+00 0. -1.
        -14    1    3    3    0    0  0.49594600940E+03  0.50237969413E+03  0.12642292986E+04  0.14479722099E+04  0.00000000000E+00 0.  1.
         15    1    5    5    0    0 -0.17535273932E+03 -0.15651881569E+03 -0.62019618437E+03  0.66324444038E+03  0.17770000000E+01 0. -1.
        -16    1    5    5    0    0 -0.70598353341E+01  0.71123750230E+01 -0.92037802800E+01  0.13606495686E+02  0.00000000000E+00 0.  1.
          2    1    6    6  502    0 -0.28202582779E+03 -0.23910344162E+03 -0.14229002317E+03  0.39617606443E+03  0.00000000000E+00 0. -1.
         -3    1    6    6    0  502 -0.15944257407E+03 -0.21120695239E+03 -0.66408063739E+02  0.27283757457E+03  0.00000000000E+00 0.  1.
<mgrwt>
<rscale>  0 0.87307006E+03</rscale>
<asrwt>0</asrwt>
<pdfrwt beam="1">  1        1 0.18479201E+00 0.87307006E+03</pdfrwt>
<pdfrwt beam="2">  1       -2 0.30515735E+00 0.87307006E+03</pdfrwt>
<totfact> 0.28540685E-01</totfact>
</mgrwt>
</event>
<event>
12    3  0.1201947E-007  0.9499211E+03  0.7818608E-02  0.9365243E-01
         -2   -1    0    0    0  501 -0.00000000000E+00  0.00000000000E+00  0.76453638907E+03  0.76453638907E+03  0.00000000000E+00 0.  1.
          1   -1    0    0  501    0  0.00000000000E+00 -0.00000000000E+00 -0.22118629624E+04  0.22118629624E+04  0.00000000000E+00 0. -1.
        -24    2    1    2    0    0  0.27841268168E+03  0.87965082375E+03  0.24475563951E+03  0.95789810561E+03  0.79776341102E+02 0.  0.
    5000000    2    1    2    0    0 -0.27841268168E+03 -0.87965082375E+03 -0.16920822128E+04  0.20185012458E+04  0.59992155441E+03 0.  0.
        -24    2    4    4    0    0 -0.10492619701E+03 -0.73109089386E+03 -0.15921740494E+04  0.17568197501E+04  0.76772578338E+02 0.  0.
         24    2    4    4    0    0 -0.17348648467E+03 -0.14855992989E+03 -0.99908163372E+02  0.26168149571E+03  0.79548418949E+02 0.  0.
         11    1    3    3    0    0  0.27087939642E+03  0.77449593874E+03  0.22280586107E+03  0.85021294877E+03  0.00000000000E+00 0. -1.
        -12    1    3    3    0    0  0.75332852584E+01  0.10515488501E+03  0.21949778448E+02  0.10768515683E+03  0.00000000000E+00 0.  1.
         15    1    5    5    0    0 -0.81387254892E+02 -0.55748649346E+03 -0.12873746861E+04  0.14052586295E+04  0.17770000000E+01 0. -1.
        -16    1    5    5    0    0 -0.23538942122E+02 -0.17360440040E+03 -0.30479936331E+03  0.35156112059E+03  0.00000000000E+00 0.  1.
          4    1    6    6  502    0 -0.65573328185E+02 -0.22363770227E+02 -0.28275551647E+01  0.69339704761E+02  0.00000000000E+00 0. -1.
         -3    1    6    6    0  502 -0.10791315648E+03 -0.12619615966E+03 -0.97080608207E+02  0.19234179095E+03  0.00000000000E+00 0.  1.
<mgrwt>
<rscale>  0 0.94992106E+03</rscale>
<asrwt>0</asrwt>
<pdfrwt beam="1">  1        1 0.34028660E+00 0.94992106E+03</pdfrwt>
<pdfrwt beam="2">  1       -2 0.11762098E+00 0.94992106E+03</pdfrwt>
<totfact> 0.10629989E+00</totfact>
</mgrwt>
</event>
<event>
12    3  0.1201947E-007  0.4655451E+03  0.7818608E-02  0.1023185E+00
         -2   -1    0    0    0  501 -0.00000000000E+00  0.00000000000E+00  0.21186053016E+03  0.21186053016E+03  0.00000000000E+00 0.  1.
          1   -1    0    0  501    0  0.00000000000E+00 -0.00000000000E+00 -0.16088654177E+04  0.16088654177E+04  0.00000000000E+00 0. -1.
        -24    2    1    2    0    0 -0.36348929395E+03  0.32957307840E+02 -0.85720252875E+03  0.93496917177E+03  0.78489017757E+02 0.  0.
    5000000    2    1    2    0    0  0.36348929395E+03 -0.32957307840E+02 -0.53980235884E+03  0.88575677614E+03  0.59997319017E+03 0.  0.
        -24    2    4    4    0    0  0.81962433577E+02  0.18339917723E+03 -0.46718390574E+03  0.51488472978E+03  0.80575333999E+02 0.  0.
         24    2    4    4    0    0  0.28152686037E+03 -0.21635648507E+03 -0.72618453099E+02  0.37087204637E+03  0.78772668502E+02 0.  0.
         11    1    3    3    0    0 -0.26568520562E+03  0.55736164798E+01 -0.68911872283E+03  0.73858263441E+03  0.00000000000E+00 0. -1.
        -12    1    3    3    0    0 -0.97804088328E+02  0.27383691360E+02 -0.16808380591E+03  0.19638653736E+03  0.00000000000E+00 0.  1.
         15    1    5    5    0    0  0.38128310942E+01  0.65062089485E+01 -0.96293759584E+02  0.96604939313E+02  0.17770000000E+01 0. -1.
        -16    1    5    5    0    0  0.78149602483E+02  0.17689296828E+03 -0.37089014616E+03  0.41827979046E+03  0.00000000000E+00 0.  1.
          4    1    6    6  502    0  0.12358209460E+03 -0.14147532408E+03 -0.51655538602E+02  0.19482324322E+03  0.00000000000E+00 0. -1.
         -3    1    6    6    0  502  0.15794476577E+03 -0.74881160988E+02 -0.20962914497E+02  0.17604880315E+03  0.00000000000E+00 0.  1.
<mgrwt>
<rscale>  0 0.46554511E+03</rscale>
<asrwt>0</asrwt>
<pdfrwt beam="1">  1        1 0.24751776E+00 0.46554511E+03</pdfrwt>
<pdfrwt beam="2">  1       -2 0.32593927E-01 0.46554511E+03</pdfrwt>
<totfact> 0.45279596E+01</totfact>
</mgrwt>
</event>
<event>
12    3  0.1201947E-007  0.3794896E+03  0.7818608E-02  0.1051123E+00
         -2   -1    0    0    0  501 -0.00000000000E+00  0.00000000000E+00  0.31829136638E+03  0.31829136638E+03  0.00000000000E+00 0.  1.
          1   -1    0    0  501    0  0.00000000000E+00 -0.00000000000E+00 -0.52757528729E+03  0.52757528729E+03  0.00000000000E+00 0. -1.
        -24    2    1    2    0    0 -0.15799113989E+03  0.49922876055E+02  0.15488123675E+02  0.18400679348E+03  0.78518305089E+02 0.  0.
    5000000    2    1    2    0    0  0.15799113989E+03 -0.49922876055E+02 -0.22477204458E+03  0.66185986019E+03  0.60006875329E+03 0.  0.
        -24    2    4    4    0    0  0.77985320658E+02  0.25107296056E+03 -0.19970883214E+03  0.33927901078E+03  0.78149137933E+02 0.  0.
         24    2    4    4    0    0  0.80005819236E+02 -0.30099583661E+03 -0.25063212435E+02  0.32258084941E+03  0.80192362593E+02 0.  0.
         11    1    3    3    0    0 -0.89802605354E+01 -0.11805349154E+02 -0.13588799123E+02  0.20116331911E+02  0.00000000000E+00 0. -1.
        -12    1    3    3    0    0 -0.14901087936E+03  0.61728225209E+02  0.29076922797E+02  0.16389046157E+03  0.00000000000E+00 0.  1.
         15    1    5    5    0    0  0.34255087760E+02  0.15408954236E+03 -0.16255116255E+03  0.22659001804E+03  0.17770000000E+01 0. -1.
        -16    1    5    5    0    0  0.43730232898E+02  0.96983418199E+02 -0.37157669596E+02  0.11268899274E+03  0.00000000000E+00 0.  1.
          4    1    6    6  502    0  0.83213532051E+02 -0.18830925591E+03  0.49015490109E+01  0.20593419570E+03  0.00000000000E+00 0. -1.
         -3    1    6    6    0  502 -0.32077128153E+01 -0.11268658071E+03 -0.29964761446E+02  0.11664665371E+03  0.00000000000E+00 0.  1.
<mgrwt>
<rscale>  0 0.37948958E+03</rscale>
<asrwt>0</asrwt>
<pdfrwt beam="1">  1        1 0.81165429E-01 0.37948958E+03</pdfrwt>
<pdfrwt beam="2">  1       -2 0.48967903E-01 0.37948958E+03</pdfrwt>
<totfact> 0.14771270E+02</totfact>
</mgrwt>
</event>
<event>
12    3  0.1221604E-007  0.7349223E+03  0.7818608E-02  0.9659306E-01
         -2   -1    0    0    0  501 -0.00000000000E+00  0.00000000000E+00  0.85206444781E+03  0.85206444781E+03  0.00000000000E+00 0.  1.
          1   -1    0    0  501    0  0.00000000000E+00 -0.00000000000E+00 -0.68538946478E+03  0.68538946478E+03  0.00000000000E+00 0. -1.
        -24    2    1    2    0    0  0.63853960552E+03  0.64835735466E+02  0.11537679599E+03  0.65730674930E+03  0.82485497020E+02 0.  0.
    5000000    2    1    2    0    0 -0.63853960552E+03 -0.64835735466E+02  0.51298187049E+02  0.88014716329E+03  0.60007584908E+03 0.  0.
        -24    2    4    4    0    0  0.11978871199E+02  0.13638455399E+03  0.11053593580E+03  0.19186776990E+03  0.76490575238E+02 0.  0.
         24    2    4    4    0    0 -0.65051847672E+03 -0.20122028946E+03 -0.59237748755E+02  0.68827939339E+03  0.80966159872E+02 0.  0.
         11    1    3    3    0    0  0.25588321506E+03  0.64111423941E+02  0.61600062302E+02  0.27088939090E+03  0.00000000000E+00 0. -1.
        -12    1    3    3    0    0  0.38265639046E+03  0.72431152535E+00  0.53776733683E+02  0.38641735840E+03  0.00000000000E+00 0.  1.
         15    1    5    5    0    0  0.83141897284E+01  0.48413899193E+01  0.42722102211E+02  0.43828079510E+02  0.17770000000E+01 0. -1.
        -16    1    5    5    0    0  0.36646814709E+01  0.13154316408E+03  0.67813833593E+02  0.14803969039E+03  0.00000000000E+00 0.  1.
          4    1    6    6  502    0 -0.39243318559E+03 -0.14103775925E+03 -0.12958513513E+01  0.41700975278E+03  0.00000000000E+00 0. -1.
         -3    1    6    6    0  502 -0.25808529113E+03 -0.60182530212E+02 -0.57941897404E+02  0.27126964061E+03  0.00000000000E+00 0.  1.
<mgrwt>
<rscale>  0 0.73492234E+03</rscale>
<asrwt>0</asrwt>
<pdfrwt beam="1">  1        1 0.10544453E+00 0.73492234E+03</pdfrwt>
<pdfrwt beam="2">  1       -2 0.13108684E+00 0.73492234E+03</pdfrwt>
<totfact> 0.10709584E+01</totfact>
</mgrwt>
</event>
<event>
12    3  0.1201947E-007  0.6312205E+03  0.7818608E-02  0.9842670E-01
          1   -1    0    0  501    0  0.00000000000E+00  0.00000000000E+00  0.42641107114E+03  0.42641107114E+03  0.00000000000E+00 0. -1.
         -2   -1    0    0    0  501 -0.00000000000E+00 -0.00000000000E+00 -0.13076905456E+04  0.13076905456E+04  0.00000000000E+00 0.  1.
        -24    2    1    2    0    0 -0.46010201317E+03  0.30809704937E+03 -0.38277468495E+02  0.56047953736E+03  0.77810621738E+02 0.  0.
    5000000    2    1    2    0    0  0.46010201317E+03 -0.30809704937E+03 -0.84300200596E+03  0.11736220794E+04  0.60009894917E+03 0.  0.
        -24    2    4    4    0    0  0.12342391601E+03  0.10645939601E+03 -0.11067648548E+02  0.18177442447E+03  0.79701835005E+02 0.  0.
         24    2    4    4    0    0  0.33667809716E+03 -0.41455644538E+03 -0.83193435741E+03  0.99184765491E+03  0.80235952027E+02 0.  0.
         11    1    3    3    0    0 -0.23237408135E+03  0.16533431442E+03  0.18432585066E+02  0.28578472563E+03  0.00000000000E+00 0. -1.
        -12    1    3    3    0    0 -0.22772793181E+03  0.14276273494E+03 -0.56710053561E+02  0.27469481173E+03  0.00000000000E+00 0.  1.
         15    1    5    5    0    0  0.70336626189E+02  0.24244170527E+02  0.23409115816E+02  0.78013878384E+02  0.17770000000E+01 0. -1.
        -16    1    5    5    0    0  0.53087289818E+02  0.82215225488E+02 -0.34476764363E+02  0.10376054608E+03  0.00000000000E+00 0.  1.
          2    1    6    6  502    0  0.18433993860E+03 -0.18902717467E+03 -0.35061971255E+03  0.43891533188E+03  0.00000000000E+00 0. -1.
         -1    1    6    6    0  502  0.15233815856E+03 -0.22552927071E+03 -0.48131464485E+03  0.55293232303E+03  0.00000000000E+00 0.  1.
<mgrwt>
<rscale>  0 0.63122051E+03</rscale>
<asrwt>0</asrwt>
<pdfrwt beam="1">  1        1 0.65601704E-01 0.63122051E+03</pdfrwt>
<pdfrwt beam="2">  1       -2 0.20118316E+00 0.63122051E+03</pdfrwt>
<totfact> 0.65412274E+00</totfact>
</mgrwt>
</event>
<event>
12    3  0.1201947E-007  0.9652638E+03  0.7818608E-02  0.9347485E-01
         -2   -1    0    0    0  501 -0.00000000000E+00  0.00000000000E+00  0.10817135723E+04  0.10817135723E+04  0.00000000000E+00 0.  1.
          1   -1    0    0  501    0  0.00000000000E+00 -0.00000000000E+00 -0.10565450444E+04  0.10565450444E+04  0.00000000000E+00 0. -1.
        -24    2    1    2    0    0 -0.74883550124E+03 -0.59113104519E+03  0.24923748293E+03  0.98915138014E+03  0.78170387217E+02 0.  0.
    5000000    2    1    2    0    0  0.74883550124E+03  0.59113104519E+03 -0.22406895496E+03  0.11491072366E+04  0.60004168524E+03 0.  0.
        -24    2    4    4    0    0  0.97910393279E+02  0.82202783975E+02  0.17257666934E+03  0.22893025266E+03  0.79262923098E+02 0.  0.
         24    2    4    4    0    0  0.65092510796E+03  0.50892826121E+03 -0.39664562430E+03  0.92017698389E+03  0.81770772077E+02 0.  0.
         13    1    3    3    0    0 -0.69688370458E+03 -0.56492846883E+03  0.21841937953E+03  0.92330823561E+03  0.00000000000E+00 0. -1.
        -14    1    3    3    0    0 -0.51951796666E+02 -0.26202576362E+02  0.30818103397E+02  0.65843144532E+02  0.00000000000E+00 0.  1.
         15    1    5    5    0    0  0.91444690511E+02  0.30520887224E+02  0.93995490878E+02  0.13465498882E+03  0.17770000000E+01 0. -1.
        -16    1    5    5    0    0  0.64657027685E+01  0.51681896751E+02  0.78581178465E+02  0.94275263845E+02  0.00000000000E+00 0.  1.
          2    1    6    6  502    0  0.46265967260E+03  0.34545858143E+03 -0.23722949076E+03  0.62423828417E+03  0.00000000000E+00 0. -1.
         -1    1    6    6    0  502  0.18826543536E+03  0.16346967978E+03 -0.15941613354E+03  0.29593869972E+03  0.00000000000E+00 0.  1.
<mgrwt>
<rscale>  0 0.96526378E+03</rscale>
<asrwt>0</asrwt>
<pdfrwt beam="1">  1        1 0.16254539E+00 0.96526378E+03</pdfrwt>
<pdfrwt beam="2">  1       -2 0.16641747E+00 0.96526378E+03</pdfrwt>
<totfact> 0.27115771E+00</totfact>
</mgrwt>
</event>
<event>
12    3  0.1201947E-007  0.1420277E+04  0.7818608E-02  0.8939271E-01
          1   -1    0    0  501    0  0.00000000000E+00  0.00000000000E+00  0.12915861252E+04  0.12915861252E+04  0.00000000000E+00 0. -1.
         -2   -1    0    0    0  501 -0.00000000000E+00 -0.00000000000E+00 -0.17239396554E+04  0.17239396554E+04  0.00000000000E+00 0.  1.
        -24    2    1    2    0    0 -0.10427503531E+04  0.92606532684E+03 -0.53078562734E+03  0.14942492396E+04  0.78243973728E+02 0.  0.
    5000000    2    1    2    0    0  0.10427503531E+04 -0.92606532684E+03  0.98432097119E+02  0.15212765410E+04  0.59972339289E+03 0.  0.
        -24    2    4    4    0    0  0.11191848159E+03 -0.13251827460E+02  0.15996393242E+03  0.21359616477E+03  0.85635883110E+02 0.  0.
         24    2    4    4    0    0  0.93083187151E+03 -0.91281349938E+03 -0.61531835297E+02  0.13076803762E+04  0.81026797782E+02 0.  0.
         11    1    3    3    0    0 -0.92418579870E+03  0.85152039497E+03 -0.48241386627E+03  0.13460793112E+04  0.00000000000E+00 0. -1.
        -12    1    3    3    0    0 -0.11856455441E+03  0.74544931872E+02 -0.48371761064E+02  0.14816992846E+03  0.00000000000E+00 0.  1.
         15    1    5    5    0    0  0.99564523582E+02 -0.41372052501E+02  0.14096887511E+03  0.17748273877E+03  0.17770000000E+01 0. -1.
        -16    1    5    5    0    0  0.12353958012E+02  0.28120225041E+02  0.18995057308E+02  0.36113425994E+02  0.00000000000E+00 0.  1.
          4    1    6    6  502    0  0.15725295244E+02 -0.29427445883E+02  0.62735416615E+01  0.33950210701E+02  0.00000000000E+00 0. -1.
         -3    1    6    6    0  502  0.91510657627E+03 -0.88338605350E+03 -0.67805376958E+02  0.12737301655E+04  0.00000000000E+00 0.  1.
<mgrwt>
<rscale>  0 0.14202766E+04</rscale>
<asrwt>0</asrwt>
<pdfrwt beam="1">  1        1 0.19870556E+00 0.14202766E+04</pdfrwt>
<pdfrwt beam="2">  1       -2 0.26522148E+00 0.14202766E+04</pdfrwt>
<totfact> 0.39695523E-01</totfact>
</mgrwt>
</event>
<event>
12    3  0.1201947E-007  0.7924042E+03  0.7818608E-02  0.9571077E-01
         -2   -1    0    0    0  501 -0.00000000000E+00  0.00000000000E+00  0.33723062234E+03  0.33723062234E+03  0.00000000000E+00 0.  1.
          1   -1    0    0  501    0  0.00000000000E+00 -0.00000000000E+00 -0.21506019999E+04  0.21506019999E+04  0.00000000000E+00 0. -1.
        -24    2    1    2    0    0  0.57572345636E+03  0.46544155981E+03 -0.89726825179E+03  0.11659267171E+04  0.78749287484E+02 0.  0.
    5000000    2    1    2    0    0 -0.57572345636E+03 -0.46544155981E+03 -0.91610312578E+03  0.13219059051E+04  0.60008077882E+03 0.  0.
        -24    2    4    4    0    0 -0.70441473665E+02  0.70617344555E+02  0.14831480906E+02  0.13174379970E+03  0.84779982124E+02 0.  0.
         24    2    4    4    0    0 -0.50528198269E+03 -0.53605890436E+03 -0.93093460668E+03  0.11901621054E+04  0.84720506685E+02 0.  0.
         11    1    3    3    0    0  0.42894277200E+03  0.30214550557E+03 -0.61819132140E+03  0.81082940132E+03  0.00000000000E+00 0. -1.
        -12    1    3    3    0    0  0.14678068436E+03  0.16329605423E+03 -0.27907693039E+03  0.35509731582E+03  0.00000000000E+00 0.  1.
         15    1    5    5    0    0 -0.17362548521E+01 -0.71434263856E+00  0.31247327280E+02  0.31354075612E+02  0.17770000000E+01 0. -1.
        -16    1    5    5    0    0 -0.68705218813E+02  0.71331687193E+02 -0.16415846374E+02  0.10038972409E+03  0.00000000000E+00 0.  1.
          4    1    6    6  502    0 -0.33738426166E+03 -0.39650187828E+03 -0.60932234946E+03  0.80144594643E+03  0.00000000000E+00 0. -1.
         -3    1    6    6    0  502 -0.16789772103E+03 -0.13955702608E+03 -0.32161225722E+03  0.38871615898E+03  0.00000000000E+00 0.  1.
<mgrwt>
<rscale>  0 0.79240423E+03</rscale>
<asrwt>0</asrwt>
<pdfrwt beam="1">  1        1 0.33086186E+00 0.79240423E+03</pdfrwt>
<pdfrwt beam="2">  1       -2 0.51881632E-01 0.79240423E+03</pdfrwt>
<totfact> 0.75327279E+00</totfact>
</mgrwt>
</event>
<event>
12    3  0.1201947E-007  0.5458704E+03  0.7818608E-02  0.1002454E+00
          1   -1    0    0  501    0  0.00000000000E+00  0.00000000000E+00  0.16156988901E+04  0.16156988901E+04  0.00000000000E+00 0. -1.
         -2   -1    0    0    0  501 -0.00000000000E+00 -0.00000000000E+00 -0.19803199639E+03  0.19803199639E+03  0.00000000000E+00 0.  1.
        -24    2    1    2    0    0 -0.35558074492E+03  0.15674950280E+03  0.67131631246E+03  0.78011118881E+03  0.83065051229E+02 0.  0.
    5000000    2    1    2    0    0  0.35558074492E+03 -0.15674950280E+03  0.74635058127E+03  0.10336196977E+04  0.60026862031E+03 0.  0.
        -24    2    4    4    0    0  0.14244433921E+03  0.21365560020E+03  0.37695736454E+03  0.46315741435E+03  0.80491182877E+02 0.  0.
         24    2    4    4    0    0  0.21313640571E+03 -0.37040510300E+03  0.36939321673E+03  0.57046228335E+03  0.79679359875E+02 0.  0.
         11    1    3    3    0    0 -0.19109471085E+03  0.11809027112E+03  0.32916579773E+03  0.39851301490E+03  0.00000000000E+00 0. -1.
        -12    1    3    3    0    0 -0.16448603408E+03  0.38659231680E+02  0.34215051473E+03  0.38159817391E+03  0.00000000000E+00 0.  1.
         15    1    5    5    0    0  0.83245098916E+02  0.67873046002E+02  0.19477794352E+03  0.22243673680E+03  0.17770000000E+01 0. -1.
        -16    1    5    5    0    0  0.59199240297E+02  0.14578255419E+03  0.18217942102E+03  0.24072067755E+03  0.00000000000E+00 0.  1.
          4    1    6    6  502    0  0.44697667194E+02 -0.14658155613E+03  0.10950473702E+03  0.18834893544E+03  0.00000000000E+00 0. -1.
         -3    1    6    6    0  502  0.16843873852E+03 -0.22382354686E+03  0.25988847971E+03  0.38211334791E+03  0.00000000000E+00 0.  1.
<mgrwt>
<rscale>  0 0.54587039E+03</rscale>
<asrwt>0</asrwt>
<pdfrwt beam="1">  1        1 0.24856905E+00 0.54587039E+03</pdfrwt>
<pdfrwt beam="2">  1       -2 0.30466462E-01 0.54587039E+03</pdfrwt>
<totfact> 0.50146603E+01</totfact>
</mgrwt>
</event>
<event>
12    3  0.1201947E-007  0.8316084E+03  0.7818608E-02  0.9515360E-01
         -2   -1    0    0    0  501 -0.00000000000E+00  0.00000000000E+00  0.15096590385E+04  0.15096590385E+04  0.00000000000E+00 0.  1.
          1   -1    0    0  501    0  0.00000000000E+00 -0.00000000000E+00 -0.75978659334E+03  0.75978659334E+03  0.00000000000E+00 0. -1.
        -24    2    1    2    0    0 -0.15172969301E+03 -0.72249320765E+03  0.10375153882E+04  0.12755530461E+04  0.74693091243E+02 0.  0.
    5000000    2    1    2    0    0  0.15172969301E+03  0.72249320765E+03 -0.28764294305E+03  0.99389258571E+03  0.60005472617E+03 0.  0.
        -24    2    4    4    0    0  0.85923822371E+02 -0.74510820616E+02  0.23231649543E+02  0.13273175070E+03  0.64368023610E+02 0.  0.
         24    2    4    4    0    0  0.65805870639E+02  0.79700402826E+03 -0.31087459259E+03  0.86116083501E+03  0.73546840518E+02 0.  0.
         11    1    3    3    0    0 -0.49508101820E+02 -0.10678424580E+03  0.17514120580E+03  0.21101746199E+03  0.00000000000E+00 0. -1.
        -12    1    3    3    0    0 -0.10222159119E+03 -0.61570896185E+03  0.86237418239E+03  0.10645355841E+04  0.00000000000E+00 0.  1.
         15    1    5    5    0    0  0.39942460236E+02 -0.56723126330E+02 -0.14192899114E+02  0.70834379398E+02  0.17770000000E+01 0. -1.
        -16    1    5    5    0    0  0.45981362135E+02 -0.17787694286E+02  0.37424548658E+02  0.61897371302E+02  0.00000000000E+00 0.  1.
          2    1    6    6  502    0  0.61907342646E+02  0.33592711015E+03 -0.14598189713E+03  0.37147039814E+03  0.00000000000E+00 0. -1.
         -1    1    6    6    0  502  0.38985279938E+01  0.46107691812E+03 -0.16489269546E+03  0.48969043687E+03  0.00000000000E+00 0.  1.
<mgrwt>
<rscale>  0 0.83160836E+03</rscale>
<asrwt>0</asrwt>
<pdfrwt beam="1">  1        1 0.11689025E+00 0.83160836E+03</pdfrwt>
<pdfrwt beam="2">  1       -2 0.23225524E+00 0.83160836E+03</pdfrwt>
<totfact> 0.17781570E+00</totfact>
</mgrwt>
</event>
<event>
12    3  0.1325895E-007  0.1107495E+04  0.7818608E-02  0.9197917E-01
         -2   -1    0    0    0  501 -0.00000000000E+00  0.00000000000E+00  0.17713592389E+04  0.17713592389E+04  0.00000000000E+00 0.  1.
          1   -1    0    0  501    0  0.00000000000E+00 -0.00000000000E+00 -0.74713287364E+03  0.74713287364E+03  0.00000000000E+00 0. -1.
        -24    2    1    2    0    0 -0.91928198165E+03  0.53655819183E+03  0.35154343863E+03  0.11237265683E+04  0.78769004460E+02 0.  0.
    5000000    2    1    2    0    0  0.91928198165E+03 -0.53655819183E+03  0.67268292666E+03  0.13947655443E+04  0.59991211742E+03 0.  0.
        -24    2    4    4    0    0  0.29404974348E+03  0.29876523006E+02 -0.92049703881E+01  0.30713735003E+03  0.83010614026E+02 0.  0.
         24    2    4    4    0    0  0.62523223817E+03 -0.56643471484E+03  0.68188789705E+03  0.10876281942E+04  0.78742281622E+02 0.  0.
         13    1    3    3    0    0 -0.38759258504E+03  0.24470310668E+03  0.18889892403E+03  0.49577255460E+03  0.00000000000E+00 0. -1.
        -14    1    3    3    0    0 -0.53168939661E+03  0.29185508515E+03  0.16264451460E+03  0.62795401370E+03  0.00000000000E+00 0.  1.
         15    1    5    5    0    0  0.39459779967E+01  0.13424563205E+02 -0.86901212430E+01  0.16567002620E+02  0.17770000000E+01 0. -1.
        -16    1    5    5    0    0  0.29010376548E+03  0.16451959800E+02 -0.51484914509E+00  0.29057034741E+03  0.00000000000E+00 0.  1.
          4    1    6    6  502    0  0.24215274663E+03 -0.25558764919E+03  0.32024312897E+03  0.47593976591E+03  0.00000000000E+00 0. -1.
         -3    1    6    6    0  502  0.38307949155E+03 -0.31084706564E+03  0.36164476807E+03  0.61168842832E+03  0.00000000000E+00 0.  1.
<mgrwt>
<rscale>  0 0.11074951E+04</rscale>
<asrwt>0</asrwt>
<pdfrwt beam="1">  1        1 0.11494352E+00 0.11074951E+04</pdfrwt>
<pdfrwt beam="2">  1       -2 0.27251680E+00 0.11074951E+04</pdfrwt>
<totfact> 0.10015349E+00</totfact>
</mgrwt>
</event>
<event>
12    3  0.1201947E-007  0.8797802E+03  0.7818608E-02  0.9451216E-01
         -2   -1    0    0    0  501 -0.00000000000E+00  0.00000000000E+00  0.22077296392E+04  0.22077296392E+04  0.00000000000E+00 0.  1.
          1   -1    0    0  501    0  0.00000000000E+00 -0.00000000000E+00 -0.36698766825E+03  0.36698766825E+03  0.00000000000E+00 0. -1.
        -24    2    1    2    0    0 -0.77980983031E+03 -0.13392877869E+03  0.67228187381E+03  0.10412991596E+04  0.79377154837E+02 0.  0.
    5000000    2    1    2    0    0  0.77980983031E+03  0.13392877869E+03  0.11684600972E+04  0.15334181479E+04  0.60002660637E+03 0.  0.
        -24    2    4    4    0    0  0.84970049821E+03  0.56960655791E+02  0.10359808126E+04  0.13434539269E+04  0.79854598245E+02 0.  0.
         24    2    4    4    0    0 -0.69890667897E+02  0.76968122895E+02  0.13247928460E+03  0.18996422093E+03  0.87902485654E+02 0.  0.
         13    1    3    3    0    0 -0.34273949372E+03 -0.37797927283E+02  0.33666486764E+03  0.48191521761E+03  0.00000000000E+00 0. -1.
        -14    1    3    3    0    0 -0.43707033659E+03 -0.96130851403E+02  0.33561700617E+03  0.55938394198E+03  0.00000000000E+00 0.  1.
         15    1    5    5    0    0  0.27664030504E+02 -0.12239269168E+02  0.40550363387E+02  0.50622010957E+02  0.17770000000E+01 0. -1.
        -16    1    5    5    0    0  0.82203646770E+03  0.69199924959E+02  0.99543044918E+03  0.12928319160E+04  0.00000000000E+00 0.  1.
          4    1    6    6  502    0 -0.56234851355E+02  0.31397056972E+02  0.12658438235E+03  0.14202724932E+03  0.00000000000E+00 0. -1.
         -3    1    6    6    0  502 -0.13655816543E+02  0.45571065922E+02  0.58949022484E+01  0.47936971611E+02  0.00000000000E+00 0.  1.
<mgrwt>
<rscale>  0 0.87978023E+03</rscale>
<asrwt>0</asrwt>
<pdfrwt beam="1">  1        1 0.56459643E-01 0.87978023E+03</pdfrwt>
<pdfrwt beam="2">  1       -2 0.33965071E+00 0.87978023E+03</pdfrwt>
<totfact> 0.10994525E+00</totfact>
</mgrwt>
</event>
<event>
12    3  0.1201947E-007  0.1687129E+03  0.7818608E-02  0.1179197E+00
          1   -1    0    0  501    0  0.00000000000E+00  0.00000000000E+00  0.13632704173E+04  0.13632704173E+04  0.00000000000E+00 0. -1.
         -2   -1    0    0    0  501 -0.00000000000E+00 -0.00000000000E+00 -0.16783337543E+03  0.16783337543E+03  0.00000000000E+00 0.  1.
        -24    2    1    2    0    0 -0.75335431016E+02  0.10602085322E+03 -0.34928145618E+02  0.15606900603E+03  0.78877822000E+02 0.  0.
    5000000    2    1    2    0    0  0.75335431016E+02 -0.10602085322E+03  0.12303651875E+04  0.13750347868E+04  0.60000526797E+03 0.  0.
        -24    2    4    4    0    0  0.23941095386E+02 -0.92212247620E-01  0.12299212394E+04  0.12325720687E+04  0.77165179477E+02 0.  0.
         24    2    4    4    0    0  0.51394335630E+02 -0.10592864097E+03  0.44394813228E+00  0.14246271802E+03  0.80207070909E+02 0.  0.
         11    1    3    3    0    0 -0.52818754092E+02  0.78741005152E+02  0.13843434457E+02  0.95820704201E+02  0.00000000000E+00 0. -1.
        -12    1    3    3    0    0 -0.22516676924E+02  0.27279848066E+02 -0.48771580074E+02  0.60248301828E+02  0.00000000000E+00 0.  1.
         15    1    5    5    0    0  0.41184960493E+02  0.26064796808E+02  0.82518229170E+03  0.82662237259E+03  0.17770000000E+01 0. -1.
        -16    1    5    5    0    0 -0.17243865107E+02 -0.26157009056E+02  0.40473894771E+03  0.40594969614E+03  0.00000000000E+00 0.  1.
          2    1    6    6  502    0  0.58155738212E+02 -0.72062132929E+02 -0.29045965248E+02  0.97050033418E+02  0.00000000000E+00 0. -1.
         -1    1    6    6    0  502 -0.67614025824E+01 -0.33866508040E+02  0.29489913381E+02  0.45412684604E+02  0.00000000000E+00 0.  1.
<mgrwt>
<rscale>  0 0.16871289E+03</rscale>
<asrwt>0</asrwt>
<pdfrwt beam="1">  1        1 0.20973390E+00 0.16871289E+03</pdfrwt>
<pdfrwt beam="2">  1       -2 0.25820520E-01 0.16871289E+03</pdfrwt>
<totfact> 0.10835240E+02</totfact>
</mgrwt>
</event>
<event>
12    3  0.1201947E-007  0.7560149E+03  0.7818608E-02  0.9625961E-01
         -4   -1    0    0    0  501 -0.00000000000E+00  0.00000000000E+00  0.34341119580E+03  0.34341119580E+03  0.00000000000E+00 0.  1.
          3   -1    0    0  501    0  0.00000000000E+00 -0.00000000000E+00 -0.17106956799E+04  0.17106956799E+04  0.00000000000E+00 0. -1.
        -24    2    1    2    0    0  0.49498125314E+03  0.41234800397E+03 -0.65085615886E+03  0.91910592575E+03  0.78132233342E+02 0.  0.
    5000000    2    1    2    0    0 -0.49498125314E+03 -0.41234800397E+03 -0.71642832528E+03  0.11350009500E+04  0.59993357454E+03 0.  0.
        -24    2    4    4    0    0 -0.50859129646E+03 -0.52347917394E+03 -0.65533773549E+03  0.98449634478E+03  0.84083012211E+02 0.  0.
         24    2    4    4    0    0  0.13610043318E+02  0.11113116997E+03 -0.61090589789E+02  0.15050460520E+03  0.79901225329E+02 0.  0.
         13    1    3    3    0    0  0.11390245665E+03  0.13984681563E+03 -0.17350799790E+03  0.25027170597E+03  0.00000000000E+00 0. -1.
        -14    1    3    3    0    0  0.38107879649E+03  0.27250118834E+03 -0.47734816096E+03  0.66883421979E+03  0.00000000000E+00 0.  1.
         15    1    5    5    0    0 -0.23867986480E+03 -0.20005627969E+03 -0.31467408500E+03  0.44273415319E+03  0.17770000000E+01 0. -1.
        -16    1    5    5    0    0 -0.26991143166E+03 -0.32342289425E+03 -0.34066365048E+03  0.54176219158E+03  0.00000000000E+00 0.  1.
          4    1    6    6  502    0 -0.23807638279E+02  0.74162040138E+02 -0.12482225645E+02  0.78883571134E+02  0.00000000000E+00 0. -1.
         -3    1    6    6    0  502  0.37417681597E+02  0.36969129832E+02 -0.48608364144E+02  0.71621034071E+02  0.00000000000E+00 0.  1.
<mgrwt>
<rscale>  0 0.75601492E+03</rscale>
<asrwt>0</asrwt>
<pdfrwt beam="1">  1        3 0.26318394E+00 0.75601492E+03</pdfrwt>
<pdfrwt beam="2">  1       -4 0.52832493E-01 0.75601492E+03</pdfrwt>
<totfact> 0.48931091E-01</totfact>
</mgrwt>
</event>
<event>
12    3  0.1201947E-007  0.7842939E+03  0.7818608E-02  0.9583033E-01
         -2   -1    0    0    0  501 -0.00000000000E+00  0.00000000000E+00  0.65176161927E+03  0.65176161927E+03  0.00000000000E+00 0.  1.
          1   -1    0    0  501    0  0.00000000000E+00 -0.00000000000E+00 -0.10772453331E+04  0.10772453331E+04  0.00000000000E+00 0. -1.
        -24    2    1    2    0    0 -0.55029862681E+03  0.44315475834E+03 -0.36790904297E+03  0.80052802553E+03  0.79204401721E+02 0.  0.
    5000000    2    1    2    0    0  0.55029862681E+03 -0.44315475834E+03 -0.57574670901E+02  0.92847892688E+03  0.59961950971E+03 0.  0.
        -24    2    4    4    0    0  0.17034687391E+02 -0.29469016800E+03 -0.18275429878E+03  0.35649515832E+03  0.80976468750E+02 0.  0.
         24    2    4    4    0    0  0.53326393942E+03 -0.14846459033E+03  0.12517962788E+03  0.57198376856E+03  0.71297465512E+02 0.  0.
         11    1    3    3    0    0 -0.40752708524E+02  0.58721448101E+02 -0.23511273289E+02  0.75244745270E+02  0.00000000000E+00 0. -1.
        -12    1    3    3    0    0 -0.50954591829E+03  0.38443331023E+03 -0.34439776968E+03  0.72528328026E+03  0.00000000000E+00 0.  1.
         15    1    5    5    0    0  0.47703342637E+02 -0.16575069922E+03 -0.11797935544E+03  0.20897652794E+03  0.17770000000E+01 0. -1.
        -16    1    5    5    0    0 -0.30668655246E+02 -0.12893946879E+03 -0.64774943340E+02  0.14751863038E+03  0.00000000000E+00 0.  1.
          4    1    6    6  502    0  0.26624304937E+03 -0.65634264061E+02  0.97551643533E+02  0.29104903558E+03  0.00000000000E+00 0. -1.
         -3    1    6    6    0  502  0.26702089005E+03 -0.82830326270E+02  0.27627984348E+02  0.28093473298E+03  0.00000000000E+00 0.  1.
<mgrwt>
<rscale>  0 0.78429387E+03</rscale>
<asrwt>0</asrwt>
<pdfrwt beam="1">  1        1 0.16573005E+00 0.78429387E+03</pdfrwt>
<pdfrwt beam="2">  1       -2 0.10027102E+00 0.78429387E+03</pdfrwt>
<totfact> 0.96934698E+00</totfact>
</mgrwt>
</event>
<event>
12    3  0.1201947E-007  0.6996339E+03  0.7818608E-02  0.9717858E-01
         -2   -1    0    0    0  501 -0.00000000000E+00  0.00000000000E+00  0.94839212293E+03  0.94839212293E+03  0.00000000000E+00 0.  1.
          1   -1    0    0  501    0  0.00000000000E+00 -0.00000000000E+00 -0.59267748178E+03  0.59267748178E+03  0.00000000000E+00 0. -1.
        -24    2    1    2    0    0  0.38053466422E+03 -0.44845670102E+03  0.37177303930E+03  0.70069837652E+03  0.82722298905E+02 0.  0.
    5000000    2    1    2    0    0 -0.38053466422E+03  0.44845670102E+03 -0.16058398160E+02  0.84037122819E+03  0.60003823683E+03 0.  0.
        -24    2    4    4    0    0  0.12393728925E+03  0.21151886399E+03 -0.90322087337E+02  0.27271271876E+03  0.78188656584E+02 0.  0.
         24    2    4    4    0    0 -0.50447195347E+03  0.23693783703E+03  0.74263689178E+02  0.56765850944E+03  0.78035872216E+02 0.  0.
         11    1    3    3    0    0  0.19227833706E+03 -0.16959814482E+03  0.13980002777E+03  0.29202489174E+03  0.00000000000E+00 0. -1.
        -12    1    3    3    0    0  0.18825632716E+03 -0.27885855620E+03  0.23197301154E+03  0.40867348478E+03  0.00000000000E+00 0.  1.
         15    1    5    5    0    0  0.34973603568E+02  0.47622774865E+02 -0.59181213607E+02  0.83646012489E+02  0.17770000000E+01 0. -1.
        -16    1    5    5    0    0  0.88963685682E+02  0.16389608913E+03 -0.31140873731E+02  0.18906670627E+03  0.00000000000E+00 0.  1.
          2    1    6    6  502    0 -0.13468857638E+03  0.33561328082E+02  0.38919712434E+02  0.14416004774E+03  0.00000000000E+00 0. -1.
         -1    1    6    6    0  502 -0.36978337709E+03  0.20337650895E+03  0.35343976743E+02  0.42349846169E+03  0.00000000000E+00 0.  1.
<mgrwt>
<rscale>  0 0.69963391E+03</rscale>
<asrwt>0</asrwt>
<pdfrwt beam="1">  1        1 0.91181151E-01 0.69963391E+03</pdfrwt>
<pdfrwt beam="2">  1       -2 0.14590648E+00 0.69963391E+03</pdfrwt>
<totfact> 0.10092958E+01</totfact>
</mgrwt>
</event>
<event>
12    3  0.1201947E-007  0.1599785E+04  0.7818608E-02  0.8820680E-01
         -2   -1    0    0    0  501 -0.00000000000E+00  0.00000000000E+00  0.91172004076E+03  0.91172004076E+03  0.00000000000E+00 0.  1.
          1   -1    0    0  501    0  0.00000000000E+00 -0.00000000000E+00 -0.30912372473E+04  0.30912372473E+04  0.00000000000E+00 0. -1.
        -24    2    1    2    0    0 -0.13258779994E+04  0.87255541043E+03 -0.14661213102E+04  0.21621969060E+04  0.79236041336E+02 0.  0.
    5000000    2    1    2    0    0  0.13258779994E+04 -0.87255541043E+03 -0.71339589633E+03  0.18407603821E+04  0.60013304002E+03 0.  0.
        -24    2    4    4    0    0  0.82629606879E+03 -0.40115712522E+03 -0.12051202822E+03  0.92999480409E+03  0.81700393359E+02 0.  0.
         24    2    4    4    0    0  0.49958193065E+03 -0.47139828521E+03 -0.59288386810E+03  0.91076557801E+03  0.78639737338E+02 0.  0.
         11    1    3    3    0    0 -0.34989730446E+03  0.24282631252E+03 -0.43972638002E+03  0.61216993638E+03  0.00000000000E+00 0. -1.
        -12    1    3    3    0    0 -0.97598069499E+03  0.62972909791E+03 -0.10263949302E+04  0.15500269696E+04  0.00000000000E+00 0.  1.
         15    1    5    5    0    0  0.66685373444E+03 -0.35330196132E+03 -0.81813707826E+02  0.75908683267E+03  0.17770000000E+01 0. -1.
        -16    1    5    5    0    0  0.15944233435E+03 -0.47855163901E+02 -0.38698320397E+02  0.17090797143E+03  0.00000000000E+00 0.  1.
          2    1    6    6  502    0  0.63220412333E+02 -0.98470857719E+02 -0.89945215020E+02  0.14759224932E+03  0.00000000000E+00 0. -1.
         -1    1    6    6    0  502  0.43636151832E+03 -0.37292742749E+03 -0.50293865308E+03  0.76317332868E+03  0.00000000000E+00 0.  1.
<mgrwt>
<rscale>  0 0.15997851E+04</rscale>
<asrwt>0</asrwt>
<pdfrwt beam="1">  1        1 0.47557496E+00 0.15997851E+04</pdfrwt>
<pdfrwt beam="2">  1       -2 0.14026462E+00 0.15997851E+04</pdfrwt>
<totfact> 0.15099642E-01</totfact>
</mgrwt>
</event>
<event>
12    3  0.1201947E-007  0.4656328E+03  0.7818608E-02  0.1023160E+00
          1   -1    0    0  501    0  0.00000000000E+00  0.00000000000E+00  0.14082341255E+04  0.14082341255E+04  0.00000000000E+00 0. -1.
         -2   -1    0    0    0  501 -0.00000000000E+00 -0.00000000000E+00 -0.19390348944E+03  0.19390348944E+03  0.00000000000E+00 0.  1.
        -24    2    1    2    0    0  0.26487373815E+03  0.20342267482E+02  0.74977119198E+02  0.28714827637E+03  0.79124327553E+02 0.  0.
    5000000    2    1    2    0    0 -0.26487373815E+03 -0.20342267482E+02  0.11393535168E+04  0.13149893385E+04  0.60041537217E+03 0.  0.
        -24    2    4    4    0    0 -0.42145699764E+03 -0.12479010378E+03  0.73351829312E+03  0.85903900152E+03  0.81855659067E+02 0.  0.
         24    2    4    4    0    0  0.15658325949E+03  0.10444783630E+03  0.40583522371E+03  0.45595033702E+03  0.88095478678E+02 0.  0.
         11    1    3    3    0    0  0.24467161876E+03 -0.50492687972E+01  0.65222600551E+02  0.25326603358E+03  0.00000000000E+00 0. -1.
        -12    1    3    3    0    0  0.20202119390E+02  0.25391536279E+02  0.97545186473E+01  0.33882242790E+02  0.00000000000E+00 0.  1.
         15    1    5    5    0    0 -0.12865657047E+03 -0.77449756029E+02  0.23144249258E+03  0.27589810245E+03  0.17770000000E+01 0. -1.
        -16    1    5    5    0    0 -0.29280042717E+03 -0.47340347751E+02  0.50207580054E+03  0.58314089907E+03  0.00000000000E+00 0.  1.
          4    1    6    6  502    0  0.91934084342E+02  0.94727596096E+01  0.16520608795E+03  0.18930045043E+03  0.00000000000E+00 0. -1.
         -3    1    6    6    0  502  0.64649175147E+02  0.94975076688E+02  0.24062913576E+03  0.26664988658E+03  0.00000000000E+00 0.  1.
<mgrwt>
<rscale>  0 0.46563284E+03</rscale>
<asrwt>0</asrwt>
<pdfrwt beam="1">  1        1 0.21665140E+00 0.46563284E+03</pdfrwt>
<pdfrwt beam="2">  1       -2 0.29831307E-01 0.46563284E+03</pdfrwt>
<totfact> 0.72883942E+01</totfact>
</mgrwt>
</event>
<event>
12    3  0.1201947E-007  0.6547905E+03  0.7818608E-02  0.9797831E-01
         -2   -1    0    0    0  501 -0.00000000000E+00  0.00000000000E+00  0.98189476154E+03  0.98189476154E+03  0.00000000000E+00 0.  1.
          1   -1    0    0  501    0  0.00000000000E+00 -0.00000000000E+00 -0.62979018287E+03  0.62979018287E+03  0.00000000000E+00 0. -1.
        -24    2    1    2    0    0 -0.45786797850E+03 -0.31229040395E+03  0.53425827029E+03  0.77475128224E+03  0.87402905126E+02 0.  0.
    5000000    2    1    2    0    0  0.45786797850E+03  0.31229040395E+03 -0.18215369162E+03  0.83693366218E+03  0.60009133087E+03 0.  0.
        -24    2    4    4    0    0  0.30463185453E+03 -0.91006805163E+02 -0.22276214490E+03  0.39631098642E+03  0.79728410121E+02 0.  0.
         24    2    4    4    0    0  0.15323612397E+03  0.40329720911E+03  0.40608453285E+02  0.44062267575E+03  0.79808190955E+02 0.  0.
         11    1    3    3    0    0 -0.38738907406E+03 -0.27061641941E+03  0.40824532780E+03  0.62447400973E+03  0.00000000000E+00 0. -1.
        -12    1    3    3    0    0 -0.70478904437E+02 -0.41673984539E+02  0.12601294249E+03  0.15027727251E+03  0.00000000000E+00 0.  1.
         15    1    5    5    0    0  0.11831264341E+03 -0.92227134187E+01 -0.11834261719E+03  0.16760391644E+03  0.17770000000E+01 0. -1.
        -16    1    5    5    0    0  0.18631921112E+03 -0.81784091744E+02 -0.10441952772E+03  0.22870706999E+03  0.00000000000E+00 0.  1.
          2    1    6    6  502    0  0.12334093191E+03  0.35857829996E+03  0.11303473591E+02  0.37936677662E+03  0.00000000000E+00 0. -1.
         -1    1    6    6    0  502  0.29895192058E+02  0.44718909151E+02  0.29304979694E+02  0.61255899134E+02  0.00000000000E+00 0.  1.
<mgrwt>
<rscale>  0 0.65479048E+03</rscale>
<asrwt>0</asrwt>
<pdfrwt beam="1">  1        1 0.96890797E-01 0.65479048E+03</pdfrwt>
<pdfrwt beam="2">  1       -2 0.15106073E+00 0.65479048E+03</pdfrwt>
<totfact> 0.84850895E+00</totfact>
</mgrwt>
</event>
<event>
12    3  0.1201947E-007  0.8246480E+03  0.7818608E-02  0.9525010E-01
          1   -1    0    0  501    0  0.00000000000E+00  0.00000000000E+00  0.59832354174E+03  0.59832354174E+03  0.00000000000E+00 0. -1.
         -2   -1    0    0    0  501 -0.00000000000E+00 -0.00000000000E+00 -0.15652169351E+04  0.15652169351E+04  0.00000000000E+00 0.  1.
        -24    2    1    2    0    0 -0.81799949258E+03  0.88835400325E+00 -0.97810979251E+02  0.82776029062E+03  0.80598709862E+02 0.  0.
    5000000    2    1    2    0    0  0.81799949258E+03 -0.88835400325E+00 -0.86908241416E+03  0.13357801863E+04  0.59990041203E+03 0.  0.
        -24    2    4    4    0    0  0.38617298988E+03  0.11043627131E+02 -0.79939468647E+03  0.89139154016E+03  0.79344018620E+02 0.  0.
         24    2    4    4    0    0  0.43182650270E+03 -0.11931981134E+02 -0.69687727692E+02  0.44438864610E+03  0.77513797382E+02 0.  0.
         13    1    3    3    0    0 -0.34650912441E+03 -0.21066924263E+02 -0.76999334685E+01  0.34723432660E+03  0.00000000000E+00 0. -1.
        -14    1    3    3    0    0 -0.47149036818E+03  0.21955278267E+02 -0.90111045782E+02  0.48052596402E+03  0.00000000000E+00 0.  1.
         15    1    5    5    0    0  0.63021920640E+02 -0.27266358447E+02 -0.15268747351E+03  0.16742711573E+03  0.17770000000E+01 0. -1.
        -16    1    5    5    0    0  0.32315106924E+03  0.38309985578E+02 -0.64670721296E+03  0.72396442443E+03  0.00000000000E+00 0.  1.
          2    1    6    6  502    0  0.21887869137E+03 -0.35700572370E+02 -0.60708996534E+02  0.22993041265E+03  0.00000000000E+00 0. -1.
         -1    1    6    6    0  502  0.21294781133E+03  0.23768591236E+02 -0.89787311578E+01  0.21445823345E+03  0.00000000000E+00 0.  1.
<mgrwt>
<rscale>  0 0.82464796E+03</rscale>
<asrwt>0</asrwt>
<pdfrwt beam="1">  1        1 0.92049776E-01 0.82464796E+03</pdfrwt>
<pdfrwt beam="2">  1       -2 0.24080261E+00 0.82464796E+03</pdfrwt>
<totfact> 0.22561902E+00</totfact>
</mgrwt>
</event>
<event>
12    3  0.1201947E-007  0.1050477E+04  0.7818608E-02  0.9254852E-01
          1   -1    0    0  501    0  0.00000000000E+00  0.00000000000E+00  0.13709084503E+04  0.13709084503E+04  0.00000000000E+00 0. -1.
         -2   -1    0    0    0  501 -0.00000000000E+00 -0.00000000000E+00 -0.88721010680E+03  0.88721010680E+03  0.00000000000E+00 0.  1.
        -24    2    1    2    0    0 -0.99753016718E+03  0.13601006770E+03  0.59113516290E+02  0.10116025343E+04  0.79247123846E+02 0.  0.
    5000000    2    1    2    0    0  0.99753016718E+03 -0.13601006770E+03  0.42458482725E+03  0.12465160229E+04  0.59997062158E+03 0.  0.
        -24    2    4    4    0    0  0.36946680381E+03  0.13650454598E+03 -0.56137694191E+02  0.40581640082E+03  0.79976873368E+02 0.  0.
         24    2    4    4    0    0  0.62806336337E+03 -0.27251461368E+03  0.48072252144E+03  0.84069962204E+03  0.83390100105E+02 0.  0.
         13    1    3    3    0    0 -0.57194551629E+03  0.38457565744E+02  0.30834959880E+02  0.57406572160E+03  0.00000000000E+00 0. -1.
        -14    1    3    3    0    0 -0.42558465089E+03  0.97552501954E+02  0.28278556411E+02  0.43753681270E+03  0.00000000000E+00 0.  1.
         15    1    5    5    0    0  0.36405702642E+03  0.14495317308E+03 -0.55444682278E+02  0.39576029537E+03  0.17770000000E+01 0. -1.
        -16    1    5    5    0    0  0.54097773944E+01 -0.84486270990E+01 -0.69301191324E+00  0.10056105450E+02  0.00000000000E+00 0.  1.
          4    1    6    6  502    0  0.26893232785E+03 -0.74309125397E+02  0.21024989071E+03  0.34935864040E+03  0.00000000000E+00 0. -1.
         -3    1    6    6    0  502  0.35913103552E+03 -0.19820548828E+03  0.27047263073E+03  0.49134098163E+03  0.00000000000E+00 0.  1.
<mgrwt>
<rscale>  0 0.10504770E+04</rscale>
<asrwt>0</asrwt>
<pdfrwt beam="1">  1        1 0.21090899E+00 0.10504770E+04</pdfrwt>
<pdfrwt beam="2">  1       -2 0.13649386E+00 0.10504770E+04</pdfrwt>
<totfact> 0.26880227E+00</totfact>
</mgrwt>
</event>
<event>
12    3  0.1201947E-007  0.6528928E+03  0.7818608E-02  0.9801366E-01
          3   -1    0    0  501    0  0.00000000000E+00  0.00000000000E+00  0.13977924723E+04  0.13977924723E+04  0.00000000000E+00 0. -1.
         -4   -1    0    0    0  501 -0.00000000000E+00 -0.00000000000E+00 -0.46420815182E+03  0.46420815182E+03  0.00000000000E+00 0.  1.
        -24    2    1    2    0    0 -0.33001077686E+03  0.44858787913E+03  0.87644966561E+03  0.10415807441E+04  0.81167924149E+02 0.  0.
    5000000    2    1    2    0    0  0.33001077686E+03 -0.44858787913E+03  0.57134654854E+02  0.82041988005E+03  0.59973845353E+03 0.  0.
        -24    2    4    4    0    0 -0.48112087926E+02 -0.34139017008E+03 -0.13153363925E+03  0.37758335368E+03  0.80037925307E+02 0.  0.
         24    2    4    4    0    0  0.37812286479E+03 -0.10719770905E+03  0.18866829410E+03  0.44283652637E+03  0.77718814867E+02 0.  0.
         11    1    3    3    0    0 -0.20128183328E+03  0.21591151448E+03  0.50122855391E+03  0.58168911091E+03  0.00000000000E+00 0. -1.
        -12    1    3    3    0    0 -0.12872894358E+03  0.23267636465E+03  0.37522111170E+03  0.45989163316E+03  0.00000000000E+00 0.  1.
         15    1    5    5    0    0 -0.98014432402E+00 -0.17726589833E+03 -0.32644503922E+02  0.18025809485E+03  0.17770000000E+01 0. -1.
        -16    1    5    5    0    0 -0.47131943602E+02 -0.16412427175E+03 -0.98889135326E+02  0.19732525883E+03  0.00000000000E+00 0.  1.
          4    1    6    6  502    0  0.24541575089E+03 -0.95834336183E+02  0.95267518749E+02  0.28015890296E+03  0.00000000000E+00 0. -1.
         -3    1    6    6    0  502  0.13270711390E+03 -0.11363372864E+02  0.93400775354E+02  0.16267762341E+03  0.00000000000E+00 0.  1.
<mgrwt>
<rscale>  0 0.65289283E+03</rscale>
<asrwt>0</asrwt>
<pdfrwt beam="1">  1        3 0.21504499E+00 0.65289283E+03</pdfrwt>
<pdfrwt beam="2">  1       -4 0.71416640E-01 0.65289283E+03</pdfrwt>
<totfact> 0.48517257E-01</totfact>
</mgrwt>
</event>
<event>
12    3  0.1201947E-007  0.4656480E+03  0.7818608E-02  0.1023156E+00
         -2   -1    0    0    0  501 -0.00000000000E+00  0.00000000000E+00  0.50793763590E+03  0.50793763590E+03  0.00000000000E+00 0.  1.
          1   -1    0    0  501    0  0.00000000000E+00 -0.00000000000E+00 -0.49655534509E+03  0.49655534509E+03  0.00000000000E+00 0. -1.
        -24    2    1    2    0    0  0.30634671314E+03 -0.17702230396E+02 -0.73095459197E+02  0.32509197599E+03  0.78614051443E+02 0.  0.
    5000000    2    1    2    0    0 -0.30634671314E+03  0.17702230396E+02  0.84477749998E+02  0.67940100500E+03  0.60023958362E+03 0.  0.
        -24    2    4    4    0    0 -0.60835158041E+02  0.26247246876E+03  0.14889880090E+03  0.31846201546E+03  0.81575051781E+02 0.  0.
         24    2    4    4    0    0 -0.24551155510E+03 -0.24477023836E+03 -0.64421050898E+02  0.36093898954E+03  0.77061592911E+02 0.  0.
         11    1    3    3    0    0  0.18132352009E+03 -0.16063901576E+02 -0.36571498666E+01  0.18207043312E+03  0.00000000000E+00 0. -1.
        -12    1    3    3    0    0  0.12502319305E+03 -0.16383288200E+01 -0.69438309330E+02  0.14302154287E+03  0.00000000000E+00 0.  1.
         15    1    5    5    0    0 -0.17681170190E+02  0.57758311255E+02 -0.20713077930E+01  0.60465645976E+02  0.17770000000E+01 0. -1.
        -16    1    5    5    0    0 -0.43153987851E+02  0.20471415750E+03  0.15097010869E+03  0.25799636948E+03  0.00000000000E+00 0.  1.
          4    1    6    6  502    0 -0.13213427660E+03 -0.18225722725E+03 -0.50613685259E+02  0.23073558259E+03  0.00000000000E+00 0. -1.
         -3    1    6    6    0  502 -0.11337727849E+03 -0.62513011113E+02 -0.13807365639E+02  0.13020340696E+03  0.00000000000E+00 0.  1.
<mgrwt>
<rscale>  0 0.46564804E+03</rscale>
<asrwt>0</asrwt>
<pdfrwt beam="1">  1        1 0.76393130E-01 0.46564804E+03</pdfrwt>
<pdfrwt beam="2">  1       -2 0.78144251E-01 0.46564804E+03</pdfrwt>
<totfact> 0.59351949E+01</totfact>
</mgrwt>
</event>
<event>
12    3  0.1201947E-007  0.1143385E+04  0.7818608E-02  0.9163908E-01
          1   -1    0    0  501    0  0.00000000000E+00  0.00000000000E+00  0.15492301897E+04  0.15492301897E+04  0.00000000000E+00 0. -1.
         -2   -1    0    0    0  501 -0.00000000000E+00 -0.00000000000E+00 -0.96007993718E+03  0.96007993718E+03  0.00000000000E+00 0.  1.
        -24    2    1    2    0    0 -0.51614588972E+03 -0.10144506442E+04  0.39824513359E+03  0.12085434176E+04  0.80382317559E+02 0.  0.
    5000000    2    1    2    0    0  0.51614588972E+03  0.10144506442E+04  0.19090511888E+03  0.13007667092E+04  0.60002714805E+03 0.  0.
        -24    2    4    4    0    0  0.32703648431E+03  0.59775643676E+03 -0.17608656180E+03  0.70855852917E+03  0.82359530473E+02 0.  0.
         24    2    4    4    0    0  0.18910940541E+03  0.41669420741E+03  0.36699168068E+03  0.59220818002E+03  0.81432211610E+02 0.  0.
         11    1    3    3    0    0 -0.18276627045E+03 -0.34781099953E+03  0.97652782925E+02  0.40486055256E+03  0.00000000000E+00 0. -1.
        -12    1    3    3    0    0 -0.33337961927E+03 -0.66663964463E+03  0.30059235067E+03  0.80368286508E+03  0.00000000000E+00 0.  1.
         15    1    5    5    0    0  0.28593853781E+02  0.18857563558E+02 -0.18162718072E+01  0.34346364432E+02  0.17770000000E+01 0. -1.
        -16    1    5    5    0    0  0.29844263053E+03  0.57889887320E+03 -0.17427029000E+03  0.67421216474E+03  0.00000000000E+00 0.  1.
          2    1    6    6  502    0  0.75056151745E+02  0.91791056705E+02  0.71487418817E+02  0.13845387338E+03  0.00000000000E+00 0. -1.
         -1    1    6    6    0  502  0.11405325366E+03  0.32490315070E+03  0.29550426187E+03  0.45375430664E+03  0.00000000000E+00 0.  1.
<mgrwt>
<rscale>  0 0.11433846E+04</rscale>
<asrwt>0</asrwt>
<pdfrwt beam="1">  1        1 0.23834311E+00 0.11433846E+04</pdfrwt>
<pdfrwt beam="2">  1       -2 0.14770461E+00 0.11433846E+04</pdfrwt>
<totfact> 0.16259351E+00</totfact>
</mgrwt>
</event>
<event>
12    3  0.1201947E-007  0.3640983E+03  0.7818608E-02  0.1056973E+00
         -2   -1    0    0    0  501 -0.00000000000E+00  0.00000000000E+00  0.21947655204E+03  0.21947655204E+03  0.00000000000E+00 0.  1.
          1   -1    0    0  501    0  0.00000000000E+00 -0.00000000000E+00 -0.10874052216E+04  0.10874052216E+04  0.00000000000E+00 0. -1.
        -24    2    1    2    0    0  0.12298482754E+03 -0.21276967809E+03 -0.49501349365E+03  0.55895486445E+03  0.83641962466E+02 0.  0.
    5000000    2    1    2    0    0 -0.12298482754E+03  0.21276967809E+03 -0.37291517591E+03  0.74792690920E+03  0.59994393851E+03 0.  0.
        -24    2    4    4    0    0 -0.35880799655E+01  0.30393611632E+03  0.24191234490E+02  0.31567791704E+03  0.81714713258E+02 0.  0.
         24    2    4    4    0    0 -0.11939674757E+03 -0.91166438230E+02 -0.39710641040E+03  0.43224899215E+03  0.81109723469E+02 0.  0.
         11    1    3    3    0    0  0.10090032414E+03 -0.18317643908E+03 -0.46979642026E+03  0.51424037155E+03  0.00000000000E+00 0. -1.
        -12    1    3    3    0    0  0.22084503400E+02 -0.29593239004E+02 -0.25217073391E+02  0.44714492903E+02  0.00000000000E+00 0.  1.
         15    1    5    5    0    0  0.36044622194E+02  0.20386624244E+03  0.12507648591E+02  0.20741325560E+03  0.17770000000E+01 0. -1.
        -16    1    5    5    0    0 -0.39632702160E+02  0.10006987388E+03  0.11683585899E+02  0.10826466144E+03  0.00000000000E+00 0.  1.
          4    1    6    6  502    0  0.27791121823E+01  0.90426136496E+01 -0.49732890149E+02  0.50624625320E+02  0.00000000000E+00 0. -1.
         -1    1    6    6    0  502 -0.12217585976E+03 -0.10020905188E+03 -0.34737352026E+03  0.38162436683E+03  0.00000000000E+00 0.  1.
<mgrwt>
<rscale>  0 0.36409835E+03</rscale>
<asrwt>0</asrwt>
<pdfrwt beam="1">  1        1 0.16729311E+00 0.36409835E+03</pdfrwt>
<pdfrwt beam="2">  1       -2 0.33765623E-01 0.36409835E+03</pdfrwt>
<totfact> 0.99001600E+01</totfact>
</mgrwt>
</event>
<event>
12    3  0.1201947E-007  0.1156721E+04  0.7818608E-02  0.9151605E-01
          1   -1    0    0  501    0  0.00000000000E+00  0.00000000000E+00  0.76313452700E+03  0.76313452700E+03  0.00000000000E+00 0. -1.
         -2   -1    0    0    0  501 -0.00000000000E+00 -0.00000000000E+00 -0.18305648603E+04  0.18305648603E+04  0.00000000000E+00 0.  1.
        -24    2    1    2    0    0  0.33577715059E+03  0.10516494748E+04 -0.46708690174E+03  0.12011904525E+04  0.77300818487E+02 0.  0.
    5000000    2    1    2    0    0 -0.33577715059E+03 -0.10516494748E+04 -0.60034343158E+03  0.13925089348E+04  0.59996331969E+03 0.  0.
        -24    2    4    4    0    0  0.80132008151E+02 -0.57645261077E+02 -0.20652058163E+03  0.24254355368E+03  0.80202929757E+02 0.  0.
         24    2    4    4    0    0 -0.41590915874E+03 -0.99400421377E+03 -0.39382284995E+03  0.11499653812E+04  0.79367092757E+02 0.  0.
         11    1    3    3    0    0  0.47771652899E+02  0.81626977923E+02 -0.33562646297E+02  0.10035709029E+03  0.00000000000E+00 0. -1.
        -12    1    3    3    0    0  0.28800549769E+03  0.97002249693E+03 -0.43352425545E+03  0.11008333622E+04  0.00000000000E+00 0.  1.
         15    1    5    5    0    0  0.44405201955E+01 -0.50421657855E+02 -0.93298585790E+02  0.10615952920E+03  0.17770000000E+01 0. -1.
        -16    1    5    5    0    0  0.75691487956E+02 -0.72236032227E+01 -0.11322199584E+03  0.13638402448E+03  0.00000000000E+00 0.  1.
          2    1    6    6  502    0 -0.24878206374E+03 -0.49398258435E+03 -0.21028677363E+03  0.59171938962E+03  0.00000000000E+00 0. -1.
         -1    1    6    6    0  502 -0.16712709500E+03 -0.50002162942E+03 -0.18353607632E+03  0.55824599155E+03  0.00000000000E+00 0.  1.
<mgrwt>
<rscale>  0 0.11567209E+04</rscale>
<asrwt>0</asrwt>
<pdfrwt beam="1">  1        1 0.11740531E+00 0.11567209E+04</pdfrwt>
<pdfrwt beam="2">  1       -2 0.28162536E+00 0.11567209E+04</pdfrwt>
<totfact> 0.84828819E-01</totfact>
</mgrwt>
</event>
<event>
12    3  0.1201947E-007  0.5351643E+03  0.7818608E-02  0.1004987E+00
          1   -1    0    0  501    0  0.00000000000E+00  0.00000000000E+00  0.81743600479E+03  0.81743600479E+03  0.00000000000E+00 0. -1.
         -2   -1    0    0    0  501 -0.00000000000E+00 -0.00000000000E+00 -0.41765238444E+03  0.41765238444E+03  0.00000000000E+00 0.  1.
        -24    2    1    2    0    0  0.37393415039E+03  0.53704175967E+02  0.35450955199E+03  0.52441762406E+03  0.81399844219E+02 0.  0.
    5000000    2    1    2    0    0 -0.37393415039E+03 -0.53704175967E+02  0.45274068364E+02  0.71067076516E+03  0.60024354044E+03 0.  0.
        -24    2    4    4    0    0 -0.44605331714E+03  0.14930995128E+03  0.17215282257E+01  0.47712625041E+03  0.79934172246E+02 0.  0.
         24    2    4    4    0    0  0.72119166752E+02 -0.20301412725E+03  0.43552540138E+02  0.23354451474E+03  0.78932290850E+02 0.  0.
         11    1    3    3    0    0  0.24029304931E+03  0.65558812629E+01  0.25991176709E+03  0.35403086842E+03  0.00000000000E+00 0. -1.
        -12    1    3    3    0    0  0.13364110108E+03  0.47148294704E+02  0.94597784899E+02  0.17038675564E+03  0.00000000000E+00 0.  1.
         15    1    5    5    0    0 -0.35127616049E+03  0.12271820298E+03 -0.31012386422E+02  0.37338937332E+03  0.17770000000E+01 0. -1.
        -16    1    5    5    0    0 -0.94777156652E+02  0.26591748302E+02  0.32733914647E+02  0.10373687709E+03  0.00000000000E+00 0.  1.
          4    1    6    6  502    0  0.51957025129E+02 -0.99629442196E+02 -0.14465187309E+02  0.11329077569E+03  0.00000000000E+00 0. -1.
         -3    1    6    6    0  502  0.20162141624E+02 -0.10338468505E+03  0.58017727448E+02  0.12025373905E+03  0.00000000000E+00 0.  1.
<mgrwt>
<rscale>  0 0.53516434E+03</rscale>
<asrwt>0</asrwt>
<pdfrwt beam="1">  1        1 0.12575939E+00 0.53516434E+03</pdfrwt>
<pdfrwt beam="2">  1       -2 0.64254213E-01 0.53516434E+03</pdfrwt>
<totfact> 0.43631001E+01</totfact>
</mgrwt>
</event>
<event>
12    3  0.1201947E-007  0.6514032E+03  0.7818608E-02  0.9804150E-01
         -2   -1    0    0    0  501 -0.00000000000E+00  0.00000000000E+00  0.55722066519E+03  0.55722066519E+03  0.00000000000E+00 0.  1.
          1   -1    0    0  501    0  0.00000000000E+00 -0.00000000000E+00 -0.10718780421E+04  0.10718780421E+04  0.00000000000E+00 0. -1.
        -24    2    1    2    0    0  0.57807670398E+03  0.72454264248E+02  0.92823875669E+02  0.59535230144E+03  0.80036209546E+02 0.  0.
    5000000    2    1    2    0    0 -0.57807670398E+03 -0.72454264248E+02 -0.60748125263E+03  0.10337464059E+04  0.60014653489E+03 0.  0.
        -24    2    4    4    0    0 -0.60061013622E+03 -0.12563727634E+03 -0.67394897217E+03  0.91495051065E+03  0.80062219030E+02 0.  0.
         24    2    4    4    0    0  0.22533432237E+02  0.53183012091E+02  0.66467719545E+02  0.11879589526E+03  0.79739065988E+02 0.  0.
         13    1    3    3    0    0  0.11818961632E+03  0.43519432391E+02  0.36479162898E+02  0.13112381830E+03  0.00000000000E+00 0. -1.
        -14    1    3    3    0    0  0.45988708766E+03  0.28934831857E+02  0.56344712772E+02  0.46422848313E+03  0.00000000000E+00 0.  1.
         15    1    5    5    0    0 -0.19726491568E+03 -0.32245266699E+01 -0.21492337129E+03  0.29175170571E+03  0.17770000000E+01 0. -1.
        -16    1    5    5    0    0 -0.40334522054E+03 -0.12241274967E+03 -0.45902560088E+03  0.62319880494E+03  0.00000000000E+00 0.  1.
          2    1    6    6  502    0  0.28603358535E+02 -0.12552409502E+02  0.12956950032E+02  0.33817120781E+02  0.00000000000E+00 0. -1.
         -1    1    6    6    0  502 -0.60699262982E+01  0.65735421594E+02  0.53510769513E+02  0.84978774475E+02  0.00000000000E+00 0.  1.
<mgrwt>
<rscale>  0 0.65140320E+03</rscale>
<asrwt>0</asrwt>
<pdfrwt beam="1">  1        1 0.16490431E+00 0.65140320E+03</pdfrwt>
<pdfrwt beam="2">  1       -2 0.85726256E-01 0.65140320E+03</pdfrwt>
<totfact> 0.14313379E+01</totfact>
</mgrwt>
</event>
<event>
12    3  0.1201947E-007  0.4945142E+03  0.7818608E-02  0.1015221E+00
          1   -1    0    0  501    0  0.00000000000E+00  0.00000000000E+00  0.10909113024E+04  0.10909113024E+04  0.00000000000E+00 0. -1.
         -2   -1    0    0    0  501 -0.00000000000E+00 -0.00000000000E+00 -0.37687557282E+03  0.37687557282E+03  0.00000000000E+00 0.  1.
        -24    2    1    2    0    0  0.29113771183E+03 -0.12179815198E+03  0.71955209280E+03  0.78982354751E+03  0.80436713475E+02 0.  0.
    5000000    2    1    2    0    0 -0.29113771183E+03  0.12179815198E+03 -0.55163632397E+01  0.67796332770E+03  0.60000657194E+03 0.  0.
        -24    2    4    4    0    0 -0.10444487526E+02 -0.21674308265E+03  0.41057866605E+00  0.23097002614E+03  0.79122267434E+02 0.  0.
         24    2    4    4    0    0 -0.28069322430E+03  0.33854123463E+03 -0.59269419057E+01  0.44699330155E+03  0.79806198259E+02 0.  0.
         13    1    3    3    0    0  0.13833769656E+03 -0.10115072818E+03  0.38926984918E+03  0.42532317546E+03  0.00000000000E+00 0. -1.
        -14    1    3    3    0    0  0.15280001526E+03 -0.20647423795E+02  0.33028224362E+03  0.36450037205E+03  0.00000000000E+00 0.  1.
         15    1    5    5    0    0 -0.16872695032E+02 -0.53098691565E+02 -0.31633919760E+02  0.64093849096E+02  0.17770000000E+01 0. -1.
        -16    1    5    5    0    0  0.64282075061E+01 -0.16364439109E+03  0.32044498426E+02  0.16687617705E+03  0.00000000000E+00 0.  1.
          2    1    6    6  502    0 -0.72315733702E+01  0.33536944342E+02 -0.14530837859E+02  0.37258120432E+02  0.00000000000E+00 0. -1.
         -1    1    6    6    0  502 -0.27346165093E+03  0.30500429029E+03  0.86038959536E+01  0.40973518112E+03  0.00000000000E+00 0.  1.
<mgrwt>
<rscale>  0 0.49451423E+03</rscale>
<asrwt>0</asrwt>
<pdfrwt beam="1">  1        1 0.16783251E+00 0.49451423E+03</pdfrwt>
<pdfrwt beam="2">  1       -2 0.57980858E-01 0.49451423E+03</pdfrwt>
<totfact> 0.33203810E+01</totfact>
</mgrwt>
</event>
<event>
12    3  0.1201947E-007  0.3522670E+03  0.7818608E-02  0.1061688E+00
          1   -1    0    0  501    0  0.00000000000E+00  0.00000000000E+00  0.17181372745E+04  0.17181372745E+04  0.00000000000E+00 0. -1.
         -2   -1    0    0    0  501 -0.00000000000E+00 -0.00000000000E+00 -0.55631894077E+03  0.55631894077E+03  0.00000000000E+00 0.  1.
        -24    2    1    2    0    0 -0.30998383881E+03 -0.65005590209E+02 -0.43242422397E+03  0.54184263644E+03  0.79290769347E+02 0.  0.
    5000000    2    1    2    0    0  0.30998383881E+03  0.65005590209E+02  0.15942425577E+04  0.17326135789E+04  0.60002064437E+03 0.  0.
        -24    2    4    4    0    0  0.13664539332E+03  0.11748537880E+03  0.92802915895E+02  0.21818409961E+03  0.80728819978E+02 0.  0.
         24    2    4    4    0    0  0.17333844549E+03 -0.52479788587E+02  0.15014396419E+04  0.15144294793E+04  0.79845504860E+02 0.  0.
         13    1    3    3    0    0 -0.41091011068E+02 -0.37069248788E+02 -0.59755040137E+02  0.81444859985E+02  0.00000000000E+00 0. -1.
        -14    1    3    3    0    0 -0.26889282774E+03 -0.27936341421E+02 -0.37266918383E+03  0.46039777645E+03  0.00000000000E+00 0.  1.
         15    1    5    5    0    0  0.70412737479E+02  0.10983327439E+03  0.55563386254E+02  0.14181589961E+03  0.17770000000E+01 0. -1.
        -16    1    5    5    0    0  0.66232655844E+02  0.76521044054E+01  0.37239529641E+02  0.76368199991E+02  0.00000000000E+00 0.  1.
          2    1    6    6  502    0  0.11704056547E+03 -0.28189322985E+02  0.66982952792E+03  0.68056206797E+03  0.00000000000E+00 0. -1.
         -1    1    6    6    0  502  0.56297880022E+02 -0.24290465601E+02  0.83161011393E+03  0.83386741129E+03  0.00000000000E+00 0.  1.
<mgrwt>
<rscale>  0 0.35226698E+03</rscale>
<asrwt>0</asrwt>
<pdfrwt beam="1">  1        1 0.26432881E+00 0.35226698E+03</pdfrwt>
<pdfrwt beam="2">  1       -2 0.85587530E-01 0.35226698E+03</pdfrwt>
<totfact> 0.54669688E+00</totfact>
</mgrwt>
</event>
<event>
12    3  0.1201947E-007  0.1926117E+04  0.7818608E-02  0.8641964E-01
          1   -1    0    0  501    0  0.00000000000E+00  0.00000000000E+00  0.13231897921E+04  0.13231897921E+04  0.00000000000E+00 0. -1.
         -2   -1    0    0    0  501 -0.00000000000E+00 -0.00000000000E+00 -0.28605056613E+04  0.28605056613E+04  0.00000000000E+00 0.  1.
        -24    2    1    2    0    0  0.16698463947E+04 -0.89059069346E+03 -0.91032742068E+03  0.21016645174E+04  0.82212930678E+02 0.  0.
    5000000    2    1    2    0    0 -0.16698463947E+04  0.89059069346E+03 -0.62698844847E+03  0.20820309360E+04  0.60016625926E+03 0.  0.
        -24    2    4    4    0    0 -0.10142834206E+04  0.80668996163E+03 -0.26567628347E+03  0.13245100106E+04  0.64987146433E+02 0.  0.
         24    2    4    4    0    0 -0.65556297412E+03  0.83900731824E+02 -0.36131216500E+03  0.75752092536E+03  0.80556352599E+02 0.  0.
         11    1    3    3    0    0  0.56462400523E+03 -0.28470856287E+03 -0.26446616347E+03  0.68542073552E+03  0.00000000000E+00 0. -1.
        -12    1    3    3    0    0  0.11052223894E+04 -0.60588213058E+03 -0.64586125721E+03  0.14162437819E+04  0.00000000000E+00 0.  1.
         15    1    5    5    0    0 -0.10758729809E+03  0.65683528987E+02 -0.14500706749E+02  0.12689673327E+03  0.17770000000E+01 0. -1.
        -16    1    5    5    0    0 -0.90669612246E+03  0.74100643265E+03 -0.25117557672E+03  0.11976132773E+04  0.00000000000E+00 0.  1.
          2    1    6    6  502    0 -0.12350856207E+03  0.33734712866E+02 -0.40866962672E+02  0.13439681691E+03  0.00000000000E+00 0. -1.
         -1    1    6    6    0  502 -0.53205441205E+03  0.50166018958E+02 -0.32044520233E+03  0.62312410845E+03  0.00000000000E+00 0.  1.
<mgrwt>
<rscale>  0 0.19261174E+04</rscale>
<asrwt>0</asrwt>
<pdfrwt beam="1">  1        1 0.20356766E+00 0.19261174E+04</pdfrwt>
<pdfrwt beam="2">  1       -2 0.44007779E+00 0.19261174E+04</pdfrwt>
<totfact> 0.27755160E-02</totfact>
</mgrwt>
</event>
<event>
12    3  0.1201947E-007  0.1658570E+04  0.7818608E-02  0.8785353E-01
         -2   -1    0    0    0  501 -0.00000000000E+00  0.00000000000E+00  0.11103481985E+04  0.11103481985E+04  0.00000000000E+00 0.  1.
          1   -1    0    0  501    0  0.00000000000E+00 -0.00000000000E+00 -0.25858187173E+04  0.25858187173E+04  0.00000000000E+00 0. -1.
        -24    2    1    2    0    0 -0.15883167667E+04 -0.28590605976E+03 -0.39488334560E+03  0.16633711576E+04  0.79864416605E+02 0.  0.
    5000000    2    1    2    0    0  0.15883167667E+04  0.28590605976E+03 -0.10805871733E+04  0.20327957582E+04  0.60008126866E+03 0.  0.
        -24    2    4    4    0    0  0.42202108554E+01  0.89930366607E+02 -0.37819803588E+02  0.12489645275E+03  0.77868513197E+02 0.  0.
         24    2    4    4    0    0  0.15840965558E+04  0.19597569315E+03 -0.10427673697E+04  0.19078993054E+04  0.70339191138E+02 0.  0.
         13    1    3    3    0    0 -0.15451111184E+04 -0.26494543530E+03 -0.38677181266E+03  0.16146692810E+04  0.00000000000E+00 0. -1.
        -14    1    3    3    0    0 -0.43205648273E+02 -0.20960624455E+02 -0.81115329466E+01  0.48701876626E+02  0.00000000000E+00 0.  1.
         15    1    5    5    0    0 -0.22738309514E+02  0.57873948381E+02  0.81141355119E+01  0.62732938277E+02  0.17770000000E+01 0. -1.
        -16    1    5    5    0    0  0.26958520369E+02  0.32056418226E+02 -0.45933939099E+02  0.62163514469E+02  0.00000000000E+00 0.  1.
          2    1    6    6  502    0  0.94840245948E+03  0.86825767463E+02 -0.64145046660E+03  0.11482441553E+04  0.00000000000E+00 0. -1.
         -1    1    6    6    0  502  0.63569409636E+03  0.10914992569E+03 -0.40131690307E+03  0.75965515012E+03  0.00000000000E+00 0.  1.
<mgrwt>
<rscale>  0 0.16585701E+04</rscale>
<asrwt>0</asrwt>
<pdfrwt beam="1">  1        1 0.39781826E+00 0.16585701E+04</pdfrwt>
<pdfrwt beam="2">  1       -2 0.17082280E+00 0.16585701E+04</pdfrwt>
<totfact> 0.20220997E-01</totfact>
</mgrwt>
</event>
<event>
12    3  0.1440243E-007  0.1596401E+04  0.7818608E-02  0.8822762E-01
          1   -1    0    0  501    0  0.00000000000E+00  0.00000000000E+00  0.27254119255E+04  0.27254119255E+04  0.00000000000E+00 0. -1.
         -2   -1    0    0    0  501 -0.00000000000E+00 -0.00000000000E+00 -0.10804695240E+04  0.10804695240E+04  0.00000000000E+00 0.  1.
        -24    2    1    2    0    0  0.14264533942E+04  0.68424388386E+03  0.13644773017E+04  0.20907556342E+04  0.80633966603E+02 0.  0.
    5000000    2    1    2    0    0 -0.14264533942E+04 -0.68424388386E+03  0.28046509972E+03  0.17151258153E+04  0.60003075888E+03 0.  0.
        -24    2    4    4    0    0 -0.11823416313E+04 -0.46244095421E+03 -0.42444165010E+01  0.12720771006E+04  0.79867175412E+02 0.  0.
         24    2    4    4    0    0 -0.24411176294E+03 -0.22180292965E+03  0.28470951623E+03  0.44304871464E+03  0.80284260674E+02 0.  0.
         13    1    3    3    0    0  0.94280192263E+03  0.49382232005E+03  0.92367343086E+03  0.14092226779E+04  0.00000000000E+00 0. -1.
        -14    1    3    3    0    0  0.48365147157E+03  0.19042156381E+03  0.44080387087E+03  0.68153295628E+03  0.00000000000E+00 0.  1.
         15    1    5    5    0    0 -0.88107366797E+03 -0.36351436155E+03 -0.32927730285E+02  0.95368804784E+03  0.17770000000E+01 0. -1.
        -16    1    5    5    0    0 -0.30126796330E+03 -0.98926592668E+02  0.28683313784E+02  0.31838905279E+03  0.00000000000E+00 0.  1.
          2    1    6    6  502    0 -0.70764197262E+02 -0.11458216642E+03  0.97141483334E+02  0.16605153495E+03  0.00000000000E+00 0. -1.
         -1    1    6    6    0  502 -0.17334756568E+03 -0.10722076322E+03  0.18756803289E+03  0.27699717969E+03  0.00000000000E+00 0.  1.
<mgrwt>
<rscale>  0 0.15964010E+04</rscale>
<asrwt>0</asrwt>
<pdfrwt beam="1">  1        1 0.41929414E+00 0.15964010E+04</pdfrwt>
<pdfrwt beam="2">  1       -2 0.16622608E+00 0.15964010E+04</pdfrwt>
<totfact> 0.17525094E-01</totfact>
</mgrwt>
</event>
<event>
12    3  0.1201947E-007  0.1477834E+04  0.7818608E-02  0.8899329E-01
          1   -1    0    0  501    0  0.00000000000E+00  0.00000000000E+00  0.16805487532E+04  0.16805487532E+04  0.00000000000E+00 0. -1.
         -2   -1    0    0    0  501 -0.00000000000E+00 -0.00000000000E+00 -0.13596438008E+04  0.13596438008E+04  0.00000000000E+00 0.  1.
        -24    2    1    2    0    0 -0.13657889755E+04  0.48922396685E+03  0.14656168457E+03  0.14605920253E+04  0.84434125650E+02 0.  0.
    5000000    2    1    2    0    0  0.13657889755E+04 -0.48922396685E+03  0.17434326779E+03  0.15796005287E+04  0.60001886614E+03 0.  0.
        -24    2    4    4    0    0  0.49166839717E+03  0.57928480117E+01  0.27066802429E+03  0.56725241251E+03  0.82114251289E+02 0.  0.
         24    2    4    4    0    0  0.87412057836E+03 -0.49501681487E+03 -0.96324756499E+02  0.10123481162E+04  0.80260931076E+02 0.  0.
         13    1    3    3    0    0 -0.24932613224E+03  0.11667959607E+03  0.69828468229E+01  0.27536595379E+03  0.00000000000E+00 0. -1.
        -14    1    3    3    0    0 -0.11164628433E+04  0.37254437078E+03  0.13957883774E+03  0.11852260715E+04  0.00000000000E+00 0.  1.
         15    1    5    5    0    0  0.85438691972E+02  0.30957370917E+02  0.38758454994E+02  0.98810447133E+02  0.17770000000E+01 0. -1.
        -16    1    5    5    0    0  0.40622970520E+03 -0.25164522905E+02  0.23190956930E+03  0.46844196538E+03  0.00000000000E+00 0.  1.
          4    1    6    6  502    0  0.83845090378E+03 -0.48428319768E+03 -0.10548016503E+03  0.97398983507E+03  0.00000000000E+00 0. -1.
         -3    1    6    6    0  502  0.35669674580E+02 -0.10733617184E+02  0.91554085281E+01  0.38358281086E+02  0.00000000000E+00 0.  1.
<mgrwt>
<rscale>  0 0.14778335E+04</rscale>
<asrwt>0</asrwt>
<pdfrwt beam="1">  1        1 0.25854596E+00 0.14778335E+04</pdfrwt>
<pdfrwt beam="2">  1       -2 0.20917597E+00 0.14778335E+04</pdfrwt>
<totfact> 0.47179783E-01</totfact>
</mgrwt>
</event>
<event>
12    3  0.1201947E-007  0.7410264E+03  0.7818608E-02  0.9649535E-01
          1   -1    0    0  501    0  0.00000000000E+00  0.00000000000E+00  0.71744727427E+03  0.71744727427E+03  0.00000000000E+00 0. -1.
         -2   -1    0    0    0  501 -0.00000000000E+00 -0.00000000000E+00 -0.10064362228E+04  0.10064362228E+04  0.00000000000E+00 0.  1.
        -24    2    1    2    0    0 -0.33092680466E+03 -0.63659487457E+03  0.63334096130E+02  0.72456942933E+03  0.78892748803E+02 0.  0.
    5000000    2    1    2    0    0  0.33092680466E+03  0.63659487457E+03 -0.35232304468E+03  0.99931406777E+03  0.59977620314E+03 0.  0.
        -24    2    4    4    0    0  0.10383790708E+01  0.10307836288E+03 -0.34318648471E+03  0.36650574740E+03  0.76962799214E+02 0.  0.
         24    2    4    4    0    0  0.32988842559E+03  0.53351651169E+03 -0.91365599679E+01  0.63280832037E+03  0.83046083680E+02 0.  0.
         11    1    3    3    0    0 -0.81345318101E+02 -0.92441231031E+02  0.10794419279E+02  0.12360809625E+03  0.00000000000E+00 0. -1.
        -12    1    3    3    0    0 -0.24958148656E+03 -0.54415364354E+03  0.52539676851E+02  0.60096133308E+03  0.00000000000E+00 0.  1.
         15    1    5    5    0    0 -0.37171380868E+02  0.61233455803E+02 -0.20445670531E+03  0.21664937051E+03  0.17770000000E+01 0. -1.
        -16    1    5    5    0    0  0.38209759939E+02  0.41844907079E+02 -0.13872977940E+03  0.14985637689E+03  0.00000000000E+00 0.  1.
          2    1    6    6  502    0  0.23302110083E+03  0.43670383042E+03 -0.20313407089E+02  0.49540054848E+03  0.00000000000E+00 0. -1.
         -1    1    6    6    0  502  0.96867324766E+02  0.96812681270E+02  0.11176847121E+02  0.13740777188E+03  0.00000000000E+00 0.  1.
<mgrwt>
<rscale>  0 0.74102639E+03</rscale>
<asrwt>0</asrwt>
<pdfrwt beam="1">  1        1 0.11037650E+00 0.74102639E+03</pdfrwt>
<pdfrwt beam="2">  1       -2 0.15483634E+00 0.74102639E+03</pdfrwt>
<totfact> 0.64759466E+00</totfact>
</mgrwt>
</event>
<event>
12    3  0.1201947E-007  0.4843664E+03  0.7818608E-02  0.1017942E+00
          1   -1    0    0  501    0  0.00000000000E+00  0.00000000000E+00  0.12721424277E+04  0.12721424277E+04  0.00000000000E+00 0. -1.
         -2   -1    0    0    0  501 -0.00000000000E+00 -0.00000000000E+00 -0.28045069490E+03  0.28045069490E+03  0.00000000000E+00 0.  1.
        -24    2    1    2    0    0 -0.31133005766E+03 -0.88427202737E+02 -0.19778244717E+02  0.33277485171E+03  0.74847498195E+02 0.  0.
    5000000    2    1    2    0    0  0.31133005766E+03  0.88427202737E+02  0.10114699775E+04  0.12198182709E+04  0.60011609175E+03 0.  0.
        -24    2    4    4    0    0  0.35255485407E+03  0.26842545830E+03  0.52150189752E+03  0.68987694635E+03  0.87285853374E+02 0.  0.
         24    2    4    4    0    0 -0.41224796415E+02 -0.17999825557E+03  0.48996807996E+03  0.52994132450E+03  0.81671489440E+02 0.  0.
         13    1    3    3    0    0 -0.18272735923E+03 -0.15789050122E+02  0.23764612602E+01  0.18342363393E+03  0.00000000000E+00 0. -1.
        -14    1    3    3    0    0 -0.12860269842E+03 -0.72638152615E+02 -0.22154705977E+02  0.14935121778E+03  0.00000000000E+00 0.  1.
         15    1    5    5    0    0  0.21228153688E+03  0.12579468719E+03  0.33739626224E+03  0.41800376760E+03  0.17770000000E+01 0. -1.
        -16    1    5    5    0    0  0.14027331719E+03  0.14263077111E+03  0.18410563528E+03  0.27187317875E+03  0.00000000000E+00 0.  1.
          2    1    6    6  502    0 -0.38155174208E+02 -0.18275084068E+03  0.49132668645E+03  0.52560022822E+03  0.00000000000E+00 0. -1.
         -1    1    6    6    0  502 -0.30696222072E+01  0.27525851165E+01 -0.13586064888E+01  0.43410962797E+01  0.00000000000E+00 0.  1.
<mgrwt>
<rscale>  0 0.48436637E+03</rscale>
<asrwt>0</asrwt>
<pdfrwt beam="1">  1        1 0.19571422E+00 0.48436637E+03</pdfrwt>
<pdfrwt beam="2">  1       -2 0.43146261E-01 0.48436637E+03</pdfrwt>
<totfact> 0.44788425E+01</totfact>
</mgrwt>
</event>
<event>
12    3  0.1201947E-007  0.5799042E+03  0.7818608E-02  0.9947998E-01
         -2   -1    0    0    0  501 -0.00000000000E+00  0.00000000000E+00  0.81320396660E+03  0.81320396660E+03  0.00000000000E+00 0.  1.
          1   -1    0    0  501    0  0.00000000000E+00 -0.00000000000E+00 -0.69211759999E+03  0.69211759999E+03  0.00000000000E+00 0. -1.
        -24    2    1    2    0    0  0.43391439373E+03 -0.33265683596E+03  0.35925787169E+03  0.65929133138E+03  0.81587803446E+02 0.  0.
    5000000    2    1    2    0    0 -0.43391439373E+03  0.33265683596E+03 -0.23817150508E+03  0.84603023520E+03  0.60008267884E+03 0.  0.
        -24    2    4    4    0    0 -0.29438716389E+03  0.35261126337E+03  0.95032924243E+02  0.47593338376E+03  0.80515984507E+02 0.  0.
         24    2    4    4    0    0 -0.13952722984E+03 -0.19954427409E+02 -0.33320442932E+03  0.37009685145E+03  0.77977308823E+02 0.  0.
         13    1    3    3    0    0  0.34343880508E+03 -0.28676874694E+03  0.32189180666E+03  0.55118133337E+03  0.00000000000E+00 0. -1.
        -14    1    3    3    0    0  0.90475588651E+02 -0.45888089021E+02  0.37366065023E+02  0.10810999802E+03  0.00000000000E+00 0.  1.
         15    1    5    5    0    0 -0.40869644329E+02  0.92767172960E+02  0.30498314780E+01  0.10143241793E+03  0.17770000000E+01 0. -1.
        -16    1    5    5    0    0 -0.25351751956E+03  0.25984409041E+03  0.91983092765E+02  0.37450096582E+03  0.00000000000E+00 0.  1.
          2    1    6    6  502    0 -0.46723758101E+02  0.12229546423E+02 -0.19271286934E+03  0.19867290048E+03  0.00000000000E+00 0. -1.
         -1    1    6    6    0  502 -0.92803471735E+02 -0.32183973832E+02 -0.14049155998E+03  0.17142395096E+03  0.00000000000E+00 0.  1.
<mgrwt>
<rscale>  0 0.57990421E+03</rscale>
<asrwt>0</asrwt>
<pdfrwt beam="1">  1        1 0.10647963E+00 0.57990421E+03</pdfrwt>
<pdfrwt beam="2">  1       -2 0.12510830E+00 0.57990421E+03</pdfrwt>
<totfact> 0.12094097E+01</totfact>
</mgrwt>
</event>
<event>
12    3  0.1201947E-007  0.1603323E+04  0.7818608E-02  0.8818509E-01
          1   -1    0    0  501    0  0.00000000000E+00  0.00000000000E+00  0.28183877172E+04  0.28183877172E+04  0.00000000000E+00 0. -1.
         -2   -1    0    0    0  501 -0.00000000000E+00 -0.00000000000E+00 -0.92335420475E+03  0.92335420475E+03  0.00000000000E+00 0.  1.
        -24    2    1    2    0    0  0.12533997850E+04 -0.92243785313E+03  0.89409039199E+03  0.17965103914E+04  0.78417748388E+02 0.  0.
    5000000    2    1    2    0    0 -0.12533997850E+04  0.92243785313E+03  0.10009431205E+04  0.19452315306E+04  0.60011329207E+03 0.  0.
        -24    2    4    4    0    0 -0.12769409786E+04  0.76710431166E+03  0.87516010262E+03  0.17295326540E+04  0.79691331723E+02 0.  0.
         24    2    4    4    0    0  0.23541193560E+02  0.15533354148E+03  0.12578301785E+03  0.21569887660E+03  0.77601165502E+02 0.  0.
         13    1    3    3    0    0  0.14157576544E+03 -0.13642581978E+03  0.11123698760E+03  0.22589681068E+03  0.00000000000E+00 0. -1.
        -14    1    3    3    0    0  0.11118240196E+04 -0.78601203335E+03  0.78285340439E+03  0.15706135807E+04  0.00000000000E+00 0.  1.
         15    1    5    5    0    0 -0.42617561778E+03  0.26322992890E+03  0.33770444852E+03  0.60412176333E+03  0.17770000000E+01 0. -1.
        -16    1    5    5    0    0 -0.85076536079E+03  0.50387438276E+03  0.53745565411E+03  0.11254108907E+04  0.00000000000E+00 0.  1.
          4    1    6    6  502    0  0.14977549900E+02  0.14260746136E+03  0.73340592303E+02  0.16105917396E+03  0.00000000000E+00 0. -1.
         -3    1    6    6    0  502  0.85636436599E+01  0.12726080113E+02  0.52442425548E+02  0.54639702645E+02  0.00000000000E+00 0.  1.
<mgrwt>
<rscale>  0 0.16033234E+04</rscale>
<asrwt>0</asrwt>
<pdfrwt beam="1">  1        1 0.43359811E+00 0.16033234E+04</pdfrwt>
<pdfrwt beam="2">  1       -2 0.14205449E+00 0.16033234E+04</pdfrwt>
<totfact> 0.23018571E-01</totfact>
</mgrwt>
</event>
<event>
12    3  0.1201947E-007  0.3507383E+03  0.7818608E-02  0.1062312E+00
         -2   -1    0    0    0  501 -0.00000000000E+00  0.00000000000E+00  0.46318115254E+03  0.46318115254E+03  0.00000000000E+00 0.  1.
          1   -1    0    0  501    0  0.00000000000E+00 -0.00000000000E+00 -0.42641912021E+03  0.42641912021E+03  0.00000000000E+00 0. -1.
        -24    2    1    2    0    0 -0.14625619027E+03  0.17217887495E+03  0.70730211276E+02  0.24718521213E+03  0.71143011863E+02 0.  0.
    5000000    2    1    2    0    0  0.14625619027E+03 -0.17217887495E+03 -0.33968178954E+02  0.64241506062E+03  0.60042221374E+03 0.  0.
        -24    2    4    4    0    0  0.26645168050E+03 -0.19408486432E+03  0.17791507956E+03  0.38526364565E+03  0.90049256117E+02 0.  0.
         24    2    4    4    0    0 -0.12019549022E+03  0.21905989369E+02 -0.21188325852E+03  0.25715141497E+03  0.79407220951E+02 0.  0.
         11    1    3    3    0    0 -0.33572299510E+02  0.45727529086E+02  0.51686671796E+02  0.76743848301E+02  0.00000000000E+00 0. -1.
        -12    1    3    3    0    0 -0.11268389076E+03  0.12645134587E+03  0.19043539481E+02  0.17044136383E+03  0.00000000000E+00 0.  1.
         15    1    5    5    0    0  0.10988139293E+03 -0.88657318595E+02  0.12662949369E+03  0.18966345735E+03  0.17770000000E+01 0. -1.
        -16    1    5    5    0    0  0.15657028756E+03 -0.10542754573E+03  0.51285585877E+02  0.19560018830E+03  0.00000000000E+00 0.  1.
          4    1    6    6  502    0 -0.69693806146E+02 -0.27354546158E+02 -0.11725574787E+03  0.13912012155E+03  0.00000000000E+00 0. -1.
         -3    1    6    6    0  502 -0.50501684077E+02  0.49260535527E+02 -0.94627510645E+02  0.11803129342E+03  0.00000000000E+00 0.  1.
<mgrwt>
<rscale>  0 0.35073828E+03</rscale>
<asrwt>0</asrwt>
<pdfrwt beam="1">  1        1 0.65602941E-01 0.35073828E+03</pdfrwt>
<pdfrwt beam="2">  1       -2 0.71258639E-01 0.35073828E+03</pdfrwt>
<totfact> 0.90060646E+01</totfact>
</mgrwt>
</event>
<event>
12    3  0.1201947E-007  0.5339584E+03  0.7818608E-02  0.1005277E+00
          1   -1    0    0  501    0  0.00000000000E+00  0.00000000000E+00  0.24041138309E+03  0.24041138309E+03  0.00000000000E+00 0. -1.
         -4   -1    0    0    0  501 -0.00000000000E+00 -0.00000000000E+00 -0.13744476984E+04  0.13744476984E+04  0.00000000000E+00 0.  1.
        -24    2    1    2    0    0  0.12188702359E+03  0.36229500175E+03 -0.63647618805E+03  0.74673592114E+03  0.79990519145E+02 0.  0.
    5000000    2    1    2    0    0 -0.12188702359E+03 -0.36229500175E+03 -0.49756012728E+03  0.86812316036E+03  0.59996468770E+03 0.  0.
        -24    2    4    4    0    0 -0.74177970446E+02 -0.51174955457E+03 -0.27596323676E+03  0.59116956900E+03  0.77043970359E+02 0.  0.
         24    2    4    4    0    0 -0.47709053149E+02  0.14945455282E+03 -0.22159689052E+03  0.27695359136E+03  0.54637832784E+02 0.  0.
         11    1    3    3    0    0  0.65046701470E+02  0.25716677658E+03 -0.49449761715E+03  0.56115391624E+03  0.00000000000E+00 0. -1.
        -12    1    3    3    0    0  0.56840322125E+02  0.10512822517E+03 -0.14197857090E+03  0.18558200490E+03  0.00000000000E+00 0.  1.
         15    1    5    5    0    0 -0.64274644285E+02 -0.20589948022E+03 -0.95411452882E+02  0.23586506508E+03  0.17770000000E+01 0. -1.
        -16    1    5    5    0    0 -0.99033261608E+01 -0.30585007434E+03 -0.18055178388E+03  0.35530450392E+03  0.00000000000E+00 0.  1.
          4    1    6    6  502    0 -0.52724154381E+02  0.11381631403E+03 -0.14119889037E+03  0.18886798679E+03  0.00000000000E+00 0. -1.
         -3    1    6    6    0  502  0.50151012320E+01  0.35638238794E+02 -0.80398000151E+02  0.88085604573E+02  0.00000000000E+00 0.  1.
<mgrwt>
<rscale>  0 0.53395841E+03</rscale>
<asrwt>0</asrwt>
<pdfrwt beam="1">  1        1 0.36986366E-01 0.53395841E+03</pdfrwt>
<pdfrwt beam="2">  1       -4 0.21145349E+00 0.53395841E+03</pdfrwt>
<totfact> 0.63113366E+00</totfact>
</mgrwt>
</event>
<event>
12    3  0.1201947E-007  0.9577111E+03  0.7818608E-02  0.9356183E-01
          1   -1    0    0  501    0  0.00000000000E+00  0.00000000000E+00  0.12754732542E+04  0.12754732542E+04  0.00000000000E+00 0. -1.
         -2   -1    0    0    0  501 -0.00000000000E+00 -0.00000000000E+00 -0.76517178257E+03  0.76517178257E+03  0.00000000000E+00 0.  1.
        -24    2    1    2    0    0  0.27801150397E+03  0.84998788500E+03  0.26263697061E+03  0.93556286032E+03  0.80807711881E+02 0.  0.
    5000000    2    1    2    0    0 -0.27801150397E+03 -0.84998788500E+03  0.24766450103E+03  0.11050821765E+04  0.60008258654E+03 0.  0.
        -24    2    4    4    0    0  0.11952349874E+03 -0.35049044318E+03 -0.73231910634E+02  0.38627000219E+03  0.81927921636E+02 0.  0.
         24    2    4    4    0    0 -0.39753500271E+03 -0.49949744182E+03  0.32089641166E+03  0.71881217427E+03  0.78642622635E+02 0.  0.
         11    1    3    3    0    0  0.18717821190E+03  0.61930059145E+03  0.22397002992E+03  0.68463967157E+03  0.00000000000E+00 0. -1.
        -12    1    3    3    0    0  0.90833292072E+02  0.23068729355E+03  0.38666940691E+02  0.25092318876E+03  0.00000000000E+00 0.  1.
         15    1    5    5    0    0 -0.73345429560E+01 -0.66458084874E+02 -0.25369745461E+02  0.71534986400E+02  0.17770000000E+01 0. -1.
        -16    1    5    5    0    0  0.12685804170E+03 -0.28403235831E+03 -0.47862165173E+02  0.31473501579E+03  0.00000000000E+00 0.  1.
          4    1    6    6  502    0 -0.37488010689E+03 -0.43521777352E+03  0.29649895848E+03  0.64642187255E+03  0.00000000000E+00 0. -1.
         -3    1    6    6    0  502 -0.22654895820E+02 -0.64279668300E+02  0.24397453184E+02  0.72390301721E+02  0.00000000000E+00 0.  1.
<mgrwt>
<rscale>  0 0.95771113E+03</rscale>
<asrwt>0</asrwt>
<pdfrwt beam="1">  1        1 0.19622665E+00 0.95771113E+03</pdfrwt>
<pdfrwt beam="2">  1       -2 0.11771874E+00 0.95771113E+03</pdfrwt>
<totfact> 0.46133230E+00</totfact>
</mgrwt>
</event>
<event>
12    3  0.1201947E-007  0.5383501E+03  0.7818608E-02  0.1004227E+00
          1   -1    0    0  501    0  0.00000000000E+00  0.00000000000E+00  0.19095180395E+04  0.19095180395E+04  0.00000000000E+00 0. -1.
         -4   -1    0    0    0  501 -0.00000000000E+00 -0.00000000000E+00 -0.23080442549E+03  0.23080442549E+03  0.00000000000E+00 0.  1.
        -24    2    1    2    0    0  0.32722066336E+03  0.40139247528E+03  0.53300037894E+03  0.74716728214E+03  0.77332152466E+02 0.  0.
    5000000    2    1    2    0    0 -0.32722066336E+03 -0.40139247528E+03  0.11457132351E+04  0.13931551828E+04  0.60002771999E+03 0.  0.
        -24    2    4    4    0    0 -0.41893132025E+02 -0.60631887762E+02  0.84209648905E+03  0.84910081265E+03  0.80090154467E+02 0.  0.
         24    2    4    4    0    0 -0.28532753133E+03 -0.34076058752E+03  0.30361674600E+03  0.54405437019E+03  0.79261914738E+02 0.  0.
         13    1    3    3    0    0  0.31189525777E+03  0.34808266629E+03  0.48832022390E+03  0.67594144381E+03  0.00000000000E+00 0. -1.
        -14    1    3    3    0    0  0.15325405584E+02  0.53309808983E+02  0.44680155045E+02  0.71225838324E+02  0.00000000000E+00 0.  1.
         15    1    5    5    0    0 -0.61097039755E+02 -0.22079151051E+02  0.55488371377E+03  0.55867649916E+03  0.17770000000E+01 0. -1.
        -16    1    5    5    0    0  0.19203907730E+02 -0.38552736711E+02  0.28721277529E+03  0.29042431349E+03  0.00000000000E+00 0.  1.
          4    1    6    6  502    0 -0.22999942289E+03 -0.25178853415E+03  0.26684466961E+03  0.43301648717E+03  0.00000000000E+00 0. -1.
         -3    1    6    6    0  502 -0.55328108441E+02 -0.88972053361E+02  0.36772076392E+02  0.11103788302E+03  0.00000000000E+00 0.  1.
<mgrwt>
<rscale>  0 0.53835007E+03</rscale>
<asrwt>0</asrwt>
<pdfrwt beam="1">  1        1 0.29377200E+00 0.53835007E+03</pdfrwt>
<pdfrwt beam="2">  1       -4 0.35508374E-01 0.53835007E+03</pdfrwt>
<totfact> 0.13587134E+01</totfact>
</mgrwt>
</event>
<event>
12    3  0.1201947E-007  0.6387405E+03  0.7818608E-02  0.9828139E-01
          1   -1    0    0  501    0  0.00000000000E+00  0.00000000000E+00  0.22875236339E+04  0.22875236339E+04  0.00000000000E+00 0. -1.
         -4   -1    0    0    0  501 -0.00000000000E+00 -0.00000000000E+00 -0.18577227877E+03  0.18577227877E+03  0.00000000000E+00 0.  1.
        -24    2    1    2    0    0  0.45863729261E+03 -0.21477757991E+03  0.71726280164E+03  0.88168126364E+03  0.80114599383E+02 0.  0.
    5000000    2    1    2    0    0 -0.45863729261E+03  0.21477757991E+03  0.13844885535E+04  0.15916146490E+04  0.59995921636E+03 0.  0.
        -24    2    4    4    0    0 -0.58876133421E+03  0.21069843926E+03  0.11639229588E+04  0.13236943854E+04  0.80102627688E+02 0.  0.
         24    2    4    4    0    0  0.13012404160E+03  0.40791406525E+01  0.22056559470E+03  0.26792026365E+03  0.78633202375E+02 0.  0.
         13    1    3    3    0    0  0.15066993931E+03 -0.10873405534E+03  0.29015886251E+03  0.34455288549E+03  0.00000000000E+00 0. -1.
        -14    1    3    3    0    0  0.30796735329E+03 -0.10604352457E+03  0.42710393913E+03  0.53712837815E+03  0.00000000000E+00 0.  1.
         15    1    5    5    0    0 -0.39767786942E+03  0.12137220085E+03  0.70211098038E+03  0.81599135134E+03  0.17770000000E+01 0. -1.
        -16    1    5    5    0    0 -0.19108346479E+03  0.89326238410E+02  0.46181197841E+03  0.50770303406E+03  0.00000000000E+00 0.  1.
          4    1    6    6  502    0  0.42327265259E+02 -0.21927919604E+02  0.29536284643E+02  0.56078722819E+02  0.00000000000E+00 0. -1.
         -3    1    6    6    0  502  0.87796776341E+02  0.26007060257E+02  0.19102931006E+03  0.21184154083E+03  0.00000000000E+00 0.  1.
<mgrwt>
<rscale>  0 0.63874052E+03</rscale>
<asrwt>0</asrwt>
<pdfrwt beam="1">  1        1 0.35192669E+00 0.63874052E+03</pdfrwt>
<pdfrwt beam="2">  1       -4 0.28580352E-01 0.63874052E+03</pdfrwt>
<totfact> 0.11524473E+01</totfact>
</mgrwt>
</event>
<event>
12    3  0.1201947E-007  0.8759773E+03  0.7818608E-02  0.9456119E-01
          1   -1    0    0  501    0  0.00000000000E+00  0.00000000000E+00  0.16857553946E+04  0.16857553946E+04  0.00000000000E+00 0. -1.
         -2   -1    0    0    0  501 -0.00000000000E+00 -0.00000000000E+00 -0.55482512316E+03  0.55482512316E+03  0.00000000000E+00 0.  1.
        -24    2    1    2    0    0 -0.83407011529E+03 -0.24001872609E+03  0.41158594914E+03  0.96358280624E+03  0.76202918957E+02 0.  0.
    5000000    2    1    2    0    0  0.83407011529E+03  0.24001872609E+03  0.71934432229E+03  0.12769977115E+04  0.59998746246E+03 0.  0.
        -24    2    4    4    0    0  0.68335877708E+03  0.20019841513E+03  0.22333416997E+03  0.75104254212E+03  0.84428223736E+02 0.  0.
         24    2    4    4    0    0  0.15071133821E+03  0.39820310962E+02  0.49601015232E+03  0.52595516940E+03  0.79392722508E+02 0.  0.
         13    1    3    3    0    0 -0.42614611859E+03 -0.91766946073E+02  0.17978783284E+03  0.47153510115E+03  0.00000000000E+00 0. -1.
        -14    1    3    3    0    0 -0.40792399670E+03 -0.14825178002E+03  0.23179811630E+03  0.49204770509E+03  0.00000000000E+00 0.  1.
         15    1    5    5    0    0  0.36279640100E+03  0.70096814935E+02  0.14038615914E+03  0.39527993049E+03  0.17770000000E+01 0. -1.
        -16    1    5    5    0    0  0.32056237607E+03  0.13010160019E+03  0.82948010836E+02  0.35576261162E+03  0.00000000000E+00 0.  1.
          2    1    6    6  502    0  0.45460902015E+01 -0.10914500728E+02  0.10156586530E+03  0.10225173962E+03  0.00000000000E+00 0. -1.
         -1    1    6    6    0  502  0.14616524801E+03  0.50734811690E+02  0.39444428702E+03  0.42370342978E+03  0.00000000000E+00 0.  1.
<mgrwt>
<rscale>  0 0.87597730E+03</rscale>
<asrwt>0</asrwt>
<pdfrwt beam="1">  1        1 0.25934698E+00 0.87597730E+03</pdfrwt>
<pdfrwt beam="2">  1       -2 0.85357712E-01 0.87597730E+03</pdfrwt>
<totfact> 0.51997477E+00</totfact>
</mgrwt>
</event>
<event>
12    3  0.1201947E-007  0.7914113E+03  0.7818608E-02  0.9572533E-01
         -2   -1    0    0    0  501 -0.00000000000E+00  0.00000000000E+00  0.79987684211E+03  0.79987684211E+03  0.00000000000E+00 0.  1.
          1   -1    0    0  501    0  0.00000000000E+00 -0.00000000000E+00 -0.90995784431E+03  0.90995784431E+03  0.00000000000E+00 0. -1.
        -24    2    1    2    0    0 -0.55949513239E+03 -0.47768277888E+03  0.71762873139E+02  0.74347065298E+03  0.79894064135E+02 0.  0.
    5000000    2    1    2    0    0  0.55949513239E+03  0.47768277888E+03 -0.18184387534E+03  0.96636403344E+03  0.59964707098E+03 0.  0.
        -24    2    4    4    0    0  0.60490309765E+03  0.45085979606E+03 -0.29842669184E+03  0.81530697361E+03  0.80527371544E+02 0.  0.
         24    2    4    4    0    0 -0.45407965264E+02  0.26822982820E+02  0.11658281650E+03  0.15105705983E+03  0.80282790848E+02 0.  0.
         13    1    3    3    0    0 -0.27762862796E+03 -0.27750459712E+03  0.63601432715E+02  0.39765764010E+03  0.00000000000E+00 0. -1.
        -14    1    3    3    0    0 -0.28186650443E+03 -0.20017818176E+03  0.81614404248E+01  0.34581301289E+03  0.00000000000E+00 0.  1.
         15    1    5    5    0    0  0.45651771602E+03  0.36825144870E+03 -0.20403629014E+03  0.62100847010E+03  0.17770000000E+01 0. -1.
        -16    1    5    5    0    0  0.14838538163E+03  0.82608347359E+02 -0.94390401696E+02  0.19429850351E+03  0.00000000000E+00 0.  1.
          2    1    6    6  502    0 -0.59674758388E+01  0.44560854016E+02  0.29343558058E+02  0.53687287863E+02  0.00000000000E+00 0. -1.
         -1    1    6    6    0  502 -0.39440489425E+02 -0.17737871197E+02  0.87239258437E+02  0.97369771969E+02  0.00000000000E+00 0.  1.
<mgrwt>
<rscale>  0 0.79141131E+03</rscale>
<asrwt>0</asrwt>
<pdfrwt beam="1">  1        1 0.13999351E+00 0.79141131E+03</pdfrwt>
<pdfrwt beam="2">  1       -2 0.12305798E+00 0.79141131E+03</pdfrwt>
<totfact> 0.79484524E+00</totfact>
</mgrwt>
</event>
<event>
12    3  0.1201947E-007  0.3655471E+03  0.7818608E-02  0.1056409E+00
         -2   -1    0    0    0  501 -0.00000000000E+00  0.00000000000E+00  0.18645344619E+03  0.18645344619E+03  0.00000000000E+00 0.  1.
          1   -1    0    0  501    0  0.00000000000E+00 -0.00000000000E+00 -0.11634450707E+04  0.11634450707E+04  0.00000000000E+00 0. -1.
        -24    2    1    2    0    0  0.24045498063E+02 -0.14281955178E+03  0.19503794935E+02  0.17778234235E+03  0.10124501413E+03 0.  0.
    5000000    2    1    2    0    0 -0.24045498063E+02  0.14281955178E+03 -0.99649541943E+03  0.11721161745E+04  0.59989798742E+03 0.  0.
        -24    2    4    4    0    0  0.13739201523E+03  0.29410253688E+03 -0.79436435122E+03  0.86182303430E+03  0.79695369461E+02 0.  0.
         24    2    4    4    0    0 -0.16143751329E+03 -0.15128298511E+03 -0.20213106822E+03  0.31029314024E+03  0.80475163004E+02 0.  0.
         13    1    3    3    0    0  0.52500595506E+02 -0.33825730690E+02  0.18480122466E+02  0.65130695617E+02  0.00000000000E+00 0. -1.
        -14    1    3    3    0    0 -0.28455097443E+02 -0.10899382109E+03  0.10236724696E+01  0.11265164673E+03  0.00000000000E+00 0.  1.
         15    1    5    5    0    0  0.54261702587E+02  0.44973186938E+02 -0.14079847569E+03  0.15746202208E+03  0.17770000000E+01 0. -1.
        -16    1    5    5    0    0  0.83130312641E+02  0.24912934995E+03 -0.65356587553E+03  0.70436101222E+03  0.00000000000E+00 0.  1.
          2    1    6    6  502    0 -0.48117830653E+02 -0.62652756668E+02 -0.12277491157E+03  0.14599442611E+03  0.00000000000E+00 0. -1.
         -1    1    6    6    0  502 -0.11331968264E+03 -0.88630228438E+02 -0.79356156650E+02  0.16429871413E+03  0.00000000000E+00 0.  1.
<mgrwt>
<rscale>  0 0.36554705E+03</rscale>
<asrwt>0</asrwt>
<pdfrwt beam="1">  1        1 0.17899155E+00 0.36554705E+03</pdfrwt>
<pdfrwt beam="2">  1       -2 0.28685146E-01 0.36554705E+03</pdfrwt>
<totfact> 0.11779836E+02</totfact>
</mgrwt>
</event>
<event>
12    3  0.1201947E-007  0.4087039E+03  0.7818608E-02  0.1040807E+00
          1   -1    0    0  501    0  0.00000000000E+00  0.00000000000E+00  0.10532535381E+04  0.10532535381E+04  0.00000000000E+00 0. -1.
         -2   -1    0    0    0  501 -0.00000000000E+00 -0.00000000000E+00 -0.25228682022E+03  0.25228682022E+03  0.00000000000E+00 0.  1.
        -24    2    1    2    0    0 -0.17530510534E+03  0.17708448347E+03 -0.14612584165E+02  0.26308346335E+03  0.83117909202E+02 0.  0.
    5000000    2    1    2    0    0  0.17530510534E+03 -0.17708448347E+03  0.81557930201E+03  0.10424568949E+04  0.59954648332E+03 0.  0.
        -24    2    4    4    0    0  0.22656133311E+03 -0.31285115146E+03  0.28553294729E+03  0.48705718630E+03  0.80559034902E+02 0.  0.
         24    2    4    4    0    0 -0.51256227774E+02  0.13576666799E+03  0.53004635472E+03  0.55539970863E+03  0.80373560130E+02 0.  0.
         11    1    3    3    0    0 -0.28022504125E+02  0.82904612819E+02  0.14744746867E+01  0.87524908682E+02  0.00000000000E+00 0. -1.
        -12    1    3    3    0    0 -0.14728260121E+03  0.94179870654E+02 -0.16087058851E+02  0.17555855467E+03  0.00000000000E+00 0.  1.
         15    1    5    5    0    0 -0.21651960242E+01 -0.52983102866E+01 -0.35634333483E+01  0.69725140333E+01  0.17770000000E+01 0. -1.
        -16    1    5    5    0    0  0.22872652913E+03 -0.30755284118E+03  0.28909638064E+03  0.48008467227E+03  0.00000000000E+00 0.  1.
          4    1    6    6  502    0 -0.56585753818E+02  0.38621443450E+02  0.22806087687E+03  0.23812880336E+03  0.00000000000E+00 0. -1.
         -3    1    6    6    0  502  0.53295260435E+01  0.97145224538E+02  0.30198547785E+03  0.31727090527E+03  0.00000000000E+00 0.  1.
<mgrwt>
<rscale>  0 0.40870390E+03</rscale>
<asrwt>0</asrwt>
<pdfrwt beam="1">  1        1 0.16203900E+00 0.40870390E+03</pdfrwt>
<pdfrwt beam="2">  1       -2 0.38813358E-01 0.40870390E+03</pdfrwt>
<totfact> 0.80037487E+01</totfact>
</mgrwt>
</event>
<event>
12    3  0.1201947E-007  0.8981891E+03  0.7818608E-02  0.9427848E-01
          1   -1    0    0  501    0  0.00000000000E+00  0.00000000000E+00  0.10254891401E+04  0.10254891401E+04  0.00000000000E+00 0. -1.
         -2   -1    0    0    0  501 -0.00000000000E+00 -0.00000000000E+00 -0.92575454875E+03  0.92575454875E+03  0.00000000000E+00 0.  1.
        -24    2    1    2    0    0 -0.52948016420E+03 -0.70227124632E+03  0.12228329872E+02  0.88300038969E+03  0.77498441643E+02 0.  0.
    5000000    2    1    2    0    0  0.52948016420E+03  0.70227124632E+03  0.87506261460E+02  0.10682432991E+04  0.59996020926E+03 0.  0.
        -24    2    4    4    0    0  0.12892305343E+03  0.45875689911E+02  0.23269150006E+03  0.28163905207E+03  0.80308709501E+02 0.  0.
         24    2    4    4    0    0  0.40055711077E+03  0.65639555640E+03 -0.14518523860E+03  0.78660424707E+03  0.79789488956E+02 0.  0.
         13    1    3    3    0    0 -0.27648666737E+03 -0.35834224124E+03 -0.32115999006E+02  0.45374604845E+03  0.00000000000E+00 0. -1.
        -14    1    3    3    0    0 -0.25299349682E+03 -0.34392900508E+03  0.44344328878E+02  0.42925434124E+03  0.00000000000E+00 0.  1.
         15    1    5    5    0    0  0.65458828542E+02 -0.58879165334E+01  0.15662826891E+03  0.16986788439E+03  0.17770000000E+01 0. -1.
        -16    1    5    5    0    0  0.63464224886E+02  0.51763606445E+02  0.76063231147E+02  0.11177116768E+03  0.00000000000E+00 0.  1.
          2    1    6    6  502    0  0.38806429186E+03  0.62932173073E+03 -0.15458906734E+03  0.75533933773E+03  0.00000000000E+00 0. -1.
         -1    1    6    6    0  502  0.12492818903E+02  0.27073825676E+02  0.94038287389E+01  0.31264909336E+02  0.00000000000E+00 0.  1.
<mgrwt>
<rscale>  0 0.89818913E+03</rscale>
<asrwt>0</asrwt>
<pdfrwt beam="1">  1        1 0.15776756E+00 0.89818913E+03</pdfrwt>
<pdfrwt beam="2">  1       -2 0.14242378E+00 0.89818913E+03</pdfrwt>
<totfact> 0.43834521E+00</totfact>
</mgrwt>
</event>
<event>
12    3  0.1449325E-007  0.9896215E+03  0.7818608E-02  0.9320002E-01
         -2   -1    0    0    0  501 -0.00000000000E+00  0.00000000000E+00  0.72079950186E+03  0.72079950186E+03  0.00000000000E+00 0.  1.
          1   -1    0    0  501    0  0.00000000000E+00 -0.00000000000E+00 -0.16113507931E+04  0.16113507931E+04  0.00000000000E+00 0. -1.
        -24    2    1    2    0    0 -0.87814317101E+03  0.33310487759E+03 -0.64193981972E+02  0.94473676698E+03  0.79450634398E+02 0.  0.
    5000000    2    1    2    0    0  0.87814317101E+03 -0.33310487759E+03 -0.82635730928E+03  0.13874135280E+04  0.59996300451E+03 0.  0.
        -24    2    4    4    0    0  0.79209450958E+03 -0.11480588179E+03 -0.40691575905E+03  0.90140533494E+03  0.79731049832E+02 0.  0.
         24    2    4    4    0    0  0.86048661429E+02 -0.21829899580E+03 -0.41944155024E+03  0.48600819304E+03  0.72207519986E+02 0.  0.
         11    1    3    3    0    0 -0.43129234899E+03  0.16277400775E+03  0.82907016731E+01  0.46106095436E+03  0.00000000000E+00 0. -1.
        -12    1    3    3    0    0 -0.44685082201E+03  0.17033086983E+03 -0.72484683645E+02  0.48367581262E+03  0.00000000000E+00 0.  1.
         15    1    5    5    0    0  0.42572142312E+03 -0.97520856532E+02 -0.20111608203E+03  0.48083249032E+03  0.17770000000E+01 0. -1.
        -16    1    5    5    0    0  0.36637308645E+03 -0.17285025256E+02 -0.20579967702E+03  0.42057284463E+03  0.00000000000E+00 0.  1.
          4    1    6    6  502    0  0.48536788317E+02 -0.83424329747E+02 -0.10979737508E+03  0.14618790028E+03  0.00000000000E+00 0. -1.
         -3    1    6    6    0  502  0.37511873112E+02 -0.13487466605E+03 -0.30964417516E+03  0.33982029276E+03  0.00000000000E+00 0.  1.
<mgrwt>
<rscale>  0 0.98962151E+03</rscale>
<asrwt>0</asrwt>
<pdfrwt beam="1">  1        1 0.24790012E+00 0.98962151E+03</pdfrwt>
<pdfrwt beam="2">  1       -2 0.11089223E+00 0.98962151E+03</pdfrwt>
<totfact> 0.31052307E+00</totfact>
</mgrwt>
</event>
<event>
12    3  0.1201947E-007  0.3161339E+03  0.7818608E-02  0.1077442E+00
         -2   -1    0    0    0  501 -0.00000000000E+00  0.00000000000E+00  0.13145695501E+03  0.13145695501E+03  0.00000000000E+00 0.  1.
          1   -1    0    0  501    0  0.00000000000E+00 -0.00000000000E+00 -0.93989181949E+03  0.93989181949E+03  0.00000000000E+00 0. -1.
        -24    2    1    2    0    0  0.83434469988E+01  0.55460488412E+02 -0.10285830492E+03  0.14345481905E+03  0.82788739189E+02 0.  0.
    5000000    2    1    2    0    0 -0.83434469988E+01 -0.55460488412E+02 -0.70557655956E+03  0.92789395545E+03  0.60000286022E+03 0.  0.
        -24    2    4    4    0    0  0.27312312737E+03 -0.59579055288E+02 -0.46984949759E+03  0.55219188243E+03  0.77533335406E+02 0.  0.
         24    2    4    4    0    0 -0.28146657437E+03  0.41185668764E+01 -0.23572706197E+03  0.37570207302E+03  0.79651772385E+02 0.  0.
         11    1    3    3    0    0  0.11998910604E+02  0.16830204577E+02 -0.10258952159E+03  0.10465103718E+03  0.00000000000E+00 0. -1.
        -12    1    3    3    0    0 -0.36554636049E+01  0.38630283834E+02 -0.26878332324E+00  0.38803781874E+02  0.00000000000E+00 0.  1.
         15    1    5    5    0    0  0.23086288757E+03 -0.73050117708E+02 -0.36143193854E+03  0.43505194688E+03  0.17770000000E+01 0. -1.
        -16    1    5    5    0    0  0.42260239799E+02  0.13471062420E+02 -0.10841755905E+03  0.11713993555E+03  0.00000000000E+00 0.  1.
          4    1    6    6  502    0 -0.21753754504E+03 -0.18864993473E+02 -0.21031993348E+03  0.30317147936E+03  0.00000000000E+00 0. -1.
         -3    1    6    6    0  502 -0.63929029334E+02  0.22983560349E+02 -0.25407128487E+02  0.72530593654E+02  0.00000000000E+00 0.  1.
<mgrwt>
<rscale>  0 0.31613392E+03</rscale>
<asrwt>0</asrwt>
<pdfrwt beam="1">  1        1 0.14459874E+00 0.31613392E+03</pdfrwt>
<pdfrwt beam="2">  1       -2 0.20224147E-01 0.31613392E+03</pdfrwt>
<totfact> 0.32256285E+02</totfact>
</mgrwt>
</event>
<event>
12    3  0.1201947E-007  0.5156695E+03  0.7818608E-02  0.1009768E+00
          1   -1    0    0  501    0  0.00000000000E+00  0.00000000000E+00  0.52735925051E+03  0.52735925051E+03  0.00000000000E+00 0. -1.
         -2   -1    0    0    0  501 -0.00000000000E+00 -0.00000000000E+00 -0.11393631250E+04  0.11393631250E+04  0.00000000000E+00 0.  1.
        -24    2    1    2    0    0 -0.11904679592E+03 -0.35842628239E+03 -0.83806114792E+03  0.92264102759E+03  0.79236598956E+02 0.  0.
    5000000    2    1    2    0    0  0.11904679592E+03  0.35842628239E+03  0.22605727341E+03  0.74408134793E+03  0.59992801398E+03 0.  0.
        -24    2    4    4    0    0  0.32288274931E+03  0.20682743890E+03  0.47684911061E+00  0.39557298573E+03  0.97195166381E+02 0.  0.
         24    2    4    4    0    0 -0.20383595339E+03  0.15159884349E+03  0.22558042430E+03  0.34850836220E+03  0.77719016034E+02 0.  0.
         13    1    3    3    0    0 -0.42377632657E+02 -0.53966404485E+02 -0.20151900603E+03  0.21288059177E+03  0.00000000000E+00 0. -1.
        -14    1    3    3    0    0 -0.76669163263E+02 -0.30445987790E+03 -0.63654214189E+03  0.70976043582E+03  0.00000000000E+00 0.  1.
         15    1    5    5    0    0  0.10417808368E+03  0.11150800219E+03  0.28860873000E+02  0.15531650070E+03  0.17770000000E+01 0. -1.
        -16    1    5    5    0    0  0.21870466564E+03  0.95319436712E+02 -0.28384023889E+02  0.24025648503E+03  0.00000000000E+00 0.  1.
          2    1    6    6  502    0 -0.12252617989E+03  0.11629245041E+03  0.18649782958E+03  0.25163075969E+03  0.00000000000E+00 0. -1.
         -1    1    6    6    0  502 -0.81309773502E+02  0.35306393077E+02  0.39082594720E+02  0.96877602515E+02  0.00000000000E+00 0.  1.
<mgrwt>
<rscale>  0 0.51566954E+03</rscale>
<asrwt>0</asrwt>
<pdfrwt beam="1">  1        1 0.81132193E-01 0.51566954E+03</pdfrwt>
<pdfrwt beam="2">  1       -2 0.17528663E+00 0.51566954E+03</pdfrwt>
<totfact> 0.74305210E+00</totfact>
</mgrwt>
</event>
<event>
12    3  0.1201947E-007  0.6262432E+03  0.7818608E-02  0.9852408E-01
         -2   -1    0    0    0  501 -0.00000000000E+00  0.00000000000E+00  0.20953831143E+03  0.20953831143E+03  0.00000000000E+00 0.  1.
          1   -1    0    0  501    0  0.00000000000E+00 -0.00000000000E+00 -0.23402176001E+04  0.23402176001E+04  0.00000000000E+00 0. -1.
        -24    2    1    2    0    0  0.49898132638E+03  0.13876202421E+03 -0.45255103430E+03  0.69385310793E+03  0.91610224873E+02 0.  0.
    5000000    2    1    2    0    0 -0.49898132638E+03 -0.13876202421E+03 -0.16781282543E+04  0.18559028036E+04  0.60001959536E+03 0.  0.
        -24    2    4    4    0    0 -0.43916813734E+03 -0.30911234718E+03 -0.88190708273E+03  0.10355610970E+04  0.78788241180E+02 0.  0.
         24    2    4    4    0    0 -0.59813189041E+02  0.17035032297E+03 -0.79622117162E+03  0.82034170661E+03  0.79971940949E+02 0.  0.
         11    1    3    3    0    0  0.19564888853E+03  0.41965650790E+02 -0.11938919175E+03  0.23300940439E+03  0.00000000000E+00 0. -1.
        -12    1    3    3    0    0  0.30333243786E+03  0.96796373422E+02 -0.33316184255E+03  0.46084370354E+03  0.00000000000E+00 0.  1.
         15    1    5    5    0    0 -0.27687144646E+03 -0.20813219852E+03 -0.49688801883E+03  0.60570427678E+03  0.17770000000E+01 0. -1.
        -16    1    5    5    0    0 -0.16229669088E+03 -0.10098014866E+03 -0.38501906390E+03  0.42985682019E+03  0.00000000000E+00 0.  1.
          2    1    6    6  502    0 -0.11258333705E+02  0.13720759681E+03 -0.51838082046E+03  0.53635002537E+03  0.00000000000E+00 0. -1.
         -1    1    6    6    0  502 -0.48554855336E+02  0.33142726159E+02 -0.27784035116E+03  0.28399168123E+03  0.00000000000E+00 0.  1.
<mgrwt>
<rscale>  0 0.62624316E+03</rscale>
<asrwt>0</asrwt>
<pdfrwt beam="1">  1        1 0.36003347E+00 0.62624316E+03</pdfrwt>
<pdfrwt beam="2">  1       -2 0.32236664E-01 0.62624316E+03</pdfrwt>
<totfact> 0.14652725E+01</totfact>
</mgrwt>
</event>
<event>
12    3  0.1201947E-007  0.4875493E+03  0.7818608E-02  0.1017081E+00
         -2   -1    0    0    0  501 -0.00000000000E+00  0.00000000000E+00  0.53572506984E+03  0.53572506984E+03  0.00000000000E+00 0.  1.
          1   -1    0    0  501    0  0.00000000000E+00 -0.00000000000E+00 -0.61990174123E+03  0.61990174123E+03  0.00000000000E+00 0. -1.
        -24    2    1    2    0    0 -0.31772081850E+03 -0.54668938010E+02  0.23182026597E+03  0.40464409676E+03  0.77852411891E+02 0.  0.
    5000000    2    1    2    0    0  0.31772081850E+03  0.54668938010E+02 -0.31599693736E+03  0.75098271432E+03  0.60015478128E+03 0.  0.
        -24    2    4    4    0    0  0.15467590655E+03 -0.24185618155E+03 -0.28152846347E+02  0.29880450240E+03  0.77926242552E+02 0.  0.
         24    2    4    4    0    0  0.16304491194E+03  0.29652511956E+03 -0.28784409101E+03  0.45217821191E+03  0.84262238033E+02 0.  0.
         13    1    3    3    0    0 -0.90686485504E+02 -0.51144075348E+02  0.62888067342E+02  0.12163331826E+03  0.00000000000E+00 0. -1.
        -14    1    3    3    0    0 -0.22703433300E+03 -0.35248626620E+01  0.16893219863E+03  0.28301077850E+03  0.00000000000E+00 0.  1.
         15    1    5    5    0    0  0.34697198398E+01 -0.54966962164E+02 -0.18805395426E+02  0.58225479916E+02  0.17770000000E+01 0. -1.
        -16    1    5    5    0    0  0.15120618671E+03 -0.18688921938E+03 -0.93474509211E+01  0.24057902249E+03  0.00000000000E+00 0.  1.
          4    1    6    6  502    0  0.53537087128E+01  0.81993373861E+02 -0.76073144587E+02  0.11197633179E+03  0.00000000000E+00 0. -1.
         -3    1    6    6    0  502  0.15769120323E+03  0.21453174570E+03 -0.21177094643E+03  0.34020188012E+03  0.00000000000E+00 0.  1.
<mgrwt>
<rscale>  0 0.48754934E+03</rscale>
<asrwt>0</asrwt>
<pdfrwt beam="1">  1        1 0.95369499E-01 0.48754934E+03</pdfrwt>
<pdfrwt beam="2">  1       -2 0.82419242E-01 0.48754934E+03</pdfrwt>
<totfact> 0.38599359E+01</totfact>
</mgrwt>
</event>
<event>
12    3  0.1201947E-007  0.1037440E+04  0.7818608E-02  0.9268409E-01
          1   -1    0    0  501    0  0.00000000000E+00  0.00000000000E+00  0.27155455944E+04  0.27155455944E+04  0.00000000000E+00 0. -1.
         -2   -1    0    0    0  501 -0.00000000000E+00 -0.00000000000E+00 -0.62918422732E+03  0.62918422732E+03  0.00000000000E+00 0.  1.
        -24    2    1    2    0    0 -0.97697128748E+03  0.10466246224E+03  0.29329523653E+02  0.98744502954E+03  0.93596676443E+02 0.  0.
    5000000    2    1    2    0    0  0.97697128748E+03 -0.10466246224E+03  0.20570318434E+04  0.23572847922E+04  0.59998704903E+03 0.  0.
        -24    2    4    4    0    0  0.92315564226E+03 -0.23062918412E+03  0.14997044627E+04  0.17778399514E+04  0.78709953932E+02 0.  0.
         24    2    4    4    0    0  0.53815645221E+02  0.12596672188E+03  0.55732738066E+03  0.57944484075E+03  0.79867236995E+02 0.  0.
         11    1    3    3    0    0 -0.28941069212E+03  0.28798317442E+02 -0.33991516324E+02  0.29281959461E+03  0.00000000000E+00 0. -1.
        -12    1    3    3    0    0 -0.68756059536E+03  0.75864144797E+02  0.63321039977E+02  0.69462543493E+03  0.00000000000E+00 0.  1.
         15    1    5    5    0    0  0.33959800367E+03 -0.53919857707E+02  0.58402376584E+03  0.67773230109E+03  0.17770000000E+01 0. -1.
        -16    1    5    5    0    0  0.58355763859E+03 -0.17670932642E+03  0.91568069690E+03  0.11001076503E+04  0.00000000000E+00 0.  1.
          2    1    6    6  502    0  0.29823018041E+02  0.42804251257E+02  0.36278393359E+03  0.36651575519E+03  0.00000000000E+00 0. -1.
         -1    1    6    6    0  502  0.23992627180E+02  0.83162470627E+02  0.19454344707E+03  0.21292908556E+03  0.00000000000E+00 0.  1.
<mgrwt>
<rscale>  0 0.10374396E+04</rscale>
<asrwt>0</asrwt>
<pdfrwt beam="1">  1        1 0.41777624E+00 0.10374396E+04</pdfrwt>
<pdfrwt beam="2">  1       -2 0.96797575E-01 0.10374396E+04</pdfrwt>
<totfact> 0.75778039E-01</totfact>
</mgrwt>
</event>
<event>
12    3  0.1201947E-007  0.7020192E+03  0.7818608E-02  0.9713785E-01
         -4   -1    0    0    0  501 -0.00000000000E+00  0.00000000000E+00  0.70227595038E+03  0.70227595038E+03  0.00000000000E+00 0.  1.
          3   -1    0    0  501    0  0.00000000000E+00 -0.00000000000E+00 -0.12745786495E+04  0.12745786495E+04  0.00000000000E+00 0. -1.
        -24    2    1    2    0    0  0.62401805052E+03  0.62686828286E+02 -0.85544835660E+03  0.10639267654E+04  0.82583930161E+02 0.  0.
    5000000    2    1    2    0    0 -0.62401805052E+03 -0.62686828286E+02  0.28314565750E+03  0.91292783446E+03  0.59994799920E+03 0.  0.
        -24    2    4    4    0    0 -0.36530571665E+03 -0.25930895826E+03  0.34839711866E+03  0.57289699438E+03  0.78364605719E+02 0.  0.
         24    2    4    4    0    0 -0.25871233387E+03  0.19662212997E+03 -0.65251461155E+02  0.34003084008E+03  0.75966343402E+02 0.  0.
         13    1    3    3    0    0  0.34378555742E+03  0.38471163862E+02 -0.40229996140E+03  0.53057873957E+03  0.00000000000E+00 0. -1.
        -14    1    3    3    0    0  0.28023249311E+03  0.24215664424E+02 -0.45314839520E+03  0.53334802584E+03  0.00000000000E+00 0.  1.
         15    1    5    5    0    0 -0.10654289938E+03 -0.72544738042E+02  0.57741644275E+02  0.14124936686E+03  0.17770000000E+01 0. -1.
        -16    1    5    5    0    0 -0.25876281727E+03 -0.18676422022E+03  0.29065547438E+03  0.43164762752E+03  0.00000000000E+00 0.  1.
          4    1    6    6  502    0 -0.87443215958E+02  0.97283701691E+02 -0.54620206919E+02  0.14175260716E+03  0.00000000000E+00 0. -1.
         -3    1    6    6    0  502 -0.17126911792E+03  0.99338428282E+02 -0.10631254236E+02  0.19827823292E+03  0.00000000000E+00 0.  1.
<mgrwt>
<rscale>  0 0.70201925E+03</rscale>
<asrwt>0</asrwt>
<pdfrwt beam="1">  1        3 0.19608902E+00 0.70201925E+03</pdfrwt>
<pdfrwt beam="2">  1       -4 0.10804246E+00 0.70201925E+03</pdfrwt>
<totfact> 0.24145595E-01</totfact>
</mgrwt>
</event>
<event>
12    3  0.1201947E-007  0.5666212E+03  0.7818608E-02  0.9977183E-01
         -2   -1    0    0    0  501 -0.00000000000E+00  0.00000000000E+00  0.34862304053E+03  0.34862304053E+03  0.00000000000E+00 0.  1.
          1   -1    0    0  501    0  0.00000000000E+00 -0.00000000000E+00 -0.12165165021E+04  0.12165165021E+04  0.00000000000E+00 0. -1.
        -24    2    1    2    0    0 -0.38879261318E+03 -0.27814962280E+03 -0.13169804873E+03  0.50187375864E+03  0.77498289322E+02 0.  0.
    5000000    2    1    2    0    0  0.38879261318E+03  0.27814962280E+03 -0.73619541283E+03  0.10632657840E+04  0.60001961033E+03 0.  0.
        -24    2    4    4    0    0  0.50644060734E+02  0.29808864865E+03 -0.62324610415E+03  0.69741425727E+03  0.80803939033E+02 0.  0.
         24    2    4    4    0    0  0.33814855245E+03 -0.19939025853E+02 -0.11294930869E+03  0.36585152671E+03  0.79672987831E+02 0.  0.
         13    1    3    3    0    0 -0.21936062190E+03 -0.16300470819E+03 -0.35614209297E+02  0.27560476998E+03  0.00000000000E+00 0. -1.
        -14    1    3    3    0    0 -0.16943199128E+03 -0.11514491461E+03 -0.96083839435E+02  0.22626898866E+03  0.00000000000E+00 0.  1.
         15    1    5    5    0    0  0.40387604712E+02  0.86281153649E+02 -0.25855067349E+03  0.27554891505E+03  0.17770000000E+01 0. -1.
        -16    1    5    5    0    0  0.10256456022E+02  0.21180749500E+03 -0.36469543065E+03  0.42186534222E+03  0.00000000000E+00 0.  1.
          2    1    6    6  502    0  0.19094570368E+03  0.27901477928E+02 -0.69197182749E+02  0.20500488854E+03  0.00000000000E+00 0. -1.
         -1    1    6    6    0  502  0.14720284877E+03 -0.47840503781E+02 -0.43752125939E+02  0.16084663817E+03  0.00000000000E+00 0.  1.
<mgrwt>
<rscale>  0 0.56662117E+03</rscale>
<asrwt>0</asrwt>
<pdfrwt beam="1">  1        1 0.18715638E+00 0.56662117E+03</pdfrwt>
<pdfrwt beam="2">  1       -2 0.53634315E-01 0.56662117E+03</pdfrwt>
<totfact> 0.31295128E+01</totfact>
</mgrwt>
</event>
<event>
12    3  0.1201947E-007  0.4726419E+03  0.7818608E-02  0.1021177E+00
          1   -1    0    0  501    0  0.00000000000E+00  0.00000000000E+00  0.18282756213E+04  0.18282756213E+04  0.00000000000E+00 0. -1.
         -2   -1    0    0    0  501 -0.00000000000E+00 -0.00000000000E+00 -0.22464515425E+03  0.22464515425E+03  0.00000000000E+00 0.  1.
        -24    2    1    2    0    0 -0.18413148211E+03 -0.23460229771E+03  0.12649542776E+04  0.13020543986E+04  0.79332791727E+02 0.  0.
    5000000    2    1    2    0    0  0.18413148211E+03  0.23460229771E+03  0.33867618953E+03  0.75086637698E+03  0.60013008084E+03 0.  0.
        -24    2    4    4    0    0  0.29750086441E+03 -0.73078627978E+02  0.24896389903E+03  0.40211136101E+03  0.76572014729E+02 0.  0.
         24    2    4    4    0    0 -0.11336938230E+03  0.30768092569E+03  0.89712290502E+02  0.34875501597E+03  0.77856260034E+02 0.  0.
         13    1    3    3    0    0 -0.66024005415E+02 -0.48942606160E+02  0.47355567324E+03  0.48063450110E+03  0.00000000000E+00 0. -1.
        -14    1    3    3    0    0 -0.11810747670E+03 -0.18565969155E+03  0.79139860432E+03  0.82141989752E+03  0.00000000000E+00 0.  1.
         15    1    5    5    0    0  0.95712494920E+02 -0.26143964291E+01  0.11587078683E+03  0.15032269863E+03  0.17770000000E+01 0. -1.
        -16    1    5    5    0    0  0.20178836949E+03 -0.70464231549E+02  0.13309311220E+03  0.25178866238E+03  0.00000000000E+00 0.  1.
          2    1    6    6  502    0 -0.57070121704E+02  0.23380485874E+03  0.86743459629E+02  0.25582442915E+03  0.00000000000E+00 0. -1.
         -1    1    6    6    0  502 -0.56299260592E+02  0.73876066950E+02  0.29688308727E+01  0.92930586826E+02  0.00000000000E+00 0.  1.
<mgrwt>
<rscale>  0 0.47264186E+03</rscale>
<asrwt>0</asrwt>
<pdfrwt beam="1">  1        1 0.28127316E+00 0.47264186E+03</pdfrwt>
<pdfrwt beam="2">  1       -2 0.34560794E-01 0.47264186E+03</pdfrwt>
<totfact> 0.28966545E+01</totfact>
</mgrwt>
</event>
<event>
12    3  0.1201947E-007  0.5889537E+03  0.7818608E-02  0.9928592E-01
          1   -1    0    0  501    0  0.00000000000E+00  0.00000000000E+00  0.80298804776E+03  0.80298804776E+03  0.00000000000E+00 0. -1.
         -2   -1    0    0    0  501 -0.00000000000E+00 -0.00000000000E+00 -0.44531361222E+03  0.44531361222E+03  0.00000000000E+00 0.  1.
        -24    2    1    2    0    0  0.28484859527E+03  0.33638215605E+03  0.18286593094E+03  0.48351745405E+03  0.77829959128E+02 0.  0.
    5000000    2    1    2    0    0 -0.28484859527E+03 -0.33638215605E+03  0.17480850460E+03  0.76478420592E+03  0.60003765816E+03 0.  0.
        -24    2    4    4    0    0 -0.44511959925E+03 -0.33939980193E+03  0.12306718278E+03  0.57920281470E+03  0.83705948985E+02 0.  0.
         24    2    4    4    0    0  0.16027100398E+03  0.30176458812E+01  0.51741321821E+02  0.18558139122E+03  0.77893436702E+02 0.  0.
         11    1    3    3    0    0  0.21139581160E+03  0.19231840770E+03  0.12186560207E+03  0.31068598950E+03  0.00000000000E+00 0. -1.
        -12    1    3    3    0    0  0.73452783673E+02  0.14406374835E+03  0.61000328867E+02  0.17283146455E+03  0.00000000000E+00 0.  1.
         15    1    5    5    0    0 -0.32664495093E+02 -0.50839870130E+02 -0.21296210797E+01  0.60492599957E+02  0.17770000000E+01 0. -1.
        -16    1    5    5    0    0 -0.41245510416E+03 -0.28855993180E+03  0.12519680386E+03  0.51871021475E+03  0.00000000000E+00 0.  1.
          4    1    6    6  502    0  0.54561939199E+02 -0.20503405602E+02 -0.12574802168E+02  0.59628185449E+02  0.00000000000E+00 0. -1.
         -3    1    6    6    0  502  0.10570906478E+03  0.23521051483E+02  0.64316123989E+02  0.12595320577E+03  0.00000000000E+00 0.  1.
<mgrwt>
<rscale>  0 0.58895371E+03</rscale>
<asrwt>0</asrwt>
<pdfrwt beam="1">  1        1 0.12353662E+00 0.58895371E+03</pdfrwt>
<pdfrwt beam="2">  1       -2 0.68509787E-01 0.58895371E+03</pdfrwt>
<totfact> 0.38871930E+01</totfact>
</mgrwt>
</event>
<event>
12    3  0.1201947E-007  0.5021492E+03  0.7818608E-02  0.1013219E+00
          1   -1    0    0  501    0  0.00000000000E+00  0.00000000000E+00  0.11167939264E+04  0.11167939264E+04  0.00000000000E+00 0. -1.
         -2   -1    0    0    0  501 -0.00000000000E+00 -0.00000000000E+00 -0.51299279838E+03  0.51299279838E+03  0.00000000000E+00 0.  1.
        -24    2    1    2    0    0 -0.32764000331E+03 -0.37168825170E+02  0.84055161009E+03  0.90536171048E+03  0.66508076500E+02 0.  0.
    5000000    2    1    2    0    0  0.32764000331E+03  0.37168825170E+02 -0.23675048209E+03  0.72442501428E+03  0.60000943094E+03 0.  0.
        -24    2    4    4    0    0  0.40031592086E+02  0.28027264014E+03 -0.75791055139E+02  0.30372244948E+03  0.79672837950E+02 0.  0.
         24    2    4    4    0    0  0.28760841123E+03 -0.24310381497E+03 -0.16095942695E+03  0.42070256480E+03  0.96253040702E+02 0.  0.
         13    1    3    3    0    0 -0.14689145673E+03 -0.46006113355E+02  0.34422249822E+03  0.37707133385E+03  0.00000000000E+00 0. -1.
        -14    1    3    3    0    0 -0.18074854658E+03  0.88372881847E+01  0.49632911187E+03  0.52829037663E+03  0.00000000000E+00 0.  1.
         15    1    5    5    0    0  0.21064946033E+02  0.23123037238E+03 -0.30243090631E+02  0.23415597221E+03  0.17770000000E+01 0. -1.
        -16    1    5    5    0    0  0.18966646053E+02  0.49042267758E+02 -0.45547964509E+02  0.69566477273E+02  0.00000000000E+00 0.  1.
          2    1    6    6  502    0  0.92832715322E+02 -0.33997710922E+02 -0.15584423731E+02  0.10008312368E+03  0.00000000000E+00 0. -1.
         -1    1    6    6    0  502  0.19477569590E+03 -0.20910610404E+03 -0.14537500322E+03  0.32061944112E+03  0.00000000000E+00 0.  1.
<mgrwt>
<rscale>  0 0.50214915E+03</rscale>
<asrwt>0</asrwt>
<pdfrwt beam="1">  1        1 0.17181445E+00 0.50214915E+03</pdfrwt>
<pdfrwt beam="2">  1       -2 0.78921969E-01 0.50214915E+03</pdfrwt>
<totfact> 0.16333333E+01</totfact>
</mgrwt>
</event>
<event>
12    3  0.1201947E-007  0.6839181E+03  0.7818608E-02  0.9745137E-01
          1   -1    0    0  501    0  0.00000000000E+00  0.00000000000E+00  0.25491043662E+04  0.25491043662E+04  0.00000000000E+00 0. -1.
         -2   -1    0    0    0  501 -0.00000000000E+00 -0.00000000000E+00 -0.39745494430E+03  0.39745494430E+03  0.00000000000E+00 0.  1.
        -24    2    1    2    0    0 -0.64698587326E+03 -0.17622405138E+03  0.71823745423E+02  0.68041701026E+03  0.90349438068E+02 0.  0.
    5000000    2    1    2    0    0  0.64698587326E+03  0.17622405138E+03  0.20798256765E+04  0.22661423003E+04  0.60006703286E+03 0.  0.
        -24    2    4    4    0    0  0.28498084740E+03  0.15770036654E+03  0.29752223071E+03  0.44556539068E+03  0.62654214645E+02 0.  0.
         24    2    4    4    0    0  0.36200502585E+03  0.18523684831E+02  0.17823034458E+04  0.18205769096E+04  0.80647040668E+02 0.  0.
         13    1    3    3    0    0 -0.47401448961E+03 -0.16590027987E+03  0.70505589193E+02  0.50713280048E+03  0.00000000000E+00 0. -1.
        -14    1    3    3    0    0 -0.17297138365E+03 -0.10323771503E+02  0.13181562306E+01  0.17328420977E+03  0.00000000000E+00 0.  1.
         15    1    5    5    0    0  0.25555614604E+03  0.12354094565E+03  0.27478505164E+03  0.39507124847E+03  0.17770000000E+01 0. -1.
        -16    1    5    5    0    0  0.29424701366E+02  0.34159420891E+02  0.22737179064E+02  0.50494142214E+02  0.00000000000E+00 0.  1.
          2    1    6    6  502    0  0.30862310163E+03  0.25000802801E+02  0.13564025803E+04  0.13912947994E+04  0.00000000000E+00 0. -1.
         -1    1    6    6    0  502  0.53381924223E+02 -0.64771179707E+01  0.42590086548E+03  0.42928211016E+03  0.00000000000E+00 0.  1.
<mgrwt>
<rscale>  0 0.68391807E+03</rscale>
<asrwt>0</asrwt>
<pdfrwt beam="1">  1        1 0.39216989E+00 0.68391807E+03</pdfrwt>
<pdfrwt beam="2">  1       -2 0.61146916E-01 0.68391807E+03</pdfrwt>
<totfact> 0.29294503E+00</totfact>
</mgrwt>
</event>
<event>
12    3  0.1201947E-007  0.2815414E+03  0.7818608E-02  0.1094850E+00
         -2   -1    0    0    0  501 -0.00000000000E+00  0.00000000000E+00  0.45765943718E+03  0.45765943718E+03  0.00000000000E+00 0.  1.
          1   -1    0    0  501    0  0.00000000000E+00 -0.00000000000E+00 -0.42725943350E+03  0.42725943350E+03  0.00000000000E+00 0. -1.
        -24    2    1    2    0    0  0.20285293945E+03 -0.90820461599E+02 -0.43613188797E+02  0.24049424400E+03  0.80856044129E+02 0.  0.
    5000000    2    1    2    0    0 -0.20285293945E+03  0.90820461599E+02  0.74013192481E+02  0.64442462668E+03  0.60033946690E+03 0.  0.
        -24    2    4    4    0    0 -0.97437044504E+02  0.15640588063E+03  0.30861934163E+03  0.36810991051E+03  0.79386592359E+02 0.  0.
         24    2    4    4    0    0 -0.10541589495E+03 -0.65585419035E+02 -0.23460614915E+03  0.27631471617E+03  0.76784237001E+02 0.  0.
         13    1    3    3    0    0  0.14594734082E+03 -0.25713949243E+02 -0.12997787440E+02  0.14876416220E+03  0.00000000000E+00 0. -1.
        -14    1    3    3    0    0  0.56905598638E+02 -0.65106512356E+02 -0.30615401357E+02  0.91730081804E+02  0.00000000000E+00 0.  1.
         15    1    5    5    0    0 -0.11446235176E+02  0.88541976629E+02  0.16339036910E+03  0.18619953912E+03  0.17770000000E+01 0. -1.
        -16    1    5    5    0    0 -0.85990809328E+02  0.67863904005E+02  0.14522897253E+03  0.18191037139E+03  0.00000000000E+00 0.  1.
          2    1    6    6  502    0  0.16159674221E+01 -0.77530523477E+01 -0.76061820477E+02  0.76473012924E+02  0.00000000000E+00 0. -1.
         -1    1    6    6    0  502 -0.10703186237E+03 -0.57832366687E+02 -0.15854432868E+03  0.19984170324E+03  0.00000000000E+00 0.  1.
<mgrwt>
<rscale>  0 0.28154136E+03</rscale>
<asrwt>0</asrwt>
<pdfrwt beam="1">  1        1 0.65732220E-01 0.28154136E+03</pdfrwt>
<pdfrwt beam="2">  1       -2 0.70409145E-01 0.28154136E+03</pdfrwt>
<totfact> 0.92926769E+01</totfact>
</mgrwt>
</event>
<event>
12    3  0.1201947E-007  0.7502526E+03  0.7818608E-02  0.9634954E-01
         -2   -1    0    0    0  501 -0.00000000000E+00  0.00000000000E+00  0.78372888200E+03  0.78372888200E+03  0.00000000000E+00 0.  1.
          1   -1    0    0  501    0  0.00000000000E+00 -0.00000000000E+00 -0.79431611832E+03  0.79431611832E+03  0.00000000000E+00 0. -1.
        -24    2    1    2    0    0 -0.56230613364E+02  0.66859704011E+03  0.39760970879E+02  0.67650283133E+03  0.76754557276E+02 0.  0.
    5000000    2    1    2    0    0  0.56230613364E+02 -0.66859704011E+03 -0.50348207203E+02  0.90154216900E+03  0.60004954511E+03 0.  0.
        -24    2    4    4    0    0 -0.19564998928E+03 -0.14429006459E+03 -0.16540750986E+03  0.30309279775E+03  0.73532704873E+02 0.  0.
         24    2    4    4    0    0  0.25188060264E+03 -0.52430697552E+03  0.11505930266E+03  0.59844937124E+03  0.81002248416E+02 0.  0.
         13    1    3    3    0    0 -0.66643744939E+02  0.36887890775E+03  0.81114808558E+01  0.37493843953E+03  0.00000000000E+00 0. -1.
        -14    1    3    3    0    0  0.10413131575E+02  0.29971813236E+03  0.31649490023E+02  0.30156439179E+03  0.00000000000E+00 0.  1.
         15    1    5    5    0    0 -0.11846468960E+03 -0.97605217294E+02 -0.14379331570E+03  0.21033386911E+03  0.17770000000E+01 0. -1.
        -16    1    5    5    0    0 -0.77185299684E+02 -0.46684847298E+02 -0.21614194162E+02  0.92758928647E+02  0.00000000000E+00 0.  1.
          4    1    6    6  502    0  0.74048474960E+02 -0.17675778505E+03  0.70535261733E+00  0.19164286771E+03  0.00000000000E+00 0. -1.
         -3    1    6    6    0  502  0.17783212769E+03 -0.34754919047E+03  0.11435395004E+03  0.40680650354E+03  0.00000000000E+00 0.  1.
<mgrwt>
<rscale>  0 0.75025258E+03</rscale>
<asrwt>0</asrwt>
<pdfrwt beam="1">  1        1 0.12220248E+00 0.75025258E+03</pdfrwt>
<pdfrwt beam="2">  1       -2 0.12057367E+00 0.75025258E+03</pdfrwt>
<totfact> 0.10503703E+01</totfact>
</mgrwt>
</event>
<event>
12    3  0.1201947E-007  0.5888633E+03  0.7818608E-02  0.9928784E-01
          1   -1    0    0  501    0  0.00000000000E+00  0.00000000000E+00  0.26501822435E+04  0.26501822435E+04  0.00000000000E+00 0. -1.
         -2   -1    0    0    0  501 -0.00000000000E+00 -0.00000000000E+00 -0.23376370065E+03  0.23376370065E+03  0.00000000000E+00 0.  1.
        -24    2    1    2    0    0  0.31782205968E+03  0.31059640644E+03  0.19545629629E+04  0.20060206007E+04  0.79506509698E+02 0.  0.
    5000000    2    1    2    0    0 -0.31782205968E+03 -0.31059640644E+03  0.46185557988E+03  0.87792534341E+03  0.59996778465E+03 0.  0.
        -24    2    4    4    0    0 -0.32193063391E+03  0.80459501352E+02  0.27053626424E+03  0.43568565024E+03  0.80740641257E+02 0.  0.
         24    2    4    4    0    0  0.41085742289E+01 -0.39105590779E+03  0.19131931564E+03  0.44223969316E+03  0.77661201869E+02 0.  0.
         11    1    3    3    0    0  0.14975677137E+03  0.95586428829E+02  0.83273136564E+03  0.85147247945E+03  0.00000000000E+00 0. -1.
        -12    1    3    3    0    0  0.16806528832E+03  0.21500997761E+03  0.11218315973E+04  0.11545481213E+04  0.00000000000E+00 0.  1.
         15    1    5    5    0    0 -0.58392725155E+02 -0.26429463684E+01  0.17594943764E+02  0.61069102594E+02  0.17770000000E+01 0. -1.
        -16    1    5    5    0    0 -0.26353790876E+03  0.83102447720E+02  0.25294132048E+03  0.37461654765E+03  0.00000000000E+00 0.  1.
          4    1    6    6  502    0 -0.13367800789E+02 -0.12193129607E+03  0.24380327731E+02  0.12506134270E+03  0.00000000000E+00 0. -1.
         -3    1    6    6    0  502  0.17476375018E+02 -0.26912461172E+03  0.16693898790E+03  0.31717835046E+03  0.00000000000E+00 0.  1.
<mgrwt>
<rscale>  0 0.58886326E+03</rscale>
<asrwt>0</asrwt>
<pdfrwt beam="1">  1        1 0.40772033E+00 0.58886326E+03</pdfrwt>
<pdfrwt beam="2">  1       -2 0.35963648E-01 0.58886326E+03</pdfrwt>
<totfact> 0.73915219E+00</totfact>
</mgrwt>
</event>
<event>
12    3  0.1201947E-007  0.5949324E+03  0.7818608E-02  0.9915976E-01
         -2   -1    0    0    0  501 -0.00000000000E+00  0.00000000000E+00  0.17718773027E+03  0.17718773027E+03  0.00000000000E+00 0.  1.
          1   -1    0    0  501    0  0.00000000000E+00 -0.00000000000E+00 -0.28121482637E+04  0.28121482637E+04  0.00000000000E+00 0. -1.
        -24    2    1    2    0    0 -0.19277670227E+03  0.47037788645E+03 -0.16539685227E+04  0.17321451951E+04  0.79352944606E+02 0.  0.
    5000000    2    1    2    0    0  0.19277670227E+03 -0.47037788645E+03 -0.98099201080E+03  0.12571907989E+04  0.59980427365E+03 0.  0.
        -24    2    4    4    0    0  0.26460653962E+03 -0.89459987469E+02 -0.73538900034E+03  0.79129686283E+03  0.85638969756E+02 0.  0.
         24    2    4    4    0    0 -0.71829837351E+02 -0.38091789898E+03 -0.24560301046E+03  0.46589393610E+03  0.80488195755E+02 0.  0.
         11    1    3    3    0    0 -0.12762726504E+03  0.20694766874E+03 -0.78160045462E+03  0.81854463962E+03  0.00000000000E+00 0. -1.
        -12    1    3    3    0    0 -0.65149437227E+02  0.26343021770E+03 -0.87236806804E+03  0.91360055544E+03  0.00000000000E+00 0.  1.
         15    1    5    5    0    0  0.15451780902E+03 -0.34355670096E+02 -0.30482677544E+03  0.34348011024E+03  0.17770000000E+01 0. -1.
        -16    1    5    5    0    0  0.11008873060E+03 -0.55104317373E+02 -0.43056222490E+03  0.44781675260E+03  0.00000000000E+00 0.  1.
          4    1    6    6  502    0 -0.13608262510E+02 -0.25344033792E+03 -0.18000469426E+03  0.31115732299E+03  0.00000000000E+00 0. -1.
         -1    1    6    6    0  502 -0.58221574841E+02 -0.12747756105E+03 -0.65598316198E+02  0.15473661311E+03  0.00000000000E+00 0.  1.
<mgrwt>
<rscale>  0 0.59493237E+03</rscale>
<asrwt>0</asrwt>
<pdfrwt beam="1">  1        1 0.43263816E+00 0.59493237E+03</pdfrwt>
<pdfrwt beam="2">  1       -2 0.27259653E-01 0.59493237E+03</pdfrwt>
<totfact> 0.95531274E+00</totfact>
</mgrwt>
</event>
<event>
12    3  0.1201947E-007  0.1157914E+04  0.7818608E-02  0.9150513E-01
         -2   -1    0    0    0  501 -0.00000000000E+00  0.00000000000E+00  0.90489509367E+03  0.90489509367E+03  0.00000000000E+00 0.  1.
          1   -1    0    0  501    0  0.00000000000E+00 -0.00000000000E+00 -0.15172394879E+04  0.15172394879E+04  0.00000000000E+00 0. -1.
        -24    2    1    2    0    0  0.50988736517E+03  0.96697413446E+03 -0.31518710178E+03  0.11402275596E+04  0.75841128494E+02 0.  0.
    5000000    2    1    2    0    0 -0.50988736517E+03 -0.96697413446E+03 -0.29715729241E+03  0.12819070219E+04  0.59996587774E+03 0.  0.
        -24    2    4    4    0    0  0.74336191679E+02 -0.37504147827E+03  0.13823894093E+02  0.39147482403E+03  0.82942498067E+02 0.  0.
         24    2    4    4    0    0 -0.58422355685E+03 -0.59193265619E+03 -0.31098118651E+03  0.89043219785E+03  0.66773997736E+02 0.  0.
         13    1    3    3    0    0  0.19916799154E+03  0.37075886072E+03 -0.83259721380E+02  0.42902471125E+03  0.00000000000E+00 0. -1.
        -14    1    3    3    0    0  0.31071937363E+03  0.59621527374E+03 -0.23192738040E+03  0.71120284840E+03  0.00000000000E+00 0.  1.
         15    1    5    5    0    0 -0.98998781356E+01 -0.15057801218E+03 -0.49247999954E+01  0.15099389631E+03  0.17770000000E+01 0. -1.
        -16    1    5    5    0    0  0.84236069814E+02 -0.22446346609E+03  0.18748694088E+02  0.24048092772E+03  0.00000000000E+00 0.  1.
          2    1    6    6  502    0 -0.31245987349E+03 -0.30100079516E+03 -0.19575896191E+03  0.47597712382E+03  0.00000000000E+00 0. -1.
         -1    1    6    6    0  502 -0.27176368336E+03 -0.29093186103E+03 -0.11522222460E+03  0.41445507404E+03  0.00000000000E+00 0.  1.
<mgrwt>
<rscale>  0 0.11579145E+04</rscale>
<asrwt>0</asrwt>
<pdfrwt beam="1">  1        1 0.23342146E+00 0.11579145E+04</pdfrwt>
<pdfrwt beam="2">  1       -2 0.13921463E+00 0.11579145E+04</pdfrwt>
<totfact> 0.19957932E+00</totfact>
</mgrwt>
</event>
<event>
12    3  0.1201947E-007  0.2658568E+04  0.7818608E-02  0.8348575E-01
         -2   -1    0    0    0  501 -0.00000000000E+00  0.00000000000E+00  0.16878194455E+04  0.16878194455E+04  0.00000000000E+00 0.  1.
          1   -1    0    0  501    0  0.00000000000E+00 -0.00000000000E+00 -0.46381282275E+04  0.46381282275E+04  0.00000000000E+00 0. -1.
        -24    2    1    2    0    0 -0.11350877179E+04  0.23779663187E+04 -0.50902421364E+03  0.26841642684E+04  0.49842045808E+02 0.  0.
    5000000    2    1    2    0    0  0.11350877179E+04 -0.23779663187E+04 -0.24412845683E+04  0.36417834045E+04  0.59963995984E+03 0.  0.
        -24    2    4    4    0    0  0.12224971486E+03 -0.76802328133E+03 -0.90472449629E+03  0.11952858233E+04  0.73328246314E+02 0.  0.
         24    2    4    4    0    0  0.10128380031E+04 -0.16099430374E+04 -0.15365600720E+04  0.24464975812E+04  0.81093500682E+02 0.  0.
         13    1    3    3    0    0 -0.48811786854E+03  0.96610887047E+03 -0.21216817955E+03  0.11030143878E+04  0.00000000000E+00 0. -1.
        -14    1    3    3    0    0 -0.64696984937E+03  0.14118574483E+04 -0.29685603409E+03  0.15811498807E+04  0.00000000000E+00 0.  1.
         15    1    5    5    0    0  0.71420195237E+02 -0.28032504889E+03 -0.30019588601E+03  0.41689771531E+03  0.17770000000E+01 0. -1.
        -16    1    5    5    0    0  0.50829519618E+02 -0.48769823243E+03 -0.60452861028E+03  0.77838810797E+03  0.00000000000E+00 0.  1.
          2    1    6    6  502    0  0.75204676262E+03 -0.11879147742E+04 -0.11806106075E+04  0.18359077456E+04  0.00000000000E+00 0. -1.
         -1    1    6    6    0  502  0.26079124044E+03 -0.42202826319E+03 -0.35594946456E+03  0.61058983560E+03  0.00000000000E+00 0.  1.
<mgrwt>
<rscale>  0 0.26585685E+04</rscale>
<asrwt>0</asrwt>
<pdfrwt beam="1">  1        1 0.71355819E+00 0.26585685E+04</pdfrwt>
<pdfrwt beam="2">  1       -2 0.25966453E+00 0.26585685E+04</pdfrwt>
<totfact> 0.93701888E-04</totfact>
</mgrwt>
</event>
<event>
12    3  0.1201947E-007  0.1269577E+04  0.7818608E-02  0.9054045E-01
          1   -1    0    0  501    0  0.00000000000E+00  0.00000000000E+00  0.22865112948E+04  0.22865112948E+04  0.00000000000E+00 0. -1.
         -2   -1    0    0    0  501 -0.00000000000E+00 -0.00000000000E+00 -0.72349157162E+03  0.72349157162E+03  0.00000000000E+00 0.  1.
        -24    2    1    2    0    0  0.61946520155E+02 -0.12124978310E+04  0.67945100592E+03  0.13929632837E+04  0.68590659408E+02 0.  0.
    5000000    2    1    2    0    0 -0.61946520155E+02  0.12124978310E+04  0.88356871730E+03  0.16170395828E+04  0.60011246657E+03 0.  0.
        -24    2    4    4    0    0 -0.27931587809E+03  0.88688586276E+03  0.47924651470E+03  0.10491059339E+04  0.79763058133E+02 0.  0.
         24    2    4    4    0    0  0.21736935793E+03  0.32561196827E+03  0.40432220259E+03  0.56793364886E+03  0.76155067802E+02 0.  0.
         13    1    3    3    0    0  0.21491916364E+02 -0.59752916022E+03  0.29670078945E+03  0.66748360148E+03  0.00000000000E+00 0. -1.
        -14    1    3    3    0    0  0.40454603791E+02 -0.61496867081E+03  0.38275021647E+03  0.72547968217E+03  0.00000000000E+00 0.  1.
         15    1    5    5    0    0 -0.19239934406E+03  0.47926515761E+03  0.26222328204E+03  0.57920359656E+03  0.17770000000E+01 0. -1.
        -16    1    5    5    0    0 -0.86916534029E+02  0.40762070515E+03  0.21702323266E+03  0.46990233737E+03  0.00000000000E+00 0.  1.
          2    1    6    6  502    0  0.11838925109E+03  0.18882005637E+03  0.17610358782E+03  0.28404489453E+03  0.00000000000E+00 0. -1.
         -1    1    6    6    0  502  0.98980106841E+02  0.13679191190E+03  0.22821861477E+03  0.28388875434E+03  0.00000000000E+00 0.  1.
<mgrwt>
<rscale>  0 0.12695774E+04</rscale>
<asrwt>0</asrwt>
<pdfrwt beam="1">  1        1 0.35177097E+00 0.12695774E+04</pdfrwt>
<pdfrwt beam="2">  1       -2 0.11130640E+00 0.12695774E+04</pdfrwt>
<totfact> 0.10389519E+00</totfact>
</mgrwt>
</event>
<event>
12    3  0.1201947E-007  0.1055479E+04  0.7818608E-02  0.9249706E-01
          1   -1    0    0  501    0  0.00000000000E+00  0.00000000000E+00  0.25989871387E+04  0.25989871387E+04  0.00000000000E+00 0. -1.
         -2   -1    0    0    0  501 -0.00000000000E+00 -0.00000000000E+00 -0.97585825662E+03  0.97585825662E+03  0.00000000000E+00 0.  1.
        -24    2    1    2    0    0 -0.43232457666E+03  0.88680711732E+03 -0.53640528526E+03  0.11260237186E+04  0.82869668370E+02 0.  0.
    5000000    2    1    2    0    0  0.43232457666E+03 -0.88680711732E+03  0.21595341673E+04  0.24488216767E+04  0.59984029659E+03 0.  0.
        -24    2    4    4    0    0  0.45618762352E+03 -0.33679260173E+03  0.13531470419E+04  0.14692650458E+04  0.78717554683E+02 0.  0.
         24    2    4    4    0    0 -0.23863046862E+02 -0.55001451559E+03  0.80638712544E+03  0.97955663088E+03  0.78648487975E+02 0.  0.
         13    1    3    3    0    0 -0.36535951053E+03  0.72165352657E+03 -0.40496508637E+03  0.90458172960E+03  0.00000000000E+00 0. -1.
        -14    1    3    3    0    0 -0.66965066131E+02  0.16515359076E+03 -0.13144019889E+03  0.22144198903E+03  0.00000000000E+00 0.  1.
         15    1    5    5    0    0  0.14305893450E+03 -0.85887591386E+02  0.48422259704E+03  0.51216913057E+03  0.17770000000E+01 0. -1.
        -16    1    5    5    0    0  0.31312868902E+03 -0.25090501035E+03  0.86892444482E+03  0.95709591521E+03  0.00000000000E+00 0.  1.
          2    1    6    6  502    0 -0.38275018791E+02 -0.52833018112E+03  0.77569279949E+03  0.93930669992E+03  0.00000000000E+00 0. -1.
         -1    1    6    6    0  502  0.14411971929E+02 -0.21684334470E+02  0.30694325953E+02  0.40249930957E+02  0.00000000000E+00 0.  1.
<mgrwt>
<rscale>  0 0.10554787E+04</rscale>
<asrwt>0</asrwt>
<pdfrwt beam="1">  1        1 0.39984417E+00 0.10554787E+04</pdfrwt>
<pdfrwt beam="2">  1       -2 0.15013204E+00 0.10554787E+04</pdfrwt>
<totfact> 0.30415115E-01</totfact>
</mgrwt>
</event>
<event>
12    3  0.1201947E-007  0.4498371E+03  0.7818608E-02  0.1027771E+00
         -2   -1    0    0    0  501 -0.00000000000E+00  0.00000000000E+00  0.93306533687E+02  0.93306533687E+02  0.00000000000E+00 0.  1.
          1   -1    0    0  501    0  0.00000000000E+00 -0.00000000000E+00 -0.24815786617E+04  0.24815786617E+04  0.00000000000E+00 0. -1.
        -24    2    1    2    0    0  0.33284878877E+02  0.26124757829E+03 -0.10411180244E+04  0.10770841533E+04  0.82615691221E+02 0.  0.
    5000000    2    1    2    0    0 -0.33284878877E+02 -0.26124757829E+03 -0.13471541037E+04  0.14978010420E+04  0.59935432108E+03 0.  0.
        -24    2    4    4    0    0  0.24552705467E+03 -0.48042421053E+01 -0.66269387323E+03  0.71127850283E+03  0.80295228075E+02 0.  0.
         24    2    4    4    0    0 -0.27881193355E+03 -0.25644333619E+03 -0.68446023044E+03  0.78652253921E+03  0.81440890710E+02 0.  0.
         11    1    3    3    0    0 -0.45944463010E+01  0.11566087657E+03 -0.31617938387E+03  0.33670157423E+03  0.00000000000E+00 0. -1.
        -12    1    3    3    0    0  0.37879325178E+02  0.14558670173E+03 -0.72493864048E+03  0.74038257912E+03  0.00000000000E+00 0.  1.
         15    1    5    5    0    0  0.16637394904E+03 -0.29882519621E+02 -0.36541711727E+03  0.40262399733E+03  0.17770000000E+01 0. -1.
        -16    1    5    5    0    0  0.79153105631E+02  0.25078277516E+02 -0.29727675596E+03  0.30865450550E+03  0.00000000000E+00 0.  1.
          4    1    6    6  502    0 -0.17658216474E+03 -0.19053118523E+03 -0.52704504894E+03  0.58758818663E+03  0.00000000000E+00 0. -1.
         -3    1    6    6    0  502 -0.10222976881E+03 -0.65912150957E+02 -0.15741518150E+03  0.19893435259E+03  0.00000000000E+00 0.  1.
<mgrwt>
<rscale>  0 0.44983708E+03</rscale>
<asrwt>0</asrwt>
<pdfrwt beam="1">  1        1 0.38178126E+00 0.44983708E+03</pdfrwt>
<pdfrwt beam="2">  1       -2 0.14354854E-01 0.44983708E+03</pdfrwt>
<totfact> 0.50593647E+01</totfact>
</mgrwt>
</event>
<event>
12    3  0.1201947E-007  0.6030081E+03  0.7818608E-02  0.9899185E-01
          1   -1    0    0  501    0  0.00000000000E+00  0.00000000000E+00  0.53760196543E+03  0.53760196543E+03  0.00000000000E+00 0. -1.
         -2   -1    0    0    0  501 -0.00000000000E+00 -0.00000000000E+00 -0.90052456776E+03  0.90052456776E+03  0.00000000000E+00 0.  1.
        -24    2    1    2    0    0 -0.52936397909E+02  0.52281535415E+03  0.60309693105E+02  0.53490934928E+03  0.79703175006E+02 0.  0.
    5000000    2    1    2    0    0  0.52936397909E+02 -0.52281535415E+03 -0.42323229543E+03  0.90321718392E+03  0.60044779013E+03 0.  0.
        -24    2    4    4    0    0  0.77513990796E+02 -0.59118549149E+03 -0.49129671436E+03  0.77663493013E+03  0.79250545941E+02 0.  0.
         24    2    4    4    0    0 -0.24577592887E+02  0.68370137344E+02  0.68064418927E+02  0.12658225379E+03  0.78177797995E+02 0.  0.
         11    1    3    3    0    0 -0.48999140537E+02  0.23276741991E+03 -0.35203962980E+01  0.23789489430E+03  0.00000000000E+00 0. -1.
        -12    1    3    3    0    0 -0.39372573717E+01  0.29004793424E+03  0.63830089403E+02  0.29701445498E+03  0.00000000000E+00 0.  1.
         15    1    5    5    0    0  0.26806133352E+02 -0.21613756921E+03 -0.13137361962E+03  0.25435448349E+03  0.17770000000E+01 0. -1.
        -16    1    5    5    0    0  0.50707857444E+02 -0.37504792228E+03 -0.35992309474E+03  0.52228044664E+03  0.00000000000E+00 0.  1.
          2    1    6    6  502    0 -0.44604270242E+01 -0.44279360387E+01  0.48035707616E+02  0.48445136319E+02  0.00000000000E+00 0. -1.
         -1    1    6    6    0  502 -0.20117165863E+02  0.72798073382E+02  0.20028711310E+02  0.78137117475E+02  0.00000000000E+00 0.  1.
<mgrwt>
<rscale>  0 0.60300811E+03</rscale>
<asrwt>0</asrwt>
<pdfrwt beam="1">  1        1 0.82707995E-01 0.60300811E+03</pdfrwt>
<pdfrwt beam="2">  1       -2 0.13854224E+00 0.60300811E+03</pdfrwt>
<totfact> 0.13397699E+01</totfact>
</mgrwt>
</event>
<event>
12    3  0.1201947E-007  0.4169892E+03  0.7818608E-02  0.1038051E+00
          1   -1    0    0  501    0  0.00000000000E+00  0.00000000000E+00  0.16225408841E+04  0.16225408841E+04  0.00000000000E+00 0. -1.
         -2   -1    0    0    0  501 -0.00000000000E+00 -0.00000000000E+00 -0.20006452564E+03  0.20006452564E+03  0.00000000000E+00 0.  1.
        -24    2    1    2    0    0 -0.33268688771E+02 -0.39692344616E+03  0.38536777965E+03  0.55990112064E+03  0.79535599185E+02 0.  0.
    5000000    2    1    2    0    0  0.33268688771E+02  0.39692344616E+03  0.10371085788E+04  0.12627042891E+04  0.60014405744E+03 0.  0.
        -24    2    4    4    0    0 -0.50963408683E+02  0.14453161266E+03 -0.16239585881E+02  0.17358151440E+03  0.79875915703E+02 0.  0.
         24    2    4    4    0    0  0.84232097455E+02  0.25239183350E+03  0.10533481647E+04  0.10891227747E+04  0.76481229300E+02 0.  0.
         11    1    3    3    0    0 -0.50953962208E+02 -0.14981190546E+03  0.15870205408E+03  0.22411214882E+03  0.00000000000E+00 0. -1.
        -12    1    3    3    0    0  0.17685273436E+02 -0.24711154071E+03  0.22666572557E+03  0.33578897182E+03  0.00000000000E+00 0.  1.
         15    1    5    5    0    0 -0.37816804000E+02  0.94248624634E+02  0.27969911061E+02  0.10534888497E+03  0.17770000000E+01 0. -1.
        -16    1    5    5    0    0 -0.13146604683E+02  0.50282988026E+02 -0.44209496942E+02  0.68232629434E+02  0.00000000000E+00 0.  1.
          2    1    6    6  502    0  0.55172544189E+02  0.66976036427E+02  0.40295761762E+03  0.41219490618E+03  0.00000000000E+00 0. -1.
         -1    1    6    6    0  502  0.29059553266E+02  0.18541579707E+03  0.65039054706E+03  0.67692786849E+03  0.00000000000E+00 0.  1.
<mgrwt>
<rscale>  0 0.41698924E+03</rscale>
<asrwt>0</asrwt>
<pdfrwt beam="1">  1        1 0.24962167E+00 0.41698924E+03</pdfrwt>
<pdfrwt beam="2">  1       -2 0.30779159E-01 0.41698924E+03</pdfrwt>
<totfact> 0.49755404E+01</totfact>
</mgrwt>
</event>
<event>
12    3  0.1201947E-007  0.1145620E+04  0.7818608E-02  0.9161834E-01
          1   -1    0    0  501    0  0.00000000000E+00  0.00000000000E+00  0.17820170256E+04  0.17820170256E+04  0.00000000000E+00 0. -1.
         -2   -1    0    0    0  501 -0.00000000000E+00 -0.00000000000E+00 -0.84627355096E+03  0.84627355096E+03  0.00000000000E+00 0.  1.
        -24    2    1    2    0    0  0.66634334964E+03 -0.87423562795E+03  0.66972876086E+02  0.11041435123E+04  0.79662643418E+02 0.  0.
    5000000    2    1    2    0    0 -0.66634334964E+03  0.87423562795E+03  0.86877059852E+03  0.15241470643E+04  0.59996710564E+03 0.  0.
        -24    2    4    4    0    0 -0.25730208246E+03  0.44168346033E+02  0.33782899041E+02  0.27523752150E+03  0.80369176572E+02 0.  0.
         24    2    4    4    0    0 -0.40904126718E+03  0.83006728192E+03  0.83498769948E+03  0.12489095428E+04  0.79019851634E+02 0.  0.
         11    1    3    3    0    0  0.25928567256E+03 -0.27790606408E+03  0.20271968970E+02  0.38062027426E+03  0.00000000000E+00 0. -1.
        -12    1    3    3    0    0  0.40705767708E+03 -0.59632956387E+03  0.46700907116E+02  0.72352323801E+03  0.00000000000E+00 0.  1.
         15    1    5    5    0    0 -0.82099402660E+02  0.30895698109E+02 -0.22789844974E+02  0.90649825381E+02  0.17770000000E+01 0. -1.
        -16    1    5    5    0    0 -0.17520267980E+03  0.13272647925E+02  0.56572744015E+02  0.18458769612E+03  0.00000000000E+00 0.  1.
          2    1    6    6  502    0 -0.10247473057E+03  0.18474471006E+03  0.14957896100E+03  0.25885429082E+03  0.00000000000E+00 0. -1.
         -1    1    6    6    0  502 -0.30656653661E+03  0.64532257185E+03  0.68540873848E+03  0.99005525194E+03  0.00000000000E+00 0.  1.
<mgrwt>
<rscale>  0 0.11456197E+04</rscale>
<asrwt>0</asrwt>
<pdfrwt beam="1">  1        1 0.27415646E+00 0.11456197E+04</pdfrwt>
<pdfrwt beam="2">  1       -2 0.13019593E+00 0.11456197E+04</pdfrwt>
<totfact> 0.15652119E+00</totfact>
</mgrwt>
</event>
<event>
12    3  0.1201947E-007  0.8283538E+03  0.7818608E-02  0.9519859E-01
          1   -1    0    0  501    0  0.00000000000E+00  0.00000000000E+00  0.44356997262E+03  0.44356997262E+03  0.00000000000E+00 0. -1.
         -2   -1    0    0    0  501 -0.00000000000E+00 -0.00000000000E+00 -0.17808310881E+04  0.17808310881E+04  0.00000000000E+00 0.  1.
        -24    2    1    2    0    0  0.71080693097E+03 -0.16126918274E+03 -0.96025297809E+03  0.12082296154E+04  0.80490864559E+02 0.  0.
    5000000    2    1    2    0    0 -0.71080693097E+03  0.16126918274E+03 -0.37700813738E+03  0.10161714453E+04  0.59934549979E+03 0.  0.
        -24    2    4    4    0    0 -0.78579857708E+03  0.56813881328E+02 -0.30069131182E+03  0.84710460996E+03  0.80397352847E+02 0.  0.
         24    2    4    4    0    0  0.74991646112E+02  0.10445530141E+03 -0.76316825560E+02  0.16906683532E+03  0.78896641002E+02 0.  0.
         13    1    3    3    0    0  0.27895134068E+03 -0.26194843706E+02 -0.39188505325E+03  0.48174050615E+03  0.00000000000E+00 0. -1.
        -14    1    3    3    0    0  0.43185559029E+03 -0.13507433904E+03 -0.56836792483E+03  0.72648910929E+03  0.00000000000E+00 0.  1.
         15    1    5    5    0    0 -0.70343113154E+03  0.64412268323E+02 -0.24620064770E+03  0.74805228012E+03  0.17770000000E+01 0. -1.
        -16    1    5    5    0    0 -0.82367445542E+02 -0.75983869952E+01 -0.54490664118E+02  0.99052329837E+02  0.00000000000E+00 0.  1.
          2    1    6    6  502    0  0.14451168982E+02  0.54727844980E+02  0.41552932267E+01  0.56755966761E+02  0.00000000000E+00 0. -1.
         -1    1    6    6    0  502  0.60540477129E+02  0.49727456433E+02 -0.80472118786E+02  0.11231086856E+03  0.00000000000E+00 0.  1.
<mgrwt>
<rscale>  0 0.82835384E+03</rscale>
<asrwt>0</asrwt>
<pdfrwt beam="1">  1        1 0.68241534E-01 0.82835384E+03</pdfrwt>
<pdfrwt beam="2">  1       -2 0.27397401E+00 0.82835384E+03</pdfrwt>
<totfact> 0.21531467E+00</totfact>
</mgrwt>
</event>
<event>
12    3  0.1201947E-007  0.5286209E+03  0.7818608E-02  0.1006567E+00
          1   -1    0    0  501    0  0.00000000000E+00  0.00000000000E+00  0.55831540396E+03  0.55831540396E+03  0.00000000000E+00 0. -1.
         -2   -1    0    0    0  501 -0.00000000000E+00 -0.00000000000E+00 -0.78860540116E+03  0.78860540116E+03  0.00000000000E+00 0.  1.
        -24    2    1    2    0    0 -0.31462377852E+02  0.45501219601E+03  0.17002589152E+03  0.49321928382E+03  0.79564303615E+02 0.  0.
    5000000    2    1    2    0    0  0.31462377852E+02 -0.45501219601E+03 -0.40031588872E+03  0.85370152129E+03  0.60043941989E+03 0.  0.
        -24    2    4    4    0    0 -0.14812566531E+03 -0.32186216365E+03 -0.48089689817E+03  0.60297983444E+03  0.82379542083E+02 0.  0.
         24    2    4    4    0    0  0.17958804316E+03 -0.13315003236E+03  0.80581009446E+02  0.25072168686E+03  0.79920390477E+02 0.  0.
         13    1    3    3    0    0 -0.26327192805E+02  0.21735731709E+03  0.12222164556E+03  0.25074978567E+03  0.00000000000E+00 0. -1.
        -14    1    3    3    0    0 -0.51351850470E+01  0.23765487892E+03  0.47804245966E+02  0.24246949815E+03  0.00000000000E+00 0.  1.
         15    1    5    5    0    0 -0.82728867873E+01 -0.10417719514E+03 -0.12428974981E+03  0.16239589983E+03  0.17770000000E+01 0. -1.
        -16    1    5    5    0    0 -0.13985277852E+03 -0.21768496851E+03 -0.35660714836E+03  0.44058393461E+03  0.00000000000E+00 0.  1.
          2    1    6    6  502    0  0.52226685349E+02  0.11500233092E+01  0.14852403415E+02  0.54309696219E+02  0.00000000000E+00 0. -1.
         -1    1    6    6    0  502  0.12736135781E+03 -0.13430005567E+03  0.65728606030E+02  0.19641199064E+03  0.00000000000E+00 0.  1.
<mgrwt>
<rscale>  0 0.52862094E+03</rscale>
<asrwt>0</asrwt>
<pdfrwt beam="1">  1        1 0.85894678E-01 0.52862094E+03</pdfrwt>
<pdfrwt beam="2">  1       -2 0.12132391E+00 0.52862094E+03</pdfrwt>
<totfact> 0.17918432E+01</totfact>
</mgrwt>
</event>
<event>
12    3  0.1201947E-007  0.5252299E+03  0.7818608E-02  0.1007396E+00
         -2   -1    0    0    0  501 -0.00000000000E+00  0.00000000000E+00  0.18877775232E+03  0.18877775232E+03  0.00000000000E+00 0.  1.
          1   -1    0    0  501    0  0.00000000000E+00 -0.00000000000E+00 -0.20710929481E+04  0.20710929481E+04  0.00000000000E+00 0. -1.
        -24    2    1    2    0    0 -0.34397967952E+03 -0.25656673550E+03 -0.11072876586E+04  0.11898435763E+04  0.74116579350E+02 0.  0.
    5000000    2    1    2    0    0  0.34397967952E+03  0.25656673550E+03 -0.77502753719E+03  0.10700271242E+04  0.60011819953E+03 0.  0.
        -24    2    4    4    0    0  0.22547425123E+03 -0.91296195578E+02 -0.60651757966E+03  0.65821519256E+03  0.78803756100E+02 0.  0.
         24    2    4    4    0    0  0.11850542829E+03  0.34786293108E+03 -0.16850995753E+03  0.41181193163E+03  0.78366484505E+02 0.  0.
         11    1    3    3    0    0 -0.64622688992E+02 -0.53697810644E+02 -0.14617219287E+03  0.16859969386E+03  0.00000000000E+00 0. -1.
        -12    1    3    3    0    0 -0.27935699053E+03 -0.20286892486E+03 -0.96111546576E+03  0.10212438824E+04  0.00000000000E+00 0.  1.
         15    1    5    5    0    0  0.14194428545E+03 -0.88181944590E+02 -0.33917552807E+03  0.37811034381E+03  0.17770000000E+01 0. -1.
        -16    1    5    5    0    0  0.83529965786E+02 -0.31142509881E+01 -0.26734205159E+03  0.28010484875E+03  0.00000000000E+00 0.  1.
          4    1    6    6  502    0  0.12533831880E+02  0.10189519843E+03 -0.16876048410E+02  0.10404099872E+03  0.00000000000E+00 0. -1.
         -3    1    6    6    0  502  0.10597159641E+03  0.24596773265E+03 -0.15163390912E+03  0.30777093291E+03  0.00000000000E+00 0.  1.
<mgrwt>
<rscale>  0 0.52522994E+03</rscale>
<asrwt>0</asrwt>
<pdfrwt beam="1">  1        1 0.31862967E+00 0.52522994E+03</pdfrwt>
<pdfrwt beam="2">  1       -2 0.29042732E-01 0.52522994E+03</pdfrwt>
<totfact> 0.27382401E+01</totfact>
</mgrwt>
</event>
<event>
12    3  0.1201947E-007  0.3054807E+03  0.7818608E-02  0.1082533E+00
          1   -1    0    0  501    0  0.00000000000E+00  0.00000000000E+00  0.10494119044E+04  0.10494119044E+04  0.00000000000E+00 0. -1.
         -2   -1    0    0    0  501 -0.00000000000E+00 -0.00000000000E+00 -0.22597044537E+03  0.22597044537E+03  0.00000000000E+00 0.  1.
        -24    2    1    2    0    0  0.23178682180E+03  0.65431145297E+02  0.47961299251E+03  0.54306688077E+03  0.82985835301E+02 0.  0.
    5000000    2    1    2    0    0 -0.23178682180E+03 -0.65431145297E+02  0.34382846647E+03  0.73231546895E+03  0.60005130295E+03 0.  0.
        -24    2    4    4    0    0 -0.24298780092E+02 -0.12378377931E+03 -0.13527102473E+03  0.20095120458E+03  0.78551141016E+02 0.  0.
         24    2    4    4    0    0 -0.20748804171E+03  0.58352634014E+02  0.47909949121E+03  0.53136426438E+03  0.79720396586E+02 0.  0.
         13    1    3    3    0    0  0.10917608284E+03  0.62257682905E+02  0.30310786056E+03  0.32813078380E+03  0.00000000000E+00 0. -1.
        -14    1    3    3    0    0  0.12261073896E+03  0.31734623924E+01  0.17650513196E+03  0.21493609697E+03  0.00000000000E+00 0.  1.
         15    1    5    5    0    0 -0.26562403103E+02 -0.31344468104E+02 -0.53298194139E+01  0.41468079813E+02  0.17770000000E+01 0. -1.
        -16    1    5    5    0    0  0.22636230108E+01 -0.92439311207E+02 -0.12994120532E+03  0.15948312477E+03  0.00000000000E+00 0.  1.
          2    1    6    6  502    0 -0.55097614710E+02 -0.18817800018E+02  0.10364005512E+03  0.11887437810E+03  0.00000000000E+00 0. -1.
         -1    1    6    6    0  502 -0.15239042700E+03  0.77170434032E+02  0.37545943609E+03  0.41248988628E+03  0.00000000000E+00 0.  1.
<mgrwt>
<rscale>  0 0.30548068E+03</rscale>
<asrwt>0</asrwt>
<pdfrwt beam="1">  1        1 0.16144798E+00 0.30548068E+03</pdfrwt>
<pdfrwt beam="2">  1       -2 0.34764684E-01 0.30548068E+03</pdfrwt>
<totfact> 0.10096565E+02</totfact>
</mgrwt>
</event>
<event>
12    3  0.1201947E-007  0.1085396E+04  0.7818608E-02  0.9219544E-01
          1   -1    0    0  501    0  0.00000000000E+00  0.00000000000E+00  0.82118765280E+03  0.82118765280E+03  0.00000000000E+00 0. -1.
         -2   -1    0    0    0  501 -0.00000000000E+00 -0.00000000000E+00 -0.20873861839E+04  0.20873861839E+04  0.00000000000E+00 0.  1.
        -24    2    1    2    0    0  0.75397032365E+03 -0.74538265699E+03  0.11215377946E+03  0.10690273235E+04  0.78577311496E+02 0.  0.
    5000000    2    1    2    0    0 -0.75397032365E+03  0.74538265699E+03 -0.13783523105E+04  0.18395465132E+04  0.60000810651E+03 0.  0.
        -24    2    4    4    0    0 -0.47587569628E+03  0.25728919930E+03 -0.30594044353E+03  0.62616662307E+03  0.76352304950E+02 0.  0.
         24    2    4    4    0    0 -0.27809462737E+03  0.48809345769E+03 -0.10724118670E+04  0.12133798901E+04  0.81557954819E+02 0.  0.
         13    1    3    3    0    0  0.47397392338E+03 -0.50816630299E+03  0.48649364668E+02  0.69659962118E+03  0.00000000000E+00 0. -1.
        -14    1    3    3    0    0  0.27999640027E+03 -0.23721635400E+03  0.63504414795E+02  0.37242770234E+03  0.00000000000E+00 0.  1.
         15    1    5    5    0    0 -0.26644274533E+03  0.10833695036E+03 -0.18620858364E+03  0.34264475146E+03  0.17770000000E+01 0. -1.
        -16    1    5    5    0    0 -0.20943295096E+03  0.14895224894E+03 -0.11973185989E+03  0.28352187161E+03  0.00000000000E+00 0.  1.
          4    1    6    6  502    0 -0.18391883242E+03  0.26955360623E+03 -0.68426695734E+03  0.75809402613E+03  0.00000000000E+00 0. -1.
         -3    1    6    6    0  502 -0.94175794945E+02  0.21853985145E+03 -0.38814490967E+03  0.45528586397E+03  0.00000000000E+00 0.  1.
<mgrwt>
<rscale>  0 0.10853961E+04</rscale>
<asrwt>0</asrwt>
<pdfrwt beam="1">  1        1 0.12633656E+00 0.10853961E+04</pdfrwt>
<pdfrwt beam="2">  1       -2 0.32113634E+00 0.10853961E+04</pdfrwt>
<totfact> 0.43742305E-01</totfact>
</mgrwt>
</event>
<event>
12    3  0.1201947E-007  0.7388028E+03  0.7818608E-02  0.9653083E-01
          1   -1    0    0  501    0  0.00000000000E+00  0.00000000000E+00  0.40090248014E+03  0.40090248014E+03  0.00000000000E+00 0. -1.
         -2   -1    0    0    0  501 -0.00000000000E+00 -0.00000000000E+00 -0.23777512253E+04  0.23777512253E+04  0.00000000000E+00 0.  1.
        -24    2    1    2    0    0  0.61480918116E+03 -0.22872345274E+03 -0.17360934479E+04  0.18576021757E+04  0.79753597652E+02 0.  0.
    5000000    2    1    2    0    0 -0.61480918116E+03  0.22872345274E+03 -0.24075529727E+03  0.92105152974E+03  0.60005671415E+03 0.  0.
        -24    2    4    4    0    0 -0.12743156578E+03 -0.14060066831E+03  0.87196486515E+02  0.22342179074E+03  0.79414843892E+02 0.  0.
         24    2    4    4    0    0 -0.48737761538E+03  0.36932412105E+03 -0.32795178379E+03  0.69762973900E+03  0.72094617562E+02 0.  0.
         13    1    3    3    0    0  0.32467932673E+03 -0.15306837911E+03 -0.87314231338E+03  0.94404665844E+03  0.00000000000E+00 0. -1.
        -14    1    3    3    0    0  0.29012985443E+03 -0.75655073632E+02 -0.86295113450E+03  0.91355551727E+03  0.00000000000E+00 0.  1.
         15    1    5    5    0    0 -0.87562487020E+02 -0.40497631015E+02  0.27949325818E+02  0.10045680561E+03  0.17770000000E+01 0. -1.
        -16    1    5    5    0    0 -0.39869078757E+02 -0.10010303729E+03  0.59247160697E+02  0.12296498513E+03  0.00000000000E+00 0.  1.
          4    1    6    6  502    0 -0.69415535829E+02  0.81740538929E+02 -0.41369693219E+02  0.11494121905E+03  0.00000000000E+00 0. -1.
         -3    1    6    6    0  502 -0.41796207955E+03  0.28758358212E+03 -0.28658209057E+03  0.58268851995E+03  0.00000000000E+00 0.  1.
<mgrwt>
<rscale>  0 0.73880277E+03</rscale>
<asrwt>0</asrwt>
<pdfrwt beam="1">  1        1 0.61677303E-01 0.73880277E+03</pdfrwt>
<pdfrwt beam="2">  1       -2 0.36580789E+00 0.73880277E+03</pdfrwt>
<totfact> 0.68755398E-01</totfact>
</mgrwt>
</event>
<event>
12    3  0.1201947E-007  0.1615144E+04  0.7818608E-02  0.8811298E-01
         -2   -1    0    0    0  501 -0.00000000000E+00  0.00000000000E+00  0.12654756512E+04  0.12654756512E+04  0.00000000000E+00 0.  1.
          1   -1    0    0  501    0  0.00000000000E+00 -0.00000000000E+00 -0.24090936028E+04  0.24090936028E+04  0.00000000000E+00 0. -1.
        -24    2    1    2    0    0  0.15445999906E+04  0.41495069211E+03 -0.11415255018E+04  0.19663278000E+04  0.73425729862E+02 0.  0.
    5000000    2    1    2    0    0 -0.15445999906E+04 -0.41495069211E+03 -0.20924498431E+01  0.17082414540E+04  0.60009272518E+03 0.  0.
        -24    2    4    4    0    0 -0.77272901185E+03 -0.58476486521E+02  0.24944076112E+03  0.81773259307E+03  0.77047227307E+02 0.  0.
         24    2    4    4    0    0 -0.77187097878E+03 -0.35647420559E+03 -0.25153321096E+03  0.89050886091E+03  0.82936168233E+02 0.  0.
         11    1    3    3    0    0  0.61880811186E+03  0.13053730956E+03 -0.43872037817E+03  0.76970061628E+03  0.00000000000E+00 0. -1.
        -12    1    3    3    0    0  0.92579187878E+03  0.28441338254E+03 -0.70280512367E+03  0.11966271837E+04  0.00000000000E+00 0.  1.
         15    1    5    5    0    0 -0.54574629252E+03 -0.63224512703E+01  0.18005614329E+03  0.57471937644E+03  0.17770000000E+01 0. -1.
        -16    1    5    5    0    0 -0.22698271933E+03 -0.52154035250E+02  0.69384617830E+02  0.24301321663E+03  0.00000000000E+00 0.  1.
          2    1    6    6  502    0 -0.44801875175E+03 -0.19145083500E+03 -0.10371563485E+03  0.49812765136E+03  0.00000000000E+00 0. -1.
         -1    1    6    6    0  502 -0.32385222703E+03 -0.16502337059E+03 -0.14781757612E+03  0.39238120955E+03  0.00000000000E+00 0.  1.
<mgrwt>
<rscale>  0 0.16151442E+04</rscale>
<asrwt>0</asrwt>
<pdfrwt beam="1">  1        1 0.37062978E+00 0.16151442E+04</pdfrwt>
<pdfrwt beam="2">  1       -2 0.19468856E+00 0.16151442E+04</pdfrwt>
<totfact> 0.18423267E-01</totfact>
</mgrwt>
</event>
<event>
12    3  0.1201947E-007  0.1153827E+04  0.7818608E-02  0.9154260E-01
         -2   -1    0    0    0  501 -0.00000000000E+00  0.00000000000E+00  0.22811447440E+04  0.22811447440E+04  0.00000000000E+00 0.  1.
          1   -1    0    0  501    0  0.00000000000E+00 -0.00000000000E+00 -0.61860657970E+03  0.61860657970E+03  0.00000000000E+00 0. -1.
        -24    2    1    2    0    0  0.19208836761E+03 -0.10882022115E+04  0.91555052164E+03  0.14371849126E+04  0.78649356102E+02 0.  0.
    5000000    2    1    2    0    0 -0.19208836761E+03  0.10882022115E+04  0.74698764263E+03  0.14625664111E+04  0.60002331173E+03 0.  0.
        -24    2    4    4    0    0  0.13152314849E+03  0.55705383454E+03  0.15230294397E+03  0.59840424341E+03  0.85347165310E+02 0.  0.
         24    2    4    4    0    0 -0.32361151610E+03  0.53114837693E+03  0.59468469865E+03  0.86416216769E+03  0.79267582174E+02 0.  0.
         13    1    3    3    0    0  0.66984901785E+02 -0.59805049061E+03  0.48502097916E+03  0.77291443033E+03  0.00000000000E+00 0. -1.
        -14    1    3    3    0    0  0.12510346583E+03 -0.49015172086E+03  0.43052954248E+03  0.66427048224E+03  0.00000000000E+00 0.  1.
         15    1    5    5    0    0  0.43361831842E+02  0.12205175680E+03  0.12026590593E+01  0.12954336693E+03  0.17770000000E+01 0. -1.
        -16    1    5    5    0    0  0.88161316645E+02  0.43500207774E+03  0.15110028492E+03  0.46886087648E+03  0.00000000000E+00 0.  1.
          4    1    6    6  502    0 -0.55304922224E+02  0.44825791331E+02  0.58261428345E+02  0.91991195358E+02  0.00000000000E+00 0. -1.
         -3    1    6    6    0  502 -0.26830659388E+03  0.48632258560E+03  0.53642327031E+03  0.77217097233E+03  0.00000000000E+00 0.  1.
<mgrwt>
<rscale>  0 0.11538274E+04</rscale>
<asrwt>0</asrwt>
<pdfrwt beam="1">  1        1 0.95170244E-01 0.11538274E+04</pdfrwt>
<pdfrwt beam="2">  1       -2 0.35094534E+00 0.11538274E+04</pdfrwt>
<totfact> 0.43863915E-01</totfact>
</mgrwt>
</event>
<event>
12    3  0.1201947E-007  0.6866125E+03  0.7818608E-02  0.9740404E-01
          1   -1    0    0  501    0  0.00000000000E+00  0.00000000000E+00  0.16080740351E+04  0.16080740351E+04  0.00000000000E+00 0. -1.
         -2   -1    0    0    0  501 -0.00000000000E+00 -0.00000000000E+00 -0.35932026538E+03  0.35932026538E+03  0.00000000000E+00 0.  1.
        -24    2    1    2    0    0 -0.29787547448E+03 -0.55853327154E+03  0.64363973570E+03  0.90591762378E+03  0.75666491786E+02 0.  0.
    5000000    2    1    2    0    0  0.29787547448E+03  0.55853327154E+03  0.60511403398E+03  0.10614766767E+04  0.59990043114E+03 0.  0.
        -24    2    4    4    0    0  0.29415172370E+03  0.16418829423E+03  0.15182060060E+02  0.34747750859E+03  0.83827749059E+02 0.  0.
         24    2    4    4    0    0  0.37237507841E+01  0.39434497731E+03  0.58993197392E+03  0.71399916808E+03  0.79077498170E+02 0.  0.
         11    1    3    3    0    0 -0.23059500701E+03 -0.38415674796E+03  0.41620925963E+03  0.61153954251E+03  0.00000000000E+00 0. -1.
        -12    1    3    3    0    0 -0.67280467472E+02 -0.17437652358E+03  0.22743047607E+03  0.29437808126E+03  0.00000000000E+00 0.  1.
         15    1    5    5    0    0  0.12397916688E+03  0.62729949090E+02  0.47262550093E+02  0.14677461192E+03  0.17770000000E+01 0. -1.
        -16    1    5    5    0    0  0.17017255682E+03  0.10145834514E+03 -0.32080490033E+02  0.20070289668E+03  0.00000000000E+00 0.  1.
          2    1    6    6  502    0  0.35260982020E+02  0.12110554635E+03  0.16237401306E+03  0.20560936342E+03  0.00000000000E+00 0. -1.
         -1    1    6    6    0  502 -0.31537231236E+02  0.27323943096E+03  0.42755796086E+03  0.50838980466E+03  0.00000000000E+00 0.  1.
<mgrwt>
<rscale>  0 0.68661251E+03</rscale>
<asrwt>0</asrwt>
<pdfrwt beam="1">  1        1 0.24739600E+00 0.68661251E+03</pdfrwt>
<pdfrwt beam="2">  1       -2 0.55280042E-01 0.68661251E+03</pdfrwt>
<totfact> 0.15499359E+01</totfact>
</mgrwt>
</event>
<event>
12    3  0.1201947E-007  0.7336944E+03  0.7818608E-02  0.9661284E-01
          1   -1    0    0  501    0  0.00000000000E+00  0.00000000000E+00  0.21393023328E+04  0.21393023328E+04  0.00000000000E+00 0. -1.
         -2   -1    0    0    0  501 -0.00000000000E+00 -0.00000000000E+00 -0.32767926377E+03  0.32767926377E+03  0.00000000000E+00 0.  1.
        -24    2    1    2    0    0  0.87556769521E+01 -0.72379725285E+03  0.68693664930E+03  0.10010669532E+04  0.79334479033E+02 0.  0.
    5000000    2    1    2    0    0 -0.87556769521E+01  0.72379725285E+03  0.11246864197E+04  0.14659146433E+04  0.60002256103E+03 0.  0.
        -24    2    4    4    0    0  0.16934575409E+02  0.24843913053E+03  0.20984341236E+02  0.26174437663E+03  0.77852390435E+02 0.  0.
         24    2    4    4    0    0 -0.25690252361E+02  0.47535812232E+03  0.11037020785E+04  0.12041702667E+04  0.72404555610E+02 0.  0.
         11    1    3    3    0    0  0.28403539111E+02 -0.47191358938E+03  0.48846292016E+03  0.67978321636E+03  0.00000000000E+00 0. -1.
        -12    1    3    3    0    0 -0.19647862159E+02 -0.25188366347E+03  0.19847372914E+03  0.32128373686E+03  0.00000000000E+00 0.  1.
         15    1    5    5    0    0  0.25386408402E+02  0.25052464857E+03  0.17682675490E+02  0.25243395971E+03  0.17770000000E+01 0. -1.
        -16    1    5    5    0    0 -0.84518329937E+01 -0.20855180429E+01  0.33016657460E+01  0.93104169165E+01  0.00000000000E+00 0.  1.
          4    1    6    6  502    0 -0.66694512405E+01  0.44845869427E+03  0.10333377408E+04  0.11264752854E+04  0.00000000000E+00 0. -1.
         -3    1    6    6    0  502 -0.19020801120E+02  0.26899428049E+02  0.70364337644E+02  0.77694981283E+02  0.00000000000E+00 0.  1.
<mgrwt>
<rscale>  0 0.73369442E+03</rscale>
<asrwt>0</asrwt>
<pdfrwt beam="1">  1        1 0.32912343E+00 0.73369442E+03</pdfrwt>
<pdfrwt beam="2">  1       -2 0.50412196E-01 0.73369442E+03</pdfrwt>
<totfact> 0.82017959E+00</totfact>
</mgrwt>
</event>
<event>
12    3  0.1201947E-007  0.7014805E+03  0.7818608E-02  0.9714704E-01
          1   -1    0    0  501    0  0.00000000000E+00  0.00000000000E+00  0.14342991695E+04  0.14342991695E+04  0.00000000000E+00 0. -1.
         -2   -1    0    0    0  501 -0.00000000000E+00 -0.00000000000E+00 -0.79104932298E+03  0.79104932298E+03  0.00000000000E+00 0.  1.
        -24    2    1    2    0    0  0.14301601545E+02  0.58120189830E+03 -0.52631759500E+03  0.78810504710E+03  0.78097196265E+02 0.  0.
    5000000    2    1    2    0    0 -0.14301601545E+02 -0.58120189830E+03  0.11695674415E+04  0.14372434453E+04  0.59981708760E+03 0.  0.
        -24    2    4    4    0    0 -0.28934670972E+03 -0.26067110053E+03  0.65919645494E+03  0.77004946295E+03  0.82251249866E+02 0.  0.
         24    2    4    4    0    0  0.27504510817E+03 -0.32053079777E+03  0.51037098654E+03  0.66719398238E+03  0.79243058838E+02 0.  0.
         13    1    3    3    0    0  0.45265478913E+02  0.35575149747E+03 -0.33632619174E+03  0.49165373870E+03  0.00000000000E+00 0. -1.
        -14    1    3    3    0    0 -0.30963877368E+02  0.22545040083E+03 -0.18999140326E+03  0.29645130840E+03  0.00000000000E+00 0.  1.
         15    1    5    5    0    0 -0.14047204180E+03 -0.13960012134E+03  0.41186664933E+03  0.45700971868E+03  0.17770000000E+01 0. -1.
        -16    1    5    5    0    0 -0.14887466792E+03 -0.12107097919E+03  0.24732980560E+03  0.31303974427E+03  0.00000000000E+00 0.  1.
          2    1    6    6  502    0  0.16365395922E+03 -0.14341027938E+03  0.29878221913E+03  0.36962134823E+03  0.00000000000E+00 0. -1.
         -1    1    6    6    0  502  0.11139114895E+03 -0.17712051840E+03  0.21158876742E+03  0.29757263415E+03  0.00000000000E+00 0.  1.
<mgrwt>
<rscale>  0 0.70148050E+03</rscale>
<asrwt>0</asrwt>
<pdfrwt beam="1">  1        1 0.22066141E+00 0.70148050E+03</pdfrwt>
<pdfrwt beam="2">  1       -2 0.12169990E+00 0.70148050E+03</pdfrwt>
<totfact> 0.34015909E+00</totfact>
</mgrwt>
</event>
<event>
12    3  0.1201947E-007  0.4914387E+03  0.7818608E-02  0.1016038E+00
         -2   -1    0    0    0  501 -0.00000000000E+00  0.00000000000E+00  0.54621030909E+03  0.54621030909E+03  0.00000000000E+00 0.  1.
          1   -1    0    0  501    0  0.00000000000E+00 -0.00000000000E+00 -0.73139419071E+03  0.73139419071E+03  0.00000000000E+00 0. -1.
        -24    2    1    2    0    0 -0.47966527378E+03  0.36561603394E+02 -0.56619945360E+01  0.48788730761E+03  0.81156891480E+02 0.  0.
    5000000    2    1    2    0    0  0.47966527378E+03 -0.36561603394E+02 -0.17952188708E+03  0.78971719219E+03  0.60000800826E+03 0.  0.
        -24    2    4    4    0    0  0.31428688211E+03 -0.53310121738E+02 -0.38963291744E+03  0.51010047669E+03  0.82282881674E+02 0.  0.
         24    2    4    4    0    0  0.16537839167E+03  0.16748518344E+02  0.21011103036E+03  0.27961671550E+03  0.80052090603E+02 0.  0.
         13    1    3    3    0    0 -0.29204344710E+03  0.35584772703E+02 -0.40743928648E+02  0.29701131084E+03  0.00000000000E+00 0. -1.
        -14    1    3    3    0    0 -0.18762182668E+03  0.97683069130E+00  0.35081934112E+02  0.19087599678E+03  0.00000000000E+00 0.  1.
         15    1    5    5    0    0  0.29580382041E+03 -0.33816760779E+02 -0.32863621852E+03  0.44345055568E+03  0.17770000000E+01 0. -1.
        -16    1    5    5    0    0  0.18483061699E+02 -0.19493360960E+02 -0.60996698918E+02  0.66649921007E+02  0.00000000000E+00 0.  1.
          2    1    6    6  502    0  0.78888029339E+02  0.37738365225E+02  0.63376702938E+02  0.10800051786E+03  0.00000000000E+00 0. -1.
         -1    1    6    6    0  502  0.86490362332E+02 -0.20989846881E+02  0.14673432742E+03  0.17161619764E+03  0.00000000000E+00 0.  1.
<mgrwt>
<rscale>  0 0.49143871E+03</rscale>
<asrwt>0</asrwt>
<pdfrwt beam="1">  1        1 0.11252218E+00 0.49143871E+03</pdfrwt>
<pdfrwt beam="2">  1       -2 0.84032355E-01 0.49143871E+03</pdfrwt>
<totfact> 0.28941115E+01</totfact>
</mgrwt>
</event>
<event>
12    3  0.1201947E-007  0.1084524E+04  0.7818608E-02  0.9220409E-01
         -2   -1    0    0    0  501 -0.00000000000E+00  0.00000000000E+00  0.60324061230E+03  0.60324061230E+03  0.00000000000E+00 0.  1.
          1   -1    0    0  501    0  0.00000000000E+00 -0.00000000000E+00 -0.22037507233E+04  0.22037507233E+04  0.00000000000E+00 0. -1.
        -24    2    1    2    0    0  0.80309802144E+03 -0.60705085040E+03 -0.12008520434E+04  0.15688281638E+04  0.75491791385E+02 0.  0.
    5000000    2    1    2    0    0 -0.80309802144E+03  0.60705085040E+03 -0.39965806763E+03  0.12381631718E+04  0.59987023751E+03 0.  0.
        -24    2    4    4    0    0 -0.88492063407E+03  0.52271453992E+03 -0.34643564789E+03  0.10877639034E+04  0.83051987766E+02 0.  0.
         24    2    4    4    0    0  0.81822612622E+02  0.84336310487E+02 -0.53222419744E+02  0.15039926831E+03  0.77328912725E+02 0.  0.
         11    1    3    3    0    0  0.68343236712E+03 -0.53654017702E+03 -0.10017848688E+04  0.13260950514E+04  0.00000000000E+00 0. -1.
        -12    1    3    3    0    0  0.11966565432E+03 -0.70510673383E+02 -0.19906717452E+03  0.24273311241E+03  0.00000000000E+00 0.  1.
         15    1    5    5    0    0 -0.34132215811E+03  0.17021058490E+03 -0.97313483894E+02  0.39363121155E+03  0.17770000000E+01 0. -1.
        -16    1    5    5    0    0 -0.54359847595E+03  0.35250395502E+03 -0.24912216399E+03  0.69413269189E+03  0.00000000000E+00 0.  1.
          2    1    6    6  502    0  0.85568999471E+02  0.53519830574E+02 -0.61605280202E+02  0.11824397018E+03  0.00000000000E+00 0. -1.
         -1    1    6    6    0  502 -0.37463868485E+01  0.30816479913E+02  0.83828604584E+01  0.32155298134E+02  0.00000000000E+00 0.  1.
<mgrwt>
<rscale>  0 0.10845237E+04</rscale>
<asrwt>0</asrwt>
<pdfrwt beam="1">  1        1 0.33903857E+00 0.10845237E+04</pdfrwt>
<pdfrwt beam="2">  1       -2 0.92806248E-01 0.10845237E+04</pdfrwt>
<totfact> 0.18678613E+00</totfact>
</mgrwt>
</event>
<event>
12    3  0.1201947E-007  0.1078313E+04  0.7818608E-02  0.9226591E-01
          1   -1    0    0  501    0  0.00000000000E+00  0.00000000000E+00  0.15167959394E+04  0.15167959394E+04  0.00000000000E+00 0. -1.
         -2   -1    0    0    0  501 -0.00000000000E+00 -0.00000000000E+00 -0.97867783742E+03  0.97867783742E+03  0.00000000000E+00 0.  1.
        -24    2    1    2    0    0  0.14212352888E+03  0.10628316555E+04  0.65857088750E+03  0.12608881014E+04  0.79454168940E+02 0.  0.
    5000000    2    1    2    0    0 -0.14212352888E+03 -0.10628316555E+04 -0.12045278549E+03  0.12345856755E+04  0.59990223469E+03 0.  0.
        -24    2    4    4    0    0 -0.12178206454E+03 -0.95963381100E+03  0.10189606916E+03  0.97585600929E+03  0.78639808542E+02 0.  0.
         24    2    4    4    0    0 -0.20341464339E+02 -0.10319784448E+03 -0.22234885465E+03  0.25872966618E+03  0.80239994533E+02 0.  0.
         13    1    3    3    0    0  0.55081258944E+02  0.64934936361E+03  0.42602748973E+03  0.77858073641E+03  0.00000000000E+00 0. -1.
        -14    1    3    3    0    0  0.87042269931E+02  0.41348229187E+03  0.23254339777E+03  0.48230736496E+03  0.00000000000E+00 0.  1.
         15    1    5    5    0    0 -0.17096068771E+02 -0.14708532320E+03  0.44295794313E+02  0.15456921748E+03  0.17770000000E+01 0. -1.
        -16    1    5    5    0    0 -0.10468599577E+03 -0.81254848780E+03  0.57600274843E+02  0.82128679181E+03  0.00000000000E+00 0.  1.
          4    1    6    6  502    0 -0.35598738434E+02 -0.71834597776E+02 -0.84269198462E+02  0.11631327278E+03  0.00000000000E+00 0. -1.
         -3    1    6    6    0  502  0.15257274095E+02 -0.31363246702E+02 -0.13807965619E+03  0.14241639340E+03  0.00000000000E+00 0.  1.
<mgrwt>
<rscale>  0 0.10783128E+04</rscale>
<asrwt>0</asrwt>
<pdfrwt beam="1">  1        1 0.23335322E+00 0.10783128E+04</pdfrwt>
<pdfrwt beam="2">  1       -2 0.15056582E+00 0.10783128E+04</pdfrwt>
<totfact> 0.16387849E+00</totfact>
</mgrwt>
</event>
<event>
12    3  0.1201947E-007  0.8604648E+03  0.7818608E-02  0.9476398E-01
         -2   -1    0    0    0  501 -0.00000000000E+00  0.00000000000E+00  0.32113752600E+03  0.32113752600E+03  0.00000000000E+00 0.  1.
          1   -1    0    0  501    0  0.00000000000E+00 -0.00000000000E+00 -0.24402512338E+04  0.24402512338E+04  0.00000000000E+00 0. -1.
        -24    2    1    2    0    0 -0.91733962170E+01  0.78099127249E+03 -0.90206072976E+03  0.11959165974E+04  0.80445192073E+02 0.  0.
    5000000    2    1    2    0    0  0.91733962170E+01 -0.78099127249E+03 -0.12170529781E+04  0.15654721624E+04  0.59954451122E+03 0.  0.
        -24    2    4    4    0    0  0.17226053816E+02 -0.83660353391E+03 -0.12034956843E+04  0.14677204681E+04  0.74828473833E+02 0.  0.
         24    2    4    4    0    0 -0.80526575990E+01  0.55612261422E+02 -0.13557293751E+02  0.97751694279E+02  0.78829084771E+02 0.  0.
         11    1    3    3    0    0 -0.25641251826E+02  0.89294419804E+02 -0.95073843707E+02  0.13292856337E+03  0.00000000000E+00 0. -1.
        -12    1    3    3    0    0  0.16467855609E+02  0.69169685269E+03 -0.80698688605E+03  0.10629880341E+04  0.00000000000E+00 0.  1.
         15    1    5    5    0    0  0.36665516493E+02 -0.22132226205E+03 -0.33523443250E+03  0.40337722573E+03  0.17770000000E+01 0. -1.
        -16    1    5    5    0    0 -0.19439462677E+02 -0.61528127187E+03 -0.86826125182E+03  0.10643432424E+04  0.00000000000E+00 0.  1.
          2    1    6    6  502    0 -0.42980575420E+02  0.36480317261E+02 -0.25439442985E+01  0.56432393743E+02  0.00000000000E+00 0. -1.
         -3    1    6    6    0  502  0.34927917821E+02  0.19131944160E+02 -0.11013349452E+02  0.41319300537E+02  0.00000000000E+00 0.  1.
<mgrwt>
<rscale>  0 0.86046476E+03</rscale>
<asrwt>0</asrwt>
<pdfrwt beam="1">  1        1 0.37542327E+00 0.86046476E+03</pdfrwt>
<pdfrwt beam="2">  1       -2 0.49405773E-01 0.86046476E+03</pdfrwt>
<totfact> 0.52502751E+00</totfact>
</mgrwt>
</event>
<event>
12    3  0.1201947E-007  0.1110003E+04  0.7818608E-02  0.9195497E-01
          1   -1    0    0  501    0  0.00000000000E+00  0.00000000000E+00  0.13104397895E+04  0.13104397895E+04  0.00000000000E+00 0. -1.
         -2   -1    0    0    0  501 -0.00000000000E+00 -0.00000000000E+00 -0.10036479498E+04  0.10036479498E+04  0.00000000000E+00 0.  1.
        -24    2    1    2    0    0  0.18052308580E+03  0.10168783438E+04 -0.12675184527E+03  0.10435960548E+04  0.79978401010E+02 0.  0.
    5000000    2    1    2    0    0 -0.18052308580E+03 -0.10168783438E+04  0.43354368499E+03  0.12704916845E+04  0.59963225650E+03 0.  0.
        -24    2    4    4    0    0  0.20052297859E+03 -0.50285642088E+03  0.17071967099E+03  0.57417775528E+03  0.86376175120E+02 0.  0.
         24    2    4    4    0    0 -0.38104606439E+03 -0.51402192294E+03  0.26282401400E+03  0.69631392926E+03  0.79762054214E+02 0.  0.
         11    1    3    3    0    0  0.12652533311E+03  0.72974052790E+03 -0.12692385972E+03  0.75142502231E+03  0.00000000000E+00 0. -1.
        -12    1    3    3    0    0  0.53997752692E+02  0.28713781592E+03  0.17201444897E+00  0.29217103248E+03  0.00000000000E+00 0.  1.
         15    1    5    5    0    0  0.20628067683E+03 -0.46052612286E+03  0.14844430544E+03  0.52599895154E+03  0.17770000000E+01 0. -1.
        -16    1    5    5    0    0 -0.57576982422E+01 -0.42330298015E+02  0.22275365545E+02  0.48178803734E+02  0.00000000000E+00 0.  1.
          2    1    6    6  502    0 -0.16377889123E+03 -0.22442769741E+03  0.71744222764E+02  0.28694694646E+03  0.00000000000E+00 0. -1.
         -3    1    6    6    0  502 -0.21726717316E+03 -0.28959422553E+03  0.19107979124E+03  0.40936698281E+03  0.00000000000E+00 0.  1.
<mgrwt>
<rscale>  0 0.11100030E+04</rscale>
<asrwt>0</asrwt>
<pdfrwt beam="1">  1        1 0.20160612E+00 0.11100030E+04</pdfrwt>
<pdfrwt beam="2">  1       -2 0.15440738E+00 0.11100030E+04</pdfrwt>
<totfact> 0.21296630E+00</totfact>
</mgrwt>
</event>
<event>
12    3  0.1201947E-007  0.6598609E+03  0.7818608E-02  0.9788450E-01
         -2   -1    0    0    0  501 -0.00000000000E+00  0.00000000000E+00  0.32763377637E+03  0.32763377637E+03  0.00000000000E+00 0.  1.
          1   -1    0    0  501    0  0.00000000000E+00 -0.00000000000E+00 -0.19125641944E+04  0.19125641944E+04  0.00000000000E+00 0. -1.
        -24    2    1    2    0    0  0.24466566663E+03  0.49453327050E+03 -0.13020740282E+03  0.57266948318E+03  0.81067411176E+02 0.  0.
    5000000    2    1    2    0    0 -0.24466566663E+03 -0.49453327050E+03 -0.14547230152E+04  0.16675284876E+04  0.60000646821E+03 0.  0.
        -24    2    4    4    0    0  0.53505810345E+02  0.87926027938E+02 -0.10950327705E+03  0.16950652424E+03  0.78406861584E+02 0.  0.
         24    2    4    4    0    0 -0.29817147697E+03 -0.58245929844E+03 -0.13452197382E+04  0.14980219634E+04  0.79300660524E+02 0.  0.
         13    1    3    3    0    0  0.10289909411E+03  0.22528092278E+03 -0.17908061235E+02  0.24831515538E+03  0.00000000000E+00 0. -1.
        -14    1    3    3    0    0  0.14176657251E+03  0.26925234773E+03 -0.11229934159E+03  0.32435432779E+03  0.00000000000E+00 0.  1.
         15    1    5    5    0    0  0.48300689699E+02  0.93769994163E+02 -0.64116089785E+02  0.12344958132E+03  0.17770000000E+01 0. -1.
        -16    1    5    5    0    0  0.52051206460E+01 -0.58439662258E+01 -0.45387187269E+02  0.46056942912E+02  0.00000000000E+00 0.  1.
          2    1    6    6  502    0 -0.20212597710E+03 -0.38315757409E+03 -0.97183440551E+03  0.10640144496E+04  0.00000000000E+00 0. -1.
         -1    1    6    6    0  502 -0.96045499870E+02 -0.19930172434E+03 -0.37338533268E+03  0.43400751380E+03  0.00000000000E+00 0.  1.
<mgrwt>
<rscale>  0 0.65986091E+03</rscale>
<asrwt>0</asrwt>
<pdfrwt beam="1">  1        1 0.29424065E+00 0.65986091E+03</pdfrwt>
<pdfrwt beam="2">  1       -2 0.50405195E-01 0.65986091E+03</pdfrwt>
<totfact> 0.11763510E+01</totfact>
</mgrwt>
</event>
<event>
12    3  0.1201947E-007  0.1170519E+04  0.7818608E-02  0.9139060E-01
          1   -1    0    0  501    0  0.00000000000E+00  0.00000000000E+00  0.22899494837E+04  0.22899494837E+04  0.00000000000E+00 0. -1.
         -2   -1    0    0    0  501 -0.00000000000E+00 -0.00000000000E+00 -0.75460223011E+03  0.75460223011E+03  0.00000000000E+00 0.  1.
        -24    2    1    2    0    0 -0.95858928249E+03 -0.53019349694E+03  0.43733439608E+02  0.10990680472E+04  0.77713589100E+02 0.  0.
    5000000    2    1    2    0    0  0.95858928249E+03  0.53019349694E+03  0.14916138139E+04  0.19454836666E+04  0.59999697520E+03 0.  0.
        -24    2    4    4    0    0 -0.57730389399E+02  0.10225146040E+03  0.19869185049E+03  0.24422094436E+03  0.79857743506E+02 0.  0.
         24    2    4    4    0    0  0.10163196719E+04  0.42794203653E+03  0.12929219634E+04  0.17012627222E+04  0.81287048832E+02 0.  0.
         11    1    3    3    0    0 -0.31358755494E+03 -0.17144564803E+03 -0.22128520005E+02  0.35807881289E+03  0.00000000000E+00 0. -1.
        -12    1    3    3    0    0 -0.64500172755E+03 -0.35874784891E+03  0.65861959614E+02  0.74098923431E+03  0.00000000000E+00 0.  1.
         15    1    5    5    0    0 -0.63590458232E+02  0.33678688186E+02  0.11738676029E+03  0.13769825575E+03  0.17770000000E+01 0. -1.
        -16    1    5    5    0    0  0.58600688330E+01  0.68572772217E+02  0.81305090204E+02  0.10652268861E+03  0.00000000000E+00 0.  1.
          2    1    6    6  502    0  0.76380043715E+03  0.28965861910E+03  0.92449144463E+03  0.12336845847E+04  0.00000000000E+00 0. -1.
         -1    1    6    6    0  502  0.25251923474E+03  0.13828341744E+03  0.36843051881E+03  0.46757813747E+03  0.00000000000E+00 0.  1.
<mgrwt>
<rscale>  0 0.11705186E+04</rscale>
<asrwt>0</asrwt>
<pdfrwt beam="1">  1        1 0.35229992E+00 0.11705186E+04</pdfrwt>
<pdfrwt beam="2">  1       -2 0.11609265E+00 0.11705186E+04</pdfrwt>
<totfact> 0.94290931E-01</totfact>
</mgrwt>
</event>
<event>
12    3  0.1201947E-007  0.7856644E+03  0.7818608E-02  0.9581002E-01
          1   -1    0    0  501    0  0.00000000000E+00  0.00000000000E+00  0.12991645470E+04  0.12991645470E+04  0.00000000000E+00 0. -1.
         -2   -1    0    0    0  501 -0.00000000000E+00 -0.00000000000E+00 -0.76730299714E+03  0.76730299714E+03  0.00000000000E+00 0.  1.
        -24    2    1    2    0    0  0.58525092810E+03  0.43470132249E+03 -0.31491942904E+03  0.79820077844E+03  0.80413601495E+02 0.  0.
    5000000    2    1    2    0    0 -0.58525092810E+03 -0.43470132249E+03  0.84678097891E+03  0.12682667657E+04  0.59998222820E+03 0.  0.
        -24    2    4    4    0    0 -0.60132614716E+03 -0.47485391007E+03  0.88159126131E+03  0.11709641053E+04  0.82912077804E+02 0.  0.
         24    2    4    4    0    0  0.16075219062E+02  0.40152587581E+02 -0.34810282397E+02  0.97302660446E+02  0.79908754289E+02 0.  0.
         13    1    3    3    0    0  0.19521997239E+03  0.18059960897E+03 -0.86367784477E+02  0.27961840171E+03  0.00000000000E+00 0. -1.
        -14    1    3    3    0    0  0.39003095571E+03  0.25410171352E+03 -0.22855164456E+03  0.51858237673E+03  0.00000000000E+00 0.  1.
         15    1    5    5    0    0 -0.27993629512E+03 -0.20051056364E+03  0.45391699417E+03  0.56974784842E+03  0.17770000000E+01 0. -1.
        -16    1    5    5    0    0 -0.32138985203E+03 -0.27434334643E+03  0.42767426714E+03  0.60121625685E+03  0.00000000000E+00 0.  1.
          2    1    6    6  502    0  0.37930795519E+02  0.32092612005E+02  0.62675784529E+01  0.50079572019E+02  0.00000000000E+00 0. -1.
         -1    1    6    6    0  502 -0.21855576457E+02  0.80599755763E+01 -0.41077860850E+02  0.47223088427E+02  0.00000000000E+00 0.  1.
<mgrwt>
<rscale>  0 0.78566443E+03</rscale>
<asrwt>0</asrwt>
<pdfrwt beam="1">  1        1 0.19987147E+00 0.78566443E+03</pdfrwt>
<pdfrwt beam="2">  1       -2 0.11804661E+00 0.78566443E+03</pdfrwt>
<totfact> 0.45017032E+00</totfact>
</mgrwt>
</event>
<event>
12    3  0.1201947E-007  0.6438530E+03  0.7818608E-02  0.9818382E-01
         -2   -1    0    0    0  501 -0.00000000000E+00  0.00000000000E+00  0.15659480774E+04  0.15659480774E+04  0.00000000000E+00 0.  1.
          1   -1    0    0  501    0  0.00000000000E+00 -0.00000000000E+00 -0.51248100044E+03  0.51248100044E+03  0.00000000000E+00 0. -1.
        -24    2    1    2    0    0  0.31254117093E+03 -0.51283139306E+03 -0.13238088629E+03  0.62000116516E+03  0.78731978988E+02 0.  0.
    5000000    2    1    2    0    0 -0.31254117093E+03  0.51283139306E+03  0.11858479632E+04  0.14584279126E+04  0.60008213045E+03 0.  0.
        -24    2    4    4    0    0 -0.12965008102E+03  0.45344366382E+03  0.33884375342E+03  0.58604979499E+03  0.78860466773E+02 0.  0.
         24    2    4    4    0    0 -0.18289108991E+03  0.59387729245E+02  0.84700420979E+03  0.87237811764E+03  0.81556088598E+02 0.  0.
         11    1    3    3    0    0  0.14568696194E+03 -0.20121151134E+03 -0.88962890764E+02  0.26386579753E+03  0.00000000000E+00 0. -1.
        -12    1    3    3    0    0  0.16685420899E+03 -0.31161988173E+03 -0.43417995524E+02  0.35613536763E+03  0.00000000000E+00 0.  1.
         15    1    5    5    0    0 -0.17004114147E+02  0.18926695656E+03  0.15299215754E+03  0.24396901185E+03  0.17770000000E+01 0. -1.
        -16    1    5    5    0    0 -0.11264596687E+03  0.26417670726E+03  0.18585159588E+03  0.34208078315E+03  0.00000000000E+00 0.  1.
          4    1    6    6  502    0 -0.11580454478E+03 -0.45688327011E+01  0.44768224044E+03  0.46244021801E+03  0.00000000000E+00 0. -1.
         -3    1    6    6    0  502 -0.67086545130E+02  0.63956561946E+02  0.39932196935E+03  0.40993789964E+03  0.00000000000E+00 0.  1.
<mgrwt>
<rscale>  0 0.64385302E+03</rscale>
<asrwt>0</asrwt>
<pdfrwt beam="1">  1        1 0.78843232E-01 0.64385302E+03</pdfrwt>
<pdfrwt beam="2">  1       -2 0.24091509E+00 0.64385302E+03</pdfrwt>
<totfact> 0.28773966E+00</totfact>
</mgrwt>
</event>
<event>
12    3  0.1201947E-007  0.1005991E+04  0.7818608E-02  0.9301998E-01
         -4   -1    0    0    0  501 -0.00000000000E+00  0.00000000000E+00  0.63545934362E+03  0.63545934362E+03  0.00000000000E+00 0.  1.
          3   -1    0    0  501    0  0.00000000000E+00 -0.00000000000E+00 -0.16378753434E+04  0.16378753434E+04  0.00000000000E+00 0. -1.
        -24    2    1    2    0    0  0.25520291296E+03 -0.88871403332E+03 -0.57090849359E+03  0.10896602715E+04  0.80509872146E+02 0.  0.
    5000000    2    1    2    0    0 -0.25520291296E+03  0.88871403332E+03 -0.43150750622E+03  0.11836744155E+04  0.59995436010E+03 0.  0.
        -24    2    4    4    0    0 -0.32948347410E+03  0.20659322960E+03 -0.25162368746E+03  0.46997903470E+03  0.79534211162E+02 0.  0.
         24    2    4    4    0    0  0.74280561143E+02  0.68212080372E+03 -0.17988381876E+03  0.71369538081E+03  0.78717950316E+02 0.  0.
         13    1    3    3    0    0  0.69612991008E+02 -0.30817146423E+03 -0.23487735002E+03  0.39367878967E+03  0.00000000000E+00 0. -1.
        -14    1    3    3    0    0  0.18558992195E+03 -0.58054256909E+03 -0.33603114356E+03  0.69598148186E+03  0.00000000000E+00 0.  1.
         15    1    5    5    0    0 -0.31090984937E+03  0.21229666219E+03 -0.24609372082E+03  0.44977781667E+03  0.17770000000E+01 0. -1.
        -16    1    5    5    0    0 -0.18573624733E+02 -0.57034325882E+01 -0.55299666421E+01  0.20201218034E+02  0.00000000000E+00 0.  1.
          2    1    6    6  502    0  0.23098891169E+02  0.52279340061E+03 -0.13522766935E+03  0.54049331268E+03  0.00000000000E+00 0. -1.
         -1    1    6    6    0  502  0.51181669974E+02  0.15932740311E+03 -0.44656149408E+02  0.17320206813E+03  0.00000000000E+00 0.  1.
<mgrwt>
<rscale>  0 0.10059913E+04</rscale>
<asrwt>0</asrwt>
<pdfrwt beam="1">  1        3 0.25198082E+00 0.10059913E+04</pdfrwt>
<pdfrwt beam="2">  1       -4 0.97762977E-01 0.10059913E+04</pdfrwt>
<totfact> 0.13965342E-01</totfact>
</mgrwt>
</event>
<event>
12    3  0.1201947E-007  0.8713846E+03  0.7818608E-02  0.9462076E-01
         -2   -1    0    0    0  501 -0.00000000000E+00  0.00000000000E+00  0.57688431273E+03  0.57688431273E+03  0.00000000000E+00 0.  1.
          1   -1    0    0  501    0  0.00000000000E+00 -0.00000000000E+00 -0.16257289711E+04  0.16257289711E+04  0.00000000000E+00 0. -1.
        -24    2    1    2    0    0 -0.46905953677E+03 -0.61334341143E+03 -0.93955826947E+03  0.12186892461E+04  0.78909742416E+02 0.  0.
    5000000    2    1    2    0    0  0.46905953677E+03  0.61334341143E+03 -0.10928638885E+03  0.98392403769E+03  0.59996333869E+03 0.  0.
        -24    2    4    4    0    0 -0.62953009669E+02  0.37488515326E+03 -0.61126871581E+02  0.39283616624E+03  0.77985893077E+02 0.  0.
         24    2    4    4    0    0  0.53201254644E+03  0.23845825817E+03 -0.48159517270E+02  0.59108787145E+03  0.84651297729E+02 0.  0.
         11    1    3    3    0    0 -0.30276988076E+03 -0.34398740560E+03 -0.51994192220E+03  0.69306315612E+03  0.00000000000E+00 0. -1.
        -12    1    3    3    0    0 -0.16628965601E+03 -0.26935600583E+03 -0.41961634727E+03  0.52562608998E+03  0.00000000000E+00 0.  1.
         15    1    5    5    0    0 -0.41900941338E+02  0.21928699997E+03  0.28683737110E+01  0.22327978533E+03  0.17770000000E+01 0. -1.
        -16    1    5    5    0    0 -0.21052068331E+02  0.15559815329E+03 -0.63995245292E+02  0.16955638091E+03  0.00000000000E+00 0.  1.
          2    1    6    6  502    0  0.28327184798E+03  0.16721722792E+03 -0.64629701014E+01  0.32900807157E+03  0.00000000000E+00 0. -1.
         -1    1    6    6    0  502  0.24874069846E+03  0.71241030257E+02 -0.41696547168E+02  0.26207979988E+03  0.00000000000E+00 0.  1.
<mgrwt>
<rscale>  0 0.87138461E+03</rscale>
<asrwt>0</asrwt>
<pdfrwt beam="1">  1        1 0.25011215E+00 0.87138461E+03</pdfrwt>
<pdfrwt beam="2">  1       -2 0.88751434E-01 0.87138461E+03</pdfrwt>
<totfact> 0.52247391E+00</totfact>
</mgrwt>
</event>
<event>
12    3  0.1201947E-007  0.8271283E+03  0.7818608E-02  0.9521559E-01
         -2   -1    0    0    0  501 -0.00000000000E+00  0.00000000000E+00  0.53702076938E+03  0.53702076938E+03  0.00000000000E+00 0.  1.
          1   -1    0    0  501    0  0.00000000000E+00 -0.00000000000E+00 -0.16316612915E+04  0.16316612915E+04  0.00000000000E+00 0. -1.
        -24    2    1    2    0    0  0.44926316366E+02 -0.81662917160E+03 -0.28190847559E+03  0.86889707174E+03  0.81290558266E+02 0.  0.
    5000000    2    1    2    0    0 -0.44926316366E+02  0.81662917160E+03 -0.81273204654E+03  0.12997849891E+04  0.60000505059E+03 0.  0.
        -24    2    4    4    0    0 -0.17836225617E+02  0.60519434133E+03 -0.19432644465E+03  0.64086119327E+03  0.79762022472E+02 0.  0.
         24    2    4    4    0    0 -0.27090090748E+02  0.21143483028E+03 -0.61840560189E+03  0.65892379588E+03  0.79476536531E+02 0.  0.
         11    1    3    3    0    0  0.58325428832E+02 -0.39035974978E+03 -0.15368752163E+03  0.42355925701E+03  0.00000000000E+00 0. -1.
        -12    1    3    3    0    0 -0.13399112466E+02 -0.42626942182E+03 -0.12822095396E+03  0.44533781473E+03  0.00000000000E+00 0.  1.
         15    1    5    5    0    0  0.13187315463E+02  0.22871902966E+03 -0.38902800260E+02  0.23238520911E+03  0.17770000000E+01 0. -1.
        -16    1    5    5    0    0 -0.31023541080E+02  0.37647531167E+03 -0.15542364439E+03  0.40847598416E+03  0.00000000000E+00 0.  1.
          2    1    6    6  502    0 -0.32301664423E+02  0.28088536349E+02 -0.14649327042E+03  0.15261927033E+03  0.00000000000E+00 0. -1.
         -1    1    6    6    0  502  0.52115736741E+01  0.18334629393E+03 -0.47191233147E+03  0.50630452555E+03  0.00000000000E+00 0.  1.
<mgrwt>
<rscale>  0 0.82712832E+03</rscale>
<asrwt>0</asrwt>
<pdfrwt beam="1">  1        1 0.25102481E+00 0.82712832E+03</pdfrwt>
<pdfrwt beam="2">  1       -2 0.82618581E-01 0.82712832E+03</pdfrwt>
<totfact> 0.61324630E+00</totfact>
</mgrwt>
</event>
<event>
12    3  0.1201947E-007  0.1028596E+04  0.7818608E-02  0.9277725E-01
          1   -1    0    0  501    0  0.00000000000E+00  0.00000000000E+00  0.16119592718E+04  0.16119592718E+04  0.00000000000E+00 0. -1.
         -2   -1    0    0    0  501 -0.00000000000E+00 -0.00000000000E+00 -0.88012148082E+03  0.88012148082E+03  0.00000000000E+00 0.  1.
        -24    2    1    2    0    0 -0.12199194738E+03  0.93669537785E+03  0.96103839363E+03  0.13497821970E+04  0.77697613869E+02 0.  0.
    5000000    2    1    2    0    0  0.12199194738E+03 -0.93669537785E+03 -0.22920060269E+03  0.11422985556E+04  0.60002733913E+03 0.  0.
        -24    2    4    4    0    0 -0.21681576763E+03 -0.20538128709E+03 -0.70784537929E+02  0.31701093421E+03  0.79340603848E+02 0.  0.
         24    2    4    4    0    0  0.33880771501E+03 -0.73131409076E+03 -0.15841606476E+03  0.82528762137E+03  0.79956496480E+02 0.  0.
         13    1    3    3    0    0 -0.27886466780E+02  0.17375148962E+03  0.22350913385E+03  0.28447068055E+03  0.00000000000E+00 0. -1.
        -14    1    3    3    0    0 -0.94105480603E+02  0.76294388823E+03  0.73752925978E+03  0.10653115165E+04  0.00000000000E+00 0.  1.
         15    1    5    5    0    0 -0.20621509944E+03 -0.20930506813E+03 -0.77478599427E+02  0.30387393748E+03  0.17770000000E+01 0. -1.
        -16    1    5    5    0    0 -0.10600668183E+02  0.39237810407E+01  0.66940614977E+01  0.13136996723E+02  0.00000000000E+00 0.  1.
          4    1    6    6  502    0  0.12568901168E+03 -0.32677651487E+03 -0.10140860525E+03  0.36450558781E+03  0.00000000000E+00 0. -1.
         -3    1    6    6    0  502  0.21311870333E+03 -0.40453757588E+03 -0.57007459511E+02  0.46078203356E+03  0.00000000000E+00 0.  1.
<mgrwt>
<rscale>  0 0.10285961E+04</rscale>
<asrwt>0</asrwt>
<pdfrwt beam="1">  1        1 0.24799373E+00 0.10285961E+04</pdfrwt>
<pdfrwt beam="2">  1       -2 0.13540330E+00 0.10285961E+04</pdfrwt>
<totfact> 0.18733687E+00</totfact>
</mgrwt>
</event>
<event>
12    3  0.1201947E-007  0.5863424E+03  0.7818608E-02  0.9934153E-01
         -2   -1    0    0    0  501 -0.00000000000E+00  0.00000000000E+00  0.27000913732E+03  0.27000913732E+03  0.00000000000E+00 0.  1.
          1   -1    0    0  501    0  0.00000000000E+00 -0.00000000000E+00 -0.29866262380E+04  0.29866262380E+04  0.00000000000E+00 0. -1.
        -24    2    1    2    0    0  0.57106472086E+03  0.81668258646E+00 -0.20462084135E+03  0.61160234672E+03  0.77924061805E+02 0.  0.
    5000000    2    1    2    0    0 -0.57106472086E+03 -0.81668258646E+00 -0.25119962594E+04  0.26450330286E+04  0.59996577663E+03 0.  0.
        -24    2    4    4    0    0 -0.22584420767E+03  0.73105955011E+02 -0.24785096052E+03  0.35214611491E+03  0.78909446961E+02 0.  0.
         24    2    4    4    0    0 -0.34522051319E+03 -0.73922637598E+02 -0.22641452988E+04  0.22928869137E+04  0.79590864903E+02 0.  0.
         11    1    3    3    0    0  0.13335762904E+03  0.13798074082E+02 -0.80793014101E+02  0.15653164281E+03  0.00000000000E+00 0. -1.
        -12    1    3    3    0    0  0.43770709182E+03 -0.12981391495E+02 -0.12382782725E+03  0.45507070391E+03  0.00000000000E+00 0.  1.
         15    1    5    5    0    0 -0.18226288911E+03  0.82334412406E+02 -0.22824191828E+03  0.30347363510E+03  0.17770000000E+01 0. -1.
        -16    1    5    5    0    0 -0.43581318555E+02 -0.92284573952E+01 -0.19609042243E+02  0.48672479807E+02  0.00000000000E+00 0.  1.
          4    1    6    6  502    0 -0.14972574230E+03 -0.83269654862E+01 -0.11598752555E+04  0.11695288558E+04  0.00000000000E+00 0. -1.
         -3    1    6    6    0  502 -0.19549477089E+03 -0.65595672112E+02 -0.11042700433E+04  0.11233580579E+04  0.00000000000E+00 0.  1.
<mgrwt>
<rscale>  0 0.58634239E+03</rscale>
<asrwt>0</asrwt>
<pdfrwt beam="1">  1        1 0.45948097E+00 0.58634239E+03</pdfrwt>
<pdfrwt beam="2">  1       -2 0.41539866E-01 0.58634239E+03</pdfrwt>
<totfact> 0.32582773E+00</totfact>
</mgrwt>
</event>
<event>
12    3  0.1641802E-007  0.2240851E+04  0.7818608E-02  0.8501615E-01
         -2   -1    0    0    0  501 -0.00000000000E+00  0.00000000000E+00  0.26124334648E+04  0.26124334648E+04  0.00000000000E+00 0.  1.
          1   -1    0    0  501    0  0.00000000000E+00 -0.00000000000E+00 -0.19865207075E+04  0.19865207075E+04  0.00000000000E+00 0. -1.
        -24    2    1    2    0    0 -0.21615257176E+04 -0.57871481399E+03  0.34066256616E+03  0.22648332067E+04  0.79461978745E+02 0.  0.
    5000000    2    1    2    0    0  0.21615257176E+04  0.57871481399E+03  0.28525019113E+03  0.23341209657E+04  0.59970721785E+03 0.  0.
        -24    2    4    4    0    0  0.99917000972E+03  0.32063531589E+03 -0.14597936642E+03  0.10652305253E+04  0.11071757959E+03 0.  0.
         24    2    4    4    0    0  0.11623557079E+04  0.25807949810E+03  0.43122955756E+03  0.12688904404E+04  0.80300681717E+02 0.  0.
         13    1    3    3    0    0 -0.87043095802E+03 -0.27213119153E+03  0.14880829320E+03  0.92403968866E+03  0.00000000000E+00 0. -1.
        -14    1    3    3    0    0 -0.12910947596E+04 -0.30658362246E+03  0.19185427297E+03  0.13407935180E+04  0.00000000000E+00 0.  1.
         15    1    5    5    0    0  0.36863547737E+03  0.10706622391E+03 -0.10633898463E+03  0.39832954806E+03  0.17770000000E+01 0. -1.
        -16    1    5    5    0    0  0.63053453235E+03  0.21356909198E+03 -0.39640381793E+02  0.66690097721E+03  0.00000000000E+00 0.  1.
          2    1    6    6  502    0  0.60829470911E+03  0.95782082831E+02  0.23514344640E+03  0.65915787252E+03  0.00000000000E+00 0. -1.
         -1    1    6    6    0  502  0.55406099880E+03  0.16229741527E+03  0.19608611116E+03  0.60973256792E+03  0.00000000000E+00 0.  1.
<mgrwt>
<rscale>  0 0.22408508E+04</rscale>
<asrwt>0</asrwt>
<pdfrwt beam="1">  1        1 0.30561857E+00 0.22408508E+04</pdfrwt>
<pdfrwt beam="2">  1       -2 0.40191284E+00 0.22408508E+04</pdfrwt>
<totfact> 0.16653663E-02</totfact>
</mgrwt>
</event>
<event>
12    3  0.1201947E-007  0.4626628E+03  0.7818608E-02  0.1024012E+00
          3   -1    0    0  501    0  0.00000000000E+00  0.00000000000E+00  0.99019729310E+03  0.99019729310E+03  0.00000000000E+00 0. -1.
         -4   -1    0    0    0  501 -0.00000000000E+00 -0.00000000000E+00 -0.26163266678E+03  0.26163266678E+03  0.00000000000E+00 0.  1.
        -24    2    1    2    0    0  0.17277424214E+03 -0.25735083328E+03  0.36154966216E+03  0.48296134280E+03  0.80331253507E+02 0.  0.
    5000000    2    1    2    0    0 -0.17277424214E+03  0.25735083328E+03  0.36701496415E+03  0.76886861709E+03  0.60031539735E+03 0.  0.
        -24    2    4    4    0    0  0.14980803169E+03 -0.41923582832E+02  0.25285680934E+03  0.30743661291E+03  0.79879107224E+02 0.  0.
         24    2    4    4    0    0 -0.32258227383E+03  0.29927441611E+03  0.11415815482E+03  0.46143200418E+03  0.79138553432E+02 0.  0.
         11    1    3    3    0    0  0.10482653088E+03 -0.21639394909E+03  0.26087194878E+03  0.35478037775E+03  0.00000000000E+00 0. -1.
        -12    1    3    3    0    0  0.67947711255E+02 -0.40956884193E+02  0.10067771338E+03  0.12818096504E+03  0.00000000000E+00 0.  1.
         15    1    5    5    0    0  0.20931206113E+01  0.66056571828E+01 -0.32267226566E+01  0.78476320513E+01  0.17770000000E+01 0. -1.
        -16    1    5    5    0    0  0.14771491108E+03 -0.48529240015E+02  0.25608353199E+03  0.29958898086E+03  0.00000000000E+00 0.  1.
          2    1    6    6  502    0 -0.10450938348E+03  0.13026610164E+03  0.12770837719E+02  0.16749496342E+03  0.00000000000E+00 0. -1.
         -1    1    6    6    0  502 -0.21807289035E+03  0.16900831447E+03  0.10138731710E+03  0.29393704076E+03  0.00000000000E+00 0.  1.
<mgrwt>
<rscale>  0 0.46266277E+03</rscale>
<asrwt>0</asrwt>
<pdfrwt beam="1">  1        3 0.15233804E+00 0.46266277E+03</pdfrwt>
<pdfrwt beam="2">  1       -4 0.40251180E-01 0.46266277E+03</pdfrwt>
<totfact> 0.42424631E+00</totfact>
</mgrwt>
</event>
<event>
12    3  0.1201947E-007  0.7805051E+03  0.7818608E-02  0.9588672E-01
         -2   -1    0    0    0  501 -0.00000000000E+00  0.00000000000E+00  0.61993516832E+03  0.61993516832E+03  0.00000000000E+00 0.  1.
          1   -1    0    0  501    0  0.00000000000E+00 -0.00000000000E+00 -0.14216837525E+04  0.14216837525E+04  0.00000000000E+00 0. -1.
        -24    2    1    2    0    0  0.47081027165E+03  0.49636340496E+03  0.17146634126E+03  0.70921988996E+03  0.74519826004E+02 0.  0.
    5000000    2    1    2    0    0 -0.47081027165E+03 -0.49636340496E+03 -0.97321492541E+03  0.13323990308E+04  0.60008411466E+03 0.  0.
        -24    2    4    4    0    0 -0.13101024375E+03 -0.50180799472E+03 -0.39659286967E+03  0.65771580825E+03  0.79556474455E+02 0.  0.
         24    2    4    4    0    0 -0.33980002790E+03  0.54445897607E+01 -0.57662205574E+03  0.67468322258E+03  0.84916153626E+02 0.  0.
         11    1    3    3    0    0  0.32731269357E+03  0.29843308311E+03  0.94421043117E+02  0.45289208190E+03  0.00000000000E+00 0. -1.
        -12    1    3    3    0    0  0.14349757808E+03  0.19793032185E+03  0.77045298140E+02  0.25632780806E+03  0.00000000000E+00 0.  1.
         15    1    5    5    0    0 -0.73548840374E+02 -0.39790911551E+03 -0.32556643467E+03  0.51936283775E+03  0.17770000000E+01 0. -1.
        -16    1    5    5    0    0 -0.57461403373E+02 -0.10389887921E+03 -0.71026435000E+02  0.13835297050E+03  0.00000000000E+00 0.  1.
          2    1    6    6  502    0 -0.40157110669E+02  0.29166980830E+02 -0.76789970790E+02  0.91433067989E+02  0.00000000000E+00 0. -1.
         -1    1    6    6    0  502 -0.29964291723E+03 -0.23722391069E+02 -0.49983208495E+03  0.58325015459E+03  0.00000000000E+00 0.  1.
<mgrwt>
<rscale>  0 0.78050515E+03</rscale>
<asrwt>0</asrwt>
<pdfrwt beam="1">  1        1 0.21872058E+00 0.78050515E+03</pdfrwt>
<pdfrwt beam="2">  1       -2 0.95374642E-01 0.78050515E+03</pdfrwt>
<totfact> 0.61729275E+00</totfact>
</mgrwt>
</event>
<event>
12    3  0.1201947E-007  0.8322507E+03  0.7818608E-02  0.9514474E-01
         -2   -1    0    0    0  501 -0.00000000000E+00  0.00000000000E+00  0.40068757678E+03  0.40068757678E+03  0.00000000000E+00 0.  1.
          1   -1    0    0  501    0  0.00000000000E+00 -0.00000000000E+00 -0.28460525263E+04  0.28460525263E+04  0.00000000000E+00 0. -1.
        -24    2    1    2    0    0  0.70320281855E+03  0.28168197133E+03 -0.17885695464E+03  0.78286217688E+03  0.83931166883E+02 0.  0.
    5000000    2    1    2    0    0 -0.70320281855E+03 -0.28168197133E+03 -0.22665079948E+04  0.24638779262E+04  0.59983081562E+03 0.  0.
        -24    2    4    4    0    0 -0.75283143238E+03 -0.31836445327E+03 -0.16925226688E+04  0.18812497157E+04  0.79727146398E+02 0.  0.
         24    2    4    4    0    0  0.49628613823E+02  0.36682481945E+02 -0.57398532607E+03  0.58262821045E+03  0.78663036316E+02 0.  0.
         11    1    3    3    0    0  0.59653925749E+03  0.21735586536E+03 -0.12467486873E+03  0.64702896445E+03  0.00000000000E+00 0. -1.
        -12    1    3    3    0    0  0.10666356106E+03  0.64326105965E+02 -0.54182085914E+02  0.13583321243E+03  0.00000000000E+00 0.  1.
         15    1    5    5    0    0 -0.61953906764E+03 -0.29060633285E+03 -0.13797506995E+04  0.15401285165E+04  0.17770000000E+01 0. -1.
        -16    1    5    5    0    0 -0.13329236474E+03 -0.27758120420E+02 -0.31277196930E+03  0.34112119917E+03  0.00000000000E+00 0.  1.
          4    1    6    6  502    0  0.43590320874E+02 -0.36958762711E+01 -0.44938948513E+03  0.45151377046E+03  0.00000000000E+00 0. -1.
         -3    1    6    6    0  502  0.60382929495E+01  0.40378358216E+02 -0.12459584094E+03  0.13111443999E+03  0.00000000000E+00 0.  1.
<mgrwt>
<rscale>  0 0.83225075E+03</rscale>
<asrwt>0</asrwt>
<pdfrwt beam="1">  1        1 0.43785425E+00 0.83225075E+03</pdfrwt>
<pdfrwt beam="2">  1       -2 0.61644240E-01 0.83225075E+03</pdfrwt>
<totfact> 0.17418276E+00</totfact>
</mgrwt>
</event>
<event>
12    3  0.1201947E-007  0.8413244E+03  0.7818608E-02  0.9502056E-01
         -2   -1    0    0    0  501 -0.00000000000E+00  0.00000000000E+00  0.77485457828E+03  0.77485457828E+03  0.00000000000E+00 0.  1.
          1   -1    0    0  501    0  0.00000000000E+00 -0.00000000000E+00 -0.16022450132E+04  0.16022450132E+04  0.00000000000E+00 0. -1.
        -24    2    1    2    0    0 -0.84500718537E+02  0.78830859757E+03 -0.10885648661E+04  0.13490572943E+04  0.80070589524E+02 0.  0.
    5000000    2    1    2    0    0  0.84500718537E+02 -0.78830859757E+03  0.26117443116E+03  0.10280422971E+04  0.60007338283E+03 0.  0.
        -24    2    4    4    0    0 -0.37878140153E+02 -0.75903435963E+03  0.43867635721E+02  0.76536253086E+03  0.79293893785E+02 0.  0.
         24    2    4    4    0    0  0.12237885869E+03 -0.29274237945E+02  0.21730679544E+03  0.26267976628E+03  0.77102854724E+02 0.  0.
         11    1    3    3    0    0 -0.52956265632E+02  0.50281324751E+03 -0.62751188469E+03  0.80585153308E+03  0.00000000000E+00 0. -1.
        -12    1    3    3    0    0 -0.31544452905E+02  0.28549535006E+03 -0.46105298138E+03  0.54320576125E+03  0.00000000000E+00 0.  1.
         15    1    5    5    0    0 -0.44012905273E+02 -0.21607496401E+03  0.26328549292E+02  0.22208529024E+03  0.17770000000E+01 0. -1.
        -16    1    5    5    0    0  0.61347651205E+01 -0.54295939561E+03  0.17539086430E+02  0.54327724062E+03  0.00000000000E+00 0.  1.
          2    1    6    6  502    0  0.21228626502E+02 -0.94366137563E+01  0.11546011920E+03  0.11777412020E+03  0.00000000000E+00 0. -1.
         -1    1    6    6    0  502  0.10115023219E+03 -0.19837624189E+02  0.10184667624E+03  0.14490564608E+03  0.00000000000E+00 0.  1.
<mgrwt>
<rscale>  0 0.84132442E+03</rscale>
<asrwt>0</asrwt>
<pdfrwt beam="1">  1        1 0.24649923E+00 0.84132442E+03</pdfrwt>
<pdfrwt beam="2">  1       -2 0.11920840E+00 0.84132442E+03</pdfrwt>
<totfact> 0.26900195E+00</totfact>
</mgrwt>
</event>
<event>
12    3  0.1201947E-007  0.1020632E+04  0.7818608E-02  0.9286201E-01
         -2   -1    0    0    0  501 -0.00000000000E+00  0.00000000000E+00  0.13914363224E+04  0.13914363224E+04  0.00000000000E+00 0.  1.
          1   -1    0    0  501    0  0.00000000000E+00 -0.00000000000E+00 -0.86915036588E+03  0.86915036588E+03  0.00000000000E+00 0. -1.
        -24    2    1    2    0    0 -0.53865400386E+03  0.86087949234E+03  0.27501056235E+03  0.10552299299E+04  0.81349612118E+02 0.  0.
    5000000    2    1    2    0    0  0.53865400386E+03 -0.86087949234E+03  0.24727539415E+03  0.12053567583E+04  0.60039833284E+03 0.  0.
        -24    2    4    4    0    0  0.23001550473E+03 -0.30269608240E+03 -0.18530141528E+03  0.43012621492E+03  0.78357485495E+02 0.  0.
         24    2    4    4    0    0  0.30863849912E+03 -0.55818340994E+03  0.43257680943E+03  0.77523054341E+03  0.83864516358E+02 0.  0.
         13    1    3    3    0    0 -0.36799450671E+03  0.65457612912E+03  0.19634842897E+03  0.77617174088E+03  0.00000000000E+00 0. -1.
        -14    1    3    3    0    0 -0.17065949714E+03  0.20630336322E+03  0.78662133382E+02  0.27905818904E+03  0.00000000000E+00 0.  1.
         15    1    5    5    0    0  0.93578258242E+02 -0.77787465421E+02 -0.32724776646E+02  0.12602320789E+03  0.17770000000E+01 0. -1.
        -16    1    5    5    0    0  0.13643724649E+03 -0.22490861698E+03 -0.15257663863E+03  0.30410300702E+03  0.00000000000E+00 0.  1.
          2    1    6    6  502    0  0.28467277469E+03 -0.51667656471E+03  0.36975314648E+03  0.69621164203E+03  0.00000000000E+00 0. -1.
         -1    1    6    6    0  502  0.23965724437E+02 -0.41506845232E+02  0.62823662945E+02  0.79018901376E+02  0.00000000000E+00 0.  1.
<mgrwt>
<rscale>  0 0.10206318E+04</rscale>
<asrwt>0</asrwt>
<pdfrwt beam="1">  1        1 0.13371544E+00 0.10206318E+04</pdfrwt>
<pdfrwt beam="2">  1       -2 0.21406713E+00 0.10206318E+04</pdfrwt>
<totfact> 0.18154997E+00</totfact>
</mgrwt>
</event>
<event>
12    3  0.1201947E-007  0.7747131E+03  0.7818608E-02  0.9597358E-01
         -2   -1    0    0    0  501 -0.00000000000E+00  0.00000000000E+00  0.66803491855E+03  0.66803491855E+03  0.00000000000E+00 0.  1.
          1   -1    0    0  501    0  0.00000000000E+00 -0.00000000000E+00 -0.18898731242E+04  0.18898731242E+04  0.00000000000E+00 0. -1.
        -24    2    1    2    0    0  0.66058408766E+03  0.22209892493E+02 -0.14847925831E+04  0.16273316461E+04  0.82064946122E+02 0.  0.
    5000000    2    1    2    0    0 -0.66058408766E+03 -0.22209892493E+02  0.26295437742E+03  0.93057639668E+03  0.59996900691E+03 0.  0.
        -24    2    4    4    0    0 -0.29385282981E+03  0.27683663557E+03  0.10328185383E+03  0.42484684799E+03  0.82702445767E+02 0.  0.
         24    2    4    4    0    0 -0.36673125785E+03 -0.29904652806E+03  0.15967252358E+03  0.50572954869E+03  0.79664422411E+02 0.  0.
         11    1    3    3    0    0  0.12844916672E+03 -0.26710014825E+02 -0.31727846209E+03  0.34333400039E+03  0.00000000000E+00 0. -1.
        -12    1    3    3    0    0  0.53213492094E+03  0.48919907319E+02 -0.11675141210E+04  0.12839976457E+04  0.00000000000E+00 0.  1.
         15    1    5    5    0    0 -0.22493512595E+03  0.16507880030E+03  0.88515633422E+02  0.29271999639E+03  0.17770000000E+01 0. -1.
        -16    1    5    5    0    0 -0.68917703854E+02  0.11175783527E+03  0.14766220410E+02  0.13212685160E+03  0.00000000000E+00 0.  1.
          2    1    6    6  502    0 -0.12048631940E+03 -0.87616518497E+02  0.12922289163E+02  0.14953458809E+03  0.00000000000E+00 0. -1.
         -1    1    6    6    0  502 -0.24624493845E+03 -0.21143000957E+03  0.14675023442E+03  0.35619496060E+03  0.00000000000E+00 0.  1.
<mgrwt>
<rscale>  0 0.77471307E+03</rscale>
<asrwt>0</asrwt>
<pdfrwt beam="1">  1        1 0.29074971E+00 0.77471307E+03</pdfrwt>
<pdfrwt beam="2">  1       -2 0.10277460E+00 0.77471307E+03</pdfrwt>
<totfact> 0.24944717E+00</totfact>
</mgrwt>
</event>
<event>
12    3  0.1201947E-007  0.4163309E+03  0.7818608E-02  0.1038267E+00
          1   -1    0    0  501    0  0.00000000000E+00  0.00000000000E+00  0.15468578083E+04  0.15468578083E+04  0.00000000000E+00 0. -1.
         -2   -1    0    0    0  501 -0.00000000000E+00 -0.00000000000E+00 -0.16668681740E+03  0.16668681740E+03  0.00000000000E+00 0.  1.
        -24    2    1    2    0    0  0.19597862603E+03  0.22899660689E+03  0.25180589569E+03  0.40044488957E+03  0.78120628857E+02 0.  0.
    5000000    2    1    2    0    0 -0.19597862603E+03 -0.22899660689E+03  0.11283650952E+04  0.13130997362E+04  0.60014669966E+03 0.  0.
        -24    2    4    4    0    0 -0.28812727260E+03 -0.19489581426E+02  0.21711028866E+03  0.37014093706E+03  0.80437968917E+02 0.  0.
         24    2    4    4    0    0  0.92148646572E+02 -0.20950702547E+03  0.91125480657E+03  0.94295879909E+03  0.80008796414E+02 0.  0.
         13    1    3    3    0    0  0.70945400014E+02  0.13448831831E+03  0.98301297984E+02  0.18106215157E+03  0.00000000000E+00 0. -1.
        -14    1    3    3    0    0  0.12503322601E+03  0.94508288585E+02  0.15350459771E+03  0.21938273801E+03  0.00000000000E+00 0.  1.
         15    1    5    5    0    0 -0.50553685818E+02  0.12846013832E+02  0.96362577707E+01  0.53072689908E+02  0.17770000000E+01 0. -1.
        -16    1    5    5    0    0 -0.23757358678E+03 -0.32335595258E+02  0.20747403089E+03  0.31706824715E+03  0.00000000000E+00 0.  1.
          2    1    6    6  502    0  0.84416504149E+02 -0.15175996116E+03  0.54214009625E+03  0.56927420102E+03  0.00000000000E+00 0. -1.
         -1    1    6    6    0  502  0.77321424231E+01 -0.57747064308E+02  0.36911471033E+03  0.37368459808E+03  0.00000000000E+00 0.  1.
<mgrwt>
<rscale>  0 0.41633092E+03</rscale>
<asrwt>0</asrwt>
<pdfrwt beam="1">  1        1 0.23797811E+00 0.41633092E+03</pdfrwt>
<pdfrwt beam="2">  1       -2 0.25644127E-01 0.41633092E+03</pdfrwt>
<totfact> 0.77906121E+01</totfact>
</mgrwt>
</event>
<event>
12    3  0.1201947E-007  0.1186161E+04  0.7818608E-02  0.9125056E-01
         -2   -1    0    0    0  501 -0.00000000000E+00  0.00000000000E+00  0.10795868001E+04  0.10795868001E+04  0.00000000000E+00 0.  1.
          1   -1    0    0  501    0  0.00000000000E+00 -0.00000000000E+00 -0.13531378278E+04  0.13531378278E+04  0.00000000000E+00 0. -1.
        -24    2    1    2    0    0 -0.78863137466E+03  0.79722640050E+03 -0.28934325511E+03  0.11608972283E+04  0.80333533564E+02 0.  0.
    5000000    2    1    2    0    0  0.78863137466E+03 -0.79722640050E+03  0.15792227332E+02  0.12718273996E+04  0.59982177454E+03 0.  0.
        -24    2    4    4    0    0 -0.31449928017E+02 -0.25929971983E+03  0.92815745917E+02  0.28498974904E+03  0.66173648026E+02 0.  0.
         24    2    4    4    0    0  0.82008130268E+03 -0.53792668067E+03 -0.77023518585E+02  0.98683765058E+03  0.77572349425E+02 0.  0.
         11    1    3    3    0    0 -0.46879470283E+03  0.51577752938E+03 -0.20587002927E+03  0.72675814558E+03  0.00000000000E+00 0. -1.
        -12    1    3    3    0    0 -0.31983667183E+03  0.28144887112E+03 -0.83473225842E+02  0.43413908271E+03  0.00000000000E+00 0.  1.
         15    1    5    5    0    0  0.17045621560E+02 -0.11533764972E+03  0.28575793637E+02  0.12005440587E+03  0.17770000000E+01 0. -1.
        -16    1    5    5    0    0 -0.48495549577E+02 -0.14396207010E+03  0.64239952279E+02  0.16493534317E+03  0.00000000000E+00 0.  1.
          2    1    6    6  502    0  0.34083234693E+03 -0.22034634546E+03 -0.70144945724E+02  0.41187317719E+03  0.00000000000E+00 0. -1.
         -1    1    6    6    0  502  0.47924895574E+03 -0.31758033521E+03 -0.68785728609E+01  0.57496447339E+03  0.00000000000E+00 0.  1.
<mgrwt>
<rscale>  0 0.11861614E+04</rscale>
<asrwt>0</asrwt>
<pdfrwt beam="1">  1        1 0.20817505E+00 0.11861614E+04</pdfrwt>
<pdfrwt beam="2">  1       -2 0.16609028E+00 0.11861614E+04</pdfrwt>
<totfact> 0.16138752E+00</totfact>
</mgrwt>
</event>
<event>
12    3  0.1201947E-007  0.7252502E+03  0.7818608E-02  0.9674999E-01
          1   -1    0    0  501    0  0.00000000000E+00  0.00000000000E+00  0.12855491667E+04  0.12855491667E+04  0.00000000000E+00 0. -1.
         -2   -1    0    0    0  501 -0.00000000000E+00 -0.00000000000E+00 -0.45203057869E+03  0.45203057869E+03  0.00000000000E+00 0.  1.
        -24    2    1    2    0    0 -0.18907264919E+03  0.60789189986E+03  0.26514418566E+03  0.69430666398E+03  0.80493949318E+02 0.  0.
    5000000    2    1    2    0    0  0.18907264919E+03 -0.60789189986E+03  0.56837440234E+03  0.10432730814E+04  0.60007352263E+03 0.  0.
        -24    2    4    4    0    0  0.16993380792E+03 -0.69129326012E+03  0.58576149010E+03  0.92587423786E+03  0.85806238055E+02 0.  0.
         24    2    4    4    0    0  0.19138841268E+02  0.83401360264E+02 -0.17387087758E+02  0.11739884354E+03  0.78473533791E+02 0.  0.
         11    1    3    3    0    0 -0.12692586610E+03  0.29497570437E+03  0.15698871817E+03  0.35744412051E+03  0.00000000000E+00 0. -1.
        -12    1    3    3    0    0 -0.62146783083E+02  0.31291619549E+03  0.10815546749E+03  0.33686254347E+03  0.00000000000E+00 0.  1.
         15    1    5    5    0    0  0.78952842337E+02 -0.47792933572E+03  0.41455086203E+03  0.63757789814E+03  0.17770000000E+01 0. -1.
        -16    1    5    5    0    0  0.90980965582E+02 -0.21336392440E+03  0.17121062807E+03  0.28829633972E+03  0.00000000000E+00 0.  1.
          4    1    6    6  502    0  0.18560102488E+00  0.71724410215E+02  0.19488065088E+02  0.74325030436E+02  0.00000000000E+00 0. -1.
         -3    1    6    6    0  502  0.18953240243E+02  0.11676950049E+02 -0.36875152846E+02  0.43073813107E+02  0.00000000000E+00 0.  1.
<mgrwt>
<rscale>  0 0.72525022E+03</rscale>
<asrwt>0</asrwt>
<pdfrwt beam="1">  1        1 0.19777679E+00 0.72525022E+03</pdfrwt>
<pdfrwt beam="2">  1       -2 0.69543167E-01 0.72525022E+03</pdfrwt>
<totfact> 0.15798870E+01</totfact>
</mgrwt>
</event>
<event>
12    3  0.1201947E-007  0.2701080E+03  0.7818608E-02  0.1101218E+00
          3   -1    0    0  501    0  0.00000000000E+00  0.00000000000E+00  0.49751222056E+03  0.49751222056E+03  0.00000000000E+00 0. -1.
         -4   -1    0    0    0  501 -0.00000000000E+00 -0.00000000000E+00 -0.54829155614E+03  0.54829155614E+03  0.00000000000E+00 0.  1.
        -24    2    1    2    0    0 -0.14778897674E+03 -0.92773578465E+02  0.27948654760E+03  0.33906456219E+03  0.80022050303E+02 0.  0.
    5000000    2    1    2    0    0  0.14778897674E+03  0.92773578465E+02 -0.33026588318E+03  0.70673921450E+03  0.59996353657E+03 0.  0.
        -24    2    4    4    0    0  0.42784415081E+00  0.17025727252E+03  0.11726624023E+03  0.22262539049E+03  0.82601280212E+02 0.  0.
         24    2    4    4    0    0  0.14736113259E+03 -0.77483694057E+02 -0.44753212342E+03  0.48411382402E+03  0.79763192471E+02 0.  0.
         13    1    3    3    0    0 -0.68111902325E+02 -0.85730820143E+02  0.18782073331E+03  0.21740660667E+03  0.00000000000E+00 0. -1.
        -14    1    3    3    0    0 -0.79677074417E+02 -0.70427583222E+01  0.91665814290E+02  0.12165795552E+03  0.00000000000E+00 0.  1.
         15    1    5    5    0    0 -0.25800605827E+02  0.66466702856E+02  0.84699999199E+02  0.11072823237E+03  0.17770000000E+01 0. -1.
        -16    1    5    5    0    0  0.26228449978E+02  0.10379056967E+03  0.32566241035E+02  0.11189715812E+03  0.00000000000E+00 0.  1.
          2    1    6    6  502    0  0.62564522429E+02 -0.58088877442E+02 -0.30864641372E+03  0.32023623444E+03  0.00000000000E+00 0. -1.
         -1    1    6    6    0  502  0.84796610164E+02 -0.19394816616E+02 -0.13888570970E+03  0.16387758957E+03  0.00000000000E+00 0.  1.
<mgrwt>
<rscale>  0 0.27010799E+03</rscale>
<asrwt>0</asrwt>
<pdfrwt beam="1">  1        3 0.76540341E-01 0.27010799E+03</pdfrwt>
<pdfrwt beam="2">  1       -4 0.84352547E-01 0.27010799E+03</pdfrwt>
<totfact> 0.43728697E+00</totfact>
</mgrwt>
</event>
<event>
12    3  0.1201947E-007  0.3142146E+03  0.7818608E-02  0.1078343E+00
          1   -1    0    0  501    0  0.00000000000E+00  0.00000000000E+00  0.26759667990E+04  0.26759667990E+04  0.00000000000E+00 0. -1.
         -2   -1    0    0    0  501 -0.00000000000E+00 -0.00000000000E+00 -0.84983859225E+02  0.84983859225E+02  0.00000000000E+00 0.  1.
        -24    2    1    2    0    0  0.27442856134E+03  0.46231702517E+02  0.67300334652E+03  0.73208132980E+03  0.74573208473E+02 0.  0.
    5000000    2    1    2    0    0 -0.27442856134E+03 -0.46231702517E+02  0.19179795933E+04  0.20288693284E+04  0.60018049457E+03 0.  0.
        -24    2    4    4    0    0 -0.27272648995E+03 -0.26646771468E+02  0.19257535389E+04  0.19472091478E+04  0.89481750227E+02 0.  0.
         24    2    4    4    0    0 -0.17020713964E+01 -0.19584931049E+02 -0.77739456952E+01  0.81660180653E+02  0.78876386209E+02 0.  0.
         11    1    3    3    0    0  0.16083262492E+03 -0.45010950400E+01  0.32812820862E+03  0.36545247897E+03  0.00000000000E+00 0. -1.
        -12    1    3    3    0    0  0.11359593642E+03  0.50732797557E+02  0.34487513790E+03  0.36662885083E+03  0.00000000000E+00 0.  1.
         15    1    5    5    0    0 -0.24590143521E+02 -0.11505676027E+02  0.73999405562E+02  0.78842409221E+02  0.17770000000E+01 0. -1.
        -16    1    5    5    0    0 -0.24813634643E+03 -0.15141095441E+02  0.18517541334E+04  0.18683667385E+04  0.00000000000E+00 0.  1.
          2    1    6    6  502    0  0.30774771971E+02 -0.31939494892E+01 -0.26506582969E+02  0.40741708898E+02  0.00000000000E+00 0. -1.
         -1    1    6    6    0  502 -0.32476843367E+02 -0.16390981560E+02  0.18732637274E+02  0.40918471756E+02  0.00000000000E+00 0.  1.
<mgrwt>
<rscale>  0 0.31421456E+03</rscale>
<asrwt>0</asrwt>
<pdfrwt beam="1">  1        1 0.41168714E+00 0.31421456E+03</pdfrwt>
<pdfrwt beam="2">  1       -2 0.13074442E-01 0.31421456E+03</pdfrwt>
<totfact> 0.45153162E+01</totfact>
</mgrwt>
</event>
<event>
12    3  0.1201947E-007  0.7198078E+03  0.7818608E-02  0.9683945E-01
         -2   -1    0    0    0  501 -0.00000000000E+00  0.00000000000E+00  0.71427482815E+03  0.71427482815E+03  0.00000000000E+00 0.  1.
          1   -1    0    0  501    0  0.00000000000E+00 -0.00000000000E+00 -0.75986176319E+03  0.75986176319E+03  0.00000000000E+00 0. -1.
        -24    2    1    2    0    0  0.26403974208E+03  0.55138904147E+03 -0.17871855231E+02  0.61712818039E+03  0.82346386516E+02 0.  0.
    5000000    2    1    2    0    0 -0.26403974208E+03 -0.55138904147E+03 -0.27715079808E+02  0.85700841095E+03  0.59995702374E+03 0.  0.
        -24    2    4    4    0    0  0.11424065238E+03 -0.39535619917E+03 -0.10702074248E+03  0.43252108444E+03  0.79142897892E+02 0.  0.
         24    2    4    4    0    0 -0.37828039447E+03 -0.15603284230E+03  0.79305662671E+02  0.42448732651E+03  0.80360422610E+02 0.  0.
         11    1    3    3    0    0  0.53572407245E+02  0.16613274186E+03 -0.33987416870E+02  0.17783485385E+03  0.00000000000E+00 0. -1.
        -12    1    3    3    0    0  0.21046733484E+03  0.38525629960E+03  0.16115561640E+02  0.43929332654E+03  0.00000000000E+00 0.  1.
         15    1    5    5    0    0  0.82461010288E+02 -0.21902379008E+03 -0.24692124787E+02  0.23533826207E+03  0.17770000000E+01 0. -1.
        -16    1    5    5    0    0  0.31779642093E+02 -0.17633240909E+03 -0.82328617693E+02  0.19718282237E+03  0.00000000000E+00 0.  1.
          4    1    6    6  502    0 -0.26449714978E+03 -0.13565220437E+03  0.83686865601E+02  0.30881022370E+03  0.00000000000E+00 0. -1.
         -3    1    6    6    0  502 -0.11378324469E+03 -0.20380637934E+02 -0.43812029304E+01  0.11567710281E+03  0.00000000000E+00 0.  1.
<mgrwt>
<rscale>  0 0.71980785E+03</rscale>
<asrwt>0</asrwt>
<pdfrwt beam="1">  1        1 0.11690181E+00 0.71980785E+03</pdfrwt>
<pdfrwt beam="2">  1       -2 0.10988844E+00 0.71980785E+03</pdfrwt>
<totfact> 0.14179907E+01</totfact>
</mgrwt>
</event>
<event>
12    3  0.1201947E-007  0.7590019E+03  0.7818608E-02  0.9621333E-01
         -2   -1    0    0    0  501 -0.00000000000E+00  0.00000000000E+00  0.97313698311E+03  0.97313698311E+03  0.00000000000E+00 0.  1.
          1   -1    0    0  501    0  0.00000000000E+00 -0.00000000000E+00 -0.67006828780E+03  0.67006828780E+03  0.00000000000E+00 0. -1.
        -24    2    1    2    0    0  0.60700732660E+03  0.26728835538E+03 -0.74839771047E+02  0.67215808982E+03  0.79338180616E+02 0.  0.
    5000000    2    1    2    0    0 -0.60700732660E+03 -0.26728835538E+03  0.37790846636E+03  0.97104718110E+03  0.60018068904E+03 0.  0.
        -24    2    4    4    0    0 -0.52860653284E+03 -0.41218183978E+03  0.17321128238E+03  0.69652445699E+03  0.76324538868E+02 0.  0.
         24    2    4    4    0    0 -0.78400793766E+02  0.14489348440E+03  0.20469718398E+03  0.27452272411E+03  0.79504607655E+02 0.  0.
         13    1    3    3    0    0  0.33812269437E+03  0.12150434855E+03 -0.71176261501E+02  0.36627356357E+03  0.00000000000E+00 0. -1.
        -14    1    3    3    0    0  0.26888463223E+03  0.14578400683E+03 -0.36635095458E+01  0.30588452625E+03  0.00000000000E+00 0.  1.
         15    1    5    5    0    0 -0.13339165078E+03 -0.10896450008E+03  0.79260017610E+02  0.18960987025E+03  0.17770000000E+01 0. -1.
        -16    1    5    5    0    0 -0.39521488206E+03 -0.30321733970E+03  0.93951264769E+02  0.50691458674E+03  0.00000000000E+00 0.  1.
          2    1    6    6  502    0 -0.49873471706E+02  0.18978063409E+02  0.68899329782E+02  0.87147276006E+02  0.00000000000E+00 0. -1.
         -1    1    6    6    0  502 -0.28527322060E+02  0.12591542099E+03  0.13579785419E+03  0.18737544810E+03  0.00000000000E+00 0.  1.
<mgrwt>
<rscale>  0 0.75900195E+03</rscale>
<asrwt>0</asrwt>
<pdfrwt beam="1">  1        1 0.10308743E+00 0.75900195E+03</pdfrwt>
<pdfrwt beam="2">  1       -2 0.14971338E+00 0.75900195E+03</pdfrwt>
<totfact> 0.78328459E+00</totfact>
</mgrwt>
</event>
<event>
12    3  0.1201947E-007  0.7178826E+03  0.7818608E-02  0.9687130E-01
         -2   -1    0    0    0  501 -0.00000000000E+00  0.00000000000E+00  0.16272025965E+03  0.16272025965E+03  0.00000000000E+00 0.  1.
          1   -1    0    0  501    0  0.00000000000E+00 -0.00000000000E+00 -0.39555651996E+04  0.39555651996E+04  0.00000000000E+00 0. -1.
        -24    2    1    2    0    0  0.48170871372E+02 -0.65643985754E+03 -0.21479160461E+04  0.22477125199E+04  0.73719139919E+02 0.  0.
    5000000    2    1    2    0    0 -0.48170871372E+02  0.65643985754E+03 -0.16449288938E+04  0.18705729393E+04  0.60001528000E+03 0.  0.
        -24    2    4    4    0    0  0.16433020710E+03  0.28874342498E+03 -0.12106721769E+04  0.12579828537E+04  0.80103418781E+02 0.  0.
         24    2    4    4    0    0 -0.21250107847E+03  0.36769643255E+03 -0.43425671691E+03  0.61259008569E+03  0.79563446575E+02 0.  0.
         13    1    3    3    0    0  0.57786116030E+02 -0.28816613583E+03 -0.96143097468E+03  0.10053499272E+04  0.00000000000E+00 0. -1.
        -14    1    3    3    0    0 -0.96152446581E+01 -0.36827372170E+03 -0.11864850715E+04  0.12423625927E+04  0.00000000000E+00 0.  1.
         15    1    5    5    0    0  0.15433209062E+03  0.20157587656E+03 -0.88415349115E+03  0.91988139553E+03  0.17770000000E+01 0. -1.
        -16    1    5    5    0    0  0.99981164804E+01  0.87167548424E+02 -0.32651868577E+03  0.33810145813E+03  0.00000000000E+00 0.  1.
          2    1    6    6  502    0 -0.88824957525E+02  0.83525612604E+02 -0.11374227084E+03  0.16674443084E+03  0.00000000000E+00 0. -1.
         -1    1    6    6    0  502 -0.12367612095E+03  0.28417081995E+03 -0.32051444607E+03  0.44584565485E+03  0.00000000000E+00 0.  1.
<mgrwt>
<rscale>  0 0.71788263E+03</rscale>
<asrwt>0</asrwt>
<pdfrwt beam="1">  1        1 0.60854844E+00 0.71788263E+03</pdfrwt>
<pdfrwt beam="2">  1       -2 0.25033888E-01 0.71788263E+03</pdfrwt>
<totfact> 0.14590823E+00</totfact>
</mgrwt>
</event>
<event>
12    3  0.1201947E-007  0.6169894E+03  0.7818608E-02  0.9870772E-01
         -2   -1    0    0    0  501 -0.00000000000E+00  0.00000000000E+00  0.31260622511E+03  0.31260622511E+03  0.00000000000E+00 0.  1.
          1   -1    0    0  501    0  0.00000000000E+00 -0.00000000000E+00 -0.16027227376E+04  0.16027227376E+04  0.00000000000E+00 0. -1.
        -24    2    1    2    0    0  0.20275677196E+03  0.50904807061E+03 -0.77704578312E+03  0.95420063545E+03  0.80364524829E+02 0.  0.
    5000000    2    1    2    0    0 -0.20275677196E+03 -0.50904807061E+03 -0.51307072940E+03  0.96112832729E+03  0.60023815389E+03 0.  0.
        -24    2    4    4    0    0 -0.31765362969E+03 -0.29337201989E+03 -0.65476921788E+02  0.44485121973E+03  0.81451886998E+02 0.  0.
         24    2    4    4    0    0  0.11489685773E+03 -0.21567605072E+03 -0.44759380761E+03  0.51627710756E+03  0.80525700319E+02 0.  0.
         13    1    3    3    0    0  0.50625262086E+02  0.23462380804E+03 -0.33944012985E+03  0.41572929920E+03  0.00000000000E+00 0. -1.
        -14    1    3    3    0    0  0.15213150987E+03  0.27442426257E+03 -0.43760565327E+03  0.53847133624E+03  0.00000000000E+00 0.  1.
         15    1    5    5    0    0 -0.22681903244E+02 -0.81381822321E+01  0.12465489301E+02  0.27189058412E+02  0.17770000000E+01 0. -1.
        -16    1    5    5    0    0 -0.29497172645E+03 -0.28523383766E+03 -0.77942411089E+02  0.41766216131E+03  0.00000000000E+00 0.  1.
          2    1    6    6  502    0  0.10944144265E+02 -0.40924343988E+02 -0.30308564446E+02  0.52088245347E+02  0.00000000000E+00 0. -1.
         -1    1    6    6    0  502  0.10395271347E+03 -0.17475170673E+03 -0.41728524317E+03  0.46418886222E+03  0.00000000000E+00 0.  1.
<mgrwt>
<rscale>  0 0.61698940E+03</rscale>
<asrwt>0</asrwt>
<pdfrwt beam="1">  1        1 0.24657273E+00 0.61698940E+03</pdfrwt>
<pdfrwt beam="2">  1       -2 0.48093265E-01 0.61698940E+03</pdfrwt>
<totfact> 0.20987755E+01</totfact>
</mgrwt>
</event>
<event>
12    3  0.1201947E-007  0.6048142E+03  0.7818608E-02  0.9895468E-01
         -2   -1    0    0    0  501 -0.00000000000E+00  0.00000000000E+00  0.25074155193E+03  0.25074155193E+03  0.00000000000E+00 0.  1.
          1   -1    0    0  501    0  0.00000000000E+00 -0.00000000000E+00 -0.16419224724E+04  0.16419224724E+04  0.00000000000E+00 0. -1.
        -24    2    1    2    0    0  0.44968854567E+03  0.21332377944E+03 -0.53470560212E+03  0.73458656157E+03  0.77333773462E+02 0.  0.
    5000000    2    1    2    0    0 -0.44968854567E+03 -0.21332377944E+03 -0.85647531837E+03  0.11580774628E+04  0.59988883623E+03 0.  0.
        -24    2    4    4    0    0 -0.60492720903E+02  0.15148155614E+03 -0.53019875660E+02  0.18932610211E+03  0.80170035520E+02 0.  0.
         24    2    4    4    0    0 -0.38919582477E+03 -0.36480533558E+03 -0.80345544271E+03  0.96875136066E+03  0.91554505522E+02 0.  0.
         11    1    3    3    0    0  0.29587776192E+03  0.16959229694E+03 -0.32719484414E+03  0.47261153521E+03  0.00000000000E+00 0. -1.
        -12    1    3    3    0    0  0.15381078375E+03  0.43731482506E+02 -0.20751075799E+03  0.26197502637E+03  0.00000000000E+00 0.  1.
         15    1    5    5    0    0 -0.49960209079E+02  0.15014580048E+03 -0.66935010257E+02  0.17182327322E+03  0.17770000000E+01 0. -1.
        -16    1    5    5    0    0 -0.10532511825E+02  0.13357556567E+01  0.13915134596E+02  0.17502828896E+02  0.00000000000E+00 0.  1.
          2    1    6    6  502    0 -0.14627973810E+03 -0.84614961733E+02 -0.28482398722E+03  0.33118296638E+03  0.00000000000E+00 0. -1.
         -1    1    6    6    0  502 -0.24291608667E+03 -0.28019037385E+03 -0.51863145549E+03  0.63756839428E+03  0.00000000000E+00 0.  1.
<mgrwt>
<rscale>  0 0.60481415E+03</rscale>
<asrwt>0</asrwt>
<pdfrwt beam="1">  1        1 0.25260346E+00 0.60481415E+03</pdfrwt>
<pdfrwt beam="2">  1       -2 0.38575623E-01 0.60481415E+03</pdfrwt>
<totfact> 0.30562427E+01</totfact>
</mgrwt>
</event>
<event>
12    3  0.1201947E-007  0.6990785E+03  0.7818608E-02  0.9718809E-01
          1   -1    0    0  501    0  0.00000000000E+00  0.00000000000E+00  0.91995349134E+03  0.91995349134E+03  0.00000000000E+00 0. -1.
         -2   -1    0    0    0  501 -0.00000000000E+00 -0.00000000000E+00 -0.65173528991E+03  0.65173528991E+03  0.00000000000E+00 0.  1.
        -24    2    1    2    0    0 -0.59942644162E+02  0.64071847597E+03 -0.11026291438E+02  0.64869331585E+03  0.81044141565E+02 0.  0.
    5000000    2    1    2    0    0  0.59942644162E+02 -0.64071847597E+03  0.27924449288E+03  0.92299546540E+03  0.59985819684E+03 0.  0.
        -24    2    4    4    0    0 -0.13214159859E+03 -0.81139965358E+02 -0.11382517432E+03  0.20827921986E+03  0.79868435944E+02 0.  0.
         24    2    4    4    0    0  0.19208424276E+03 -0.55957851061E+03  0.39306966720E+03  0.71471624554E+03  0.79316344543E+02 0.  0.
         11    1    3    3    0    0 -0.14344332937E+01  0.17270378735E+03  0.29839795861E+02  0.17526856301E+03  0.00000000000E+00 0. -1.
        -12    1    3    3    0    0 -0.58508210868E+02  0.46801468862E+03 -0.40866087299E+02  0.47342475284E+03  0.00000000000E+00 0.  1.
         15    1    5    5    0    0 -0.58597644151E+01 -0.18738344062E+02 -0.49786151979E+02  0.53546998375E+02  0.17770000000E+01 0. -1.
        -16    1    5    5    0    0 -0.12628183418E+03 -0.62401621296E+02 -0.64039022345E+02  0.15473222149E+03  0.00000000000E+00 0.  1.
          2    1    6    6  502    0  0.13636008949E+03 -0.33191105295E+03  0.27612712316E+03  0.45277500950E+03  0.00000000000E+00 0. -1.
         -1    1    6    6    0  502  0.55724153267E+02 -0.22766745766E+03  0.11694254404E+03  0.26194123604E+03  0.00000000000E+00 0.  1.
<mgrwt>
<rscale>  0 0.69907854E+03</rscale>
<asrwt>0</asrwt>
<pdfrwt beam="1">  1        1 0.14153131E+00 0.69907854E+03</pdfrwt>
<pdfrwt beam="2">  1       -2 0.10026697E+00 0.69907854E+03</pdfrwt>
<totfact> 0.12972385E+01</totfact>
</mgrwt>
</event>
<event>
12    3  0.1201947E-007  0.7996859E+03  0.7818608E-02  0.9560472E-01
          1   -1    0    0  501    0  0.00000000000E+00  0.00000000000E+00  0.18341317423E+04  0.18341317423E+04  0.00000000000E+00 0. -1.
         -2   -1    0    0    0  501 -0.00000000000E+00 -0.00000000000E+00 -0.38804104592E+03  0.38804104592E+03  0.00000000000E+00 0.  1.
        -24    2    1    2    0    0  0.27022025600E+03  0.68000487199E+03  0.55412101444E+03  0.92173867786E+03  0.84418475097E+02 0.  0.
    5000000    2    1    2    0    0 -0.27022025600E+03 -0.68000487199E+03  0.89196968195E+03  0.13004341104E+04  0.60007778594E+03 0.  0.
        -24    2    4    4    0    0 -0.48907434575E+02  0.45290537692E+02 -0.26113846362E+02  0.10703050176E+03  0.79563970320E+02 0.  0.
         24    2    4    4    0    0 -0.22131282143E+03 -0.72529540968E+03  0.91808352831E+03  0.11934036086E+04  0.79385211656E+02 0.  0.
         13    1    3    3    0    0  0.11475372729E+03  0.22376150680E+03  0.23087033856E+03  0.34137771321E+03  0.00000000000E+00 0. -1.
        -14    1    3    3    0    0  0.15546652871E+03  0.45624336520E+03  0.32325067588E+03  0.58036096465E+03  0.00000000000E+00 0.  1.
         15    1    5    5    0    0 -0.43908257653E+02 -0.12395896054E+02 -0.79522821774E+01  0.46346411403E+02  0.17770000000E+01 0. -1.
        -16    1    5    5    0    0 -0.49991769225E+01  0.57686433746E+02 -0.18161564185E+02  0.60684090352E+02  0.00000000000E+00 0.  1.
          2    1    6    6  502    0 -0.17063045798E+03 -0.64657202637E+03  0.79832709387E+03  0.10413915149E+04  0.00000000000E+00 0. -1.
         -1    1    6    6    0  502 -0.50682363443E+02 -0.78723383310E+02  0.11975643444E+03  0.15201209371E+03  0.00000000000E+00 0.  1.
<mgrwt>
<rscale>  0 0.79968588E+03</rscale>
<asrwt>0</asrwt>
<pdfrwt beam="1">  1        1 0.28217411E+00 0.79968588E+03</pdfrwt>
<pdfrwt beam="2">  1       -2 0.59698623E-01 0.79968588E+03</pdfrwt>
<totfact> 0.91539281E+00</totfact>
</mgrwt>
</event>
<event>
12    3  0.1201947E-007  0.1098921E+04  0.7818608E-02  0.9206244E-01
          1   -1    0    0  501    0  0.00000000000E+00  0.00000000000E+00  0.24366433463E+04  0.24366433463E+04  0.00000000000E+00 0. -1.
         -2   -1    0    0    0  501 -0.00000000000E+00 -0.00000000000E+00 -0.54496835553E+03  0.54496835553E+03  0.00000000000E+00 0.  1.
        -24    2    1    2    0    0  0.86655603606E+03  0.55546708958E+03  0.12734830156E+04  0.16393620708E+04  0.79284025651E+02 0.  0.
    5000000    2    1    2    0    0 -0.86655603606E+03 -0.55546708958E+03  0.61819197516E+03  0.13422496311E+04  0.60000808558E+03 0.  0.
        -24    2    4    4    0    0 -0.34139401902E+03 -0.52865975124E+03  0.47252025931E+03  0.79087577431E+03  0.78600802306E+02 0.  0.
         24    2    4    4    0    0 -0.52516201704E+03 -0.26807338332E+02  0.14567171585E+03  0.55137385678E+03  0.79240795097E+02 0.  0.
         13    1    3    3    0    0  0.53317712553E+03  0.38661665594E+03  0.80442328436E+03  0.10396379688E+04  0.00000000000E+00 0. -1.
        -14    1    3    3    0    0  0.33337891053E+03  0.16885043364E+03  0.46905973126E+03  0.59972410192E+03  0.00000000000E+00 0.  1.
         15    1    5    5    0    0 -0.21637598716E+03 -0.39744284377E+03  0.35044716815E+03  0.57235981452E+03  0.17770000000E+01 0. -1.
        -16    1    5    5    0    0 -0.12501803186E+03 -0.13121690747E+03  0.12207309115E+03  0.21851595978E+03  0.00000000000E+00 0.  1.
          4    1    6    6  502    0 -0.34400728691E+03 -0.55210976783E+02  0.96596438624E+02  0.36155239919E+03  0.00000000000E+00 0. -1.
         -1    1    6    6    0  502 -0.18115473013E+03  0.28403638451E+02  0.49075277229E+02  0.18982145759E+03  0.00000000000E+00 0.  1.
<mgrwt>
<rscale>  0 0.10989213E+04</rscale>
<asrwt>0</asrwt>
<pdfrwt beam="1">  1        1 0.37486820E+00 0.10989213E+04</pdfrwt>
<pdfrwt beam="2">  1       -2 0.83841286E-01 0.10989213E+04</pdfrwt>
<totfact> 0.16360862E+00</totfact>
</mgrwt>
</event>
<event>
12    3  0.1201947E-007  0.7919624E+03  0.7818608E-02  0.9571725E-01
          1   -1    0    0  501    0  0.00000000000E+00  0.00000000000E+00  0.13609796679E+04  0.13609796679E+04  0.00000000000E+00 0. -1.
         -2   -1    0    0    0  501 -0.00000000000E+00 -0.00000000000E+00 -0.68580637067E+03  0.68580637067E+03  0.00000000000E+00 0.  1.
        -24    2    1    2    0    0 -0.72367021388E+03  0.11188199764E+03  0.80530148739E+03  0.10912948927E+04  0.78726726604E+02 0.  0.
    5000000    2    1    2    0    0  0.72367021388E+03 -0.11188199764E+03 -0.13012819017E+03  0.95549114581E+03  0.59984483327E+03 0.  0.
        -24    2    4    4    0    0  0.40356321614E+03  0.15151694519E+03  0.13238061162E+03  0.45788065580E+03  0.79431823111E+02 0.  0.
         24    2    4    4    0    0  0.32010699774E+03 -0.26339894283E+03 -0.26250880180E+03  0.49761049001E+03  0.82812050236E+02 0.  0.
         11    1    3    3    0    0 -0.34279654122E+03  0.13269118182E+02  0.37628912021E+03  0.50919450131E+03  0.00000000000E+00 0. -1.
        -12    1    3    3    0    0 -0.38087367266E+03  0.98612879456E+02  0.42901236718E+03  0.58210039144E+03  0.00000000000E+00 0.  1.
         15    1    5    5    0    0  0.18059167649E+03  0.64343490179E+02  0.18028502607E+02  0.19256589257E+03  0.17770000000E+01 0. -1.
        -16    1    5    5    0    0  0.22297153965E+03  0.87173455010E+02  0.11435210902E+03  0.26531476323E+03  0.00000000000E+00 0.  1.
          2    1    6    6  502    0  0.10702250907E+03 -0.65316224852E+02 -0.40876092449E+02  0.13187449188E+03  0.00000000000E+00 0. -1.
         -1    1    6    6    0  502  0.21308448868E+03 -0.19808271797E+03 -0.22163270935E+03  0.36573599813E+03  0.00000000000E+00 0.  1.
<mgrwt>
<rscale>  0 0.79196236E+03</rscale>
<asrwt>0</asrwt>
<pdfrwt beam="1">  1        1 0.20938149E+00 0.79196236E+03</pdfrwt>
<pdfrwt beam="2">  1       -2 0.10550867E+00 0.79196236E+03</pdfrwt>
<totfact> 0.53454633E+00</totfact>
</mgrwt>
</event>
<event>
12    3  0.1201947E-007  0.4798411E+03  0.7818608E-02  0.1019179E+00
         -2   -1    0    0    0  501 -0.00000000000E+00  0.00000000000E+00  0.15923603828E+03  0.15923603828E+03  0.00000000000E+00 0.  1.
          1   -1    0    0  501    0  0.00000000000E+00 -0.00000000000E+00 -0.31102686595E+04  0.31102686595E+04  0.00000000000E+00 0. -1.
        -24    2    1    2    0    0 -0.14038170705E+02 -0.42514198096E+03 -0.32251231329E+03  0.54004727236E+03  0.81817418357E+02 0.  0.
    5000000    2    1    2    0    0  0.14038170705E+02  0.42514198096E+03 -0.26285203079E+04  0.27294574254E+04  0.59989670261E+03 0.  0.
        -24    2    4    4    0    0 -0.12488247049E+03  0.31858777237E+03 -0.24185745123E+04  0.24439883539E+04  0.80514609759E+02 0.  0.
         24    2    4    4    0    0  0.13892064119E+03  0.10655420859E+03 -0.20994579562E+03  0.28546907150E+03  0.82235088426E+02 0.  0.
         11    1    3    3    0    0 -0.58784138360E+00 -0.27896637349E+03 -0.25698031894E+03  0.37929074260E+03  0.00000000000E+00 0. -1.
        -12    1    3    3    0    0 -0.13450329321E+02 -0.14617560747E+03 -0.65531994348E+02  0.16075652976E+03  0.00000000000E+00 0.  1.
         15    1    5    5    0    0 -0.61070445946E+02  0.12257428352E+03 -0.71607748620E+03  0.72905704737E+03  0.17770000000E+01 0. -1.
        -16    1    5    5    0    0 -0.63812024541E+02  0.19601348885E+03 -0.17024970261E+04  0.17149313065E+04  0.00000000000E+00 0.  1.
          2    1    6    6  502    0  0.13571004914E+03  0.67372771791E+02 -0.18405825294E+03  0.23839829759E+03  0.00000000000E+00 0. -1.
         -1    1    6    6    0  502  0.32105920523E+01  0.39181436802E+02 -0.25887542678E+02  0.47070773916E+02  0.00000000000E+00 0.  1.
<mgrwt>
<rscale>  0 0.47984109E+03</rscale>
<asrwt>0</asrwt>
<pdfrwt beam="1">  1        1 0.47850281E+00 0.47984109E+03</pdfrwt>
<pdfrwt beam="2">  1       -2 0.24497855E-01 0.47984109E+03</pdfrwt>
<totfact> 0.73198284E+00</totfact>
</mgrwt>
</event>
<event>
12    3  0.1201947E-007  0.6564490E+03  0.7818608E-02  0.9794753E-01
          1   -1    0    0  501    0  0.00000000000E+00  0.00000000000E+00  0.84579691530E+03  0.84579691530E+03  0.00000000000E+00 0. -1.
         -2   -1    0    0    0  501 -0.00000000000E+00 -0.00000000000E+00 -0.54664069325E+03  0.54664069325E+03  0.00000000000E+00 0.  1.
        -24    2    1    2    0    0 -0.49336586313E+03  0.22014594044E+03  0.18748998042E+03  0.57722902082E+03  0.78528591731E+02 0.  0.
    5000000    2    1    2    0    0  0.49336586313E+03 -0.22014594044E+03  0.11166624163E+03  0.81520858773E+03  0.60018462326E+03 0.  0.
        -24    2    4    4    0    0  0.16286576167E+03 -0.36927254244E+03 -0.43692726327E+02  0.41258419032E+03  0.73683056722E+02 0.  0.
         24    2    4    4    0    0  0.33050010146E+03  0.14912660199E+03  0.15535896796E+03  0.40262439741E+03  0.80628381955E+02 0.  0.
         11    1    3    3    0    0 -0.31276055307E+03  0.12161998892E+03  0.79442562499E+02  0.34485026605E+03  0.00000000000E+00 0. -1.
        -12    1    3    3    0    0 -0.18060531006E+03  0.98525951520E+02  0.10804741792E+03  0.23237875476E+03  0.00000000000E+00 0.  1.
         15    1    5    5    0    0  0.84091007954E+02 -0.11425819113E+03 -0.31897996195E+02  0.14541964018E+03  0.17770000000E+01 0. -1.
        -16    1    5    5    0    0  0.78774753716E+02 -0.25501435131E+03 -0.11794730132E+02  0.26716455014E+03  0.00000000000E+00 0.  1.
          2    1    6    6  502    0  0.28901977376E+03  0.12570952111E+03  0.10239457948E+03  0.33139095225E+03  0.00000000000E+00 0. -1.
         -1    1    6    6    0  502  0.41480327701E+02  0.23417080878E+02  0.52964388478E+02  0.71233445163E+02  0.00000000000E+00 0.  1.
<mgrwt>
<rscale>  0 0.65644898E+03</rscale>
<asrwt>0</asrwt>
<pdfrwt beam="1">  1        1 0.13012260E+00 0.65644898E+03</pdfrwt>
<pdfrwt beam="2">  1       -2 0.84098568E-01 0.65644898E+03</pdfrwt>
<totfact> 0.22530795E+01</totfact>
</mgrwt>
</event>
<event>
12    3  0.1201947E-007  0.8582728E+03  0.7818608E-02  0.9479300E-01
          1   -1    0    0  501    0  0.00000000000E+00  0.00000000000E+00  0.16624844119E+04  0.16624844119E+04  0.00000000000E+00 0. -1.
         -2   -1    0    0    0  501 -0.00000000000E+00 -0.00000000000E+00 -0.51879881176E+03  0.51879881176E+03  0.00000000000E+00 0.  1.
        -24    2    1    2    0    0  0.79901091242E+03  0.20216331043E+03  0.39811440011E+03  0.91825725975E+03  0.73572258724E+02 0.  0.
    5000000    2    1    2    0    0 -0.79901091242E+03 -0.20216331043E+03  0.74557119999E+03  0.12630259639E+04  0.60005810457E+03 0.  0.
        -24    2    4    4    0    0 -0.74432556545E+03 -0.80712796092E+02  0.33299626727E+03  0.82355882425E+03  0.82628809379E+02 0.  0.
         24    2    4    4    0    0 -0.54685346974E+02 -0.12145051434E+03  0.41257493271E+03  0.43946713961E+03  0.71920630466E+02 0.  0.
         11    1    3    3    0    0  0.28823530883E+03  0.50146960214E+02  0.17178582866E+03  0.33927080895E+03  0.00000000000E+00 0. -1.
        -12    1    3    3    0    0  0.51077560359E+03  0.15201635022E+03  0.22632857145E+03  0.57898645080E+03  0.00000000000E+00 0.  1.
         15    1    5    5    0    0 -0.11155373376E+03 -0.29038289978E+02  0.79008901230E+02  0.13976058816E+03  0.17770000000E+01 0. -1.
        -16    1    5    5    0    0 -0.63277183169E+03 -0.51674506114E+02  0.25398736604E+03  0.68379823608E+03  0.00000000000E+00 0.  1.
          4    1    6    6  502    0 -0.18580380203E+02 -0.93261011862E+02  0.19288066453E+03  0.21504836110E+03  0.00000000000E+00 0. -1.
         -3    1    6    6    0  502 -0.36104966771E+02 -0.28189502477E+02  0.21969426818E+03  0.22441877851E+03  0.00000000000E+00 0.  1.
<mgrwt>
<rscale>  0 0.85827280E+03</rscale>
<asrwt>0</asrwt>
<pdfrwt beam="1">  1        1 0.25576683E+00 0.85827280E+03</pdfrwt>
<pdfrwt beam="2">  1       -2 0.79815203E-01 0.85827280E+03</pdfrwt>
<totfact> 0.62929764E+00</totfact>
</mgrwt>
</event>
<event>
12    3  0.1201947E-007  0.5283760E+03  0.7818608E-02  0.1006627E+00
         -2   -1    0    0    0  501 -0.00000000000E+00  0.00000000000E+00  0.83330370575E+03  0.83330370575E+03  0.00000000000E+00 0.  1.
          1   -1    0    0  501    0  0.00000000000E+00 -0.00000000000E+00 -0.75828282371E+03  0.75828282371E+03  0.00000000000E+00 0. -1.
        -24    2    1    2    0    0  0.22042188112E+03 -0.40379377785E+03 -0.46745656298E+03  0.66077614253E+03  0.80462733991E+02 0.  0.
    5000000    2    1    2    0    0 -0.22042188112E+03  0.40379377785E+03  0.54247744502E+03  0.93081038693E+03  0.60040900839E+03 0.  0.
        -24    2    4    4    0    0 -0.14177252843E+03 -0.22964797034E+02 -0.65552306464E+02  0.17673260721E+03  0.79438516150E+02 0.  0.
         24    2    4    4    0    0 -0.78649352690E+02  0.42675857488E+03  0.60802975149E+03  0.75407777972E+03  0.10307529901E+03 0.  0.
         11    1    3    3    0    0  0.42488882995E+02 -0.84030215911E+02 -0.14582895008E+03  0.17358705322E+03  0.00000000000E+00 0. -1.
        -12    1    3    3    0    0  0.17793299812E+03 -0.31976356193E+03 -0.32162761290E+03  0.48718908931E+03  0.00000000000E+00 0.  1.
         15    1    5    5    0    0 -0.90893516660E+02 -0.43428525475E+02 -0.68469406486E+02  0.12181496439E+03  0.17770000000E+01 0. -1.
        -16    1    5    5    0    0 -0.50879011770E+02  0.20463728440E+02  0.29171000216E+01  0.54917642820E+02  0.00000000000E+00 0.  1.
          4    1    6    6  502    0 -0.86640422568E+02  0.25885246947E+03  0.42918034588E+03  0.50863241448E+03  0.00000000000E+00 0. -1.
         -3    1    6    6    0  502  0.79910698778E+01  0.16790610541E+03  0.17884940561E+03  0.24544536524E+03  0.00000000000E+00 0.  1.
<mgrwt>
<rscale>  0 0.52837600E+03</rscale>
<asrwt>0</asrwt>
<pdfrwt beam="1">  1        1 0.11665890E+00 0.52837600E+03</pdfrwt>
<pdfrwt beam="2">  1       -2 0.12820057E+00 0.52837600E+03</pdfrwt>
<totfact> 0.99803256E+00</totfact>
</mgrwt>
</event>
<event>
12    3  0.1201947E-007  0.6561272E+03  0.7818608E-02  0.9795349E-01
          1   -1    0    0  501    0  0.00000000000E+00  0.00000000000E+00  0.23816743625E+04  0.23816743625E+04  0.00000000000E+00 0. -1.
         -2   -1    0    0    0  501 -0.00000000000E+00 -0.00000000000E+00 -0.27121041846E+03  0.27121041846E+03  0.00000000000E+00 0.  1.
        -24    2    1    2    0    0  0.52878891087E+03 -0.12866323480E+03  0.16083261102E+04  0.16997367629E+04  0.78868536059E+02 0.  0.
    5000000    2    1    2    0    0 -0.52878891087E+03  0.12866323480E+03  0.50213783382E+03  0.95314801810E+03  0.60014731525E+03 0.  0.
        -24    2    4    4    0    0  0.71802809926E+02 -0.72498954802E+02  0.22015134176E+03  0.25536071483E+03  0.79565943978E+02 0.  0.
         24    2    4    4    0    0 -0.60059172080E+03  0.20116218960E+03  0.28198649207E+03  0.69778730327E+03  0.78829545722E+02 0.  0.
         13    1    3    3    0    0  0.22826926041E+03 -0.32716883255E+02  0.77993203088E+03  0.81330881127E+03  0.00000000000E+00 0. -1.
        -14    1    3    3    0    0  0.30051965046E+03 -0.95946351547E+02  0.82839407936E+03  0.88642795162E+03  0.00000000000E+00 0.  1.
         15    1    5    5    0    0  0.16369048202E+02 -0.71961942686E+02  0.13146745339E+03  0.15077571411E+03  0.17770000000E+01 0. -1.
        -16    1    5    5    0    0  0.55433761724E+02 -0.53701211543E+00  0.88683888365E+02  0.10458500072E+03  0.00000000000E+00 0.  1.
          2    1    6    6  502    0 -0.52277518508E+03  0.15024946520E+03  0.25639682521E+03  0.60133861335E+03  0.00000000000E+00 0. -1.
         -1    1    6    6    0  502 -0.77816535722E+02  0.50912724401E+02  0.25589666853E+02  0.96448689920E+02  0.00000000000E+00 0.  1.
<mgrwt>
<rscale>  0 0.65612724E+03</rscale>
<asrwt>0</asrwt>
<pdfrwt beam="1">  1        1 0.36641143E+00 0.65612724E+03</pdfrwt>
<pdfrwt beam="2">  1       -2 0.41724681E-01 0.65612724E+03</pdfrwt>
<totfact> 0.83367845E+00</totfact>
</mgrwt>
</event>
<event>
12    3  0.1201947E-007  0.9399259E+03  0.7818608E-02  0.9377004E-01
         -2   -1    0    0    0  501 -0.00000000000E+00  0.00000000000E+00  0.71392488233E+03  0.71392488233E+03  0.00000000000E+00 0.  1.
          1   -1    0    0  501    0  0.00000000000E+00 -0.00000000000E+00 -0.17782466021E+04  0.17782466021E+04  0.00000000000E+00 0. -1.
        -24    2    1    2    0    0 -0.11258891627E+03  0.83555426151E+03  0.18819132153E+03  0.86749751477E+03  0.79427807683E+02 0.  0.
    5000000    2    1    2    0    0  0.11258891627E+03 -0.83555426151E+03 -0.12525130413E+04  0.16246739697E+04  0.59995783275E+03 0.  0.
        -24    2    4    4    0    0  0.34603096333E+03 -0.40636658229E+03 -0.63225750712E+03  0.83101935202E+03  0.77281183573E+02 0.  0.
         24    2    4    4    0    0 -0.23344204706E+03 -0.42918767922E+03 -0.62025553419E+03  0.79365461765E+03  0.80457883999E+02 0.  0.
         13    1    3    3    0    0 -0.83387445610E+02  0.77568194675E+03  0.17645271034E+03  0.79985717949E+03  0.00000000000E+00 0. -1.
        -14    1    3    3    0    0 -0.29201470660E+02  0.59872314764E+02  0.11738611187E+02  0.67640335278E+02  0.00000000000E+00 0.  1.
         15    1    5    5    0    0  0.18424260866E+03 -0.26735799702E+03 -0.35309480507E+03  0.47969233527E+03  0.17770000000E+01 0. -1.
        -16    1    5    5    0    0  0.16178835467E+03 -0.13900858528E+03 -0.27916270205E+03  0.35132701676E+03  0.00000000000E+00 0.  1.
          4    1    6    6  502    0 -0.18882108875E+03 -0.39837414225E+03 -0.54829543391E+03  0.70355045563E+03  0.00000000000E+00 0. -1.
         -3    1    6    6    0  502 -0.44620958317E+02 -0.30813536967E+02 -0.71960100278E+02  0.90104162022E+02  0.00000000000E+00 0.  1.
<mgrwt>
<rscale>  0 0.93992588E+03</rscale>
<asrwt>0</asrwt>
<pdfrwt beam="1">  1        1 0.27357639E+00 0.93992588E+03</pdfrwt>
<pdfrwt beam="2">  1       -2 0.10983460E+00 0.93992588E+03</pdfrwt>
<totfact> 0.24648283E+00</totfact>
</mgrwt>
</event>
<event>
12    3  0.1201947E-007  0.9527813E+03  0.7818608E-02  0.9361906E-01
         -2   -1    0    0    0  501 -0.00000000000E+00  0.00000000000E+00  0.75463182118E+03  0.75463182118E+03  0.00000000000E+00 0.  1.
          1   -1    0    0  501    0  0.00000000000E+00 -0.00000000000E+00 -0.13433986213E+04  0.13433986213E+04  0.00000000000E+00 0. -1.
        -24    2    1    2    0    0  0.86885787642E+03  0.10563551288E+03  0.11970310918E+02  0.87862433791E+03  0.75924751052E+02 0.  0.
    5000000    2    1    2    0    0 -0.86885787642E+03 -0.10563551288E+03 -0.60073711099E+03  0.12194061045E+04  0.59999441686E+03 0.  0.
        -24    2    4    4    0    0 -0.79670943682E+03 -0.27374150659E+03 -0.39595342689E+03  0.93390413519E+03  0.75614008657E+02 0.  0.
         24    2    4    4    0    0 -0.72148439600E+02  0.16810599371E+03 -0.20478368411E+03  0.28550196935E+03  0.78166455528E+02 0.  0.
         11    1    3    3    0    0  0.42940246946E+03  0.54949766110E+02  0.43786807549E+02  0.43511290729E+03  0.00000000000E+00 0. -1.
        -12    1    3    3    0    0  0.43945540696E+03  0.50685746769E+02 -0.31816496632E+02  0.44351143062E+03  0.00000000000E+00 0.  1.
         15    1    5    5    0    0 -0.46325457786E+03 -0.19519469978E+03 -0.21921395098E+03  0.54841926367E+03  0.17770000000E+01 0. -1.
        -16    1    5    5    0    0 -0.33345485895E+03 -0.78546806810E+02 -0.17673947591E+03  0.38548487151E+03  0.00000000000E+00 0.  1.
          2    1    6    6  502    0 -0.67711009586E+00  0.25352316730E+02 -0.76829459012E+02  0.80907133269E+02  0.00000000000E+00 0. -1.
         -3    1    6    6    0  502 -0.71471329504E+02  0.14275367698E+03 -0.12795422509E+03  0.20459483608E+03  0.00000000000E+00 0.  1.
<mgrwt>
<rscale>  0 0.95278129E+03</rscale>
<asrwt>0</asrwt>
<pdfrwt beam="1">  1        1 0.20667671E+00 0.95278129E+03</pdfrwt>
<pdfrwt beam="2">  1       -2 0.11609720E+00 0.95278129E+03</pdfrwt>
<totfact> 0.42735804E+00</totfact>
</mgrwt>
</event>
<event>
12    3  0.1201947E-007  0.3780716E+03  0.7818608E-02  0.1051649E+00
          1   -1    0    0  501    0  0.00000000000E+00  0.00000000000E+00  0.62222970247E+03  0.62222970247E+03  0.00000000000E+00 0. -1.
         -2   -1    0    0    0  501 -0.00000000000E+00 -0.00000000000E+00 -0.24740128537E+03  0.24740128537E+03  0.00000000000E+00 0.  1.
        -24    2    1    2    0    0  0.93999578210E+02 -0.11439350222E+03  0.58713919986E+02  0.17553043561E+03  0.73768661178E+02 0.  0.
    5000000    2    1    2    0    0 -0.93999578210E+02  0.11439350222E+03  0.31611449712E+03  0.69410055223E+03  0.59993783617E+03 0.  0.
        -24    2    4    4    0    0  0.12997119825E+03  0.28249258179E+03  0.11674488476E+03  0.34126783092E+03  0.78356832287E+02 0.  0.
         24    2    4    4    0    0 -0.22397077646E+03 -0.16809907957E+03  0.19936961236E+03  0.35283272131E+03  0.79514009058E+02 0.  0.
         13    1    3    3    0    0 -0.23577381394E+01 -0.46979992120E+02  0.24604935622E+02  0.53085604882E+02  0.00000000000E+00 0. -1.
        -14    1    3    3    0    0  0.96357316350E+02 -0.67413510101E+02  0.34108984364E+02  0.12244483073E+03  0.00000000000E+00 0.  1.
         15    1    5    5    0    0  0.96796215704E+02  0.21633064016E+03  0.12294277543E+03  0.26699538761E+03  0.17770000000E+01 0. -1.
        -16    1    5    5    0    0  0.33174982541E+02  0.66161941630E+02 -0.61978906686E+01  0.74272443312E+02  0.00000000000E+00 0.  1.
          2    1    6    6  502    0 -0.11548326838E+03 -0.96588548935E+02  0.15358209458E+03  0.21506555474E+03  0.00000000000E+00 0. -1.
         -1    1    6    6    0  502 -0.10848750807E+03 -0.71510530635E+02  0.45787517780E+02  0.13776716657E+03  0.00000000000E+00 0.  1.
<mgrwt>
<rscale>  0 0.37807164E+03</rscale>
<asrwt>0</asrwt>
<pdfrwt beam="1">  1        1 0.95727646E-01 0.37807164E+03</pdfrwt>
<pdfrwt beam="2">  1       -2 0.38061736E-01 0.37807164E+03</pdfrwt>
<totfact> 0.19222350E+02</totfact>
</mgrwt>
</event>
<event>
12    3  0.1201947E-007  0.4669404E+03  0.7818608E-02  0.1022787E+00
         -2   -1    0    0    0  501 -0.00000000000E+00  0.00000000000E+00  0.29976960546E+03  0.29976960546E+03  0.00000000000E+00 0.  1.
          1   -1    0    0  501    0  0.00000000000E+00 -0.00000000000E+00 -0.82264447681E+03  0.82264447681E+03  0.00000000000E+00 0. -1.
        -24    2    1    2    0    0 -0.28079589857E+03 -0.10461886226E+02 -0.23148410034E+02  0.29256452277E+03  0.78117625297E+02 0.  0.
    5000000    2    1    2    0    0  0.28079589857E+03  0.10461886226E+02 -0.49972646132E+03  0.82984955950E+03  0.59997330569E+03 0.  0.
        -24    2    4    4    0    0  0.40522761918E+03 -0.14962592286E+03 -0.38324725522E+03  0.58274106934E+03  0.78175156704E+02 0.  0.
         24    2    4    4    0    0 -0.12443172061E+03  0.16008780908E+03 -0.11647920610E+03  0.24710849016E+03  0.79898940831E+02 0.  0.
         11    1    3    3    0    0 -0.50441582335E+02 -0.19881486769E+02 -0.29904854350E+02  0.61918713313E+02  0.00000000000E+00 0. -1.
        -12    1    3    3    0    0 -0.23035431624E+03  0.94196005432E+01  0.67564443165E+01  0.23064580946E+03  0.00000000000E+00 0.  1.
         15    1    5    5    0    0  0.32876602713E+03 -0.15145769921E+03 -0.30530596219E+03  0.47354136411E+03  0.17770000000E+01 0. -1.
        -16    1    5    5    0    0  0.76461592047E+02  0.18317763540E+01 -0.77941293024E+02  0.10919970522E+03  0.00000000000E+00 0.  1.
          2    1    6    6  502    0 -0.11362661952E+03  0.10565834795E+03 -0.11215065829E+03  0.19144833588E+03  0.00000000000E+00 0. -1.
         -1    1    6    6    0  502 -0.10805101085E+02  0.54429461134E+02 -0.43285478101E+01  0.55660154284E+02  0.00000000000E+00 0.  1.
<mgrwt>
<rscale>  0 0.46694037E+03</rscale>
<asrwt>0</asrwt>
<pdfrwt beam="1">  1        1 0.12656069E+00 0.46694037E+03</pdfrwt>
<pdfrwt beam="2">  1       -2 0.46118401E-01 0.46694037E+03</pdfrwt>
<totfact> 0.86161311E+01</totfact>
</mgrwt>
</event>
<event>
12    3  0.1201947E-007  0.6199145E+03  0.7818608E-02  0.9864930E-01
          1   -1    0    0  501    0  0.00000000000E+00  0.00000000000E+00  0.34612661291E+04  0.34612661291E+04  0.00000000000E+00 0. -1.
         -2   -1    0    0    0  501 -0.00000000000E+00 -0.00000000000E+00 -0.13554291819E+03  0.13554291819E+03  0.00000000000E+00 0.  1.
        -24    2    1    2    0    0  0.46094892500E+02  0.47528097518E+03  0.20667446882E+04  0.21227269701E+04  0.80743042503E+02 0.  0.
    5000000    2    1    2    0    0 -0.46094892500E+02 -0.47528097518E+03  0.12589785227E+04  0.14740820772E+04  0.59989524517E+03 0.  0.
        -24    2    4    4    0    0 -0.30612161823E+03 -0.22496717827E+03  0.75746530367E+03  0.85106846919E+03  0.79013774334E+02 0.  0.
         24    2    4    4    0    0  0.26002672573E+03 -0.25031379691E+03  0.50151321905E+03  0.62301360802E+03  0.79746798540E+02 0.  0.
         11    1    3    3    0    0  0.54960843874E+02  0.17488414079E+03  0.82761712458E+03  0.84767638988E+03  0.00000000000E+00 0. -1.
        -12    1    3    3    0    0 -0.88659513744E+01  0.30039683439E+03  0.12391275636E+04  0.12750505802E+04  0.00000000000E+00 0.  1.
         15    1    5    5    0    0 -0.12363456244E+03 -0.49463189368E+02  0.22464186227E+03  0.26114983466E+03  0.17770000000E+01 0. -1.
        -16    1    5    5    0    0 -0.18248705579E+03 -0.17550398890E+03  0.53282344140E+03  0.58991863453E+03  0.00000000000E+00 0.  1.
          2    1    6    6  502    0  0.99193648604E+02 -0.15078265818E+03  0.24245605860E+03  0.30225772163E+03  0.00000000000E+00 0. -1.
         -1    1    6    6    0  502  0.16083307712E+03 -0.99531138726E+02  0.25905716045E+03  0.32075588639E+03  0.00000000000E+00 0.  1.
<mgrwt>
<rscale>  0 0.61991446E+03</rscale>
<asrwt>0</asrwt>
<pdfrwt beam="1">  1        1 0.53250241E+00 0.61991446E+03</pdfrwt>
<pdfrwt beam="2">  1       -2 0.20852759E-01 0.61991446E+03</pdfrwt>
<totfact> 0.51625586E+00</totfact>
</mgrwt>
</event>
<event>
12    3  0.1201947E-007  0.5441000E+03  0.7818608E-02  0.1002869E+00
          1   -1    0    0  501    0  0.00000000000E+00  0.00000000000E+00  0.22987842770E+04  0.22987842770E+04  0.00000000000E+00 0. -1.
         -2   -1    0    0    0  501 -0.00000000000E+00 -0.00000000000E+00 -0.14038686158E+03  0.14038686158E+03  0.00000000000E+00 0.  1.
        -24    2    1    2    0    0 -0.39947006954E+03 -0.77017913270E+00  0.64404271834E+03  0.76206200002E+03  0.79815657528E+02 0.  0.
    5000000    2    1    2    0    0  0.39947006954E+03  0.77017913270E+00  0.15143546971E+04  0.16771091386E+04  0.59987330702E+03 0.  0.
        -24    2    4    4    0    0 -0.12315371058E+03 -0.56952592458E+02  0.17370448696E+03  0.23458627746E+03  0.80293452814E+02 0.  0.
         24    2    4    4    0    0  0.52262378013E+03  0.57722771590E+02  0.13406502102E+04  0.14425228611E+04  0.84033832578E+02 0.  0.
         11    1    3    3    0    0 -0.11355986692E+03 -0.34581571052E+02  0.20962104806E+03  0.24089979706E+03  0.00000000000E+00 0. -1.
        -12    1    3    3    0    0 -0.28591020262E+03  0.33811391919E+02  0.43442167028E+03  0.52116220296E+03  0.00000000000E+00 0.  1.
         15    1    5    5    0    0 -0.11647699245E+03 -0.24871048480E+02  0.10635173554E+03  0.15968502812E+03  0.17770000000E+01 0. -1.
        -16    1    5    5    0    0 -0.66767181281E+01 -0.32081543977E+02  0.67352751427E+02  0.74901249347E+02  0.00000000000E+00 0.  1.
          4    1    6    6  502    0  0.22483702608E+03 -0.70770792517E+01  0.64303196562E+03  0.68124289512E+03  0.00000000000E+00 0. -1.
         -3    1    6    6    0  502  0.29778675404E+03  0.64799850842E+02  0.69761824454E+03  0.76127996602E+03  0.00000000000E+00 0.  1.
<mgrwt>
<rscale>  0 0.54410000E+03</rscale>
<asrwt>0</asrwt>
<pdfrwt beam="1">  1        1 0.35365909E+00 0.54410000E+03</pdfrwt>
<pdfrwt beam="2">  1       -2 0.21597980E-01 0.54410000E+03</pdfrwt>
<totfact> 0.32762272E+01</totfact>
</mgrwt>
</event>
<event>
12    3  0.1201947E-007  0.1609712E+04  0.7818608E-02  0.8814603E-01
          1   -1    0    0  501    0  0.00000000000E+00  0.00000000000E+00  0.28203413656E+04  0.28203413656E+04  0.00000000000E+00 0. -1.
         -2   -1    0    0    0  501 -0.00000000000E+00 -0.00000000000E+00 -0.94410992068E+03  0.94410992068E+03  0.00000000000E+00 0.  1.
        -24    2    1    2    0    0 -0.15126302017E+04 -0.41845906613E+03  0.10667997305E+04  0.18994195141E+04  0.81084576352E+02 0.  0.
    5000000    2    1    2    0    0  0.15126302017E+04  0.41845906613E+03  0.80943171437E+03  0.18650317721E+04  0.60000474454E+03 0.  0.
        -24    2    4    4    0    0  0.31476098791E+02 -0.43107218152E+02 -0.28007747576E+02  0.10027460697E+03  0.80134797851E+02 0.  0.
         24    2    4    4    0    0  0.14811541029E+04  0.46156628429E+03  0.83743946195E+03  0.17647571651E+04  0.78753336363E+02 0.  0.
         11    1    3    3    0    0 -0.12030949350E+04 -0.35479030970E+03  0.82179995573E+03  0.14995561856E+04  0.00000000000E+00 0. -1.
        -12    1    3    3    0    0 -0.30953526671E+03 -0.63668756437E+02  0.24499977477E+03  0.39986332856E+03  0.00000000000E+00 0.  1.
         15    1    5    5    0    0  0.18913630747E+02 -0.66511571299E+02 -0.15368182764E+02  0.70857979898E+02  0.17770000000E+01 0. -1.
        -16    1    5    5    0    0  0.12562468044E+02  0.23404353147E+02 -0.12639564812E+02  0.29416627071E+02  0.00000000000E+00 0.  1.
          2    1    6    6  502    0  0.14194717547E+04  0.42536032211E+03  0.80172115219E+03  0.16848110493E+04  0.00000000000E+00 0. -1.
         -1    1    6    6    0  502  0.61682348242E+02  0.36205962181E+02  0.35718309757E+02  0.79946115816E+02  0.00000000000E+00 0.  1.
<mgrwt>
<rscale>  0 0.16097123E+04</rscale>
<asrwt>0</asrwt>
<pdfrwt beam="1">  1        1 0.43389867E+00 0.16097123E+04</pdfrwt>
<pdfrwt beam="2">  1       -2 0.14524768E+00 0.16097123E+04</pdfrwt>
<totfact> 0.21619670E-01</totfact>
</mgrwt>
</event>
<event>
12    3  0.1201947E-007  0.4366957E+03  0.7818608E-02  0.1031765E+00
          1   -1    0    0  501    0  0.00000000000E+00  0.00000000000E+00  0.97387572300E+03  0.97387572300E+03  0.00000000000E+00 0. -1.
         -2   -1    0    0    0  501 -0.00000000000E+00 -0.00000000000E+00 -0.58757702964E+03  0.58757702964E+03  0.00000000000E+00 0.  1.
        -24    2    1    2    0    0  0.28974276371E+03 -0.20686131561E+03 -0.37899505113E+03  0.52589975301E+03  0.78681817588E+02 0.  0.
    5000000    2    1    2    0    0 -0.28974276371E+03  0.20686131561E+03  0.76529374449E+03  0.10355529996E+04  0.59996085427E+03 0.  0.
        -24    2    4    4    0    0 -0.36628266096E+03  0.16123019875E+03  0.19318470465E+03  0.45128517136E+03  0.78611774370E+02 0.  0.
         24    2    4    4    0    0  0.76539897248E+02  0.45631116863E+02  0.57210903984E+03  0.58426782827E+03  0.78227789083E+02 0.  0.
         11    1    3    3    0    0  0.14165651605E+03 -0.97164166929E+02 -0.12662609606E+03  0.21340480800E+03  0.00000000000E+00 0. -1.
        -12    1    3    3    0    0  0.14808624766E+03 -0.10969714868E+03 -0.25236895507E+03  0.31249494501E+03  0.00000000000E+00 0.  1.
         15    1    5    5    0    0 -0.17376537664E+03  0.69393463915E+02  0.47724722346E+02  0.19310791233E+03  0.17770000000E+01 0. -1.
        -16    1    5    5    0    0 -0.19251728432E+03  0.91836734835E+02  0.14545998231E+03  0.25817725903E+03  0.00000000000E+00 0.  1.
          4    1    6    6  502    0  0.11621353296E+02  0.50485856919E+02  0.30297745367E+03  0.30737471437E+03  0.00000000000E+00 0. -1.
         -3    1    6    6    0  502  0.64918543951E+02 -0.48547400567E+01  0.26913158617E+03  0.27689311390E+03  0.00000000000E+00 0.  1.
<mgrwt>
<rscale>  0 0.43669573E+03</rscale>
<asrwt>0</asrwt>
<pdfrwt beam="1">  1        1 0.14982703E+00 0.43669573E+03</pdfrwt>
<pdfrwt beam="2">  1       -2 0.90396466E-01 0.43669573E+03</pdfrwt>
<totfact> 0.15573409E+01</totfact>
</mgrwt>
</event>
<event>
12    3  0.1201947E-007  0.1115211E+04  0.7818608E-02  0.9190492E-01
         -2   -1    0    0    0  501 -0.00000000000E+00  0.00000000000E+00  0.22565787450E+04  0.22565787450E+04  0.00000000000E+00 0.  1.
          1   -1    0    0  501    0  0.00000000000E+00 -0.00000000000E+00 -0.67014394368E+03  0.67014394368E+03  0.00000000000E+00 0. -1.
        -24    2    1    2    0    0 -0.96743598582E+03 -0.37606297767E+03  0.14298879827E+03  0.10503374863E+04  0.73534269433E+02 0.  0.
    5000000    2    1    2    0    0  0.96743598582E+03  0.37606297767E+03  0.14434460030E+04  0.18763852024E+04  0.59994109233E+03 0.  0.
        -24    2    4    4    0    0  0.38797360039E+03  0.45552041012E+03  0.64202036207E+03  0.88103838825E+03  0.77563764949E+02 0.  0.
         24    2    4    4    0    0  0.57946238544E+03 -0.79457432454E+02  0.80142564097E+03  0.99534681415E+03  0.79637194337E+02 0.  0.
         11    1    3    3    0    0 -0.68120752143E+03 -0.23203158038E+03  0.83965123077E+02  0.72452224496E+03  0.00000000000E+00 0. -1.
        -12    1    3    3    0    0 -0.28622846440E+03 -0.14403139728E+03  0.59023675192E+02  0.32581524130E+03  0.00000000000E+00 0.  1.
         15    1    5    5    0    0  0.68805014905E+02  0.46727502322E+02  0.11164121864E+03  0.13922826214E+03  0.17770000000E+01 0. -1.
        -16    1    5    5    0    0  0.31916858548E+03  0.40879290780E+03  0.53037914343E+03  0.74181012612E+03  0.00000000000E+00 0.  1.
          2    1    6    6  502    0  0.28448887785E+03 -0.60092186558E+01  0.42582369375E+03  0.51214827002E+03  0.00000000000E+00 0. -1.
         -1    1    6    6    0  502  0.29497350759E+03 -0.73448213798E+02  0.37560194722E+03  0.48319854413E+03  0.00000000000E+00 0.  1.
<mgrwt>
<rscale>  0 0.11152107E+04</rscale>
<asrwt>0</asrwt>
<pdfrwt beam="1">  1        1 0.10309907E+00 0.11152107E+04</pdfrwt>
<pdfrwt beam="2">  1       -2 0.34716596E+00 0.11152107E+04</pdfrwt>
<totfact> 0.41328723E-01</totfact>
</mgrwt>
</event>
<event>
12    3  0.1201947E-007  0.5377278E+03  0.7818608E-02  0.1004375E+00
          1   -1    0    0  501    0  0.00000000000E+00  0.00000000000E+00  0.71930994037E+03  0.71930994037E+03  0.00000000000E+00 0. -1.
         -2   -1    0    0    0  501 -0.00000000000E+00 -0.00000000000E+00 -0.74318629290E+03  0.74318629290E+03  0.00000000000E+00 0.  1.
        -24    2    1    2    0    0  0.35254931065E+03  0.37255296909E+03  0.31098576386E+03  0.60512313215E+03  0.79844401959E+02 0.  0.
    5000000    2    1    2    0    0 -0.35254931065E+03 -0.37255296909E+03 -0.33486211638E+03  0.85737310112E+03  0.59989104538E+03 0.  0.
        -24    2    4    4    0    0 -0.18091455465E+03 -0.51252587019E+02  0.14440512181E+03  0.24993657289E+03  0.79110982194E+02 0.  0.
         24    2    4    4    0    0 -0.17163475600E+03 -0.32130038207E+03 -0.47926723819E+03  0.60743652823E+03  0.81176506731E+02 0.  0.
         13    1    3    3    0    0  0.13440308656E+03  0.16803704190E+03  0.89690143654E+02  0.23312005276E+03  0.00000000000E+00 0. -1.
        -14    1    3    3    0    0  0.21814622409E+03  0.20451592719E+03  0.22129562020E+03  0.37200307939E+03  0.00000000000E+00 0.  1.
         15    1    5    5    0    0 -0.15340286856E+02 -0.45816474374E+00  0.50741062063E+02  0.53040997578E+02  0.17770000000E+01 0. -1.
        -16    1    5    5    0    0 -0.16557426780E+03 -0.50794422275E+02  0.93664059744E+02  0.19689557532E+03  0.00000000000E+00 0.  1.
          2    1    6    6  502    0 -0.53811728489E+02 -0.18392684243E+03 -0.26350114856E+03  0.32581841689E+03  0.00000000000E+00 0. -1.
         -1    1    6    6    0  502 -0.11782302751E+03 -0.13737353964E+03 -0.21576608962E+03  0.28161811134E+03  0.00000000000E+00 0.  1.
<mgrwt>
<rscale>  0 0.53772781E+03</rscale>
<asrwt>0</asrwt>
<pdfrwt beam="1">  1        1 0.11066307E+00 0.53772781E+03</pdfrwt>
<pdfrwt beam="2">  1       -2 0.11433635E+00 0.53772781E+03</pdfrwt>
<totfact> 0.14330658E+01</totfact>
</mgrwt>
</event>
